Membrane in water
40167
    1TCq1    O1    1   1.494   0.908  11.179  0.2093 -0.1226 -0.2724
    1TCq1    C1    2   1.457   1.035  11.184 -0.3114  0.0189  0.6994
    1TCq1    O2    3   1.445   1.111  11.093  0.3727  0.5672 -0.5389
    1TCq1    C2    4   1.406   1.074  11.314 -0.6329  0.4026  0.0642
    1TCq1    C3    5   1.423   1.205  11.348 -0.3021 -0.2810 -0.4283
    1TCq1    C4    6   1.402   1.243  11.474 -0.1963 -0.3317  0.4268
    1TCq1    C5    7   1.365   1.149  11.565 -0.5316 -0.0704  0.1991
    1TCq1    C6    8   1.350   1.019  11.524  0.4450  0.4807 -0.2426
    1TCq1    C7    9   1.365   0.979  11.399  0.6216  0.3883 -0.3288
    1TCq1    C8   10   1.322   0.919  11.628  0.6153 -0.3327  0.2976
    1TCq1    O4   11   1.352   0.942  11.745 -0.4477 -0.3049 -0.0670
    1TCq1    C9   12   1.444   1.372  11.522  0.4371  0.3672 -0.2177
    1TCq1    O5   13   1.455   1.388  11.648 -1.1346  0.0671  0.1920
    1TCq1    O6   14   1.501   1.444  11.431  0.1831  0.6199 -0.0268
    1TCq1    H1   15   1.503   0.861  11.265 -0.6696  1.1272  0.5012
    1TCq1    H2   16   1.451   1.281  11.276 -0.4337  1.5888  1.5220
    1TCq1    H3   17   1.371   1.172  11.671 -1.1849 -2.3939  0.7423
    1TCq1    H4   18   1.347   0.882  11.354  0.9209  0.2615 -0.1765
    2MPD2     C   19   1.200   0.447  11.770  0.1613  0.4874 -0.3916
    2MPD2    C1   20   1.276   0.541  11.832  0.8385 -0.2048 -0.5015
    2MPD2    C2   21   1.296   0.660  11.768  0.4570 -0.5856  0.4236
    2MPD2    C3   22   1.234   0.690  11.645 -0.3787  0.0530  0.0970
    2MPD2    C4   23   1.155   0.593  11.585  0.2745 -0.2488  0.1334
    2MPD2    C5   24   1.140   0.478  11.654  0.6995 -0.2547  0.4159
    2MPD2     H   25   1.354   0.738  11.816 -2.0141  0.7553  1.2404
    2MPD2    H1   26   1.107   0.607  11.488 -0.8460 -1.2760  0.5439
    2MPD2    H2   27   1.177   0.349  11.809 -1.5086  1.1689  0.3798
    2MPD2    H3   28   1.082   0.401  11.604 -0.8836 -0.8950  3.1992
    2MPD2     N   29   1.257   0.812  11.577  0.2397 -0.5964 -0.2082
    2MPD2    H5   30   1.238   0.811  11.477  0.9481 -0.4113 -0.3517
    2MPD2    N1   31   1.331   0.533  11.959  0.2330  0.1312 -0.1184
    2MPD2    H7   32   1.393   0.607  11.990 -0.4705  1.2502 -1.4064
    3TCq1    O1   33   0.414   1.298  10.725  0.1089  0.5061  0.5816
    3TCq1    C1   34   0.336   1.325  10.616 -0.5256 -0.2603  0.8207
    3TCq1    O2   35   0.270   1.244  10.553  0.2031  0.4906  0.4023
    3TCq1    C2   36   0.298   1.458  10.641 -0.2399  0.2358 -0.3569
    3TCq1    C3   37   0.162   1.487  10.629 -0.7036 -0.5430 -0.1471
    3TCq1    C4   38   0.120   1.614  10.655 -0.1622 -0.4125 -0.1110
    3TCq1    C5   39   0.215   1.708  10.691 -0.8035 -0.0562  0.4316
    3TCq1    C6   40   0.345   1.676  10.711 -0.2684 -1.0664  0.1524
    3TCq1    C7   41   0.392   1.546  10.685 -0.9765 -0.2653 -1.0799
    3TCq1    C8   42   0.423   1.777  10.777  0.4485 -0.0306 -0.6691
    3TCq1    O4   43   0.546   1.765  10.782  0.1531  0.2111  0.6029
    3TCq1    C9   44   4.709   1.659  10.618 -0.4610 -0.0296 -0.1151
    3TCq1    O5   45   4.704   1.788  10.600 -0.0436 -0.1580  0.0089
    3TCq1    O6   46   4.619   1.575  10.609  0.5413 -0.4033 -0.6032
    3TCq1    H1   47   0.423   1.374  10.786 -0.2197  1.2234 -0.2620
    3TCq1    H2   48   0.098   1.410  10.586 -0.5674 -0.9880  0.4454
    3TCq1    H3   49   0.180   1.810  10.679  0.4310  0.3425  0.2469
    3TCq1    H4   50   0.497   1.520  10.695 -1.6403 -2.6497 -0.3800
    4MPD2     C   51   0.449   2.175  11.119 -0.3570 -0.1149  0.1359
    4MPD2    C1   52   0.321   2.126  11.113 -0.0132 -0.0757 -0.3205
    4MPD2    C2   53   0.288   2.026  11.028  0.4865 -0.4901  0.0130
    4MPD2    C3   54   0.385   1.958  10.946 -0.3101 -0.3085  0.5481
    4MPD2    C4   55   0.517   2.005  10.957  0.1468 -0.1142  0.3645
    4MPD2    C5   56   0.548   2.111  11.046 -0.9042 -0.3924 -0.4520
    4MPD2     H   57   0.184   1.997  11.027 -0.1228  1.7034 -0.4642
    4MPD2    H1   58   0.605   1.957  10.916 -0.2410  2.2071 -3.2202
    4MPD2    H2   59   0.473   2.267  11.170  1.0398 -1.1697  1.3714
    4MPD2    H3   60   0.646   2.155  11.061 -0.3796 -0.9387 -2.2486
    4MPD2     N   61   0.345   1.852  10.859 -0.1421  0.3445  0.0035
    4MPD2    H5   62   0.251   1.814  10.868  0.4420 -1.1842 -0.4066
    4MPD2    N1   63   0.211   2.187  11.184  0.0744 -0.3284 -0.1786
    4MPD2    H7   64   0.116   2.156  11.166  0.1114 -0.6173  0.1153
    5TCq1    O1   65   0.992   2.846  11.907  0.1171 -0.5179 -0.2322
    5TCq1    C1   66   1.049   2.827  11.790  0.2035  0.1488 -0.0525
    5TCq1    O2   67   1.139   2.747  11.774  0.3015  0.2349  0.9294
    5TCq1    C2   68   0.962   2.872  11.690  0.0582 -0.2885 -0.6815
    5TCq1    C3   69   0.905   2.994  11.705 -0.1459  0.2331  0.0941
    5TCq1    C4   70   0.800   3.030  11.631 -0.2813  0.0287 -0.4927
    5TCq1    C5   71   0.749   2.949  11.532 -0.3186 -0.0702  0.2736
    5TCq1    C6   72   0.820   2.832  11.504  0.5959 -0.7936 -0.8408
    5TCq1    C7   73   0.930   2.793  11.585 -0.0755  0.3393  0.4774
    5TCq1    C8   74   0.768   2.753  11.402  0.0381 -0.1231  0.2758
    5TCq1    O4   75   0.849   2.674  11.359 -0.1752  0.4650 -0.9067
    5TCq1    C9   76   0.732   3.149  11.654 -1.0441 -0.0679  0.8235
    5TCq1    O5   77   0.775   3.218  11.752 -0.3247  0.3301  0.8555
    5TCq1    O6   78   0.641   3.182  11.571  0.2876  0.5507 -0.0453
    5TCq1    H1   79   0.910   2.900  11.910  0.8100  0.4482  1.5099
    5TCq1    H2   80   0.933   3.060  11.786 -0.4563 -0.0970  0.4707
    5TCq1    H3   81   0.672   2.989  11.467  0.2142  0.6332  0.0882
    5TCq1    H4   82   0.970   2.692  11.582  1.9926  1.2103 -0.7102
    6MPD2     C   83   0.436   2.703  11.279  0.0279 -0.1741  0.5626
    6MPD2    C1   84   0.570   2.684  11.289 -0.2388 -0.1950 -0.3067
    6MPD2    C2   85   0.627   2.609  11.190 -0.0479  0.0521 -0.2825
    6MPD2    C3   86   0.549   2.542  11.091 -0.5656  0.0841  0.9025
    6MPD2    C4   87   0.416   2.576  11.087  1.2282  0.7247 -0.1784
    6MPD2    C5   88   0.360   2.652  11.186  0.1157  0.0921  0.7371
    6MPD2     H   89   0.735   2.600  11.185 -0.3506 -3.3112 -1.0101
    6MPD2    H1   90   0.346   2.533  11.016  0.5201  1.7207 -0.0727
    6MPD2    H2   91   0.393   2.770  11.353 -0.1307 -0.4683  0.7388
    6MPD2    H3   92   0.252   2.663  11.183  0.1317  0.3755  1.1618
    6MPD2     N   93   0.616   2.454  10.997  0.0256 -0.3809 -0.2970
    6MPD2    H5   94   0.711   2.427  11.020  0.1470 -0.1850 -0.5614
    6MPD2    N1   95   0.635   2.758  11.393  0.2206  0.1025 -0.3046
    6MPD2    H7   96   0.574   2.799  11.463  2.2734  1.4138  0.6934
    7TCq1    O1   97   3.188   3.606  13.426  0.5891 -0.5328 -0.3293
    7TCq1    C1   98   3.286   3.608  13.329  1.2872  0.1626 -0.5806
    7TCq1    O2   99   3.338   3.716  13.308 -0.1898  0.6233  0.0292
    7TCq1    C2  100   3.248   3.512  13.222 -0.1637 -0.5448 -0.2935
    7TCq1    C3  101   3.256   3.560  13.096 -0.5970 -0.0539 -0.3263
    7TCq1    C4  102   3.225   3.477  12.992  0.0618  0.6944 -0.2260
    7TCq1    C5  103   3.206   3.346  13.021 -0.4553  0.2861  0.0001
    7TCq1    C6  104   3.211   3.297  13.153  1.0264 -0.5493 -0.1007
    7TCq1    C7  105   3.225   3.384  13.259 -0.6874 -0.0862  0.3470
    7TCq1    C8  106   3.181   3.156  13.181 -0.1790  0.4005  0.2883
    7TCq1    O4  107   3.221   3.072  13.105 -0.6874  0.3183 -0.3931
    7TCq1    C9  108   3.217   3.524  12.863 -0.4567  0.8564  0.3147
    7TCq1    O5  109   3.203   3.647  12.843 -0.0223  0.0968 -0.1608
    7TCq1    O6  110   3.183   3.436  12.782 -0.1418  0.2566 -0.7536
    7TCq1    H1  111   3.134   3.524  13.418  0.6148 -0.4744 -1.0666
    7TCq1    H2  112   3.299   3.657  13.075 -0.3396  0.7506  3.9480
    7TCq1    H3  113   3.180   3.280  12.939 -1.6863  0.9745 -0.1721
    7TCq1    H4  114   3.244   3.349  13.360 -1.9398 -1.3532  0.1437
    8MPD2     C  115   3.075   2.766  13.524 -0.3244 -0.3741 -0.5281
    8MPD2    C1  116   3.124   2.757  13.398 -0.5518  0.1912 -0.9029
    8MPD2    C2  117   3.125   2.871  13.313 -0.0338 -0.2744  0.2330
    8MPD2    C3  118   3.094   2.998  13.364  0.2342 -0.0899 -0.8366
    8MPD2    C4  119   3.040   3.001  13.493 -0.1274  0.2392 -0.2393
    8MPD2    C5  120   3.032   2.889  13.569  0.8743  0.6669 -0.1675
    8MPD2     H  121   3.162   2.867  13.211 -2.0788  0.1802 -0.5337
    8MPD2    H1  122   3.012   3.095  13.537 -1.7769 -0.4506  0.1883
    8MPD2    H2  123   3.090   2.686  13.596  0.7617 -0.3231 -0.6930
    8MPD2    H3  124   2.993   2.900  13.669  0.5671 -2.0383  0.0147
    8MPD2     N  125   3.134   3.127  13.310 -0.5201 -0.4190 -0.6740
    8MPD2    H5  126   3.103   3.211  13.360 -1.2506 -1.2262  0.2253
    8MPD2    N1  127   3.168   2.628  13.358 -0.2066  0.0547  0.0042
    8MPD2    H7  128   3.183   2.566  13.437  1.7169  1.2535  0.5897
    9TCq1    O1  129   1.827   0.986  11.005 -0.5504  0.1843 -0.5955
    9TCq1    C1  130   1.785   1.021  10.884 -0.1316 -0.0034  0.0191
    9TCq1    O2  131   1.716   0.940  10.822 -0.4611 -0.2858  0.3190
    9TCq1    C2  132   1.748   1.158  10.896  0.0447  0.1128  0.0036
    9TCq1    C3  133   1.859   1.241  10.908 -0.3333  0.3794  0.1503
    9TCq1    C4  134   1.839   1.381  10.890 -0.0337 -0.6432  0.0505
    9TCq1    C5  135   1.712   1.430  10.863  0.2214 -0.4939  0.1327
    9TCq1    C6  136   1.608   1.341  10.848  0.0176  0.1956  0.0201
    9TCq1    C7  137   1.623   1.204  10.877 -0.4316  0.2944  0.4623
    9TCq1    C8  138   1.477   1.393  10.837  0.1431 -0.0100  0.1430
    9TCq1    O4  139   1.460   1.501  10.781 -0.2764 -0.4449 -0.2623
    9TCq1    C9  140   1.946   1.480  10.911  0.0418 -0.2945  0.3373
    9TCq1    O5  141   1.910   1.600  10.930  0.3877  0.0007  0.6371
    9TCq1    O6  142   2.065   1.435  10.917 -0.6322  0.3062 -0.1285
    9TCq1    H1  143   1.850   1.057  11.069 -0.6163 -0.5472  0.2474
    9TCq1    H2  144   1.958   1.208  10.937 -0.4266 -0.1241 -0.1117
    9TCq1    H3  145   1.697   1.536  10.842 -1.7179 -0.8404 -0.2138
    9TCq1    H4  146   1.551   1.125  10.858 -0.6228  0.5554  0.0994
   10MPD2     C  147   1.202   1.487  10.873  0.2996 -0.1241  0.6553
   10MPD2    C1  148   1.258   1.392  10.956  0.9029  0.0700  1.3545
   10MPD2    C2  149   1.184   1.338  11.064  0.0032  0.2669  0.6719
   10MPD2    C3  150   1.065   1.397  11.090 -0.3826 -0.0121  0.6777
   10MPD2    C4  151   1.008   1.496  11.011  0.9932  0.2557 -0.6574
   10MPD2    C5  152   1.079   1.539  10.903 -0.3921 -0.0211 -0.6645
   10MPD2     H  153   1.221   1.259  11.128 -1.5193 -0.7775  0.2666
   10MPD2    H1  154   0.912   1.542  11.032  1.7562  0.9689  1.2305
   10MPD2    H2  155   1.251   1.517  10.781 -3.4123  0.4940 -1.1134
   10MPD2    H3  156   1.039   1.614  10.836 -0.1224  0.1006 -0.6907
   10MPD2     N  157   0.995   1.365  11.212 -0.9433  0.1661  0.3462
   10MPD2    H5  158   0.930   1.434  11.246 -0.0352  1.6077 -0.8303
   10MPD2    N1  159   1.392   1.343  10.937 -0.5170  0.5835  0.5879
   10MPD2    H7  160   1.429   1.274  11.001 -1.1378 -2.4960 -2.4065
   11TCq1    O1  161   1.991   1.292  13.735 -0.3143 -0.5798  0.2869
   11TCq1    C1  162   1.992   1.241  13.861 -0.1608  0.8571 -0.0780
   11TCq1    O2  163   1.993   1.119  13.882  0.1102  0.5549  0.1058
   11TCq1    C2  164   1.935   1.343  13.940  0.3402  0.4867 -0.1711
   11TCq1    C3  165   1.973   1.477  13.929  0.4279 -0.3439  0.4455
   11TCq1    C4  166   1.910   1.564  14.006  0.3497 -0.2489  0.0806
   11TCq1    C5  167   1.818   1.525  14.099 -0.3482 -0.3941  0.2459
   11TCq1    C6  168   1.780   1.397  14.104  0.1267  0.0941 -0.6916
   11TCq1    C7  169   1.841   1.304  14.029 -0.4262 -0.2994 -0.5107
   11TCq1    C8  170   1.681   1.363  14.210  0.7406 -0.5289 -0.3079
   11TCq1    O4  171   1.665   1.442  14.299 -0.2331 -0.1033  0.6953
   11TCq1    C9  172   1.936   1.704  13.971 -0.3333  0.2224 -0.7354
   11TCq1    O5  173   1.855   1.784  14.024 -0.4753 -0.5910 -0.0889
   11TCq1    O6  174   2.048   1.733  13.918 -0.0606  0.5273  0.5821
   11TCq1    H1  175   1.960   1.385  13.741 -1.4745 -0.7333 -3.2981
   11TCq1    H2  176   2.059   1.502  13.868  0.2508 -2.0411 -0.4905
   11TCq1    H3  177   1.765   1.595  14.161  0.1424 -0.5653  0.8567
   11TCq1    H4  178   1.812   1.199  14.032  0.9416 -0.6691 -0.1631
   12MPD2     C  179   1.472   1.223  14.381 -0.2592 -0.0098  0.3568
   12MPD2    C1  180   1.489   1.214  14.238 -0.0568  0.2639  0.7398
   12MPD2    C2  181   1.393   1.147  14.164 -0.5457  0.6275  0.6385
   12MPD2    C3  182   1.284   1.089  14.228 -1.1832  0.1104 -0.1365
   12MPD2    C4  183   1.261   1.116  14.365 -0.5257 -0.2355  0.0789
   12MPD2    C5  184   1.357   1.176  14.442  0.5809 -0.7095 -0.5337
   12MPD2     H  185   1.398   1.147  14.056 -0.7406  2.0207  0.6238
   12MPD2    H1  186   1.182   1.070  14.423  1.0797 -2.0063  0.8490
   12MPD2    H2  187   1.556   1.247  14.445 -0.7083  0.8182  0.6289
   12MPD2    H3  188   1.347   1.190  14.549 -1.1579 -0.6465 -0.6971
   12MPD2     N  189   1.200   1.012  14.145 -0.4881  0.0435 -0.2918
   12MPD2    H5  190   1.227   0.999  14.048 -1.4982 -1.1009 -0.4121
   12MPD2    N1  191   1.595   1.266  14.158 -0.3180 -0.7434 -0.0460
   12MPD2    H7  192   1.611   1.227  14.066 -1.5594 -2.5495  0.5055
   13TCq1    O1  193   1.524   0.084  11.071 -0.4194  0.1575  0.1668
   13TCq1    C1  194   1.574   0.184  10.996  0.6320  0.4035 -0.1377
   13TCq1    O2  195   1.685   0.195  10.952 -0.4587 -0.2864 -0.0979
   13TCq1    C2  196   1.466   0.279  10.968 -0.3615 -0.2991  0.4207
   13TCq1    C3  197   1.478   0.351  10.851  0.0153  1.0561 -0.1551
   13TCq1    C4  198   1.375   0.440  10.821 -0.1598 -0.0754  0.4669
   13TCq1    C5  199   1.273   0.462  10.910  0.1242  0.4495 -0.0052
   13TCq1    C6  200   1.266   0.387  11.025 -0.5327 -0.4125  0.5310
   13TCq1    C7  201   1.357   0.287  11.045  0.3464  0.0515 -0.4171
   13TCq1    C8  202   1.155   0.412  11.117  0.9447  0.6752 -0.5953
   13TCq1    O4  203   1.092   0.517  11.110  0.3954  0.8841  0.2650
   13TCq1    C9  204   1.364   0.517  10.702  0.1462 -1.1763  0.4053
   13TCq1    O5  205   1.419   0.473  10.597 -0.4306 -0.5885  0.1162
   13TCq1    O6  206   1.262   0.592  10.685  0.4410  0.5396  0.1992
   13TCq1    H1  207   1.433   0.096  11.107  0.5563  1.8844  2.0137
   13TCq1    H2  208   1.547   0.330  10.770 -0.1092 -1.6582  0.4502
   13TCq1    H3  209   1.194   0.532  10.886 -0.1551  0.0481 -0.2639
   13TCq1    H4  210   1.362   0.231  11.138 -1.4304  1.4275  0.5126
   14MPD2     C  211   1.020   0.187  11.372  0.2122  0.1609  0.3622
   14MPD2    C1  212   1.033   0.305  11.304 -0.5833 -0.2035 -0.3388
   14MPD2    C2  213   0.940   0.405  11.329  0.9987 -0.4203 -0.2760
   14MPD2    C3  214   0.843   0.392  11.424 -0.4809 -0.5358 -0.6789
   14MPD2    C4  215   0.835   0.278  11.500  0.0042 -0.3697 -0.1642
   14MPD2    C5  216   0.924   0.175  11.472  0.4007 -0.3472 -0.3840
   14MPD2     H  217   0.947   0.499  11.276 -1.0286 -0.2189 -0.1657
   14MPD2    H1  218   0.775   0.265  11.589  1.1105 -0.1501  0.6145
   14MPD2    H2  219   1.086   0.103  11.353 -0.2005 -0.2306  0.6231
   14MPD2    H3  220   0.920   0.085  11.533  0.5309 -0.8140 -1.0695
   14MPD2     N  221   0.767   0.509  11.460 -0.1393  0.2646 -0.4192
   14MPD2    H5  222   0.787   0.598  11.414 -0.1923  0.5055  0.0162
   14MPD2    N1  223   1.134   0.308  11.203  0.6932  0.0446 -0.3809
   14MPD2    H7  224   1.202   0.233  11.208  1.3644  0.6380 -0.6415
   15TCq1    O1  225   2.346   0.522   1.445 -0.1622 -0.4208 -0.8247
   15TCq1    C1  226   2.440   0.493   1.544  0.4306  0.2004 -0.0142
   15TCq1    O2  227   2.471   0.557   1.643  0.1288  0.1572  0.6274
   15TCq1    C2  228   2.511   0.369   1.509 -0.6239  0.6486  0.6182
   15TCq1    C3  229   2.632   0.358   1.569 -0.0086  0.0050  0.0023
   15TCq1    C4  230   2.705   0.245   1.548  0.1041  0.2952  0.8007
   15TCq1    C5  231   2.660   0.155   1.453  1.4287  0.1223  0.6309
   15TCq1    C6  232   2.542   0.168   1.390 -0.0284  0.4447  0.0284
   15TCq1    C7  233   2.460   0.277   1.421 -0.7138 -0.4346  0.3605
   15TCq1    C8  234   2.504   0.060   1.299 -0.7778 -0.1778  0.6092
   15TCq1    O4  235   2.578   4.684   1.285 -0.5180 -0.1650 -0.3296
   15TCq1    C9  236   2.820   0.216   1.626 -0.0940 -0.5768  1.2174
   15TCq1    O5  237   2.857   0.305   1.715 -0.0119  0.0385 -0.0164
   15TCq1    O6  238   2.856   0.097   1.640  0.2550 -0.7653 -0.5405
   15TCq1    H1  239   2.341   0.455   1.373  1.3509 -0.1171 -1.2232
   15TCq1    H2  240   2.669   0.417   1.652  1.3475 -0.7382 -0.0599
   15TCq1    H3  241   2.703   0.056   1.450 -0.9531 -0.9407  1.7547
   15TCq1    H4  242   2.358   0.281   1.384  0.3664  2.7786 -2.2671
   16MPD2     C  243   2.228   0.055   1.056 -0.0397 -0.3562 -0.6539
   16MPD2    C1  244   2.317   0.002   1.144  0.3030  0.0528  0.6020
   16MPD2    C2  245   2.341   4.583   1.141  0.5883  0.7952  0.3640
   16MPD2    C3  246   2.288   4.501   1.043 -0.2240  0.0231  0.3514
   16MPD2    C4  247   2.194   4.561   0.966  0.1010 -0.3740  0.5585
   16MPD2    C5  248   2.160   4.694   0.967 -0.3510 -0.6699  0.0787
   16MPD2     H  249   2.402   4.532   1.214 -0.4648 -0.3008  0.4692
   16MPD2    H1  250   2.133   4.513   0.890 -2.0572  2.0591  0.7795
   16MPD2    H2  251   2.194   0.157   1.051  2.3213  0.5385  1.6691
   16MPD2    H3  252   2.089   0.011   0.894 -1.9406 -0.2295  1.8412
   16MPD2     N  253   2.317   4.364   1.035 -0.4934 -0.1439 -0.9844
   16MPD2    H5  254   2.383   4.335   1.105  0.6147  0.6246 -1.7039
   16MPD2    N1  255   2.379   0.090   1.236  0.6621  0.2642 -0.0534
   16MPD2    H7  256   2.358   0.188   1.227 -3.8830 -0.8379 -1.6197
   17TCq1    O1  257   0.646   0.497  11.033 -0.0831 -0.0771  0.1508
   17TCq1    C1  258   0.706   0.379  11.071  0.4485  0.0062 -0.6165
   17TCq1    O2  259   0.672   0.297  11.154 -0.2518  0.2168  0.5399
   17TCq1    C2  260   0.802   0.339  10.975 -0.4669  0.3480  0.4563
   17TCq1    C3  261   0.822   0.412  10.861 -0.8580  0.1555  0.6019
   17TCq1    C4  262   0.934   0.380  10.791 -0.7892  0.5382 -0.2256
   17TCq1    C5  263   1.016   0.277  10.825  0.0228  0.5277 -0.3967
   17TCq1    C6  264   0.989   0.207  10.933 -0.7007  0.1359  0.1431
   17TCq1    C7  265   0.880   0.230  11.009  0.5532 -0.0472 -0.3381
   17TCq1    C8  266   1.063   0.080  10.957 -0.7655  0.0390  0.4079
   17TCq1    O4  267   1.016   0.001  11.037  0.1361  0.7248  0.7728
   17TCq1    C9  268   0.970   0.448  10.672  0.1337 -0.5305  0.4398
   17TCq1    O5  269   1.042   0.386  10.588  0.3072  0.1457 -0.8808
   17TCq1    O6  270   0.930   0.565  10.654  0.2820  0.2449 -0.3636
   17TCq1    H1  271   0.700   0.560  10.981  0.3027 -1.7220 -1.4515
   17TCq1    H2  272   0.768   0.504  10.844 -2.0199 -0.7595 -0.6187
   17TCq1    H3  273   1.106   0.261  10.767  2.0072 -1.2386  3.1634
   17TCq1    H4  274   0.855   0.167  11.093 -0.7409 -0.8000 -1.2846
   18MPD2     C  275   1.237   4.556  10.918  0.2058  0.2784  0.0846
   18MPD2    C1  276   1.274   4.688  10.885  0.6600  0.2837  0.3453
   18MPD2    C2  277   1.384   4.701  10.807 -0.0591 -0.2703  0.3697
   18MPD2    C3  278   1.469   4.597  10.786  0.1600 -0.0390  0.4888
   18MPD2    C4  279   1.433   4.473  10.828 -0.0279 -0.1531  0.2027
   18MPD2    C5  280   1.319   4.456  10.888 -0.1641 -0.1975 -0.9518
   18MPD2     H  281   1.403   0.076  10.759 -2.4973  0.2847  0.5283
   18MPD2    H1  282   1.492   4.384  10.806  1.5343  0.8825  0.2335
   18MPD2    H2  283   1.142   4.541  10.969  0.7218 -3.6997 -0.1734
   18MPD2    H3  284   1.280   4.357  10.904  0.0533 -0.2701 -0.8772
   18MPD2     N  285   1.590   4.610  10.711 -0.0556  0.5855  0.3801
   18MPD2    H5  286   1.652   4.530  10.718 -0.3854  0.3252  0.3112
   18MPD2    N1  287   1.185   0.075  10.893 -0.2634  0.1255 -0.5564
   18MPD2    H7  288   1.212   0.164  10.851 -3.2258  1.0922 -0.4532
   19TMC2    C1  289   2.148   0.829  14.106  0.3379  0.9566  0.1574
   19TMC2    C2  290   2.085   0.834  13.984 -0.5449  0.0348  0.6013
   19TMC2    C3  291   1.971   0.756  13.965 -0.5428 -0.0208  0.4789
   19TMC2    C4  292   2.092   0.751  14.206  0.1028  0.1979 -0.0166
   19TMC2    C5  293   1.969   0.690  14.186 -0.2538 -0.5980  0.7186
   19TMC2    C6  294   1.908   0.700  14.063  0.2506  0.8389 -0.0139
   19TMC2     C  295   2.262   0.921  14.130 -0.2807  0.3097  0.1022
   19TMC2     O  296   2.269   1.014  14.054  0.7465  0.4256 -0.0076
   19TMC2     H  297   2.135   0.884  13.902 -2.8188  0.3104 -0.6177
   19TMC2    H1  298   2.129   0.769  14.307  0.1654  2.3673 -0.4233
   19TMC2    H2  299   1.809   0.662  14.042  1.0406 -1.6754  0.7988
   19TMC2    C7  300   1.912   0.598  14.281  0.3090 -0.2834 -0.4453
   19TMC2    C8  301   1.896   0.766  13.837 -0.6341  0.0210  0.1051
   19TMC2    O1  302   1.800   0.560  14.265  0.2278 -0.0808  0.0909
   19TMC2    O2  303   1.799   0.693  13.807  0.0647  0.4776  0.2532
   19TMC2    O5  304   1.930   0.881  13.777  0.0373 -0.4467 -0.1215
   19TMC2    H5  305   1.976   0.951  13.829 -0.3210 -0.5636  0.3427
   20MPD2     C  306   2.521   1.042  14.179 -0.3416  0.5281  0.7629
   20MPD2    C1  307   2.484   0.922  14.234 -0.6438  0.3782  0.2671
   20MPD2    C2  308   2.570   0.857  14.314 -0.2506  0.1946  0.1948
   20MPD2    C3  309   2.706   0.899  14.322  0.4936  0.2940 -0.0901
   20MPD2    C4  310   2.753   1.010  14.257 -1.1061 -0.1035 -0.1581
   20MPD2    C5  311   2.652   1.080  14.194 -0.2469  0.8385 -0.6006
   20MPD2     H  312   2.541   0.760  14.352 -0.1391 -1.0868 -3.0055
   20MPD2    H1  313   2.853   1.050  14.254 -1.2902  0.4102  0.4235
   20MPD2    H2  314   2.459   1.101  14.113  0.7975 -0.5567 -1.2907
   20MPD2    H3  315   2.673   1.173  14.143  0.1683  1.2408  0.2908
   20MPD2     N  316   2.802   0.816  14.378 -0.8264  0.5012 -0.0119
   20MPD2    H5  317   2.895   0.848  14.353 -0.4091 -0.7631 -0.0989
   20MPD2    N1  318   2.356   0.864  14.216 -0.5751  0.0165 -0.0731
   20MPD2    H7  319   2.340   0.783  14.274 -0.8399  0.0117 -0.1535
   21MPD2     C  320   0.525   1.544  14.373 -0.3603 -0.2548  0.2725
   21MPD2    C1  321   0.499   1.407  14.357 -0.0562  0.0895 -0.3568
   21MPD2    C2  322   0.370   1.358  14.373  0.5811  0.2595  0.1077
   21MPD2    C3  323   0.261   1.444  14.394  0.5551  0.0617  0.2102
   21MPD2    C4  324   0.288   1.578  14.402 -0.4927 -0.4370 -0.6316
   21MPD2    C5  325   0.422   1.631  14.404 -0.2522  0.0752 -0.0437
   21MPD2     H  326   0.350   1.252  14.376  0.1416  0.2569 -2.9847
   21MPD2    H1  327   0.205   1.647  14.415 -0.2178 -0.6174  2.2101
   21MPD2    H2  328   0.623   1.591  14.366  0.0481 -1.1941 -0.2958
   21MPD2    H3  329   0.434   1.737  14.419  3.5431 -0.0641 -1.9975
   21MPD2     N  330   0.132   1.400  14.409  0.8609 -0.6570  0.2990
   21MPD2    H5  331   0.066   1.466  14.448 -0.8110 -2.0143 -0.2412
   21MPD2    N1  332   0.613   1.317  14.354 -0.0308 -0.7097  0.2680
   21MPD2    H7  333   0.591   1.223  14.322 -1.9468 -0.4281  0.7645
   22TCq2    C1  334   0.088   1.279  14.363  0.8694 -0.6995 -0.5089
   22TCq2    O2  335   0.147   1.192  14.302 -0.1011 -0.3103 -0.2712
   22TCq2    C2  336   4.661   1.261  14.377 -0.2621 -0.3142 -0.3322
   22TCq2    C3  337   4.597   1.204  14.266  1.0510 -0.3254  0.1519
   22TCq2    C4  338   4.464   1.211  14.255 -0.2418 -0.3063 -0.2354
   22TCq2    C5  339   4.390   1.257  14.353 -0.6909  0.0411 -0.2310
   22TCq2    C6  340   4.453   1.322  14.459 -0.1768  0.5270  0.0087
   22TCq2    C7  341   4.587   1.325  14.470 -1.0633 -0.1831  0.3220
   22TCq2    C8  342   4.372   1.418  14.535  0.2435  0.4236  0.2012
   22TCq2    O4  343   4.443   1.481  14.612  0.0563 -0.2309 -0.5499
   22TCq2    C9  344   4.397   1.174  14.140 -0.2906  0.7400 -0.6406
   22TCq2    O5  345   4.447   1.088  14.058  0.0288  0.0652 -0.0733
   22TCq2    O6  346   4.282   1.221  14.114  0.9133 -0.1588  0.0400
   22TCq2    H2  347   4.644   1.160  14.179  0.5222 -0.1168 -0.2377
   22TCq2    H3  348   4.283   1.243  14.361 -0.4306 -1.6822  0.2863
   22TCq2    H4  349   4.631   1.364  14.561 -0.7360 -0.3462  0.2332
   23MPD2     C  350   1.663   2.366  14.963  0.4207  0.4340 -0.0926
   23MPD2    C1  351   1.551   2.353  15.042 -0.1474 -0.0542  0.2126
   23MPD2    C2  352   1.435   2.420  15.018 -0.0409  0.3418  0.6539
   23MPD2    C3  353   1.423   2.495  14.905 -0.0555  0.2014 -0.1919
   23MPD2    C4  354   1.539   2.523  14.827  0.2723 -0.0079  0.5245
   23MPD2    C5  355   1.652   2.447  14.850  0.1208  0.5321 -0.0582
   23MPD2     H  356   1.363   2.407  15.098 -1.7787 -2.3505 -1.3275
   23MPD2    H1  357   1.532   2.597  14.748 -1.4739  0.4917  1.1577
   23MPD2    H2  358   1.746   2.299  14.982  1.1275  1.0967 -0.8175
   23MPD2    H3  359   1.734   2.450  14.780 -1.9736  2.4324 -2.4208
   23MPD2     N  360   1.305   2.564  14.869 -0.1489 -0.2768  0.0706
   23MPD2    H5  361   1.310   2.612  14.780 -0.6739  2.4347  1.4811
   23MPD2    N1  362   1.548   2.263  15.159  0.1973 -0.2436 -0.4711
   23MPD2    H7  363   1.458   2.268  15.207  0.7351  1.8220  0.2795
   24TCq2    C1  364   1.187   2.554  14.937 -0.0203  0.8091 -0.7386
   24TCq2    O2  365   1.145   2.462  15.004 -0.4794  0.4534  0.0670
   24TCq2    C2  366   1.085   2.646  14.881 -0.1177  0.5044  1.1501
   24TCq2    C3  367   1.126   2.753  14.810 -0.2442  0.2466  0.0299
   24TCq2    C4  368   1.030   2.829  14.752 -0.0429  0.3954 -0.0714
   24TCq2    C5  369   0.898   2.798  14.773  0.6737 -0.4095 -0.0890
   24TCq2    C6  370   0.867   2.691  14.851  0.0019 -0.1029  0.3361
   24TCq2    C7  371   0.958   2.603  14.902 -1.2711  0.1971 -0.2069
   24TCq2    C8  372   0.737   2.686  14.901 -0.1295 -0.3107 -0.1144
   24TCq2    O4  373   0.707   2.589  14.976 -0.1375 -0.4842 -0.3580
   24TCq2    C9  374   1.069   2.930  14.658 -0.4506 -0.2333  0.2927
   24TCq2    O5  375   1.179   2.910  14.604 -0.3924  0.2031 -0.0668
   24TCq2    O6  376   0.977   2.990  14.599 -0.1991 -0.2229  0.2369
   24TCq2    H2  377   1.227   2.788  14.793  0.3494 -0.5391  1.8327
   24TCq2    H3  378   0.832   2.860  14.713 -0.5667 -2.5701 -0.9593
   24TCq2    H4  379   0.921   2.518  14.959 -1.6411  0.7544  0.3854
   25TMC2    C1  380   0.643   4.327  11.361  0.8075  0.2459  0.3270
   25TMC2    C2  381   0.777   4.330  11.394 -0.6680 -0.3967 -0.3877
   25TMC2    C3  382   0.811   4.362  11.524  0.5523 -0.0722  0.0039
   25TMC2    C4  383   0.542   4.329  11.463 -0.7993 -0.6664  0.6567
   25TMC2    C5  384   0.584   4.353  11.597 -0.0311  0.3307 -0.3669
   25TMC2    C6  385   0.721   4.368  11.624 -0.0352  0.2954  1.0539
   25TMC2     C  386   0.603   4.347  11.227 -0.0881  0.0192 -0.0058
   25TMC2     O  387   0.684   4.410  11.160 -0.7217  0.3072  0.2812
   25TMC2     H  388   0.851   4.305  11.317 -1.1909 -1.1398 -0.6505
   25TMC2    H1  389   0.440   4.336  11.429 -0.5993 -0.6294  0.0723
   25TMC2    H2  390   0.753   4.405  11.721 -0.8482 -0.6186  1.6773
   25TMC2    C7  391   0.486   4.378  11.702  0.6553  0.3841 -0.3126
   25TMC2    C8  392   0.949   4.380  11.561  0.0203  0.1313  0.2393
   25TMC2    O1  393   0.517   4.449  11.798 -0.2496  0.1274  0.3986
   25TMC2    O2  394   0.979   4.373  11.677 -0.4919 -0.1660  0.1159
   25TMC2    O5  395   1.040   4.410  11.468 -0.3657  0.2012  0.5647
   25TMC2    H5  396   0.989   4.434  11.388 -2.5208 -1.6556  1.3635
   26MPD2     C  397   0.390   4.192  10.793  0.0110 -0.8648  0.3691
   26MPD2    C1  398   0.385   4.084  10.873 -0.3727 -0.2772 -0.6204
   26MPD2    C2  399   0.431   4.096  11.006 -0.1329  0.5367 -0.3609
   26MPD2    C3  400   0.496   4.216  11.044  0.3413 -0.0834  0.2398
   26MPD2    C4  401   0.491   4.319  10.957 -0.6310  0.1780 -0.1832
   26MPD2    C5  402   0.438   4.312  10.831  0.1952  0.4860  0.1600
   26MPD2     H  403   0.414   4.024  11.086  1.1237 -0.8740 -1.3696
   26MPD2    H1  404   0.521   4.421  10.980  0.9806 -0.8572  2.2410
   26MPD2    H2  405   0.367   4.182  10.687 -1.1255 -0.4933  0.5864
   26MPD2    H3  406   0.447   4.390  10.756  3.6717 -0.5972 -0.5701
   26MPD2     N  407   0.526   4.237  11.179 -0.3659  0.2445 -0.1173
   26MPD2    H5  408   0.505   4.156  11.236  0.1271 -0.2430 -0.6257
   26MPD2    N1  409   0.323   3.968  10.821  0.3537  0.1746  0.1590
   26MPD2    H7  410   0.297   3.968  10.723 -1.2414 -2.3121  0.5978
   27TMC2    C1  411   4.378   2.108  12.126 -0.6128 -0.3982 -0.6834
   27TMC2    C2  412   4.417   2.188  12.021 -0.2646 -0.9378  0.0632
   27TMC2    C3  413   4.482   2.306  12.046 -0.2396 -0.1824 -1.1049
   27TMC2    C4  414   4.409   2.143  12.256  0.1682  0.1172 -0.0045
   27TMC2    C5  415   4.471   2.266  12.274  0.0252  0.2021  0.9604
   27TMC2    C6  416   4.494   2.355  12.168 -0.6675  0.6232  0.4986
   27TMC2     C  417   4.270   2.020  12.119  0.5350 -0.1403  0.2489
   27TMC2     O  418   4.285   1.912  12.063 -0.5289  0.2190  0.4858
   27TMC2     H  419   4.400   2.155  11.919  1.0921  0.1673 -0.5068
   27TMC2    H1  420   4.380   2.081  12.340 -0.4675  0.4036 -0.0116
   27TMC2    H2  421   4.518   2.459  12.188 -0.5915  0.6100  0.4770
   27TMC2    C7  422   4.440   2.311  12.408 -0.3654  0.4727 -0.5012
   27TMC2    C8  423   4.465   2.410  11.946  0.3644  0.0673 -0.1640
   27TMC2    O1  424   4.465   2.237  12.504  1.0437 -0.1871 -0.2651
   27TMC2    O2  425   4.429   2.527  11.965  0.1208  0.5520  0.1984
   27TMC2    O5  426   4.510   2.366  11.832  0.0873  0.4852 -0.2365
   27TMC2    H5  427   4.548   2.276  11.844  0.0378  0.2486 -1.9062
   28MPD2     C  428   3.855   1.855  12.361 -0.3450 -0.5467 -0.0592
   28MPD2    C1  429   3.873   1.989  12.386 -0.3027 -0.2058 -0.1246
   28MPD2    C2  430   3.986   2.051  12.334 -0.1037 -0.1268 -0.2935
   28MPD2    C3  431   4.066   1.988  12.246  0.8975 -0.1730 -0.5919
   28MPD2    C4  432   4.044   1.851  12.222  0.1761  0.0508 -0.1641
   28MPD2    C5  433   3.946   1.786  12.286 -0.4946 -0.4474  0.1920
   28MPD2     H  434   4.000   2.152  12.373 -1.1251  0.4916 -1.5373
   28MPD2    H1  435   4.105   1.791  12.156 -1.4843 -0.4746 -1.2118
   28MPD2    H2  436   3.767   1.800  12.392 -0.5428  0.3019  0.8683
   28MPD2    H3  437   3.939   1.683  12.255  1.6593 -1.1272  1.9412
   28MPD2     N  438   4.170   2.063  12.195 -0.4105  0.0645 -0.0434
   28MPD2    H5  439   4.168   2.161  12.220  0.2946 -0.4538  2.1187
   28MPD2    N1  440   3.777   2.041  12.474 -0.1704 -0.8873 -0.0274
   28MPD2    H7  441   3.703   1.981  12.508 -1.3165  0.2552 -0.5221
   29MPD2     C  442   3.105   3.937  14.063 -0.8628  0.1640  0.1963
   29MPD2    C1  443   3.163   3.927  14.183 -0.4293  0.6244 -0.4567
   29MPD2    C2  444   3.169   4.036  14.266 -0.1005 -0.9208 -0.5196
   29MPD2    C3  445   3.121   4.161  14.228 -0.3008 -0.2789  0.2501
   29MPD2    C4  446   3.046   4.160  14.114  0.3807 -0.4072  0.5572
   29MPD2    C5  447   3.044   4.053  14.031 -0.0367 -0.2022 -0.1057
   29MPD2     H  448   3.214   4.027  14.365 -0.4236 -0.3035 -0.3204
   29MPD2    H1  449   3.003   4.253  14.079  2.1159  0.3741  0.4718
   29MPD2    H2  450   3.090   3.853  13.996 -0.6897  0.8727 -0.7247
   29MPD2    H3  451   2.995   4.062  13.935 -1.0649 -0.0902  0.4261
   29MPD2     N  452   3.131   4.277  14.314 -0.6351  0.0446  0.1681
   29MPD2    H5  453   3.092   4.365  14.281  0.2616  0.6234  0.6412
   29MPD2    N1  454   3.233   3.805  14.210  0.0212 -0.1652 -0.1528
   29MPD2    H7  455   3.223   3.734  14.138 -1.7115  0.2402 -0.3121
   30TCq2    C1  456   3.189   4.293  14.437 -0.1503 -0.3425  0.2735
   30TCq2    O2  457   3.239   4.208  14.504  0.1639 -0.0460 -0.0095
   30TCq2    C2  458   3.192   4.431  14.493  1.2699  0.1541  0.1648
   30TCq2    C3  459   3.178   4.453  14.625 -0.3216  0.1868 -0.2696
   30TCq2    C4  460   3.159   4.583  14.679  0.4945 -0.0995 -0.3414
   30TCq2    C5  461   3.134   4.682  14.597  0.1623  0.5690  0.2971
   30TCq2    C6  462   3.149   4.655  14.466  0.9847 -0.1473 -0.6608
   30TCq2    C7  463   3.178   4.538  14.409 -0.0498 -0.3935 -0.0391
   30TCq2    C8  464   3.149   0.045  14.379  0.0356  0.2906  0.0948
   30TCq2    O4  465   3.113   0.019  14.266 -0.3024  0.4043 -0.3723
   30TCq2    C9  466   3.185   4.607  14.824 -0.1778 -0.1188  0.5814
   30TCq2    O5  467   3.205   4.509  14.897  0.6018  0.0591 -0.7860
   30TCq2    O6  468   3.192   0.008  14.861  0.2589  0.5214  0.2900
   30TCq2    H2  469   3.218   4.373  14.686  3.3222  2.4358  0.2589
   30TCq2    H3  470   3.121   0.065  14.629  1.4750  0.6740  0.5024
   30TCq2    H4  471   3.173   4.519  14.302 -1.6510 -3.1208  0.5329
   31MPD2     C  472   1.117   3.166  14.919  0.4393  0.4108 -0.5789
   31MPD2    C1  473   0.993   3.202  14.870 -0.1652  0.5741  0.7451
   31MPD2    C2  474   0.879   3.190  14.947  0.2434 -0.1316 -0.5197
   31MPD2    C3  475   0.890   3.125  15.070  0.1398  0.2173  0.3441
   31MPD2    C4  476   1.012   3.092  15.120  0.1044  1.1152 -0.2650
   31MPD2    C5  477   1.129   3.112  15.046  0.4982  0.6857  0.5418
   31MPD2     H  478   0.786   3.230  14.908  0.0627  0.2316  0.2957
   31MPD2    H1  479   1.022   3.068  15.225  0.3036 -0.0939 -0.5631
   31MPD2    H2  480   1.207   3.170  14.859  1.0330 -1.6850  0.2054
   31MPD2    H3  481   1.229   3.081  15.076  1.3874 -0.2288 -3.3846
   31MPD2     N  482   0.784   3.104  15.162  0.0579  0.1772  0.1337
   31MPD2    H5  483   0.815   3.053  15.245 -1.3159  1.2770  1.3326
   31MPD2    N1  484   1.000   3.270  14.748 -0.1091  0.1446  0.3626
   31MPD2    H7  485   1.091   3.271  14.702 -1.1175  1.2823 -1.6228
   32TCq2    C1  486   0.650   3.138  15.138 -0.8357  0.0299 -0.6762
   32TCq2    O2  487   0.610   3.226  15.062 -0.0725  0.3268  0.4525
   32TCq2    C2  488   0.563   3.101  15.254  0.3668  0.0947  0.3587
   32TCq2    C3  489   0.437   3.149  15.250 -0.3443  0.6174 -0.8060
   32TCq2    C4  490   0.351   3.109  15.344  0.1925  0.1754 -0.9794
   32TCq2    C5  491   0.385   3.029  15.446  0.5976  0.5615 -0.2626
   32TCq2    C6  492   0.511   2.975  15.443  0.1103 -0.3319 -0.3137
   32TCq2    C7  493   0.604   3.005  15.344 -0.3433  0.3361 -0.0553
   32TCq2    C8  494   0.569   2.914  15.561 -0.4569 -0.6098  1.0011
   32TCq2    O4  495   0.688   2.883  15.560 -0.2409 -0.2369  0.3409
   32TCq2    C9  496   0.216   3.150  15.329 -0.2406 -0.2984  0.1897
   32TCq2    O5  497   0.139   3.134  15.425  0.1778 -0.0264 -0.5383
   32TCq2    O6  498   0.181   3.186  15.213 -0.7190  0.0315 -0.3929
   32TCq2    H2  499   0.406   3.216  15.171 -0.2467  2.5003  0.7430
   32TCq2    H3  500   0.317   3.023  15.530  0.6491  1.3968 -0.1587
   32TCq2    H4  501   0.708   2.979  15.363 -0.6505 -0.7922  0.0387
   33MPD2     C  502   1.694   4.281  10.191  0.4463 -0.5975  0.2874
   33MPD2    C1  503   1.789   4.379  10.186 -0.3620 -0.4189 -0.0245
   33MPD2    C2  504   1.840   4.423  10.066 -0.1315  0.2145  0.2154
   33MPD2    C3  505   1.803   4.361   9.946 -0.0554 -0.6407  0.0842
   33MPD2    C4  506   1.724   4.250   9.952  1.1633 -0.8412  0.1292
   33MPD2    C5  507   1.664   4.215  10.072  0.4946 -0.1852 -0.3905
   33MPD2     H  508   1.910   4.505  10.058  0.6825 -0.5476 -0.4489
   33MPD2    H1  509   1.692   4.195   9.864 -0.2488 -1.0476  0.7606
   33MPD2    H2  510   1.642   4.261  10.284 -0.0788  1.3662  0.4157
   33MPD2    H3  511   1.601   4.127  10.065 -0.0735 -0.0950  3.4016
   33MPD2     N  512   1.862   4.389   9.820 -0.1007  0.4313 -0.6429
   33MPD2    H5  513   1.836   4.324   9.746 -0.5382 -1.5432  1.2746
   33MPD2    N1  514   1.831   4.434  10.311  0.0737  0.3895  0.3877
   33MPD2    H7  515   1.795   4.397  10.398  1.1011  2.7243  1.8090
   34TCq2    C1  516   1.938   4.502   9.790 -0.9919 -0.3004  0.1011
   34TCq2    O2  517   1.955   4.603   9.856 -0.1788  0.5651  0.8466
   34TCq2    C2  518   1.985   4.518   9.655 -0.5465 -0.6132 -0.0394
   34TCq2    C3  519   1.993   4.407   9.574 -0.2499  0.6056 -0.6905
   34TCq2    C4  520   2.051   4.432   9.457 -0.0005 -0.4198 -0.0893
   34TCq2    C5  521   2.084   4.559   9.413  0.0732 -0.5851  0.5385
   34TCq2    C6  522   2.071   4.668   9.500  0.2891  0.2352 -0.2768
   34TCq2    C7  523   2.026   4.643   9.626  0.1520  0.5850  0.0256
   34TCq2    C8  524   2.106   0.086   9.467 -0.8281 -0.7222 -0.4466
   34TCq2    O4  525   2.096   0.172   9.555  0.3960 -0.9150 -0.0690
   34TCq2    C9  526   2.064   4.321   9.361  0.5424  0.4470  0.4761
   34TCq2    O5  527   2.013   4.206   9.387 -0.1278 -0.6053 -0.1508
   34TCq2    O6  528   2.124   4.343   9.251  0.0110 -0.0425  0.1952
   34TCq2    H2  529   1.962   4.308   9.604 -0.2231  0.1966 -2.0395
   34TCq2    H3  530   2.124   4.572   9.313 -0.9528  1.8956  0.4587
   34TCq2    H4  531   2.017   0.006   9.695 -1.6661  2.4991 -2.5191
   35MPD2     C  532   3.343   2.854  11.419 -0.1666 -0.3281 -0.0051
   35MPD2    C1  533   3.227   2.805  11.471  0.0584  0.5118  0.5404
   35MPD2    C2  534   3.122   2.780  11.394  0.6070 -0.7181  0.0300
   35MPD2    C3  535   3.127   2.784  11.256  0.0021 -0.2790  0.3586
   35MPD2    C4  536   3.232   2.844  11.204 -0.2691  0.4275  0.1909
   35MPD2    C5  537   3.343   2.876  11.279 -0.0363 -0.1030 -0.3869
   35MPD2     H  538   3.028   2.751  11.439 -0.1633 -0.5291 -1.4570
   35MPD2    H1  539   3.240   2.844  11.096  0.7180 -0.3254  0.2562
   35MPD2    H2  540   3.427   2.877  11.484 -0.3224 -0.1471  0.1318
   35MPD2    H3  541   3.434   2.889  11.223 -1.3098 -0.5664 -2.5966
   35MPD2     N  542   3.033   2.733  11.165 -0.5951  0.2755  0.2385
   35MPD2    H5  543   3.062   2.740  11.067 -1.5402 -3.5348 -0.3231
   35MPD2    N1  544   3.217   2.797  11.609 -0.1575  0.2845 -0.4696
   35MPD2    H7  545   3.297   2.810  11.670 -1.1847 -0.7526  1.1032
   36TCq2    C1  546   2.923   2.666  11.197 -0.0139 -0.1290  0.0342
   36TCq2    O2  547   2.897   2.611  11.304  0.7191 -0.6127  0.3471
   36TCq2    C2  548   2.844   2.624  11.082 -0.5406  0.0602  0.7049
   36TCq2    C3  549   2.868   2.658  10.952  0.0009 -0.0081 -0.7298
   36TCq2    C4  550   2.787   2.614  10.848 -0.6401 -0.0944 -0.1312
   36TCq2    C5  551   2.692   2.524  10.873  0.4373  0.1138  0.0665
   36TCq2    C6  552   2.676   2.468  10.996  0.6341  0.2111  0.2541
   36TCq2    C7  553   2.746   2.528  11.097 -0.0812  0.5170  0.5331
   36TCq2    C8  554   2.619   2.334  11.014  0.2642  0.3716  0.4355
   36TCq2    O4  555   2.623   2.280  11.128  0.1121 -0.5557  0.7357
   36TCq2    C9  556   2.809   2.655  10.711  0.2587 -0.3796 -0.1718
   36TCq2    O5  557   2.766   2.568  10.628  0.0521  0.0155  0.2665
   36TCq2    O6  558   2.917   2.712  10.697 -0.0903  0.6900  0.1204
   36TCq2    H2  559   2.940   2.735  10.929  1.3340 -0.7820  0.8273
   36TCq2    H3  560   2.627   2.490  10.793  2.4241 -3.3925 -0.0877
   36TCq2    H4  561   2.748   2.472  11.190 -1.0264 -0.9853 -0.3474
   37TMC2    C1  562   0.368   1.568  11.441  0.0650 -0.0991  0.3730
   37TMC2    C2  563   0.346   1.491  11.334 -0.4483  0.4436 -0.1545
   37TMC2    C3  564   0.364   1.547  11.211  0.6870 -0.1211  0.2769
   37TMC2    C4  565   0.422   1.698  11.422 -1.0453 -0.4348 -0.2448
   37TMC2    C5  566   0.456   1.741  11.295 -0.6027  0.0115  0.3757
   37TMC2    C6  567   0.423   1.664  11.188  0.3527 -0.3413  0.8845
   37TMC2     C  568   0.301   1.530  11.568 -0.1508 -0.1033 -0.8238
   37TMC2     O  569   0.277   1.413  11.597 -0.0141 -0.3161 -0.1397
   37TMC2     H  570   0.299   1.395  11.352 -0.0676  0.2300 -0.2818
   37TMC2    H1  571   0.456   1.756  11.507 -0.2771 -0.9197 -0.2169
   37TMC2    H2  572   0.430   1.704  11.087 -0.7294 -3.0175 -0.2774
   37TMC2    C7  573   0.569   1.830  11.279  0.4183 -0.2051  0.5167
   37TMC2    C8  574   0.346   1.459  11.095  0.7693 -0.1903  0.3886
   37TMC2    O1  575   0.595   1.908  11.370 -0.1432  0.2666 -0.5377
   37TMC2    O2  576   0.422   1.471  11.000 -0.1424  0.4922  0.1821
   37TMC2    O5  577   0.234   1.389  11.099  0.6923 -0.6525  0.4177
   37TMC2    H5  578   0.185   1.404  11.183  0.0201  2.3232 -0.4734
   38MPD2     C  579   0.123   1.682  12.014  0.2531 -0.2887  0.3706
   38MPD2    C1  580   0.106   1.784  11.924 -0.0108  0.5633 -0.3392
   38MPD2    C2  581   0.149   1.776  11.794  0.0549 -0.2907 -0.2155
   38MPD2    C3  582   0.201   1.651  11.753 -0.4081 -0.1784  0.6363
   38MPD2    C4  583   0.240   1.556  11.846 -0.3915 -0.6094  0.4980
   38MPD2    C5  584   0.203   1.579  11.978 -0.2790 -0.0360 -0.5425
   38MPD2     H  585   0.133   1.859  11.725  1.4719 -0.1317 -0.3601
   38MPD2    H1  586   0.299   1.475  11.808 -2.3794 -1.3666 -0.9691
   38MPD2    H2  587   0.082   1.690  12.114 -1.9242 -0.9951 -0.4668
   38MPD2    H3  588   0.239   1.503  12.047  0.4340  0.4896 -0.3413
   38MPD2     N  589   0.261   1.648  11.624  0.3255  0.1258 -1.0902
   38MPD2    H5  590   0.253   1.728  11.562 -3.0248 -0.4296 -1.3824
   38MPD2    N1  591   0.053   1.912  11.968 -0.0106  0.3835  0.3646
   38MPD2    H7  592   0.063   1.998  11.915  1.2238  0.4985  0.7794
   39MPD2     C  593   2.583   3.163   1.035 -0.7417 -0.0425  0.0507
   39MPD2    C1  594   2.542   3.220   1.153 -0.1939 -0.0599 -1.1472
   39MPD2    C2  595   2.440   3.310   1.149 -0.6846 -1.1050  0.2644
   39MPD2    C3  596   2.386   3.347   1.027  0.2533  0.1676  0.4356
   39MPD2    C4  597   2.439   3.295   0.912 -0.0635 -0.6424 -0.0338
   39MPD2    C5  598   2.531   3.201   0.926 -0.0459 -0.5467  0.1851
   39MPD2     H  599   2.402   3.341   1.246 -0.2200 -0.7737  0.3405
   39MPD2    H1  600   2.391   3.305   0.815 -1.5412  1.4807  0.9310
   39MPD2    H2  601   2.649   3.077   1.036 -0.2152  0.3486 -1.9462
   39MPD2    H3  602   2.565   3.146   0.839  2.2769  1.3716 -0.1367
   39MPD2     N  603   2.279   3.434   1.009 -0.1034 -0.3387  0.6942
   39MPD2    H5  604   2.240   3.452   0.917  0.7182 -0.0467  0.4011
   39MPD2    N1  605   2.601   3.187   1.276  0.5827  0.0041  0.0288
   39MPD2    H7  606   2.550   3.214   1.360  0.3336 -1.5345  0.3685
   40TCq2    C1  607   2.726   3.140   1.292 -0.2061 -0.0572  0.6154
   40TCq2    O2  608   2.825   3.154   1.222 -0.2241  0.7613  0.2311
   40TCq2    C2  609   2.749   3.094   1.425 -0.2878  0.5890 -0.2850
   40TCq2    C3  610   2.660   3.007   1.485  0.1144 -1.0102 -0.7871
   40TCq2    C4  611   2.684   2.968   1.620 -0.9792  0.1546 -0.2485
   40TCq2    C5  612   2.797   3.006   1.685 -0.4822 -1.2355 -0.3084
   40TCq2    C6  613   2.879   3.101   1.625  0.9051  0.3292 -0.1663
   40TCq2    C7  614   2.859   3.145   1.496 -0.0724 -0.1405  0.9169
   40TCq2    C8  615   2.992   3.163   1.695 -0.4191  0.0393 -0.7799
   40TCq2    O4  616   3.070   3.228   1.624 -0.0138 -0.1280 -0.3221
   40TCq2    C9  617   2.578   2.891   1.682 -0.2546  0.0807  0.4005
   40TCq2    O5  618   2.471   2.865   1.623 -0.0922 -0.2783  0.1411
   40TCq2    O6  619   2.600   2.854   1.800 -0.0022 -0.2691  0.1669
   40TCq2    H2  620   2.571   2.977   1.430 -0.1546  1.2798 -1.6252
   40TCq2    H3  621   2.814   2.966   1.785  0.4176 -1.2017 -0.4437
   40TCq2    H4  622   2.909   3.234   1.462 -1.5756 -0.0651 -1.0776
   41TMC2    C1  623   2.824   2.524  13.141  0.5131  0.5530 -0.2837
   41TMC2    C2  624   2.822   2.644  13.213  0.5195 -0.2169  0.3024
   41TMC2    C3  625   2.775   2.755  13.150  0.4312  0.6214  0.2345
   41TMC2    C4  626   2.788   2.514  13.009 -0.4529 -0.2167 -0.3174
   41TMC2    C5  627   2.753   2.633  12.947 -0.5972  0.1360  0.5825
   41TMC2    C6  628   2.745   2.750  13.019  0.2186 -0.2071 -0.0105
   41TMC2     C  629   2.870   2.406  13.207  0.6150  0.6419  0.7213
   41TMC2     O  630   2.910   2.316  13.134 -0.4504 -0.0223  0.1263
   41TMC2     H  631   2.858   2.645  13.315  3.3617  2.9986 -0.7359
   41TMC2    H1  632   2.772   2.418  12.961 -0.2309 -1.7373  2.6771
   41TMC2    H2  633   2.737   2.848  12.972  2.8015  0.5281  1.0713
   41TMC2    C7  634   2.685   2.631  12.819  0.3705  0.1168  0.2191
   41TMC2    C8  635   2.818   2.883  13.207 -0.0690  0.3497 -0.4042
   41TMC2    O1  636   2.595   2.717  12.809  0.7459  0.1137  0.4844
   41TMC2    O2  637   2.822   2.993  13.152 -0.0856  0.4552  0.5443
   41TMC2    O5  638   2.778   2.876  13.333  0.4109 -0.1741 -0.4024
   41TMC2    H5  639   2.762   2.787  13.372  0.4143 -0.8057 -1.8222
   42MPD2     C  640   2.966   2.215  13.411 -0.9268  0.1953  0.1232
   42MPD2    C1  641   2.878   2.314  13.436 -0.1197 -0.1654  0.2946
   42MPD2    C2  642   2.820   2.327  13.556 -0.8079 -0.0807  0.0460
   42MPD2    C3  643   2.847   2.235  13.655  0.5345 -0.1890  0.2490
   42MPD2    C4  644   2.952   2.143  13.632 -0.0740  0.1378  0.4038
   42MPD2    C5  645   3.010   2.123  13.506  0.0803  0.1739 -0.0705
   42MPD2     H  646   2.742   2.402  13.561 -0.8001 -0.2217  2.0492
   42MPD2    H1  647   2.977   2.070  13.708 -0.8526  1.2950  1.7612
   42MPD2    H2  648   3.029   2.212  13.323 -0.4887 -0.2702  0.4547
   42MPD2    H3  649   3.095   2.058  13.497  0.2153  0.3601 -0.1346
   42MPD2     N  650   2.768   2.216  13.776 -0.5414  0.2170  0.2610
   42MPD2    H5  651   2.799   2.142  13.837  3.4041  1.2939 -0.4189
   42MPD2    N1  652   2.843   2.412  13.343  0.1462 -0.0296  0.7078
   42MPD2    H7  653   2.791   2.491  13.380 -1.5639 -0.2862 -1.2002
   43MPD2     C  654   2.967   4.597   0.619 -0.3345 -0.1547 -0.5070
   43MPD2    C1  655   3.107   4.604   0.652 -0.2678 -0.3808  0.1178
   43MPD2    C2  656   3.144   4.714   0.735 -0.1456  0.1556  0.0534
   43MPD2    C3  657   3.057   0.078   0.798  0.0820  0.0048  0.3422
   43MPD2    C4  658   2.924   0.070   0.756  0.5933  0.1821  0.8401
   43MPD2    C5  659   2.878   4.690   0.672  0.0773  0.1418  0.1981
   43MPD2     H  660   3.248   0.010   0.763  0.8373 -2.1031 -2.3535
   43MPD2    H1  661   2.849   0.140   0.790 -0.8326  0.0744 -2.0957
   43MPD2    H2  662   2.930   4.527   0.546 -1.8865  1.2140 -1.0186
   43MPD2    H3  663   2.771   4.699   0.658  0.5534 -0.1624 -3.4884
   43MPD2     N  664   3.094   0.189   0.882 -0.0005  0.7762 -0.8054
   43MPD2    H5  665   3.021   0.257   0.898 -1.3278 -0.7104 -0.5245
   43MPD2    N1  666   3.194   4.518   0.585 -0.1756  0.0551 -0.7306
   43MPD2    H7  667   3.160   4.452   0.517 -1.7525  0.4827 -0.3584
   44TCq2    C1  668   3.442   0.479   1.267  0.3054  0.2098  0.1264
   44TCq2    O2  669   3.536   0.399   1.270  0.3476 -0.4529 -0.0383
   44TCq2    C2  670   3.332   0.461   1.174 -0.5925  0.2432 -0.3354
   44TCq2    C3  671   3.242   0.565   1.157 -0.2009  0.7445  0.0147
   44TCq2    C4  672   3.142   0.542   1.067 -0.4238 -0.5026 -0.4015
   44TCq2    C5  673   3.128   0.420   1.003 -0.1894 -0.0364 -0.4896
   44TCq2    C6  674   3.223   0.324   1.023 -0.2341 -0.0052 -0.3405
   44TCq2    C7  675   3.323   0.339   1.111 -0.2264 -0.1805  0.2579
   44TCq2    C8  676   3.208   0.205   0.945  1.3179  0.3596 -0.7493
   44TCq2    O4  677   3.294   0.121   0.967 -0.1048  0.3811 -0.3522
   44TCq2    C9  678   3.041   0.646   1.044  0.0938 -0.5748  0.8748
   44TCq2    O5  679   2.954   0.609   0.965 -0.2217 -0.1500  1.1087
   44TCq2    O6  680   3.081   0.767   1.067  0.1704  0.3598  0.5430
   44TCq2    H2  681   3.243   0.660   1.209  0.1601  2.2708 -2.7861
   44TCq2    H3  682   3.053   0.422   0.925 -0.8519  0.1684  0.1576
   44TCq2    H4  683   3.401   0.264   1.117 -2.4248 -2.5126 -0.5908
   45TMC2    C1  684   0.065   1.879   9.568 -0.0360 -0.2434  0.3803
   45TMC2    C2  685   0.198   1.846   9.593  0.3440  0.2214 -0.2319
   45TMC2    C3  686   0.277   1.949   9.618  0.6123  0.1024  0.3266
   45TMC2    C4  687   0.015   2.009   9.547 -0.5503 -0.2195  0.3009
   45TMC2    C5  688   0.101   2.105   9.580 -0.2742  0.7235  0.3686
   45TMC2    C6  689   0.226   2.082   9.618 -0.2807 -0.5658 -0.1849
   45TMC2     C  690   4.699   1.770   9.546  0.0033  0.6827 -0.0080
   45TMC2     O  691   4.708   1.666   9.610 -0.3172 -0.1481  0.3784
   45TMC2     H  692   0.230   1.746   9.619 -1.3447 -0.5481 -1.1459
   45TMC2    H1  693   4.630   2.029   9.530 -0.5172 -0.3514 -0.0438
   45TMC2    H2  694   0.305   2.154   9.639 -0.5561  1.0404 -4.7086
   45TMC2    C7  695   0.057   2.249   9.594  0.3395 -0.2966 -0.7246
   45TMC2    C8  696   0.413   1.914   9.655  0.1878 -0.3669  0.1561
   45TMC2    O1  697   0.117   2.325   9.663 -0.4423 -0.0600  0.0547
   45TMC2    O2  698   0.444   1.817   9.722 -0.7494 -0.3966 -0.6000
   45TMC2    O5  699   0.483   1.951   9.544  0.1651  0.6673 -0.3808
   45TMC2    H5  700   0.441   2.025   9.494 -2.8559 -0.0765  1.0670
   46MPD2     C  701   4.459   1.599   9.456  0.7430  0.1412  0.5074
   46MPD2    C1  702   4.509   1.716   9.395  0.4465  0.3202  0.1471
   46MPD2    C2  703   4.442   1.765   9.283  0.2454  0.1452  0.4729
   46MPD2    C3  704   4.331   1.698   9.236 -0.2248 -0.3168 -0.2549
   46MPD2    C4  705   4.287   1.582   9.297 -0.0589 -0.2487 -0.1009
   46MPD2    C5  706   4.346   1.528   9.404 -0.1115  0.3787  0.5437
   46MPD2     H  707   4.449   1.863   9.237  0.3793  0.5141  1.2852
   46MPD2    H1  708   4.193   1.538   9.267  0.0748  0.9558 -2.2980
   46MPD2    H2  709   4.524   1.552   9.529  2.0368 -0.7724 -1.2451
   46MPD2    H3  710   4.310   1.439   9.453 -1.7157  0.3888 -0.6220
   46MPD2     N  711   4.270   1.771   9.130  0.5006  0.3732 -0.0016
   46MPD2    H5  712   4.321   1.855   9.104  0.5312  0.0455 -1.0091
   46MPD2    N1  713   4.618   1.792   9.438  0.2602 -0.0772  0.0347
   46MPD2    H7  714   4.642   1.875   9.385  0.1470 -0.1951 -0.1975
   47TMC2    C1  715   1.482   2.026   9.057  0.5804  0.7009  0.1580
   47TMC2    C2  716   1.517   1.893   9.059 -0.1920  0.6247 -0.1266
   47TMC2    C3  717   1.432   1.796   9.015  0.3617  0.1145  0.2290
   47TMC2    C4  718   1.361   2.060   9.001  0.2632  0.0202 -0.0347
   47TMC2    C5  719   1.278   1.957   8.948  0.2550 -0.1060 -0.6509
   47TMC2    C6  720   1.313   1.828   8.960  0.7843 -0.1804 -0.2025
   47TMC2     C  721   1.577   2.135   9.090 -0.2843 -0.1722  0.0125
   47TMC2     O  722   1.528   2.247   9.067 -0.6980  0.0161  0.2365
   47TMC2     H  723   1.616   1.855   9.084 -0.4610  0.1144  0.1804
   47TMC2    H1  724   1.317   2.152   9.035  0.5088 -1.1684  3.4641
   47TMC2    H2  725   1.248   1.753   8.916 -0.3630  0.3071  0.6500
   47TMC2    C7  726   1.153   1.985   8.888  0.3655 -0.3463  0.1034
   47TMC2    C8  727   1.472   1.657   9.032 -0.1649  0.3744  0.2639
   47TMC2    O1  728   1.061   1.910   8.899 -0.0739 -0.1082 -0.1448
   47TMC2    O2  729   1.586   1.618   9.052  0.1119  0.1187 -0.0529
   47TMC2    O5  730   1.362   1.578   9.031  0.2595 -0.8498 -0.1642
   47TMC2    H5  731   1.284   1.635   9.047  0.4333 -0.7564  0.3508
   48MPD2     C  732   1.827   2.312   9.115 -0.2573  0.3592 -0.1681
   48MPD2    C1  733   1.820   2.175   9.145 -1.1708  0.4966  0.0504
   48MPD2    C2  734   1.932   2.118   9.209 -0.1967  0.3196 -0.5666
   48MPD2    C3  735   2.039   2.193   9.246  0.3741 -0.4438  0.4445
   48MPD2    C4  736   2.045   2.329   9.207  0.1528 -0.4236  0.4273
   48MPD2    C5  737   1.941   2.385   9.148  0.8972 -0.3254 -0.6585
   48MPD2     H  738   1.936   2.016   9.247 -1.7883  0.5030  0.1147
   48MPD2    H1  739   2.135   2.385   9.231  0.6647 -1.4858  0.9811
   48MPD2    H2  740   1.749   2.360   9.057  1.0674  2.1620 -0.4566
   48MPD2    H3  741   1.953   2.489   9.121  0.1227 -0.1758 -0.4263
   48MPD2     N  742   2.139   2.126   9.331 -0.0182 -0.3130 -0.5899
   48MPD2    H5  743   2.133   2.026   9.344 -3.0293  0.1831  2.0079
   48MPD2    N1  744   1.703   2.089   9.128  0.1796 -0.1579  0.0906
   48MPD2    H7  745   1.717   1.990   9.145 -2.8467 -0.9487 -1.9621
   49MPD2     C  746   0.025   0.273   9.969 -0.0520  0.0629  0.4083
   49MPD2    C1  747   0.013   0.169  10.060  0.2173  0.0257  1.0352
   49MPD2    C2  748   0.055   0.188  10.193 -0.5184 -0.3290 -0.6381
   49MPD2    C3  749   0.106   0.313  10.233  0.0898  0.1809 -0.0771
   49MPD2    C4  750   0.122   0.416  10.138 -0.0897  0.3589  0.0972
   49MPD2    C5  751   0.095   0.385  10.006  0.1904  0.4327 -0.5692
   49MPD2     H  752   0.035   0.111  10.265 -0.7601 -0.9813 -1.3986
   49MPD2    H1  753   0.159   0.514  10.165 -1.4260  1.1776 -1.0524
   49MPD2    H2  754   0.002   0.261   9.864  0.9893 -1.2037  0.3242
   49MPD2    H3  755   0.120   0.456   9.928 -0.8468 -2.7165 -3.7646
   49MPD2     N  756   0.149   0.343  10.359  0.2408 -0.6858 -0.1618
   49MPD2    H5  757   0.183   0.437  10.376 -3.5644  0.1626  2.8555
   49MPD2    N1  758   4.684   0.034  10.033  0.6558  0.3504 -0.0097
   49MPD2    H7  759   4.683   4.689  10.110 -0.6701 -0.7395 -0.9388
   50TCq2    C1  760   4.656   4.710   9.909 -0.3826  0.0082  0.1357
   50TCq2    O2  761   4.653   0.044   9.802 -0.0092  0.6050  0.1678
   50TCq2    C2  762   4.655   4.568   9.901  0.2441 -0.1080 -1.0269
   50TCq2    C3  763   4.597   4.515   9.792  0.4328 -0.2661  0.5760
   50TCq2    C4  764   4.605   4.380   9.769 -0.5206 -0.7301 -0.2136
   50TCq2    C5  765   4.660   4.295   9.857  0.1483  0.1212  0.4329
   50TCq2    C6  766   0.010   4.351   9.959 -0.0945  0.2161  0.4392
   50TCq2    C7  767   0.008   4.483   9.981  0.4415 -0.0224 -0.4189
   50TCq2    C8  768   0.048   4.269  10.070  0.0628 -0.0188 -0.8127
   50TCq2    O4  769   4.707   4.163  10.086 -0.5592 -0.4717 -0.4991
   50TCq2    C9  770   4.538   4.315   9.658 -0.5624  0.2078 -0.4703
   50TCq2    O5  771   4.572   4.194   9.631  0.5004  0.0664  0.1303
   50TCq2    O6  772   4.472   4.395   9.588  0.0450 -0.6641 -0.4593
   50TCq2    H2  773   4.539   4.574   9.721 -0.1986 -2.1871 -0.4924
   50TCq2    H3  774   4.665   4.188   9.846 -0.4352 -0.3008  4.4787
   50TCq2    H4  775   0.044   4.519  10.077  0.6217 -0.7473 -0.2100
   51MPD2     C  776   0.527   3.563   1.709  0.0298 -0.0331 -0.4657
   51MPD2    C1  777   0.591   3.508   1.604  0.0307  0.0745 -0.1524
   51MPD2    C2  778   0.728   3.512   1.616  0.5789  0.7841 -0.4722
   51MPD2    C3  779   0.798   3.569   1.722  0.5568  0.0179  0.3548
   51MPD2    C4  780   0.725   3.629   1.824 -0.1482  0.3467  1.3973
   51MPD2    C5  781   0.593   3.631   1.811  0.2825 -0.2736 -0.5013
   51MPD2     H  782   0.786   3.460   1.540  0.5029 -2.1239  1.4368
   51MPD2    H1  783   0.769   3.672   1.913 -0.7832  1.5800  1.1162
   51MPD2    H2  784   0.420   3.578   1.706  0.0932  0.2932 -1.1358
   51MPD2    H3  785   0.534   3.681   1.887 -0.4376 -2.2810  0.2548
   51MPD2     N  786   0.933   3.556   1.744 -0.2916 -0.9421 -0.3899
   51MPD2    H5  787   0.964   3.572   1.840  0.3840  2.0435 -1.1069
   51MPD2    N1  788   0.520   3.454   1.493  0.0858  0.6206 -0.1296
   51MPD2    H7  789   0.577   3.416   1.418 -0.9567  0.2817 -0.7437
   52TCq2    C1  790   1.018   3.495   1.652  0.0311  0.0646  0.3354
   52TCq2    O2  791   1.001   3.461   1.534  0.4572  0.5946 -0.1432
   52TCq2    C2  792   1.154   3.467   1.702  1.0234 -0.3396  0.1916
   52TCq2    C3  793   1.221   3.357   1.661 -0.6295  0.0919 -0.4648
   52TCq2    C4  794   1.336   3.309   1.723 -0.3642 -0.4774 -0.1489
   52TCq2    C5  795   1.381   3.368   1.837 -0.3684  0.1786  0.7595
   52TCq2    C6  796   1.310   3.474   1.881 -0.1008  0.4180 -0.5350
   52TCq2    C7  797   1.186   3.519   1.823 -0.0640  0.7614 -0.5750
   52TCq2    C8  798   1.365   3.561   1.980 -0.3933  0.9277  0.5804
   52TCq2    O4  799   1.316   3.670   1.982  0.1412  0.1355  0.1348
   52TCq2    C9  800   1.405   3.187   1.687  0.6785 -0.3189 -0.0526
   52TCq2    O5  801   1.378   3.130   1.581 -0.3493  0.2487  0.1278
   52TCq2    O6  802   1.477   3.126   1.776  0.0374 -0.1225  0.6474
   52TCq2    H2  803   1.199   3.310   1.566  0.2850 -0.8555 -0.2053
   52TCq2    H3  804   1.470   3.331   1.886 -0.5558 -0.1518  0.8495
   52TCq2    H4  805   1.128   3.597   1.872  0.9522 -0.0927  1.9716
   53TMC2    C1  806   1.180   2.248  11.319 -0.4592 -0.5149 -0.4867
   53TMC2    C2  807   1.310   2.244  11.354  0.6882  0.5595 -0.4230
   53TMC2    C3  808   1.355   2.304  11.469 -1.2604  0.5700  0.1535
   53TMC2    C4  809   1.089   2.307  11.402 -0.0340  0.2134 -0.8692
   53TMC2    C5  810   1.140   2.354  11.525 -0.2229  0.6985 -0.4882
   53TMC2    C6  811   1.272   2.346  11.568 -0.3240  0.7960 -0.1413
   53TMC2     C  812   1.142   2.139  11.228  0.0514  0.1659 -0.1414
   53TMC2     O  813   1.228   2.077  11.166 -0.4281 -0.2152 -0.1910
   53TMC2     H  814   1.376   2.180  11.297 -0.3567 -1.1444  0.2832
   53TMC2    H1  815   0.985   2.316  11.371 -0.1486 -3.4110 -1.4962
   53TMC2    H2  816   1.308   2.399  11.656  0.1768  0.6892 -0.2827
   53TMC2    C7  817   1.036   2.374  11.629  0.6575  0.4824  0.3656
   53TMC2    C8  818   1.478   2.255  11.533  0.1263 -0.1600 -0.2928
   53TMC2    O1  819   0.924   2.371  11.588  0.1469 -0.8368  0.9792
   53TMC2    O2  820   1.577   2.324  11.537 -0.2537  0.4685 -0.3577
   53TMC2    O5  821   1.481   2.120  11.515  0.3102  0.5373 -0.0021
   53TMC2    H5  822   1.394   2.082  11.542 -0.1289 -0.3868 -2.7641
   54MPD2     C  823   0.999   1.964  11.032  0.0473 -0.0198  0.5699
   54MPD2    C1  824   0.948   2.004  11.152 -0.0352  0.1879 -0.0443
   54MPD2    C2  825   0.829   1.953  11.202  0.4193  0.4968 -0.4540
   54MPD2    C3  826   0.763   1.858  11.129 -0.0017 -0.1210 -0.6275
   54MPD2    C4  827   0.812   1.820  11.007 -0.1813  0.4191 -0.0938
   54MPD2    C5  828   0.928   1.874  10.959 -0.2713 -0.7812 -0.0110
   54MPD2     H  829   0.799   1.989  11.300 -1.2969 -0.9903 -0.4412
   54MPD2    H1  830   0.750   1.745  10.960  0.8812 -0.2756 -0.3687
   54MPD2    H2  831   1.088   2.011  10.990 -0.5055 -0.5104 -1.1612
   54MPD2    H3  832   0.963   1.845  10.861 -1.6359  0.4014 -0.8501
   54MPD2     N  833   0.640   1.803  11.168 -0.1680  0.0856 -0.1570
   54MPD2    H5  834   0.590   1.743  11.103  0.6905 -2.5238  1.5965
   54MPD2    N1  835   1.007   2.097  11.236 -0.4660  0.5906 -0.1792
   54MPD2    H7  836   0.950   2.134  11.311  2.0062  2.0057  0.9832
   55MPD2     C  837   1.111   0.415  17.466 -0.0148  0.1742  0.7540
   55MPD2    C1  838   1.051   0.355  17.580  0.3909 -0.0439  0.0002
   55MPD2    C2  839   0.978   0.435  17.665 -0.2880  0.5041  0.1750
   55MPD2    C3  840   0.974   0.573  17.648 -0.4814 -0.4126  0.2547
   55MPD2    C4  841   1.031   0.631  17.537  0.8551 -0.0352 -0.2233
   55MPD2    C5  842   1.098   0.553  17.445 -0.0678 -0.0499 -0.1581
   55MPD2     H  843   0.930   0.394   0.070 -0.8812 -1.4043 -1.0437
   55MPD2    H1  844   1.042   0.738  17.524 -1.9924  0.3097  0.1888
   55MPD2    H2  845   1.171   0.360  17.395  0.6673  1.3622  0.4137
   55MPD2    H3  846   1.153   0.598  17.363 -0.1381  2.0942  0.9796
   55MPD2     N  847   0.919   0.654   0.069  0.1358  0.2945 -0.2034
   55MPD2    H5  848   0.882   0.606   0.150 -0.6774 -1.2437 -1.4905
   55MPD2    N1  849   1.070   0.215  17.596 -0.6252  0.1215  0.4360
   55MPD2    H7  850   1.145   0.171  17.545  0.4681  0.5085  1.7034
   56TCq2    C1  851   1.024   0.143   0.023 -0.4101  0.3800  0.1794
   56TCq2    O2  852   0.940   0.180   0.107  0.9677 -0.1063 -0.8895
   56TCq2    C2  853   1.080   0.011   0.037 -0.5093  1.0186 -0.0389
   56TCq2    C3  854   1.098   4.652  17.604 -0.2357 -0.0603 -0.1331
   56TCq2    C4  855   1.120   4.519  17.609 -0.0971  0.1592 -0.4038
   56TCq2    C5  856   1.142   4.462   0.048  0.1360  0.1660 -0.5328
   56TCq2    C6  857   1.118   4.535   0.158 -0.4762  0.0315 -0.0419
   56TCq2    C7  858   1.075   4.669   0.157 -0.3762  1.0079  0.4227
   56TCq2    C8  859   1.134   4.462   0.289  0.2049  0.3015  0.0973
   56TCq2    O4  860   1.171   4.345   0.283  0.0334 -0.5884 -0.1865
   56TCq2    C9  861   1.151   4.458  17.488  0.0288  0.7018  0.4794
   56TCq2    O5  862   1.178   4.335  17.507  0.4979  0.5332 -0.1145
   56TCq2    O6  863   1.193   4.529  17.394 -0.0347  0.3213  0.1171
   56TCq2    H2  864   1.080   4.702  17.510  0.2664  1.3621  0.5237
   56TCq2    H3  865   1.176   4.359   0.042 -0.3235  0.0717 -1.4685
   56TCq2    H4  866   1.055   0.007   0.246  0.9747  2.8000 -0.4484
   57TMC2    C1  867   0.846   1.562  13.943  0.6372  0.5239 -0.2060
   57TMC2    C2  868   0.922   1.514  14.047 -0.7335 -0.6205 -0.2545
   57TMC2    C3  869   1.035   1.455  14.010  0.9103 -1.4278 -0.1575
   57TMC2    C4  870   0.886   1.562  13.814 -0.2557  0.4798  0.2244
   57TMC2    C5  871   1.010   1.507  13.788 -0.1810 -0.1164 -0.1067
   57TMC2    C6  872   1.088   1.453  13.884 -0.2167  0.2535 -0.8340
   57TMC2     C  873   0.707   1.553  13.975 -0.2832  0.5147 -0.3397
   57TMC2     O  874   0.666   1.591  14.082  0.2424  0.4708  0.0488
   57TMC2     H  875   0.889   1.513  14.151  1.4352 -0.6331  0.4314
   57TMC2    H1  876   0.824   1.590  13.729 -0.5267  2.3787  1.0348
   57TMC2    H2  877   1.176   1.393  13.863 -0.9676 -0.9809 -0.4467
   57TMC2    C7  878   1.056   1.496  13.649 -0.5267 -0.1287  0.3312
   57TMC2    C8  879   1.094   1.354  14.086 -0.4633 -0.0778 -0.6451
   57TMC2    O1  880   0.995   1.563  13.572 -0.5688 -0.0105  0.0418
   57TMC2    O2  881   1.122   1.374  14.205 -0.2127  0.2171 -0.0553
   57TMC2    O5  882   1.019   1.252  14.039  0.4101  0.0836  0.0444
   57TMC2    H5  883   0.997   1.257  13.944 -1.0258 -2.1569  0.2736
   58MPD2     C  884   0.245   1.352  13.860  0.6507  0.8522 -0.4918
   58MPD2    C1  885   0.284   1.432  13.968  0.5319 -0.3636  0.0114
   58MPD2    C2  886   0.418   1.482  13.977  0.0225 -0.0869 -0.5700
   58MPD2    C3  887   0.509   1.433  13.887  0.7513 -0.0201  0.8513
   58MPD2    C4  888   0.476   1.335  13.793 -0.3815 -0.1826  0.4866
   58MPD2    C5  889   0.346   1.291  13.794 -0.2469  0.0915 -0.1315
   58MPD2     H  890   0.441   1.557  14.051 -1.2612 -0.6745  0.4251
   58MPD2    H1  891   0.556   1.276  13.751 -0.5944  1.3784 -2.0580
   58MPD2    H2  892   0.151   1.300  13.849  0.8857  0.4113 -0.4216
   58MPD2    H3  893   0.318   1.205  13.734 -3.0694  1.1958 -0.3719
   58MPD2     N  894   0.643   1.474  13.877  0.2298 -0.3193 -0.6883
   58MPD2    H5  895   0.699   1.441  13.799  1.5549 -1.9120  0.9679
   58MPD2    N1  896   0.185   1.482  14.058  0.6706  0.2684 -0.0871
   58MPD2    H7  897   0.209   1.552  14.128 -1.1699  1.1714 -0.3640
   59MPD2     C  898   3.502   1.291  12.523 -0.2757 -0.0822 -0.0524
   59MPD2    C1  899   3.495   1.421  12.565 -0.0435 -0.1471 -0.2543
   59MPD2    C2  900   3.553   1.455  12.686 -0.2353  0.9658 -0.7536
   59MPD2    C3  901   3.615   1.362  12.761  0.3860 -0.3375  0.5335
   59MPD2    C4  902   3.626   1.226  12.719 -0.3024  0.3531 -0.0546
   59MPD2    C5  903   3.553   1.195  12.608  0.1690 -0.0815 -0.7409
   59MPD2     H  904   3.557   1.560  12.714  1.0888  0.7246 -0.0655
   59MPD2    H1  905   3.667   1.144  12.777  0.1716  0.8523  0.3127
   59MPD2    H2  906   3.459   1.258  12.429  1.6005 -0.9471 -0.6009
   59MPD2    H3  907   3.555   1.091  12.577  0.3304 -0.6654  1.2610
   59MPD2     N  908   3.672   1.392  12.884 -0.9734 -0.9399  0.1831
   59MPD2    H5  909   3.713   1.314  12.935  2.6630  2.0872  1.9956
   59MPD2    N1  910   3.424   1.524  12.486  0.0401  0.3976 -0.3068
   59MPD2    H7  911   3.439   1.623  12.500 -0.3058  0.3787  0.1674
   60TCq2    C1  912   3.344   1.486  12.384 -0.0389  0.1527  0.0026
   60TCq2    O2  913   3.285   1.381  12.369  0.5960 -0.0901 -0.1154
   60TCq2    C2  914   3.323   1.596  12.292 -0.4178 -0.2003 -0.1471
   60TCq2    C3  915   3.215   1.590  12.220  1.0312  0.5077 -1.0209
   60TCq2    C4  916   3.198   1.686  12.129 -0.2130 -0.2088  0.0870
   60TCq2    C5  917   3.284   1.794  12.118  0.3724 -0.1085 -0.7144
   60TCq2    C6  918   3.390   1.794  12.202 -0.2318  0.0631 -0.5552
   60TCq2    C7  919   3.414   1.691  12.285  0.1090 -0.0199  0.3678
   60TCq2    C8  920   3.485   1.907  12.196 -0.8826 -0.5494  0.3375
   60TCq2    O4  921   3.606   1.884  12.195 -0.4360 -0.9505  0.2257
   60TCq2    C9  922   3.067   1.696  12.057 -0.4866  0.8401  0.3696
   60TCq2    O5  923   2.982   1.606  12.089 -0.1312  0.5959 -0.0416
   60TCq2    O6  924   3.060   1.786  11.968  0.3601  0.5591  0.1059
   60TCq2    H2  925   3.142   1.512  12.239  0.3854  2.0765  2.9748
   60TCq2    H3  926   3.270   1.858  12.032  0.2010  0.3206 -0.3663
   60TCq2    H4  927   3.506   1.693  12.342 -0.4418 -1.6429  1.3474
   61MPD2     C  928   2.612   2.183  15.797 -0.0245 -0.8604  0.2132
   61MPD2    C1  929   2.593   2.308  15.743 -0.3785 -0.3224 -0.0255
   61MPD2    C2  930   2.644   2.324  15.617  0.8912 -0.5354  0.0537
   61MPD2    C3  931   2.693   2.221  15.538 -0.4795  1.5072 -0.9371
   61MPD2    C4  932   2.710   2.101  15.602 -0.0706 -0.5422 -0.2428
   61MPD2    C5  933   2.676   2.085  15.732 -0.5723 -0.6582 -0.3109
   61MPD2     H  934   2.634   2.425  15.579 -0.0842 -0.5403  0.2973
   61MPD2    H1  935   2.749   2.012  15.555  0.9720  0.0278 -0.4656
   61MPD2    H2  936   2.582   2.146  15.895 -0.9497 -3.8428 -1.1971
   61MPD2    H3  937   2.688   1.985  15.771 -0.3796 -0.2216  0.7688
   61MPD2     N  938   2.724   2.228  15.404  0.0859  0.1527 -0.6741
   61MPD2    H5  939   2.755   2.140  15.365 -1.7443 -1.2724  1.0871
   61MPD2    N1  940   2.527   2.424  15.801 -0.7325  0.1404 -0.2435
   61MPD2    H7  941   2.513   2.504  15.740  0.6113 -0.0816 -0.8436
   62TCq2    C1  942   2.456   2.420  15.919 -0.0727  0.8045  0.1988
   62TCq2    O2  943   2.439   2.320  15.991 -0.7912 -0.2066  0.7096
   62TCq2    C2  944   2.378   2.538  15.945 -0.4958 -0.2539 -0.3932
   62TCq2    C3  945   2.284   2.531  16.048 -0.3563  0.0123 -0.4246
   62TCq2    C4  946   2.191   2.633  16.063 -0.6126 -0.7812 -0.2543
   62TCq2    C5  947   2.192   2.747  15.986 -0.0832  0.2365 -0.2286
   62TCq2    C6  948   2.293   2.755  15.887  0.0562 -0.1750 -0.0593
   62TCq2    C7  949   2.383   2.658  15.871 -0.1285 -0.2329 -0.0736
   62TCq2    C8  950   2.293   2.860  15.790 -0.0893 -0.6030  0.1738
   62TCq2    O4  951   2.398   2.903  15.749  0.2890  1.0892 -0.9186
   62TCq2    C9  952   2.093   2.622  16.170  0.2473 -0.7560 -0.0029
   62TCq2    O5  953   2.116   2.536  16.257 -0.0561 -0.3993  0.1547
   62TCq2    O6  954   2.024   2.723  16.196  0.4471  0.2067 -0.4408
   62TCq2    H2  955   2.276   2.454  16.124 -1.0954  0.2822 -0.2313
   62TCq2    H3  956   2.126   2.831  16.001 -1.2408 -0.4254 -1.5643
   62TCq2    H4  957   2.460   2.659  15.795 -0.5462  2.2955 -0.4699
   63TMC2    C1  958   1.657   2.598  10.767 -0.7161  0.1331  0.3900
   63TMC2    C2  959   1.570   2.669  10.848  0.4107  0.1331  0.3611
   63TMC2    C3  960   1.619   2.778  10.907  0.6028 -0.3961  0.0202
   63TMC2    C4  961   1.789   2.629  10.748 -0.3703  1.2029  0.0130
   63TMC2    C5  962   1.834   2.742  10.813 -0.1415  0.3883  0.1309
   63TMC2    C6  963   1.751   2.816  10.897 -0.0119 -0.5935  0.0566
   63TMC2     C  964   1.586   2.516  10.671 -1.2046  0.0595  0.7934
   63TMC2     O  965   1.476   2.555  10.638  0.2825 -0.3074  0.6991
   63TMC2     H  966   1.463   2.652  10.855  0.1089  1.2954 -1.5795
   63TMC2    H1  967   1.840   2.573  10.670 -0.6051  2.3972 -0.9783
   63TMC2    H2  968   1.778   2.912  10.939  1.3175 -2.1566  2.7567
   63TMC2    C7  969   1.966   2.795  10.777 -0.2207 -0.3228  0.4360
   63TMC2    C8  970   1.535   2.857  10.999  0.3730  0.5118  0.4433
   63TMC2    O1  971   2.011   2.759  10.667  0.4283  0.1870  0.3859
   63TMC2    O2  972   1.412   2.853  11.005  0.5433  0.3192 -0.6339
   63TMC2    O5  973   1.608   2.826  11.109  0.1831 -0.1653 -0.0496
   63TMC2    H5  974   1.700   2.791  11.107 -0.3386 -1.5950  0.6684
   64MPD2     C  975   1.585   2.138  10.339  0.1235 -0.3193  0.2024
   64MPD2    C1  976   1.689   2.116  10.419  0.0187  0.1962 -0.0259
   64MPD2    C2  977   1.706   2.205  10.526 -0.8436 -0.0759 -0.5944
   64MPD2    C3  978   1.620   2.312  10.543  0.2212  0.0287  0.1715
   64MPD2    C4  979   1.508   2.326  10.461 -0.0998 -0.0317  0.2204
   64MPD2    C5  980   1.492   2.240  10.357 -0.3790 -0.7509  0.8177
   64MPD2     H  981   1.783   2.205  10.601 -1.3558  2.7136 -0.0553
   64MPD2    H1  982   1.436   2.407  10.466  2.4885  2.2706  0.1301
   64MPD2    H2  983   1.580   2.076  10.250 -1.5626  0.5039 -0.2769
   64MPD2    H3  984   1.409   2.248  10.288 -0.1098 -2.0675  0.3447
   64MPD2     N  985   1.661   2.409  10.636  0.3633 -0.5594  0.1954
   64MPD2    H5  986   1.755   2.407  10.673  0.7702  2.4907 -0.7031
   64MPD2    N1  987   1.777   2.009  10.406  0.4802 -0.1961  0.5858
   64MPD2    H7  988   1.855   2.001  10.470  1.0021 -0.7108 -0.1169
   65MPD2     C  989   3.003   1.856  15.796  0.7699 -0.1966  0.7953
   65MPD2    C1  990   3.016   1.867  15.657 -0.0869  0.3546  0.7273
   65MPD2    C2  991   2.960   1.770  15.573 -0.3063 -0.0578 -0.0011
   65MPD2    C3  992   2.901   1.660  15.627 -0.0622 -0.3541  0.1339
   65MPD2    C4  993   2.897   1.641  15.766 -0.2665  0.9579 -0.4358
   65MPD2    C5  994   2.943   1.745  15.847  0.2451 -0.0107 -0.2411
   65MPD2     H  995   2.951   1.790  15.466 -0.9412  1.6055  0.3498
   65MPD2    H1  996   2.864   1.550  15.816  1.3494  0.8810  0.4849
   65MPD2    H2  997   3.044   1.926  15.868  0.8125  0.1082  0.4736
   65MPD2    H3  998   2.937   1.738  15.955  0.6765  1.7388 -0.1013
   65MPD2     N  999   2.856   1.557  15.540 -0.0295 -0.5282 -0.0684
   65MPD2    H5 1000   2.802   1.488  15.592  1.6857 -1.5959  0.3147
   65MPD2    N1 1001   3.067   1.983  15.590 -0.0837  0.0239 -0.8047
   65MPD2    H7 1002   3.068   1.976  15.489 -0.5924 -2.1841 -0.6590
   66TCq2    C1 1003   3.103   2.102  15.649  0.1952 -0.4663 -0.7430
   66TCq2    O2 1004   3.083   2.138  15.764 -0.0788  0.1806  0.1062
   66TCq2    C2 1005   3.147   2.201  15.553  0.2143  0.2661  0.4564
   66TCq2    C3 1006   3.191   2.159  15.430  0.4742  0.0320  0.9369
   66TCq2    C4 1007   3.189   2.242  15.323 -0.1317 -0.3824 -0.6144
   66TCq2    C5 1008   3.145   2.371  15.343  0.1225  0.1712 -0.7666
   66TCq2    C6 1009   3.126   2.415  15.471  0.0729 -0.3866 -0.3055
   66TCq2    C7 1010   3.121   2.333  15.579  0.3406  0.5025 -0.1553
   66TCq2    C8 1011   3.073   2.547  15.484 -0.2066 -0.1008 -0.1858
   66TCq2    O4 1012   3.107   2.624  15.400 -0.1045  0.4622  0.0257
   66TCq2    C9 1013   3.226   2.194  15.191 -0.2997 -0.4286 -0.0164
   66TCq2    O5 1014   3.264   2.270  15.097  0.4993 -0.5487 -0.2435
   66TCq2    O6 1015   3.213   2.067  15.189 -0.7191  0.0988  0.1331
   66TCq2    H2 1016   3.230   2.059  15.414 -0.1494 -0.4034  2.1355
   66TCq2    H3 1017   3.143   2.442  15.261  2.7549  1.7248  0.5160
   66TCq2    H4 1018   3.098   2.353  15.683  3.3307 -1.8718  0.9432
   67MPD2     C 1019   3.261   1.716  13.774 -0.1835 -0.8024  0.1976
   67MPD2    C1 1020   3.159   1.716  13.868 -0.0490  0.6278 -0.1838
   67MPD2    C2 1021   3.031   1.735  13.815 -0.1813 -0.2341 -0.3369
   67MPD2    C3 1022   3.005   1.757  13.683 -0.3924  0.2732 -0.2936
   67MPD2    C4 1023   3.105   1.760  13.590  0.2283 -0.1425  0.9182
   67MPD2    C5 1024   3.234   1.737  13.638 -0.9186 -0.0360  1.1079
   67MPD2     H 1025   2.946   1.728  13.881 -0.3487  1.6829 -0.3457
   67MPD2    H1 1026   3.085   1.774  13.484 -0.8417 -0.4499  1.0817
   67MPD2    H2 1027   3.361   1.682  13.799  0.2988  0.1516 -0.4173
   67MPD2    H3 1028   3.320   1.735  13.573 -1.7538  2.0181 -0.0321
   67MPD2     N 1029   2.881   1.789  13.627 -0.4912  0.3982 -1.0157
   67MPD2    H5 1030   2.883   1.814  13.529 -0.9548 -0.2508 -1.1877
   67MPD2    N1 1031   3.179   1.688  14.005 -0.4858  0.2553 -0.0067
   67MPD2    H7 1032   3.118   1.710  14.084  0.5625  1.9101  0.3473
   68TCq2    C1 1033   3.294   1.635  14.052 -0.1620  0.3078 -0.1571
   68TCq2    O2 1034   3.374   1.573  13.984  0.0385 -0.5273 -0.1435
   68TCq2    C2 1035   3.326   1.676  14.191  0.1629 -0.2936  0.1896
   68TCq2    C3 1036   3.261   1.777  14.258 -0.0262 -0.1502  0.2746
   68TCq2    C4 1037   3.299   1.810  14.385  0.2877  0.0802 -0.8466
   68TCq2    C5 1038   3.402   1.737  14.447 -0.0890 -0.1898  0.0462
   68TCq2    C6 1039   3.454   1.633  14.382 -0.0151  0.5458 -0.1285
   68TCq2    C7 1040   3.426   1.610  14.257 -0.2955 -0.7389 -0.5363
   68TCq2    C8 1041   3.547   1.543  14.446  0.0727 -0.7604 -0.1202
   68TCq2    O4 1042   3.650   1.522  14.383  0.0736  0.3184 -0.1077
   68TCq2    C9 1043   3.220   1.899  14.469  1.1935  0.2166 -0.1929
   68TCq2    O5 1044   3.212   1.865  14.588  0.1119  0.0398 -0.2429
   68TCq2    O6 1045   3.161   1.992  14.414  0.2862  0.1938  0.4393
   68TCq2    H2 1046   3.178   1.833  14.216 -0.0191  0.4163  1.0123
   68TCq2    H3 1047   3.425   1.757  14.551  2.3053  0.9966 -0.7188
   68TCq2    H4 1048   3.471   1.526  14.205  1.3618 -0.4936  0.4874
   69TMC2    C1 1049   1.426   2.882  12.400  0.2356 -0.2151  0.1998
   69TMC2    C2 1050   1.441   3.003  12.458 -0.2053 -0.1648  0.1693
   69TMC2    C3 1051   1.462   3.111  12.373 -0.0977 -0.0616  0.0252
   69TMC2    C4 1052   1.447   2.864  12.262  1.0896 -0.9113 -0.3067
   69TMC2    C5 1053   1.463   2.974  12.187  0.1838 -0.1205 -0.7060
   69TMC2    C6 1054   1.465   3.098  12.237 -0.4749  0.3732  0.7823
   69TMC2     C 1055   1.390   2.757  12.474 -1.2763 -0.5864 -0.0710
   69TMC2     O 1056   1.377   2.764  12.596 -0.1824  0.6041  0.0296
   69TMC2     H 1057   1.432   3.012  12.566 -2.6446  1.7016 -0.2054
   69TMC2    H1 1058   1.443   2.766  12.214  2.6834 -0.5859 -1.0959
   69TMC2    H2 1059   1.499   3.171  12.164 -0.1035 -0.6106 -0.0166
   69TMC2    C7 1060   1.454   2.965  12.040  0.1084 -0.1428 -0.2844
   69TMC2    C8 1061   1.512   3.230  12.429 -0.0239 -0.9050  0.5446
   69TMC2    O1 1062   1.468   2.853  11.994  0.2813 -0.0106 -0.0393
   69TMC2    O2 1063   1.537   3.239  12.549 -0.4841  0.1964  0.6183
   69TMC2    O5 1064   1.486   3.332  12.346 -0.0090  0.0623  0.1750
   69TMC2    H5 1065   1.421   3.303  12.279  0.2508 -0.9102  0.3400
   70MPD2     C 1066   1.216   2.464  12.327 -0.1273 -0.4434 -0.1513
   70MPD2    C1 1067   1.279   2.541  12.428 -0.4865  0.1461  0.6141
   70MPD2    C2 1068   1.295   2.487  12.557  0.5362  0.2795  0.7880
   70MPD2    C3 1069   1.224   2.370  12.588 -0.4004  0.3445  0.2098
   70MPD2    C4 1070   1.146   2.306  12.490 -0.2029 -0.1502  0.4162
   70MPD2    C5 1071   1.148   2.351  12.359  0.4234 -0.0221  0.0997
   70MPD2     H 1072   1.342   2.538  12.640  1.3164 -1.8981  1.6856
   70MPD2    H1 1073   1.075   2.229  12.514 -1.7098  1.3286  0.7176
   70MPD2    H2 1074   1.210   2.507  12.228 -0.4709  0.6880  0.3708
   70MPD2    H3 1075   1.097   2.299  12.279 -1.6932  1.8924  0.2078
   70MPD2     N 1076   1.228   2.329  12.724  0.1974 -0.4536 -0.2793
   70MPD2    H5 1077   1.310   2.361  12.773  0.1299  0.9920 -1.1168
   70MPD2    N1 1078   1.338   2.662  12.389 -0.0973 -0.0640 -0.6518
   70MPD2    H7 1079   1.346   2.675  12.289 -3.0263  2.9448 -0.4822
   71TMC2    C1 1080   1.974   3.071   1.583  0.4228  0.1933  0.1409
   71TMC2    C2 1081   1.999   2.977   1.682 -0.1168  0.1687  0.3291
   71TMC2    C3 1082   1.989   3.025   1.807  0.0190 -0.0195 -0.5056
   71TMC2    C4 1083   1.938   3.195   1.600 -0.3776 -0.6878  0.0910
   71TMC2    C5 1084   1.926   3.242   1.727  0.2581  0.3962 -0.4537
   71TMC2    C6 1085   1.949   3.155   1.839 -0.8154 -0.1562  0.1323
   71TMC2     C 1086   1.952   3.030   1.444 -0.0422  0.3769 -0.3097
   71TMC2     O 1087   1.927   3.121   1.366 -0.0482 -0.0690  0.0079
   71TMC2     H 1088   2.039   2.877   1.667 -1.1001  0.0108 -1.2684
   71TMC2    H1 1089   1.925   3.268   1.521 -0.1650  0.0527  0.7480
   71TMC2    H2 1090   1.920   3.180   1.940  2.0151 -1.7163  1.3220
   71TMC2    C7 1091   1.863   3.369   1.756  0.1586  0.8857 -0.3955
   71TMC2    C8 1092   1.977   2.929   1.916  0.1966  0.4613 -0.1363
   71TMC2    O1 1093   1.865   3.389   1.876  0.0889  0.0156 -0.8142
   71TMC2    O2 1094   2.033   2.938   2.024  0.2040 -0.0210  0.3925
   71TMC2    O5 1095   1.853   2.878   1.901  0.6135  0.2480  0.4750
   71TMC2    H5 1096   1.819   2.899   1.812  0.3070  1.6999  0.9271
   72MPD2     C 1097   1.848   2.714   1.066  0.3351 -0.3515 -0.0494
   72MPD2    C1 1098   1.902   2.837   1.061  0.7640  0.0321  0.0354
   72MPD2    C2 1099   1.919   2.905   1.182 -0.7447 -0.0275 -0.1971
   72MPD2    C3 1100   1.895   2.839   1.305 -0.0851  0.3704  0.0442
   72MPD2    C4 1101   1.826   2.719   1.306  0.3431  0.2985 -0.3770
   72MPD2    C5 1102   1.807   2.657   1.185  0.1062  0.0607 -0.1827
   72MPD2     H 1103   1.971   3.000   1.177 -1.9866  0.6792  0.3000
   72MPD2    H1 1104   1.797   2.668   1.397 -1.4150  0.3431 -0.9096
   72MPD2    H2 1105   1.838   2.662   0.972 -2.8136  0.2674 -0.0678
   72MPD2    H3 1106   1.752   2.564   1.183 -2.7512  1.7873 -1.1858
   72MPD2     N 1107   1.925   2.897   1.432 -0.6367 -0.4059  0.2899
   72MPD2    H5 1108   1.902   2.853   1.520  3.3521 -1.0776  1.0092
   72MPD2    N1 1109   1.922   2.886   0.934  0.7432  0.3130 -0.3049
   72MPD2    H7 1110   1.897   2.827   0.856  1.1734 -0.5422  0.2123
   73TMC2    C1 1111   2.524   0.463  14.025  0.3090 -0.1059  0.3933
   73TMC2    C2 1112   2.427   0.482  14.117 -0.6681  0.7955  0.6280
   73TMC2    C3 1113   2.448   0.432  14.241  0.2736 -0.6517  0.1270
   73TMC2    C4 1114   2.634   0.389  14.051  0.2886  0.1164  0.2674
   73TMC2    C5 1115   2.664   0.359  14.179 -0.6935 -0.4078 -0.2000
   73TMC2    C6 1116   2.574   0.387  14.282 -0.2724  0.9054  0.7447
   73TMC2     C 1117   2.556   0.590  13.965  0.1595  0.5411  0.6570
   73TMC2     O 1118   2.671   0.622  13.978 -0.1138  0.1060 -0.5257
   73TMC2     H 1119   2.343   0.550  14.105  0.0627  1.0722 -3.0995
   73TMC2    H1 1120   2.713   0.381  13.977  0.1932 -0.5755  0.2408
   73TMC2    H2 1121   2.594   0.358  14.384  2.2969 -2.3444 -0.6609
   73TMC2    C7 1122   2.801   0.384  14.209 -0.2936  0.6777  0.4283
   73TMC2    C8 1123   2.363   0.487  14.343 -1.0395 -0.4096  0.2797
   73TMC2    O1 1124   2.847   0.307  14.293 -0.1951  0.6393  0.4120
   73TMC2    O2 1125   2.324   0.603  14.345 -0.0981  0.5273  0.1251
   73TMC2    O5 1126   2.342   0.401  14.438 -0.1414  0.2277 -0.2652
   73TMC2    H5 1127   2.366   0.308  14.422  1.4088  1.0441 -2.7109
   74MPD2     C 1128   2.489   1.017  13.699  0.1794 -0.4180 -0.4242
   74MPD2    C1 1129   2.587   0.977  13.782  0.2867 -0.6504  0.5926
   74MPD2    C2 1130   2.571   0.867  13.858 -0.0187  0.1122  0.7230
   74MPD2    C3 1131   2.470   0.780  13.822 -0.3088  0.5593  0.0413
   74MPD2    C4 1132   2.368   0.818  13.738 -0.0586  0.5912  0.3210
   74MPD2    C5 1133   2.379   0.938  13.681 -0.0414  0.1261  0.2430
   74MPD2     H 1134   2.643   0.839  13.934 -0.1420 -1.4247  0.2815
   74MPD2    H1 1135   2.274   0.766  13.725  0.3094  0.7952 -3.2081
   74MPD2    H2 1136   2.511   1.105  13.639  1.6245 -0.5189 -0.0340
   74MPD2    H3 1137   2.298   0.974  13.618 -0.8966  0.4632  1.5369
   74MPD2     N 1138   2.453   0.654  13.885  0.2898  0.1795  0.0832
   74MPD2    H5 1139   2.378   0.593  13.853 -1.6496  2.5482  0.1338
   74MPD2    N1 1140   2.703   1.055  13.785 -0.2376 -0.2427 -0.0363
   74MPD2    H7 1141   2.713   1.132  13.720 -0.3326 -1.9350 -2.0659
   75TCq2    C1 1142   2.762   1.778  13.694 -0.3367 -0.6169 -0.3358
   75TCq2    O2 1143   2.731   1.726  13.797 -0.4698 -0.1679  0.2560
   75TCq2    C2 1144   2.660   1.843  13.611 -0.2507 -0.2887 -0.3323
   75TCq2    C3 1145   2.534   1.828  13.674 -0.4768  0.0899  0.0484
   75TCq2    C4 1146   2.436   1.925  13.645 -0.1971  0.1530 -0.0640
   75TCq2    C5 1147   2.470   2.035  13.568 -0.4906  0.0494  0.0026
   75TCq2    C6 1148   2.591   2.035  13.509  0.1115 -0.6474 -0.4811
   75TCq2    C7 1149   2.688   1.945  13.519  0.0620 -0.8280 -0.5796
   75TCq2    C8 1150   2.602   2.129  13.402  0.2471  0.6732 -0.1436
   75TCq2    O4 1151   2.648   2.084  13.298  0.2880  0.8522 -0.1937
   75TCq2    C9 1152   2.297   1.901  13.681  0.4002 -0.0484 -0.1419
   75TCq2    O5 1153   2.278   1.822  13.777  0.4595 -0.0628  0.3261
   75TCq2    O6 1154   2.210   1.965  13.615  0.1574  0.5731  0.1274
   75TCq2    H2 1155   2.499   1.735  13.716 -0.1260  0.1703  0.5224
   75TCq2    H3 1156   2.391   2.104  13.540 -1.8769 -0.9790  1.3530
   75TCq2    H4 1157   2.783   1.956  13.468 -0.5033  0.5962 -1.2999
   76MPD2     C 1158   2.071   2.385  11.496 -0.2297 -0.6622 -0.1743
   76MPD2    C1 1159   1.946   2.323  11.482  0.5645  0.4140 -0.2947
   76MPD2    C2 1160   1.926   2.192  11.529 -0.2433 -0.7446 -0.0003
   76MPD2    C3 1161   2.031   2.124  11.585  1.0397  0.2372  0.1810
   76MPD2    C4 1162   2.149   2.184  11.608  0.0569 -0.6096  0.1107
   76MPD2    C5 1163   2.172   2.308  11.561  0.3309  0.5562  0.5374
   76MPD2     H 1164   1.832   2.139  11.518  0.1580 -2.0876  2.9412
   76MPD2    H1 1165   2.230   2.134  11.660  0.2662 -1.5406 -1.1049
   76MPD2    H2 1166   2.091   2.490  11.477 -1.2091 -0.0359  2.2757
   76MPD2    H3 1167   2.272   2.347  11.573  1.1694 -1.2001 -0.7618
   76MPD2     N 1168   2.033   1.985  11.631  0.6196 -0.1034 -0.2692
   76MPD2    H5 1169   2.112   1.953  11.686  0.4608 -1.0456 -0.6003
   76MPD2    N1 1170   1.832   2.392  11.437  0.1248 -0.0370  0.4241
   76MPD2    H7 1171   1.745   2.349  11.463  0.2472 -0.1711  0.6096
   77TCq2    C1 1172   1.925   1.905  11.616  0.0767 -0.2727  0.4147
   77TCq2    O2 1173   1.810   1.924  11.574  0.2884  0.1249  0.1940
   77TCq2    C2 1174   1.957   1.769  11.655  0.1680 -0.0473 -0.1914
   77TCq2    C3 1175   1.853   1.685  11.696  0.0600 -0.2993  0.0429
   77TCq2    C4 1176   1.878   1.555  11.735 -0.5459  0.4818 -0.3657
   77TCq2    C5 1177   2.009   1.508  11.730 -0.0898  0.2669 -0.4794
   77TCq2    C6 1178   2.107   1.592  11.692  0.9285  0.6652 -0.9778
   77TCq2    C7 1179   2.089   1.722  11.654  0.3200 -0.4762  0.1637
   77TCq2    C8 1180   2.242   1.543  11.720  0.4992  0.5308 -0.1015
   77TCq2    O4 1181   2.242   1.419  11.720  0.0214 -0.7235  0.8705
   77TCq2    C9 1182   1.770   1.478  11.787 -0.5339  0.1923 -0.5180
   77TCq2    O5 1183   1.784   1.350  11.791 -0.2150 -0.6667 -0.6538
   77TCq2    O6 1184   1.655   1.526  11.801 -0.3368 -0.4091  0.0136
   77TCq2    H2 1185   1.755   1.731  11.699 -0.7077 -1.9915  0.7604
   77TCq2    H3 1186   2.028   1.414  11.780 -0.3277  0.3888 -0.1556
   77TCq2    H4 1187   2.175   1.779  11.619 -0.8820  2.4734  2.0403
   78MPD1     C 1188   2.446   1.045   1.588 -1.3379  0.0671  0.8777
   78MPD1    C1 1189   2.472   1.180   1.573 -0.2536 -0.1864 -0.4525
   78MPD1    C2 1190   2.587   1.232   1.635 -0.1161  0.4909  0.0507
   78MPD1    C3 1191   2.684   1.159   1.700 -0.4218  0.1218 -0.2228
   78MPD1    C4 1192   2.674   1.024   1.678  0.3215  0.0788  0.1646
   78MPD1    C5 1193   2.550   0.965   1.636 -0.0532  0.3437 -0.5296
   78MPD1     H 1194   2.580   1.339   1.656  1.7811  0.7429 -0.6069
   78MPD1    H1 1195   2.753   0.963   1.721  2.3535  1.1039 -2.1027
   78MPD1    H2 1196   2.345   1.007   1.577 -0.7117 -1.0986 -0.7573
   78MPD1    H3 1197   2.547   0.857   1.643 -0.1464  0.2421 -2.0269
   78MPD1     N 1198   2.789   1.208   1.781 -0.2213 -0.1492 -0.2391
   78MPD1    H5 1199   2.845   1.144   1.836  0.9000  0.7556 -0.3210
   78MPD1    N1 1200   2.369   1.259   1.524  0.3538 -0.1245 -0.2950
   78MPD1    H6 1201   2.318   1.207   1.453 -1.2730 -0.2042  0.9483
   78MPD1    H7 1202   2.413   1.344   1.487  0.8854  0.2188  1.1344
   79TCq2    C1 1203   2.809   1.343   1.798 -0.4152  0.1510 -0.0757
   79TCq2    O2 1204   2.758   1.434   1.741 -0.0340  0.0177 -0.3214
   79TCq2    C2 1205   2.904   1.379   1.906 -0.2557  0.6471 -0.0958
   79TCq2    C3 1206   2.963   1.277   1.977 -0.0470 -0.8135 -0.2695
   79TCq2    C4 1207   3.077   1.307   2.049  0.5547  0.5313 -0.3610
   79TCq2    C5 1208   3.123   1.433   2.064 -0.3380 -0.4309 -0.4524
   79TCq2    C6 1209   3.055   1.533   2.004  0.7284  0.1122 -0.7523
   79TCq2    C7 1210   2.948   1.505   1.916 -0.3706 -0.3363 -0.2282
   79TCq2    C8 1211   3.107   1.670   2.031  0.1137 -0.2182  0.5105
   79TCq2    O4 1212   3.224   1.683   2.060 -0.2198  0.6665 -0.2090
   79TCq2    C9 1213   3.143   1.192   2.106  0.3594  0.5947 -0.7875
   79TCq2    O5 1214   3.117   1.082   2.056  0.5274  0.0390  0.2955
   79TCq2    O6 1215   3.211   1.200   2.210 -0.4134 -0.6741  0.3228
   79TCq2    H2 1216   2.928   1.174   1.973  1.1616 -1.1349 -2.1517
   79TCq2    H3 1217   3.209   1.458   2.125  0.3756 -0.0032 -1.6448
   79TCq2    H4 1218   2.908   1.586   1.855 -0.8792 -0.6420 -0.2958
   80MPD2     C 1219   0.840   2.177  12.183  0.3541  0.2192  0.2819
   80MPD2    C1 1220   0.751   2.152  12.078  0.5037  0.0895 -0.5813
   80MPD2    C2 1221   0.613   2.159  12.104 -0.2749 -0.0878  0.4867
   80MPD2    C3 1222   0.565   2.198  12.229  0.2622  0.6885  0.1798
   80MPD2    C4 1223   0.654   2.233  12.324  0.6584 -0.8191 -0.5980
   80MPD2    C5 1224   0.788   2.229  12.303  0.4325  0.1965 -0.4876
   80MPD2     H 1225   0.552   2.152  12.015  0.9089 -0.4180 -0.3022
   80MPD2    H1 1226   0.619   2.270  12.420 -0.6548 -0.8226 -1.0650
   80MPD2    H2 1227   0.948   2.167  12.176  0.4086  0.5891  0.5990
   80MPD2    H3 1228   0.855   2.262  12.382  0.2111  0.7129 -0.5155
   80MPD2     N 1229   0.429   2.201  12.253  0.3001  0.8198  0.0625
   80MPD2    H5 1230   0.410   2.233  12.347  3.2676 -2.1544  1.6742
   80MPD2    N1 1231   0.783   2.108  11.957 -0.1844 -0.4239 -0.2534
   80MPD2    H7 1232   0.704   2.087  11.897 -0.4197  0.9800 -0.4427
   81TCq2    C1 1233   0.912   2.077  11.905  0.4695 -0.5392 -0.0473
   81TCq2    O2 1234   1.019   2.104  11.957 -0.0852  0.2986  0.3429
   81TCq2    C2 1235   0.903   2.003  11.782  0.3309  1.0223  0.1181
   81TCq2    C3 1236   1.017   2.019  11.706 -0.1151  0.2737 -0.2436
   81TCq2    C4 1237   1.045   1.922  11.622 -0.0320 -0.2671  0.4930
   81TCq2    C5 1238   0.970   1.810  11.606  0.6344 -0.3938 -0.0351
   81TCq2    C6 1239   0.854   1.800  11.681  0.7482 -0.2100 -0.4317
   81TCq2    C7 1240   0.819   1.900  11.768  0.0869  0.2106 -0.6133
   81TCq2    C8 1241   0.789   1.670  11.677  0.7995  0.4198 -0.4753
   81TCq2    O4 1242   0.809   1.609  11.575 -0.2301  0.2010 -0.4801
   81TCq2    C9 1243   1.160   1.943  11.542  0.5184 -0.0630  0.4461
   81TCq2    O5 1244   1.244   2.036  11.573 -0.1195 -0.3685  1.2842
   81TCq2    O6 1245   1.185   1.850  11.461 -0.2527 -0.4315  0.0776
   81TCq2    H2 1246   1.085   2.102  11.718  2.1340 -1.7080  0.6628
   81TCq2    H3 1247   0.993   1.733  11.533  0.8993 -2.3372  2.0849
   81TCq2    H4 1248   0.714   1.909  11.795  0.4644 -0.0271  0.9833
   82MPD2     C 1249   3.627   1.663  10.422  0.1812 -0.3472  0.3733
   82MPD2    C1 1250   3.626   1.544  10.356  0.0307  0.2228 -0.0501
   82MPD2    C2 1251   3.709   1.443  10.414  0.2069 -0.5312  0.4806
   82MPD2    C3 1252   3.797   1.469  10.518 -0.1986  0.2334 -0.1623
   82MPD2    C4 1253   3.793   1.587  10.579 -0.4106  0.3478  1.4894
   82MPD2    C5 1254   3.698   1.676  10.540 -0.1930  0.0166 -0.3322
   82MPD2     H 1255   3.709   1.347  10.364  0.7225 -0.2456 -0.0777
   82MPD2    H1 1256   3.855   1.609  10.665 -0.3462 -2.4953  2.1381
   82MPD2    H2 1257   3.553   1.739  10.398 -0.8050 -0.5449  2.7719
   82MPD2    H3 1258   3.689   1.770  10.594 -0.1082  0.1938 -0.6260
   82MPD2     N 1259   3.893   1.374  10.564  0.1468 -0.1789 -0.0345
   82MPD2    H5 1260   3.960   1.415  10.628 -0.9422  0.5642  0.6359
   82MPD2    N1 1261   3.574   1.531  10.231  0.7151 -0.9343  0.2176
   82MPD2    H7 1262   3.544   1.620  10.192  3.7510 -0.5902 -1.3706
   83TCq2    C1 1263   3.891   1.239  10.543 -0.3611  0.0339 -0.3021
   83TCq2    O2 1264   3.801   1.172  10.492 -0.5080  0.6093 -0.6453
   83TCq2    C2 1265   4.013   1.181  10.586  0.1299  0.1691  0.2468
   83TCq2    C3 1266   4.121   1.258  10.606 -0.7047 -0.0353  0.2267
   83TCq2    C4 1267   4.216   1.220  10.695 -0.4090 -0.2110  0.5470
   83TCq2    C5 1268   4.211   1.103  10.756  0.8638  0.0859 -0.0514
   83TCq2    C6 1269   4.107   1.012  10.722  0.4338 -1.0187 -0.3962
   83TCq2    C7 1270   4.011   1.054  10.637  0.0009  0.4379 -0.1410
   83TCq2    C8 1271   4.074   0.913  10.823 -0.1640  0.2415 -0.2847
   83TCq2    O4 1272   4.114   0.931  10.936  0.6376  0.0226 -0.8473
   83TCq2    C9 1273   4.349   1.285  10.716  0.2997 -1.0423 -0.1073
   83TCq2    O5 1274   4.410   1.255  10.822 -0.1948  0.0817  0.2325
   83TCq2    O6 1275   4.391   1.379  10.639  0.1304  0.1795  0.0772
   83TCq2    H2 1276   4.143   1.349  10.550  0.2562 -1.7049 -2.0894
   83TCq2    H3 1277   4.288   1.056  10.816  0.7738  0.5024  0.3942
   83TCq2    H4 1278   3.925   0.993  10.610  2.1845 -1.6897 -2.2242
   84TCq2    C1 1279   0.162   0.256  10.468  0.2297 -0.0104 -0.0865
   84TCq2    O2 1280   0.115   0.147  10.494  0.4005  0.2533  0.2955
   84TCq2    C2 1281   0.244   0.321  10.575 -0.8136  0.3429 -0.4230
   84TCq2    C3 1282   0.334   0.418  10.539 -0.5916 -0.7664  0.3615
   84TCq2    C4 1283   0.413   0.474  10.636 -0.1774  0.5027 -0.1550
   84TCq2    C5 1284   0.411   0.422  10.761  0.9761  0.2480  0.3293
   84TCq2    C6 1285   0.314   0.326  10.793 -0.2813 -0.1535 -0.1162
   84TCq2    C7 1286   0.246   0.262  10.701  0.0164  0.3519  0.7373
   84TCq2    C8 1287   0.303   0.286  10.931 -0.5850 -0.5720  0.6741
   84TCq2    O4 1288   0.340   0.370  11.010 -0.1712  0.1904  0.1001
   84TCq2    C9 1289   0.503   0.582  10.599 -0.4573 -0.2325  0.2869
   84TCq2    O5 1290   0.590   0.600  10.692 -0.0568  0.3385  0.4698
   84TCq2    O6 1291   0.515   0.618  10.478  1.1920 -0.2030  0.3779
   84TCq2    H2 1292   0.363   0.452  10.440 -0.4070  1.8650  1.3106
   84TCq2    H3 1293   0.478   0.455  10.839  1.3619  0.6967 -0.1969
   84TCq2    H4 1294   0.180   0.180  10.727  0.9860 -0.0984  1.7560
   85MPD2     C 1295   0.540   2.894  16.672  0.5208 -0.0168 -0.5615
   85MPD2    C1 1296   0.478   2.894  16.547  0.4813 -0.3587 -0.4871
   85MPD2    C2 1297   0.527   2.970  16.449 -0.2015  0.3666  0.4744
   85MPD2    C3 1298   0.616   3.069  16.476 -0.1280 -0.4409  0.0213
   85MPD2    C4 1299   0.669   3.086  16.604 -0.1071 -0.1307 -0.2109
   85MPD2    C5 1300   0.639   2.985  16.698  0.3505 -0.1017 -0.3658
   85MPD2     H 1301   0.497   2.953  16.347 -0.5652  0.8773  0.4940
   85MPD2    H1 1302   0.738   3.163  16.636 -0.2732 -1.1905  2.6309
   85MPD2    H2 1303   0.514   2.834  16.759 -0.5668  0.9594 -0.2285
   85MPD2    H3 1304   0.674   2.994  16.800  1.1734  0.6230 -0.7154
   85MPD2     N 1305   0.646   3.161  16.372 -0.0907 -1.3133 -0.0261
   85MPD2    H5 1306   0.597   3.151  16.284  2.2276  2.0095 -1.6878
   85MPD2    N1 1307   0.368   2.812  16.526  0.0513 -0.1016  0.5213
   85MPD2    H7 1308   0.338   2.793  16.431  2.7912  2.5039 -0.8580
   86TCq2    C1 1309   0.721   3.279  16.388  0.3319 -0.6791  0.4773
   86TCq2    O2 1310   0.773   3.329  16.487  0.0159  0.3080 -0.8155
   86TCq2    C2 1311   0.715   3.366  16.275  0.1767  0.4020  0.3652
   86TCq2    C3 1312   0.647   3.490  16.276  0.0198 -0.1718 -0.5540
   86TCq2    C4 1313   0.642   3.573  16.165  0.1908  1.1266  0.3631
   86TCq2    C5 1314   0.710   3.536  16.050  0.2200  0.2142 -0.2637
   86TCq2    C6 1315   0.782   3.415  16.056 -0.0702  0.0636  0.2195
   86TCq2    C7 1316   0.789   3.336  16.164 -0.1792 -0.0853  0.6812
   86TCq2    C8 1317   0.913   3.409  15.987 -0.6068 -0.0620 -0.3728
   86TCq2    O4 1318   1.007   3.352  16.044  0.4518 -0.1160 -0.0803
   86TCq2    C9 1319   0.578   3.700  16.177  0.1197  0.4496 -0.4867
   86TCq2    O5 1320   0.490   3.704  16.267  0.1859  0.5847  0.3152
   86TCq2    O6 1321   0.598   3.783  16.082 -0.0565  0.4559 -0.7093
   86TCq2    H2 1322   0.613   3.513  16.376  0.3589  2.0638 -0.9608
   86TCq2    H3 1323   0.721   3.609  15.970 -0.9934  0.9374  0.2270
   86TCq2    H4 1324   0.848   3.245  16.167 -1.7646 -1.1425  0.0106
   87MPD2     C 1325   2.243   1.939   0.891  0.1109 -0.5556 -0.0788
   87MPD2    C1 1326   2.359   1.999   0.932  1.1844  0.2213  0.4112
   87MPD2    C2 1327   2.351   2.134   0.960 -0.4047 -0.0780 -0.7340
   87MPD2    C3 1328   2.234   2.206   0.939  0.1742 -0.2902 -0.2408
   87MPD2    C4 1329   2.118   2.142   0.898 -0.5100  0.4959  0.1710
   87MPD2    C5 1330   2.126   2.001   0.888  0.1539 -0.0064  0.4142
   87MPD2     H 1331   2.446   2.183   0.978 -0.9885  1.1849 -1.0852
   87MPD2    H1 1332   2.025   2.197   0.896 -0.5655  0.4464  1.3210
   87MPD2    H2 1333   2.242   1.832   0.870 -0.0956 -1.0035  2.1558
   87MPD2    H3 1334   2.038   1.946   0.857  0.9299 -0.5724 -0.8089
   87MPD2     N 1335   2.229   2.343   0.954 -0.0848  0.0645 -0.0435
   87MPD2    H5 1336   2.142   2.394   0.944  0.9116  1.6577 -0.5771
   87MPD2    N1 1337   2.473   1.924   0.942  0.4160  0.6563 -0.4147
   87MPD2    H7 1338   2.475   1.826   0.916 -0.2853  0.4580  0.2723
   88TCq2    C1 1339   2.594   1.979   0.985 -0.0970 -0.0294 -0.4985
   88TCq2    O2 1340   2.636   2.087   1.033  0.0442  0.3791 -0.1053
   88TCq2    C2 1341   2.710   1.896   0.940  0.0584  0.4186  0.0585
   88TCq2    C3 1342   2.826   1.926   1.001  0.0842  0.8918  0.6168
   88TCq2    C4 1343   2.939   1.848   0.974  0.5222  0.3902  0.0038
   88TCq2    C5 1344   2.939   1.754   0.886  0.0728  0.2050 -0.4299
   88TCq2    C6 1345   2.824   1.731   0.820 -0.3264 -1.1229  0.3621
   88TCq2    C7 1346   2.707   1.795   0.848 -0.3292  0.5733 -0.2430
   88TCq2    C8 1347   2.827   1.617   0.718  0.0131 -0.1016  0.2070
   88TCq2    O4 1348   2.922   1.539   0.710 -0.1886  0.4606  0.3318
   88TCq2    C9 1349   3.071   1.880   1.037 -0.2059 -0.4124 -0.2614
   88TCq2    O5 1350   3.163   1.800   1.029 -0.5444 -0.5091  0.4290
   88TCq2    O6 1351   3.077   1.979   1.115  0.2164  0.1719  0.1400
   88TCq2    H2 1352   2.835   2.004   1.076 -0.3611  0.5418  1.0373
   88TCq2    H3 1353   3.035   1.708   0.863 -0.5482 -0.1363 -2.3175
   88TCq2    H4 1354   2.613   1.758   0.809  1.1698 -2.8175 -0.6116
   89MPD2     C 1355   3.160   3.050   1.998 -0.3691 -0.1405  0.7128
   89MPD2    C1 1356   3.125   3.142   1.896  0.3017  0.2287  0.1768
   89MPD2    C2 1357   3.208   3.257   1.879 -0.1134  0.3844  0.7472
   89MPD2    C3 1358   3.320   3.286   1.964 -0.3687  0.0872  0.1505
   89MPD2    C4 1359   3.350   3.193   2.058 -0.2641  0.2188 -0.4493
   89MPD2    C5 1360   3.273   3.078   2.070  0.5138  0.2467 -0.4365
   89MPD2     H 1361   3.187   3.321   1.794 -0.5652  1.1389  1.4313
   89MPD2    H1 1362   3.423   3.208   2.137  0.4592 -1.9353 -0.6973
   89MPD2    H2 1363   3.100   2.960   2.002  1.5901 -1.3953  1.7696
   89MPD2    H3 1364   3.313   3.006   2.140 -2.1318  0.0568  0.8979
   89MPD2     N 1365   3.413   3.387   1.923  0.6717 -0.0537  0.0979
   89MPD2    H5 1366   3.380   3.442   1.844 -1.5963 -0.4202  0.7873
   89MPD2    N1 1367   3.013   3.105   1.817  0.3249 -0.1566 -0.1975
   89MPD2    H7 1368   2.952   3.029   1.846 -2.6834  1.5396 -1.9562
   90TCq2    C1 1369   3.535   3.417   1.977  0.7021  0.1446  0.4573
   90TCq2    O2 1370   3.582   3.367   2.076 -0.0024 -0.2956 -0.4745
   90TCq2    C2 1371   3.618   3.512   1.904  0.3055  0.1461 -0.1599
   90TCq2    C3 1372   3.752   3.510   1.934 -0.0825 -0.1277  0.2708
   90TCq2    C4 1373   3.838   3.586   1.868 -0.7198  0.0169  0.5572
   90TCq2    C5 1374   3.792   3.659   1.757  0.1766  0.6504 -0.5297
   90TCq2    C6 1375   3.656   3.655   1.720 -0.0622 -0.6759  0.0156
   90TCq2    C7 1376   3.569   3.580   1.796 -0.1650 -0.0343  0.6785
   90TCq2    C8 1377   3.600   3.719   1.607  0.3420  0.0947  0.1432
   90TCq2    O4 1378   3.483   3.745   1.621  0.3021  0.1205 -0.1468
   90TCq2    C9 1379   3.970   3.605   1.922  0.4558  0.7084  0.0275
   90TCq2    O5 1380   4.008   3.530   2.018 -2.0068 -0.2922 -1.2450
   90TCq2    O6 1381   4.025   3.711   1.892 -0.7525  0.0106  0.2236
   90TCq2    H2 1382   3.781   3.455   2.023 -0.2034 -3.0602 -1.5058
   90TCq2    H3 1383   3.862   3.715   1.696  2.2263  0.9316  2.0379
   90TCq2    H4 1384   3.464   3.607   1.799 -0.0065  1.0667 -3.2687
   91TMC2    C1 1385   0.550   3.963  16.951 -0.1028  0.1319  0.1608
   91TMC2    C2 1386   0.441   3.935  17.023  0.0117 -0.4349 -0.4186
   91TMC2    C3 1387   0.323   3.922  16.960 -0.2027  0.1838 -0.1144
   91TMC2    C4 1388   0.552   3.979  16.814 -0.1097  0.3275 -1.2600
   91TMC2    C5 1389   0.434   3.960  16.752 -0.2113  0.2214 -1.0254
   91TMC2    C6 1390   0.320   3.931  16.824  0.3459 -0.6245  0.1142
   91TMC2     C 1391   0.666   4.004  17.021  0.6479  0.0476  0.3761
   91TMC2     O 1392   0.655   4.026  17.141  0.4792 -0.0918  0.2827
   91TMC2     H 1393   0.440   3.947  17.131 -1.8055  1.6735 -0.6618
   91TMC2    H1 1394   0.637   4.020  16.760 -0.6385  2.6105 -0.3820
   91TMC2    H2 1395   0.223   3.930  16.776  0.3624 -0.4671  0.0778
   91TMC2    C7 1396   0.416   4.039  16.631  0.0433  1.0688 -0.9064
   91TMC2    C8 1397   0.209   3.916  17.045 -0.7623  0.5610  0.8604
   91TMC2    O1 1398   0.506   4.113  16.595 -0.1330  0.4081  0.2354
   91TMC2    O2 1399   0.218   3.905  17.167  0.7184  0.5699  1.1991
   91TMC2    O5 1400   0.113   3.994  16.986  0.4930 -0.3589  0.3112
   91TMC2    H5 1401   0.103   3.973  16.891  0.4206  2.9268 -0.3873
   92MPD2     C 1402   0.931   3.943  17.132 -0.3352  0.1350  0.2792
   92MPD2    C1 1403   0.909   3.969  16.999  1.0435  0.2124  0.2281
   92MPD2    C2 1404   1.022   3.960  16.910 -0.4286 -0.2461 -1.3633
   92MPD2    C3 1405   1.146   3.923  16.959  0.0084 -0.8386  0.2771
   92MPD2    C4 1406   1.164   3.903  17.096 -0.8299  0.6076  0.0805
   92MPD2    C5 1407   1.056   3.919  17.178 -0.2273 -0.7693  0.2840
   92MPD2     H 1408   1.011   3.970  16.803  1.3502 -1.8290 -1.7143
   92MPD2    H1 1409   1.259   3.900  17.149 -0.9031 -0.6576  0.1190
   92MPD2    H2 1410   0.852   3.953  17.205 -0.7112  1.6126 -0.3203
   92MPD2    H3 1411   1.074   3.902  17.283  2.3629  0.7331  0.0844
   92MPD2     N 1412   1.258   3.924  16.871 -0.9605 -0.0101  0.7752
   92MPD2    H5 1413   1.233   3.961  16.780 -2.0650 -0.9370  0.7113
   92MPD2    N1 1414   0.783   3.988  16.950 -0.4569  0.1326 -0.2574
   92MPD2    H7 1415   0.778   3.977  16.849  1.3826 -0.0848 -0.3242
   93MPD2     C 1416   2.031   0.256  14.006  0.0887 -0.0284 -0.2584
   93MPD2    C1 1417   2.033   0.126  13.972  0.4980  0.4339  0.0077
   93MPD2    C2 1418   1.915   0.059  13.955 -0.1486 -0.0161 -0.1078
   93MPD2    C3 1419   1.793   0.127  13.967  0.5539 -0.6452  0.3729
   93MPD2    C4 1420   1.794   0.263  13.995 -0.7150  0.0232 -0.1356
   93MPD2    C5 1421   1.912   0.331  14.019 -0.2113 -0.0865  0.7339
   93MPD2     H 1422   1.934   4.673  13.943  0.0629 -0.1526  1.3980
   93MPD2    H1 1423   1.698   0.312  13.999 -0.3225  1.0283 -2.7244
   93MPD2    H2 1424   2.117   0.314  14.035  1.0296 -0.8551 -1.4458
   93MPD2    H3 1425   1.918   0.428  14.066  0.1623  0.3518 -0.2285
   93MPD2     N 1426   1.668   0.061  13.971 -0.1395  0.3566  0.2409
   93MPD2    H5 1427   1.591   0.126  13.977 -1.4099 -0.9072 -2.5083
   93MPD2    N1 1428   2.153   0.050  13.952  0.1494 -0.1879 -0.5375
   93MPD2    H7 1429   2.148   4.678  13.909  0.4351 -1.3304  1.8797
   94TCq2    C1 1430   2.279   0.102  13.970  0.7228  0.4924  0.0608
   94TCq2    O2 1431   2.309   0.209  14.012  0.2056  0.7155  0.1237
   94TCq2    C2 1432   2.383   0.007  13.932 -0.1354 -0.0696  0.2123
   94TCq2    C3 1433   2.354   4.597  13.910  0.8640  0.2611 -0.2185
   94TCq2    C4 1434   2.447   4.508  13.869 -0.5797 -0.6885  0.0556
   94TCq2    C5 1435   2.572   4.556  13.837  0.6511 -0.4362 -0.0315
   94TCq2    C6 1436   2.598   4.694  13.838  0.3566  0.4700  0.1134
   94TCq2    C7 1437   2.500   0.063  13.881  0.3651  0.2480  0.3223
   94TCq2    C8 1438   2.736   0.011  13.819  0.2474 -0.3777 -0.6391
   94TCq2    O4 1439   2.821   4.642  13.830 -0.0792 -0.5411  0.2865
   94TCq2    C9 1440   2.417   4.371  13.854 -0.5101  0.0874 -0.1398
   94TCq2    O5 1441   2.297   4.340  13.869 -0.6210 -0.1282  0.1144
   94TCq2    O6 1442   2.511   4.299  13.819  0.7074 -0.2901  0.1767
   94TCq2    H2 1443   2.264   4.549  13.950  1.6589  0.2053  1.5065
   94TCq2    H3 1444   2.655   4.491  13.814  0.7634 -0.0201 -0.8083
   94TCq2    H4 1445   2.520   0.169  13.888 -0.8276  0.5074 -0.2341
   95TMC2    C1 1446   2.000   1.070  15.755  0.3091  0.4705 -0.4607
   95TMC2    C2 1447   2.049   1.033  15.881 -0.7779  0.0514 -0.2007
   95TMC2    C3 1448   1.951   0.984  15.971 -0.1969  0.0380  0.2871
   95TMC2    C4 1449   1.867   1.051  15.720 -0.8259 -0.0391  0.2989
   95TMC2    C5 1450   1.782   1.001  15.814  0.2817 -0.1335  0.2823
   95TMC2    C6 1451   1.830   0.952  15.928  0.1439  0.3329  0.7338
   95TMC2     C 1452   2.097   1.099  15.654  0.1399  0.7200 -0.7122
   95TMC2     O 1453   2.203   1.142  15.697  0.0526 -0.0621  0.2051
   95TMC2     H 1454   2.150   1.057  15.911  0.4229 -3.5329 -1.3254
   95TMC2    H1 1455   1.827   1.098  15.631 -1.5092 -0.9272  0.1449
   95TMC2    H2 1456   1.762   0.927  16.009 -1.1713 -0.0447 -0.5090
   95TMC2    C7 1457   1.656   1.075  15.835 -0.3464 -0.5094 -0.4169
   95TMC2    C8 1458   1.982   0.977  16.115 -0.5285  0.1023 -0.2133
   95TMC2    O1 1459   1.653   1.176  15.765  0.1933  1.3634  0.0188
   95TMC2    O2 1460   1.937   0.897  16.194 -0.7978  0.0038 -0.0846
   95TMC2    O5 1461   2.072   1.071  16.141 -0.3207  0.2402  0.3824
   95TMC2    H5 1462   2.074   1.141  16.072  1.1990  1.1715  1.3622
   96MPD2     C 1463   2.204   1.188  15.162 -0.1924  1.3396 -0.4666
   96MPD2    C1 1464   2.284   1.201  15.274 -0.1185 -0.8540  0.0210
   96MPD2    C2 1465   2.231   1.161  15.400  0.3933  0.7971 -0.6320
   96MPD2    C3 1466   2.099   1.121  15.407 -0.1479 -0.1411  0.1635
   96MPD2    C4 1467   2.025   1.119  15.294  0.4013 -0.2185  0.0861
   96MPD2    C5 1468   2.070   1.159  15.170 -0.2016  0.1759 -0.1191
   96MPD2     H 1469   2.295   1.148  15.487 -2.9977  0.9428  1.8808
   96MPD2    H1 1470   1.920   1.091  15.293 -0.4350  2.8972  0.6393
   96MPD2    H2 1471   2.242   1.208  15.062  0.3006  0.9921 -0.3538
   96MPD2    H3 1472   2.001   1.170  15.087 -0.2231 -1.6404 -0.3597
   96MPD2     N 1473   2.037   1.083  15.528 -0.2826  0.4138 -0.5270
   96MPD2    H5 1474   1.951   1.030  15.520 -0.9214  0.6428  4.5182
   96MPD2    N1 1475   2.422   1.230  15.255 -0.0411  0.0498 -0.3944
   96MPD2    H7 1476   2.455   1.218  15.160  0.1795 -2.5800  0.0068
   97MPD2     C 1477   0.071   3.629   1.592 -0.5256  0.3888  0.2629
   97MPD2    C1 1478   4.704   3.567   1.503  0.6628 -0.4141  0.6629
   97MPD2    C2 1479   4.712   3.597   1.370 -0.1123  0.1732  0.5600
   97MPD2    C3 1480   0.087   3.682   1.323  0.5660 -0.7391 -0.0611
   97MPD2    C4 1481   0.169   3.748   1.410  0.0672  0.1577  0.6878
   97MPD2    C5 1482   0.163   3.710   1.543  0.0473  0.3144  0.2423
   97MPD2     H 1483   4.645   3.547   1.300 -0.9054  1.1421  0.6252
   97MPD2    H1 1484   0.240   3.822   1.375  1.6675 -2.0452 -0.6701
   97MPD2    H2 1485   0.068   3.612   1.699 -0.7466 -2.9161 -0.2853
   97MPD2    H3 1486   0.227   3.758   1.617  4.1107  3.4237 -5.3423
   97MPD2     N 1487   0.088   3.729   1.192  0.5533 -0.3295  0.4420
   97MPD2    H5 1488   0.137   3.818   1.185  1.9724 -1.0272  1.3636
   97MPD2    N1 1489   4.605   3.487   1.558  0.2754  0.5162  0.0615
   97MPD2    H7 1490   4.599   3.490   1.659 -1.0255 -0.8655  0.0234
   98TCq2    C1 1491   0.007   3.679   1.091  0.2620 -0.0668  0.0131
   98TCq2    O2 1492   4.673   3.569   1.072  0.1229  0.1271 -0.4059
   98TCq2    C2 1493   0.006   3.758   0.969 -0.2641  0.8736 -0.4588
   98TCq2    C3 1494   4.607   3.755   0.899  0.8070 -0.2947  0.3156
   98TCq2    C4 1495   4.582   3.858   0.810  0.0562  0.1462 -0.1887
   98TCq2    C5 1496   4.682   3.954   0.787  0.1237 -0.0184  0.0639
   98TCq2    C6 1497   0.080   3.944   0.847  0.5039 -0.2768  0.4208
   98TCq2    C7 1498   0.102   3.850   0.945 -1.2334  0.0469  0.2889
   98TCq2    C8 1499   0.203   3.999   0.785  0.2267  0.2896 -0.3652
   98TCq2    O4 1500   0.307   4.002   0.853 -0.3225 -0.0568 -0.2809
   98TCq2    C9 1501   4.458   3.869   0.737  0.1523  0.7115 -0.0112
   98TCq2    O5 1502   4.439   3.966   0.662  0.1357  0.7206  0.5442
   98TCq2    O6 1503   4.377   3.771   0.749 -0.7223  0.4159  0.4007
   98TCq2    H2 1504   4.527   3.683   0.908 -1.4705  2.3233  0.7832
   98TCq2    H3 1505   4.659   4.031   0.714  2.0467  0.2603 -0.2490
   98TCq2    H4 1506   0.198   3.840   0.995 -0.7408  1.6540 -0.3414
   99MPD2     C 1507   3.711   0.758   1.604 -0.2015 -0.0982  0.3197
   99MPD2    C1 1508   3.577   0.787   1.615  0.0893  0.2951  0.2325
   99MPD2    C2 1509   3.488   0.742   1.523  0.2200 -0.2703  1.3781
   99MPD2    C3 1510   3.526   0.636   1.438 -0.0208  0.3085 -0.0627
   99MPD2    C4 1511   3.664   0.611   1.430  0.0269  0.1399 -0.4273
   99MPD2    C5 1512   3.747   0.672   1.509  0.4031  0.2478  0.8501
   99MPD2     H 1513   3.385   0.775   1.521  0.5723  0.6572 -1.3717
   99MPD2    H1 1514   3.706   0.556   1.347 -1.1011  0.1697 -1.0049
   99MPD2    H2 1515   3.790   0.791   1.670  0.0951  0.1156 -0.1463
   99MPD2    H3 1516   3.853   0.662   1.487  0.4747  1.4988  0.6004
   99MPD2     N 1517   3.429   0.593   1.339 -0.3347  0.0636  0.3801
   99MPD2    H5 1518   3.337   0.634   1.348 -0.3037  0.0918  0.5877
   99MPD2    N1 1519   3.539   0.883   1.704  0.0303 -0.6437  0.6525
   99MPD2    H7 1520   3.442   0.912   1.695  0.7461  1.1898 -1.0899
  100TCq2    C1 1521   3.619   0.953   1.798 -0.6891 -0.1265  0.3451
  100TCq2    O2 1522   3.727   0.921   1.844 -0.0867  0.1295  0.1170
  100TCq2    C2 1523   3.548   1.067   1.852  0.9355 -0.3192  0.6297
  100TCq2    C3 1524   3.604   1.126   1.962 -0.0862  0.2746 -0.2897
  100TCq2    C4 1525   3.550   1.237   2.008 -0.2387  0.6091 -0.1917
  100TCq2    C5 1526   3.444   1.299   1.939  0.1637  0.4877  0.3189
  100TCq2    C6 1527   3.399   1.247   1.822  0.4837 -0.5589  0.5253
  100TCq2    C7 1528   3.450   1.127   1.787 -0.0853 -0.8233  0.5172
  100TCq2    C8 1529   3.301   1.319   1.752 -0.5843  0.1097 -0.3190
  100TCq2    O4 1530   3.291   1.439   1.779 -0.3547 -0.4618  0.0413
  100TCq2    C9 1531   3.599   1.313   2.118 -0.2968  0.1368  0.2152
  100TCq2    O5 1532   3.705   1.268   2.170 -0.6131  0.4916 -0.1133
  100TCq2    O6 1533   3.546   1.424   2.151  0.4027 -0.5521 -0.7445
  100TCq2    H2 1534   3.695   1.093   2.012  0.2767  2.4250  0.4731
  100TCq2    H3 1535   3.405   1.395   1.971 -1.7224  0.0972 -0.8180
  100TCq2    H4 1536   3.433   1.099   1.683 -0.7040  0.0927  0.3696
  101MPD2     C 1537   4.498   1.902  12.901 -0.2739  0.4834  0.1514
  101MPD2    C1 1538   4.404   1.983  12.952 -0.4237  0.5370  0.0828
  101MPD2    C2 1539   4.285   1.932  12.993 -0.5360 -0.0557  0.5933
  101MPD2    C3 1540   4.258   1.799  12.977 -0.4469 -0.0871  0.5276
  101MPD2    C4 1541   4.354   1.721  12.915 -0.0903 -0.3293 -0.4747
  101MPD2    C5 1542   4.478   1.771  12.881  0.7907 -0.4956 -0.4253
  101MPD2     H 1543   4.210   1.999  13.035 -2.6034 -2.2925  0.5003
  101MPD2    H1 1544   4.351   1.612  12.916  0.0684 -0.3275  0.3962
  101MPD2    H2 1545   4.594   1.943  12.874 -0.1962  0.1830 -0.0307
  101MPD2    H3 1546   4.552   1.714  12.825  0.3222 -1.9712  0.4604
  101MPD2     N 1547   4.137   1.748  13.040 -0.3447  0.3997  0.0696
  101MPD2    H5 1548   4.086   1.802  13.108 -2.3410 -2.6580  1.0087
  101MPD2    N1 1549   4.429   2.128  12.953  0.6636 -0.6539 -0.0257
  101MPD2    H7 1550   4.517   2.156  12.911 -0.2239  2.4382  0.1900
  102TCq2    C1 1551   4.597   2.522  12.710  0.0297  0.4712  1.0949
  102TCq2    O2 1552   4.653   2.421  12.669 -0.6292  0.1336  0.2307
  102TCq2    C2 1553   4.530   2.509  12.836 -0.2426  0.1289  0.4516
  102TCq2    C3 1554   4.458   2.617  12.889  0.2213 -0.3030 -0.0573
  102TCq2    C4 1555   4.366   2.598  12.988 -0.3392  0.2637  0.3927
  102TCq2    C5 1556   4.341   2.476  13.033 -0.3158  0.1290  0.5109
  102TCq2    C6 1557   4.396   2.366  12.973 -0.1781  0.1506 -0.1356
  102TCq2    C7 1558   4.493   2.381  12.874 -0.1219  0.2576 -0.4471
  102TCq2    C8 1559   4.343   2.233  13.000  0.7195  0.3974 -0.6216
  102TCq2    O4 1560   4.233   2.229  13.048  0.4846 -0.4115 -0.4714
  102TCq2    C9 1561   4.295   2.717  13.038 -0.2555  0.1572  0.1398
  102TCq2    O5 1562   4.346   2.827  13.009  0.3599 -0.3581  0.0705
  102TCq2    O6 1563   4.176   2.700  13.085 -0.7528  0.1390 -0.1877
  102TCq2    H2 1564   4.484   2.718  12.861 -0.2963 -0.7362 -2.1273
  102TCq2    H3 1565   4.264   2.461  13.108  0.5133  1.8435  1.7068
  102TCq2    H4 1566   4.528   2.293  12.821  0.8243 -0.7338  1.8335
  103TMC2    C1 1567   2.797   2.003  12.040 -0.3489  0.8668  0.3156
  103TMC2    C2 1568   2.893   2.032  11.950 -0.4909 -0.0679  0.2062
  103TMC2    C3 1569   2.978   2.125  11.987  0.1794  0.2791 -0.1916
  103TMC2    C4 1570   2.778   2.080  12.151 -0.1194 -0.1315 -0.7039
  103TMC2    C5 1571   2.860   2.184  12.171 -0.5269  0.8317 -0.1622
  103TMC2    C6 1572   2.965   2.208  12.091 -0.1689  0.3279 -0.5994
  103TMC2     C 1573   2.698   1.906  12.003 -0.5030  0.6031  0.5404
  103TMC2     O 1574   2.590   1.919  12.058  0.1776 -0.0252 -0.2653
  103TMC2     H 1575   2.892   1.987  11.852  0.6556  0.4612 -0.0582
  103TMC2    H1 1576   2.710   2.052  12.231  0.6733 -1.5078 -0.5047
  103TMC2    H2 1577   3.044   2.280  12.111  0.3705 -0.8197  1.4311
  103TMC2    C7 1578   2.844   2.282  12.278  0.0217 -0.1468  0.0689
  103TMC2    C8 1579   3.087   2.150  11.894 -0.3901  0.1639  0.2621
  103TMC2    O1 1580   2.942   2.348  12.308  0.0939  0.4860 -0.5393
  103TMC2    O2 1581   3.149   2.256  11.883 -0.1444  0.0471  0.3034
  103TMC2    O5 1582   3.143   2.031  11.885 -0.1303  0.4488  0.4545
  103TMC2    H5 1583   3.096   1.953  11.921  0.1591 -0.7623 -1.7756
  104MPD2     C 1584   2.737   1.583  11.819 -0.3184 -0.2438 -0.8044
  104MPD2    C1 1585   2.674   1.696  11.872 -0.3194 -0.6106 -0.3638
  104MPD2    C2 1586   2.536   1.711  11.854  0.1990  0.0856 -0.0040
  104MPD2    C3 1587   2.465   1.609  11.794 -0.1539 -0.8655 -0.4731
  104MPD2    C4 1588   2.527   1.499  11.740  0.6545  0.3987  0.0635
  104MPD2    C5 1589   2.665   1.490  11.750  0.6075 -0.4031 -0.5281
  104MPD2     H 1590   2.479   1.800  11.879  0.5336  0.2099  0.3125
  104MPD2    H1 1591   2.475   1.411  11.703 -1.0506  2.3111 -2.0859
  104MPD2    H2 1592   2.841   1.560  11.838 -0.7124 -1.1630  0.2517
  104MPD2    H3 1593   2.713   1.395  11.728 -0.2465 -0.8715 -0.3816
  104MPD2     N 1594   2.332   1.638  11.754 -0.2510 -0.0440 -0.5002
  104MPD2    H5 1595   2.307   1.736  11.762 -2.3484 -0.8437  2.7578
  104MPD2    N1 1596   2.749   1.806  11.927 -0.5516 -0.2202  0.5340
  104MPD2    H7 1597   2.849   1.798  11.916 -0.4379  1.5026  0.2055
  105MPD2     C 1598   3.550   0.936  17.154  0.2220  0.0087 -0.4342
  105MPD2    C1 1599   3.610   1.043  17.215 -0.1898 -0.7922  0.1526
  105MPD2    C2 1600   3.536   1.117  17.308 -0.1893 -0.2845  0.3614
  105MPD2    C3 1601   3.408   1.077  17.334  0.5206 -0.0680 -0.4020
  105MPD2    C4 1602   3.343   0.979  17.267  0.1884  0.0463  0.1428
  105MPD2    C5 1603   3.415   0.911  17.170 -0.2631 -0.0744  0.3753
  105MPD2     H 1604   3.581   1.194  17.369  0.6320 -0.9424  0.5928
  105MPD2    H1 1605   3.238   0.957  17.282 -0.1919  0.4938 -1.8541
  105MPD2    H2 1606   3.596   0.888  17.068 -2.1845 -2.8683 -0.0983
  105MPD2    H3 1607   3.381   0.815  17.132 -0.4890  0.7397 -1.4411
  105MPD2     N 1608   3.345   1.155  17.432 -0.0621 -0.4734 -0.0757
  105MPD2    H5 1609   3.397   1.234  17.467 -3.0075  0.7102  1.6091
  105MPD2    N1 1610   3.741   1.091  17.188  0.6404 -0.4217  0.5767
  105MPD2    H7 1611   3.771   1.179  17.229  1.0510  0.4011 -1.4960
  106TCq2    C1 1612   3.208   1.145  17.471  0.0973  0.2534 -0.7315
  106TCq2    O2 1613   3.121   1.060  17.447  0.2431  0.5195 -0.2455
  106TCq2    C2 1614   3.178   1.235  17.587  0.3660 -0.9000 -0.2188
  106TCq2    C3 1615   3.280   1.304  17.639  0.5260 -0.5507 -0.8251
  106TCq2    C4 1616   3.257   1.365   0.078 -0.1865 -0.9176 -0.3867
  106TCq2    C5 1617   3.151   1.335   0.156  0.1815  0.1129  0.2646
  106TCq2    C6 1618   3.045   1.270   0.103  0.1592  0.0940  1.2348
  106TCq2    C7 1619   3.058   1.224  17.660  0.6258 -0.2666  0.1878
  106TCq2    C8 1620   2.910   1.284   0.154  0.0092 -0.4196  0.3609
  106TCq2    O4 1621   2.815   1.230   0.104  0.5009  0.8130  0.1964
  106TCq2    C9 1622   3.370   1.433   0.138  0.3907 -0.5060 -0.4415
  106TCq2    O5 1623   3.481   1.412   0.089  0.1077  0.6309 -0.2763
  106TCq2    O6 1624   3.347   1.500   0.237  0.6232  0.8764 -0.1948
  106TCq2    H2 1625   3.379   1.320  17.598  0.9492 -0.3204  0.2820
  106TCq2    H3 1626   3.166   1.367   0.259  0.4333 -0.3767  0.3794
  106TCq2    H4 1627   2.979   1.176  17.604  1.0174 -0.6113 -0.0685
  107TMC2    C1 1628   0.260   0.305  11.806  0.1059  0.5461 -0.2278
  107TMC2    C2 1629   0.310   0.247  11.916 -0.2096  0.0876 -0.0636
  107TMC2    C3 1630   0.382   0.137  11.909  0.1773  0.0982 -0.7115
  107TMC2    C4 1631   0.266   0.242  11.688  0.7195 -0.3138  0.0592
  107TMC2    C5 1632   0.336   0.126  11.679  0.0309  0.8170 -0.1159
  107TMC2    C6 1633   0.398   0.075  11.788 -0.6177  0.3531 -0.2238
  107TMC2     C 1634   0.185   0.427  11.819 -0.0767  0.5278 -0.0635
  107TMC2     O 1635   0.128   0.447  11.925 -0.4342 -0.3010 -0.2863
  107TMC2     H 1636   0.300   0.298  12.011 -1.2894  1.5499 -0.9495
  107TMC2    H1 1637   0.207   0.269  11.601 -0.8356  0.8951  1.4692
  107TMC2    H2 1638   0.454   4.703  11.773 -2.5397 -0.7004 -0.9497
  107TMC2    C7 1639   0.332   0.043  11.557  0.0618 -0.2663 -0.7484
  107TMC2    C8 1640   0.387   0.060  12.028  0.0940  0.2033  1.1386
  107TMC2    O1 1641   0.353   4.643  11.571  0.5161  0.9883  0.6149
  107TMC2    O2 1642   0.312   0.081  12.120 -0.2098 -0.0978 -0.6449
  107TMC2    O5 1643   0.503   4.717  12.025  0.0579 -0.3764  0.0563
  107TMC2    H5 1644   0.550   0.002  11.939 -0.1786 -0.3064 -0.0704
  108MPD2     C 1645   0.176   0.717  11.604  0.0142 -0.1182 -0.2970
  108MPD2    C1 1646   0.164   0.646  11.721 -0.2979 -0.0652 -0.0039
  108MPD2    C2 1647   0.107   0.720  11.829  0.5398 -0.0359  0.6415
  108MPD2    C3 1648   0.061   0.853  11.814 -0.4382  0.9684 -0.1400
  108MPD2    C4 1649   0.081   0.913  11.693 -0.5738 -0.4096 -0.3626
  108MPD2    C5 1650   0.145   0.848  11.595  0.1284  0.2430 -0.6368
  108MPD2     H 1651   0.086   0.669  11.922  0.6886 -1.4835 -0.1190
  108MPD2    H1 1652   0.041   1.013  11.678 -0.0409 -0.1014  0.2583
  108MPD2    H2 1653   0.210   0.663  11.516 -0.7700  1.4881 -1.5661
  108MPD2    H3 1654   0.171   0.892  11.499 -0.4305 -1.1249 -1.4086
  108MPD2     N 1655   4.711   0.929  11.910  0.6189 -0.3300 -0.1212
  108MPD2    H5 1656   4.690   1.024  11.884  3.5003  0.5075  0.6314
  108MPD2    N1 1657   0.200   0.515  11.718  0.2274 -0.2927  0.3772
  108MPD2    H7 1658   0.245   0.477  11.635 -0.1180  1.2745 -0.5320
  109MPD2     C 1659   3.995   1.981   2.359  0.4174 -0.4116  0.0902
  109MPD2    C1 1660   3.988   2.094   2.287  0.4913  0.1382 -0.4241
  109MPD2    C2 1661   4.096   2.184   2.293  1.1330  0.0196 -0.0040
  109MPD2    C3 1662   4.210   2.145   2.353  0.3674 -1.1176  0.1754
  109MPD2    C4 1663   4.219   2.020   2.408 -0.1617 -0.1162  0.2751
  109MPD2    C5 1664   4.111   1.941   2.414 -0.6417  0.0095 -0.3890
  109MPD2     H 1665   4.104   2.265   2.221  0.3802 -0.6269 -0.8191
  109MPD2    H1 1666   4.317   1.983   2.436  0.2026  0.1412 -0.6859
  109MPD2    H2 1667   3.912   1.911   2.364 -0.3252  0.3922 -1.2344
  109MPD2    H3 1668   4.120   1.836   2.438  3.1972  0.3337 -0.4993
  109MPD2     N 1669   4.319   2.229   2.328  0.0624 -0.3061  0.3086
  109MPD2    H5 1670   4.291   2.306   2.270  0.9729  0.1845  0.5210
  109MPD2    N1 1671   3.868   2.135   2.222 -0.1426 -0.1912 -0.4307
  109MPD2    H7 1672   3.789   2.071   2.236 -0.4103  0.3536  0.5263
  110TCq2    C1 1673   4.448   2.213   2.361  0.2178  0.5038  0.1728
  110TCq2    O2 1674   4.498   2.128   2.438 -0.7031 -0.2047  0.1329
  110TCq2    C2 1675   4.528   2.314   2.303  0.1215 -0.2681 -0.5690
  110TCq2    C3 1676   4.662   2.298   2.315 -0.3611  0.3884  0.0229
  110TCq2    C4 1677   0.029   2.377   2.247  0.3433  0.2691  0.4590
  110TCq2    C5 1678   4.701   2.485   2.176  0.3878  0.3974  0.2192
  110TCq2    C6 1679   4.567   2.517   2.200 -0.9455 -0.2916  0.5343
  110TCq2    C7 1680   4.475   2.432   2.256  0.0683 -0.4741  0.5969
  110TCq2    C8 1681   4.536   2.652   2.155 -0.0371  0.0005  0.3379
  110TCq2    O4 1682   4.607   2.692   2.061  0.4652  0.5601  0.3314
  110TCq2    C9 1683   0.166   2.339   2.237 -0.1424 -0.0601  0.2070
  110TCq2    O5 1684   0.205   2.235   2.295  0.0498  0.3392  0.1219
  110TCq2    O6 1685   0.241   2.424   2.186 -0.0313  0.4297  0.2028
  110TCq2    H2 1686   4.704   2.212   2.366 -1.1732 -0.2233 -0.3582
  110TCq2    H3 1687   0.047   2.549   2.119 -0.4775  0.3723 -0.8018
  110TCq2    H4 1688   4.370   2.460   2.251  0.1801 -0.1221  0.2667
  111TMC2    C1 1689   4.119   3.121  11.456  0.2144  0.1502 -0.8337
  111TMC2    C2 1690   4.061   3.179  11.563 -0.5134 -0.2713  0.2502
  111TMC2    C3 1691   4.092   3.137  11.690 -0.4098  0.3916  1.0512
  111TMC2    C4 1692   4.221   3.030  11.460  0.6111  0.0642  0.1798
  111TMC2    C5 1693   4.256   2.997  11.591 -0.1301 -0.2916  0.0328
  111TMC2    C6 1694   4.197   3.048  11.705  0.3582  1.0308  0.7143
  111TMC2     C 1695   4.108   3.181  11.326  0.3856  0.5173 -0.1161
  111TMC2     O 1696   4.115   3.098  11.234  0.4828  0.2342 -0.4482
  111TMC2     H 1697   3.983   3.253  11.551 -0.1157  0.1491  0.2505
  111TMC2    H1 1698   4.280   2.991  11.378 -0.8303 -1.5160 -0.1070
  111TMC2    H2 1699   4.242   3.032  11.802 -1.5053  1.5570  1.6773
  111TMC2    C7 1700   4.366   2.904  11.614  0.0380  0.0082 -1.0760
  111TMC2    C8 1701   4.030   3.212  11.799 -0.2383  0.1878  1.0698
  111TMC2    O1 1702   4.395   2.881  11.731  0.1466 -0.7173  0.0208
  111TMC2    O2 1703   4.008   3.333  11.787 -1.0818  0.0007  0.3716
  111TMC2    O5 1704   4.046   3.140  11.913 -0.8898  0.0377 -0.7590
  111TMC2    H5 1705   4.064   3.047  11.890 -1.6934 -0.2176 -0.3236
  112MPD2     C 1706   4.085   3.572  10.982 -0.3758 -0.5214 -0.2833
  112MPD2    C1 1707   4.080   3.433  10.974 -0.7946  0.4510 -0.3704
  112MPD2    C2 1708   4.085   3.359  11.090 -0.5548  0.2834 -0.0325
  112MPD2    C3 1709   4.106   3.404  11.218 -0.0854 -0.2465 -0.1281
  112MPD2    C4 1710   4.102   3.539  11.227 -0.5281 -0.0253 -0.4548
  112MPD2    C5 1711   4.085   3.621  11.113  0.4082  0.8207 -0.2508
  112MPD2     H 1712   4.078   3.253  11.070 -1.6579  0.1055  1.3228
  112MPD2    H1 1713   4.121   3.588  11.322  0.0602 -1.0063 -0.0637
  112MPD2    H2 1714   4.088   3.641  10.899  0.7883 -0.8514 -0.5148
  112MPD2    H3 1715   4.089   3.727  11.132  0.2867  0.3399  2.5612
  112MPD2     N 1716   4.092   3.323  11.331 -0.1963  0.2612 -0.1975
  112MPD2    H5 1717   4.099   3.375  11.418  1.2738  2.7033 -1.7847
  112MPD2    N1 1718   4.070   3.362  10.853  0.2219 -0.0605  0.0368
  112MPD2    H7 1719   4.067   3.260  10.853 -0.6168 -0.0371 -2.2102
  113MPD2     C 1720   2.253   0.801   0.879  0.2682 -0.6246  0.0397
  113MPD2    C1 1721   2.189   0.867   0.784  1.2606 -0.6241  0.2154
  113MPD2    C2 1722   2.098   0.795   0.712  0.6060 -0.4669  0.2985
  113MPD2    C3 1723   2.068   0.667   0.739 -0.4166 -0.4046  0.0527
  113MPD2    C4 1724   2.128   0.615   0.849  0.1326 -0.0634  0.0847
  113MPD2    C5 1725   2.214   0.678   0.928  0.2370 -0.5037  0.1143
  113MPD2     H 1726   2.034   0.842   0.639  0.6299  2.6301  2.2445
  113MPD2    H1 1727   2.097   0.517   0.883 -0.7335  0.0964 -0.2390
  113MPD2    H2 1728   2.327   0.856   0.935 -1.6787  0.9459  1.0847
  113MPD2    H3 1729   2.261   0.626   1.009 -1.2429 -2.4372 -0.2753
  113MPD2     N 1730   1.969   0.588   0.676  0.4203 -0.5145 -0.8688
  113MPD2    H5 1731   1.936   0.499   0.713 -2.1572  0.3910 -1.0182
  113MPD2    N1 1732   2.222   0.996   0.738 -0.1202 -0.1630  0.0322
  113MPD2    H7 1733   2.170   1.029   0.657 -2.1418 -0.5446  1.1895
  114TCq2    C1 1734   1.902   0.631   0.560  0.0359  0.6353  0.8356
  114TCq2    O2 1735   1.894   0.738   0.503 -0.1171  0.0429 -0.5229
  114TCq2    C2 1736   1.803   0.538   0.514  0.0397  0.7135  0.2364
  114TCq2    C3 1737   1.709   0.587   0.432  0.4639  0.6859  0.1005
  114TCq2    C4 1738   1.619   0.504   0.379  0.2842  0.9509  0.2079
  114TCq2    C5 1739   1.632   0.368   0.397 -0.0709 -0.2212  0.3505
  114TCq2    C6 1740   1.727   0.320   0.481 -0.8025 -0.3509 -0.2205
  114TCq2    C7 1741   1.823   0.403   0.541 -0.3996 -0.2074  0.0859
  114TCq2    C8 1742   1.712   0.180   0.528  0.1815  0.3288  0.0195
  114TCq2    O4 1743   1.650   0.099   0.457  0.4605  0.7003  0.1687
  114TCq2    C9 1744   1.505   0.554   0.311 -0.3634  0.2206 -0.5926
  114TCq2    O5 1745   1.504   0.672   0.268  0.5729 -0.0643  0.6506
  114TCq2    O6 1746   1.421   0.468   0.283  0.2411  0.3794  0.2162
  114TCq2    H2 1747   1.698   0.693   0.408 -0.8217  0.8623  1.4451
  114TCq2    H3 1748   1.558   0.299   0.357  1.5652 -1.7906  0.0334
  114TCq2    H4 1749   1.906   0.370   0.603  0.5274  1.9951  0.0314
  115TMC2    C1 1750   2.647   2.927   0.185  0.5182  0.4596 -0.0543
  115TMC2    C2 1751   2.628   2.893   0.316 -0.0895  0.5227  0.3689
  115TMC2    C3 1752   2.516   2.934   0.379  0.0133  0.6578  0.5184
  115TMC2    C4 1753   2.559   3.015   0.126 -1.0401  1.0283 -0.0542
  115TMC2    C5 1754   2.457   3.069   0.195 -0.0987  0.0693  0.5890
  115TMC2    C6 1755   2.429   3.025   0.324  0.6163  0.2534 -0.5511
  115TMC2     C 1756   2.745   2.856   0.104  0.1276  0.1883  0.7339
  115TMC2     O 1757   2.731   2.855  17.667 -0.1840 -0.1144  0.0271
  115TMC2     H 1758   2.683   2.818   0.371 -1.3804 -0.8000 -0.1345
  115TMC2    H1 1759   2.576   3.051   0.025  1.6273 -0.7155 -0.2194
  115TMC2    H2 1760   2.338   3.057   0.373  1.0379  0.0826  0.3398
  115TMC2    C7 1761   2.375   3.182   0.147  0.2296  0.4526  0.2051
  115TMC2    C8 1762   2.497   2.877   0.511 -0.2616 -0.2608  0.2470
  115TMC2    O1 1763   2.265   3.189   0.206 -0.4556  0.2731 -0.6441
  115TMC2    O2 1764   2.558   2.916   0.607  0.3401  0.7084  0.3743
  115TMC2    O5 1765   2.459   2.747   0.487 -0.1776 -0.6406 -0.0332
  115TMC2    H5 1766   2.429   2.735   0.394  1.2506 -1.8940 -0.3463
  116MPD2     C 1767   3.165   2.568   0.046 -0.1309 -0.2831  0.5642
  116MPD2    C1 1768   3.057   2.579  17.652 -0.5298 -0.0642 -0.0919
  116MPD2    C2 1769   2.952   2.665   0.008 -0.8975  0.7919 -0.4673
  116MPD2    C3 1770   2.963   2.742   0.121 -0.2321  0.1867 -0.2526
  116MPD2    C4 1771   3.072   2.728   0.199 -0.0608 -0.7405 -0.1276
  116MPD2    C5 1772   3.172   2.646   0.160 -0.2223  0.1287 -0.1808
  116MPD2     H 1773   2.870   2.680  17.621  1.5656  4.5682 -2.5663
  116MPD2    H1 1774   3.085   2.785   0.291 -0.0628 -0.2549 -0.4319
  116MPD2    H2 1775   3.251   2.515   0.009 -1.3143 -0.1793 -2.3699
  116MPD2    H3 1776   3.256   2.633   0.227 -1.5729  0.5098  1.5834
  116MPD2     N 1777   2.859   2.822   0.174 -0.0500  0.1635  0.4863
  116MPD2    H5 1778   2.871   2.849   0.271 -0.9037 -0.6769  0.8290
  116MPD2    N1 1779   3.048   2.489  17.544 -0.0881 -0.1291 -0.2214
  116MPD2    H7 1780   3.111   2.410  17.540 -0.7764 -0.7289  1.1036
  117TMC2    C1 1781   1.377   4.623  14.297 -0.0596 -0.5911 -0.1844
  117TMC2    C2 1782   1.390   4.519  14.383 -0.5949 -0.1803 -0.0656
  117TMC2    C3 1783   1.504   4.512  14.464 -0.5910 -0.1313  0.5579
  117TMC2    C4 1784   1.459   0.011  14.305 -0.0814 -0.5526  0.0759
  117TMC2    C5 1785   1.574   0.001  14.376  0.6201 -0.0034 -0.7223
  117TMC2    C6 1786   1.591   4.618  14.466 -0.2778  0.0082 -0.9153
  117TMC2     C 1787   1.266   4.623  14.204 -0.5005 -0.4310 -0.3252
  117TMC2     O 1788   1.208   4.513  14.184  0.0053  0.0516  0.2491
  117TMC2     H 1789   1.314   4.442  14.393 -1.0572  0.2092 -0.5747
  117TMC2    H1 1790   1.445   0.093  14.235 -1.1482 -2.0474 -1.4623
  117TMC2    H2 1791   1.674   4.601  14.533 -0.4579  1.5860 -0.2963
  117TMC2    C7 1792   1.651   0.126  14.386 -1.1259  0.4854 -0.4771
  117TMC2    C8 1793   1.469   4.463  14.596 -0.2498  0.2133 -0.5017
  117TMC2    O1 1794   1.618   0.230  14.335  0.1955  0.3734  0.0703
  117TMC2    O2 1795   1.492   4.528  14.698 -0.1649  0.0244  0.1811
  117TMC2    O5 1796   1.437   4.330  14.590  0.1437  0.0906  0.1162
  117TMC2    H5 1797   1.466   4.293  14.504  3.3090  1.4357  0.5877
  118MPD2     C 1798   1.948   0.181  14.599  0.5011 -0.2786 -0.1582
  118MPD2    C1 1799   1.859   0.214  14.499 -0.8090  0.0351  0.3171
  118MPD2    C2 1800   1.881   0.327  14.416  0.0773  0.0574 -0.5119
  118MPD2    C3 1801   1.981   0.425  14.447  0.1408 -0.1368  0.1188
  118MPD2    C4 1802   2.057   0.395  14.559 -0.4126  0.2934  0.1815
  118MPD2    C5 1803   2.042   0.277  14.629  0.6173 -0.1231 -0.0762
  118MPD2     H 1804   1.811   0.347  14.336 -0.0229 -0.9230 -0.6621
  118MPD2    H1 1805   2.130   0.467  14.597  1.1213 -0.4293 -1.3782
  118MPD2    H2 1806   1.944   0.091  14.660  0.3149 -1.2080 -1.5380
  118MPD2    H3 1807   2.097   0.259  14.721 -0.6756  0.1687  0.7643
  118MPD2     N 1808   2.001   0.543  14.373 -0.6293 -0.9517  0.2487
  118MPD2    H5 1809   2.091   0.589  14.377 -1.8029  1.0666  3.4207
  118MPD2    N1 1810   1.765   0.111  14.465  0.1142 -0.3283 -0.1137
  118MPD2    H7 1811   1.769   0.021  14.511 -0.9006  0.8227  2.1871
  119MPD2     C 1812   0.298   1.878  14.106  0.4492  0.5466 -0.0876
  119MPD2    C1 1813   0.163   1.875  14.105  0.3890 -0.0158  0.1257
  119MPD2    C2 1814   0.103   1.832  13.989 -0.4723 -0.3219  0.5810
  119MPD2    C3 1815   0.173   1.772  13.889 -0.2882 -0.5569  0.0262
  119MPD2    C4 1816   0.313   1.785  13.894  0.2995 -0.0011 -0.0206
  119MPD2    C5 1817   0.374   1.847  13.998  0.8271  0.2535  0.1036
  119MPD2     H 1818   4.715   1.838  13.992 -0.3893 -0.1947  3.1002
  119MPD2    H1 1819   0.377   1.755  13.812 -0.0566 -1.6885  0.3215
  119MPD2    H2 1820   0.358   1.900  14.194 -2.2357 -0.8583  2.0866
  119MPD2    H3 1821   0.482   1.856  13.999  0.6021  2.7461  1.2751
  119MPD2     N 1822   0.123   1.684  13.786 -0.2565  0.2864  0.0227
  119MPD2    H5 1823   0.198   1.631  13.742 -0.1657  1.3115 -1.0590
  119MPD2    N1 1824   0.098   1.910  14.232  0.4380  0.3820  0.1186
  119MPD2    H7 1825   0.154   1.959  14.301  0.1409  0.1026  0.5591
  120TCq2    C1 1826   4.707   1.660  13.774 -0.7769  0.2597  0.5059
  120TCq2    O2 1827   4.615   1.706  13.835  0.2161 -0.6948 -0.2170
  120TCq2    C2 1828   4.665   1.572  13.665 -0.6223 -0.2958  0.1737
  120TCq2    C3 1829   0.036   1.514  13.577 -0.4641  0.1471  0.3819
  120TCq2    C4 1830   4.709   1.441  13.478  0.2183  0.0795  0.5348
  120TCq2    C5 1831   4.575   1.415  13.462 -0.2210  0.2977 -0.9020
  120TCq2    C6 1832   4.487   1.473  13.550  0.5798  0.7880 -0.7291
  120TCq2    C7 1833   4.533   1.557  13.653 -0.5263  0.4524 -1.1143
  120TCq2    C8 1834   4.347   1.448  13.548  0.2685 -0.5882 -0.2076
  120TCq2    O4 1835   4.292   1.449  13.441  0.2042  0.6847 -0.0651
  120TCq2    C9 1836   0.082   1.379  13.387  0.4446  0.2453  0.4160
  120TCq2    O5 1837   0.204   1.402  13.399 -0.0008 -0.5365  0.3466
  120TCq2    O6 1838   0.033   1.316  13.289 -0.2582 -0.3741  0.7320
  120TCq2    H2 1839   0.143   1.530  13.582 -0.3522 -0.4825 -0.0507
  120TCq2    H3 1840   4.535   1.362  13.376 -0.6605 -0.4614 -0.2197
  120TCq2    H4 1841   4.455   1.590  13.720 -0.9018  1.4104 -2.0208
  121TMC2    C1 1842   1.617   3.517  14.041  0.1336  0.3130 -0.1731
  121TMC2    C2 1843   1.659   3.463  14.160 -0.6002  0.7023  0.2826
  121TMC2    C3 1844   1.561   3.394  14.229 -0.5434 -0.7846 -0.2150
  121TMC2    C4 1845   1.488   3.514  13.996  0.8486  0.7689  0.0270
  121TMC2    C5 1846   1.403   3.435  14.072 -0.0980  0.1955 -0.0953
  121TMC2    C6 1847   1.435   3.376  14.190 -0.5405  0.3101  0.3249
  121TMC2     C 1848   1.706   3.626  13.996  0.2013  0.4054  0.1901
  121TMC2     O 1849   1.826   3.628  14.027  0.0869  0.0047 -0.1688
  121TMC2     H 1850   1.760   3.449  14.194 -0.9193  0.8556  1.2807
  121TMC2    H1 1851   1.463   3.545  13.895  0.0667  1.3544  0.4129
  121TMC2    H2 1852   1.362   3.318  14.246 -2.2785  2.0767 -0.1100
  121TMC2    C7 1853   1.300   3.382  13.991 -0.5702 -0.5654  0.2615
  121TMC2    C8 1854   1.602   3.386  14.370 -0.3079  0.7266 -0.1026
  121TMC2    O1 1855   1.246   3.457  13.911  0.0675 -0.2117  0.5241
  121TMC2    O2 1856   1.661   3.477  14.428 -0.0959  0.2781 -0.5926
  121TMC2    O5 1857   1.534   3.286  14.428  0.4790 -0.1266  0.0441
  121TMC2    H5 1858   1.498   3.222  14.362  3.1863 -1.7952  0.1842
  122MPD2     C 1859   1.852   3.855  13.870  0.5575 -0.0331 -0.0166
  122MPD2    C1 1860   1.718   3.818  13.846 -0.0936  0.2019 -0.1275
  122MPD2    C2 1861   1.653   3.904  13.762  0.5334  0.2657 -0.4860
  122MPD2    C3 1862   1.719   4.007  13.688 -0.1784 -0.2524  0.9153
  122MPD2    C4 1863   1.848   4.040  13.722 -0.7409 -0.2857 -0.5190
  122MPD2    C5 1864   1.914   3.955  13.805  0.6442 -0.4430  0.1612
  122MPD2     H 1865   1.550   3.883  13.735  0.2262  2.1565 -0.8156
  122MPD2    H1 1866   1.905   4.120  13.677 -1.8461  0.1268 -1.2042
  122MPD2    H2 1867   1.916   3.818  13.949  0.3418 -0.2902  0.0364
  122MPD2    H3 1868   2.021   3.964  13.817  0.8058  0.1346 -1.8024
  122MPD2     N 1869   1.662   4.068  13.576 -0.2355  0.3946 -0.4989
  122MPD2    H5 1870   1.575   4.029  13.539 -0.6164 -0.6359  1.4755
  122MPD2    N1 1871   1.650   3.702  13.898 -0.1563 -0.2535  0.0052
  122MPD2    H7 1872   1.554   3.680  13.872 -0.0520  0.3245 -0.8960
  123MPD2     C 1873   0.628   1.969   8.421  0.4379 -0.1251  0.2277
  123MPD2    C1 1874   0.527   1.933   8.517  0.9633  0.1667 -0.1667
  123MPD2    C2 1875   0.561   1.854   8.627  0.5772  0.9967  0.7633
  123MPD2    C3 1876   0.690   1.806   8.628 -0.2074  0.0436  0.0797
  123MPD2    C4 1877   0.791   1.846   8.537 -0.5591 -0.8478  0.2368
  123MPD2    C5 1878   0.756   1.925   8.431  1.1176 -0.1557  1.0041
  123MPD2     H 1879   0.482   1.820   8.693  0.5592  1.4437  0.9722
  123MPD2    H1 1880   0.895   1.817   8.548 -0.2027  1.7936  3.6225
  123MPD2    H2 1881   0.610   2.035   8.338  3.6764 -0.6314 -0.8786
  123MPD2    H3 1882   0.825   1.955   8.353 -2.0264  0.0928 -1.6917
  123MPD2     N 1883   0.726   1.730   8.742  0.6064  0.4632 -0.1958
  123MPD2    H5 1884   0.664   1.717   8.821  1.7137  0.8776  0.7298
  123MPD2    N1 1885   0.393   1.971   8.489 -0.1354  0.1789  0.2667
  123MPD2    H7 1886   0.379   2.025   8.405  0.1359 -1.1109 -0.6154
  124TCq2    C1 1887   0.851   1.680   8.774  0.5035 -0.3615 -0.3314
  124TCq2    O2 1888   0.959   1.681   8.722  0.4622 -0.3661 -0.1867
  124TCq2    C2 1889   0.852   1.613   8.901 -0.2991 -0.8521  0.0521
  124TCq2    C3 1890   0.965   1.627   8.981 -0.0267 -0.4145  0.6995
  124TCq2    C4 1891   0.963   1.569   9.108 -0.0674  0.2206 -0.2504
  124TCq2    C5 1892   0.849   1.516   9.149 -0.1180  0.3633  0.1931
  124TCq2    C6 1893   0.742   1.507   9.072 -0.1128  0.5690 -0.0593
  124TCq2    C7 1894   0.735   1.553   8.941 -1.0514 -0.5435  0.5176
  124TCq2    C8 1895   0.641   1.414   9.123  0.2232 -0.0127 -0.7352
  124TCq2    O4 1896   0.674   1.343   9.217  0.3375 -0.0106  0.0416
  124TCq2    C9 1897   1.070   1.599   9.197 -0.2009  0.2009 -0.1321
  124TCq2    O5 1898   1.045   1.567   9.316 -0.7563  0.0724  0.6147
  124TCq2    O6 1899   1.164   1.674   9.161  0.3933 -0.5315 -0.1670
  124TCq2    H2 1900   1.054   1.674   8.941 -0.3896  0.0742  0.4575
  124TCq2    H3 1901   0.852   1.466   9.245  0.2714 -0.3407 -0.1895
  124TCq2    H4 1902   0.661   1.521   8.868 -0.5723 -0.9161  0.1849
  125TMC2    C1 1903   0.200   2.073   8.913 -0.8819  0.2834  0.0296
  125TMC2    C2 1904   0.229   1.949   8.960  0.1114 -0.0277 -0.3582
  125TMC2    C3 1905   0.359   1.906   8.973  0.2638  0.3419  0.0386
  125TMC2    C4 1906   0.297   2.146   8.855  0.3657  0.6243 -0.4362
  125TMC2    C5 1907   0.428   2.096   8.863  0.2687  0.7774 -0.4738
  125TMC2    C6 1908   0.467   1.979   8.926 -0.1145 -0.1426  0.0646
  125TMC2     C 1909   0.056   2.097   8.889  0.0754 -0.3082 -0.6607
  125TMC2     O 1910   4.699   2.005   8.906 -0.3677 -0.0731 -0.1627
  125TMC2     H 1911   0.154   1.884   9.004  2.5943 -0.8995  2.5709
  125TMC2    H1 1912   0.283   2.246   8.817  0.8885  0.8210 -0.1182
  125TMC2    H2 1913   0.566   1.951   8.960 -0.9893  0.2349  2.9115
  125TMC2    C7 1914   0.533   2.187   8.823 -0.6997 -0.7595 -0.1899
  125TMC2    C8 1915   0.384   1.764   8.981  0.1991  0.3246  0.2701
  125TMC2    O1 1916   0.500   2.305   8.837 -0.2973  0.5534  0.0245
  125TMC2    O2 1917   0.475   1.708   8.921  0.2713 -0.1968 -0.2667
  125TMC2    O5 1918   0.341   1.718   9.097 -0.0200  0.3054 -0.0884
  125TMC2    H5 1919   0.311   1.799   9.144 -0.0746  0.3928 -0.2768
  126MPD1     C 1920   4.393   2.371   8.681  1.0586 -0.1758 -0.6791
  126MPD1    C1 1921   4.498   2.466   8.703  0.4509  0.2435 -0.3853
  126MPD1    C2 1922   4.613   2.409   8.754  0.3381 -0.4860 -0.0039
  126MPD1    C3 1923   4.629   2.278   8.792 -0.1035  0.2878 -0.4315
  126MPD1    C4 1924   4.526   2.194   8.773  0.3378 -0.0504 -0.2674
  126MPD1    C5 1925   4.414   2.239   8.715  0.4204 -0.3288 -0.5710
  126MPD1     H 1926   4.700   2.475   8.754  1.0317 -1.4040  2.2901
  126MPD1    H1 1927   4.518   2.091   8.803 -0.0249  0.2757  0.7639
  126MPD1    H2 1928   4.295   2.401   8.644  1.5446  1.0630 -0.9807
  126MPD1    H3 1929   4.334   2.168   8.694 -1.3065  1.6244 -0.5940
  126MPD1     N 1930   0.032   2.229   8.842 -0.0298  0.0381  0.0285
  126MPD1    H5 1931   0.108   2.293   8.860 -1.0618  0.8131  1.6394
  126MPD1    N1 1932   4.495   2.586   8.629  0.2133  0.2379 -0.1547
  126MPD1    H6 1933   4.404   2.631   8.636  0.0560 -0.2676  0.9862
  126MPD1    H7 1934   4.567   2.643   8.676 -0.3248  0.5005  0.3564
  127MPD2     C 1935   2.549   1.289   9.268  0.1785 -0.6329  0.4996
  127MPD2    C1 1936   2.483   1.280   9.390 -0.6088 -0.3324 -0.2911
  127MPD2    C2 1937   2.464   1.403   9.458 -0.4673 -0.2167 -0.3170
  127MPD2    C3 1938   2.501   1.526   9.400 -0.4073  0.5114  0.1160
  127MPD2    C4 1939   2.560   1.524   9.273 -0.0673 -0.4522  0.6211
  127MPD2    C5 1940   2.589   1.403   9.209 -0.5721 -0.3942  0.1283
  127MPD2     H 1941   2.403   1.405   9.548 -1.8962  0.2346 -1.2948
  127MPD2    H1 1942   2.599   1.609   9.217  0.0141 -0.5726  0.4936
  127MPD2    H2 1943   2.584   1.200   9.217  2.1107 -1.4873  3.3120
  127MPD2    H3 1944   2.632   1.391   9.111 -0.7049  0.1544  0.0072
  127MPD2     N 1945   2.467   1.649   9.460  0.3228 -0.5481 -0.3471
  127MPD2    H5 1946   2.418   1.641   9.549 -0.4973  3.6515 -0.3897
  127MPD2    N1 1947   2.445   1.158   9.443 -0.2697  0.4596  0.1492
  127MPD2    H7 1948   2.465   1.080   9.382  0.2162  0.7785 -0.0964
  128TCq2    C1 1949   2.407   1.134   9.575  0.7072  0.1291  0.0706
  128TCq2    O2 1950   2.382   1.213   9.664  0.2929  0.0020  0.7487
  128TCq2    C2 1951   2.360   0.998   9.599 -0.4724 -0.1666 -0.8763
  128TCq2    C3 1952   2.287   0.972   9.711 -0.6404 -0.1230 -0.2965
  128TCq2    C4 1953   2.225   0.852   9.715  0.5729 -0.4276 -0.6953
  128TCq2    C5 1954   2.253   0.754   9.623  0.0046  0.0854  0.7138
  128TCq2    C6 1955   2.330   0.784   9.518  0.3534  0.5343  0.5487
  128TCq2    C7 1956   2.375   0.906   9.494 -0.0244 -0.2531  0.1714
  128TCq2    C8 1957   2.369   0.682   9.422 -0.0987  0.5768 -0.4839
  128TCq2    O4 1958   2.460   0.716   9.345  0.2077  0.5532 -0.1621
  128TCq2    C9 1959   2.148   0.813   9.829 -0.2341 -0.2185 -0.3858
  128TCq2    O5 1960   2.180   0.867   9.940  0.1304  1.2081  0.1901
  128TCq2    O6 1961   2.074   0.713   9.822 -0.9493  0.7122  0.2289
  128TCq2    H2 1962   2.277   1.049   9.787  0.2984  0.2249 -0.5177
  128TCq2    H3 1963   2.211   0.654   9.631 -0.2466  0.2436  1.4611
  128TCq2    H4 1964   2.439   0.924   9.408  0.5822 -1.9272  0.2574
  129MPD2     C 1965   4.379   2.925   1.461 -0.4533 -0.3206  0.5602
  129MPD2    C1 1966   4.500   2.894   1.516  0.5085  0.7754 -0.2825
  129MPD2    C2 1967   4.613   2.974   1.480  0.0322 -0.6211 -0.3231
  129MPD2    C3 1968   4.599   3.074   1.387  0.8886  0.7803  0.8763
  129MPD2    C4 1969   4.475   3.107   1.342 -0.0642 -0.1729 -0.4466
  129MPD2    C5 1970   4.361   3.043   1.393  0.9168 -0.1291 -0.1221
  129MPD2     H 1971   4.706   2.940   1.524  0.7799  2.7026  0.6344
  129MPD2    H1 1972   4.469   3.186   1.269 -0.7008  2.5238  2.5433
  129MPD2    H2 1973   4.295   2.860   1.481 -0.2171 -0.0133  2.5397
  129MPD2    H3 1974   4.261   3.063   1.357  0.3538 -1.8813  0.4459
  129MPD2     N 1975   0.004   3.130   1.350 -0.3860 -0.3875  0.0495
  129MPD2    H5 1976   0.085   3.105   1.405  0.3086  0.1660 -0.7161
  129MPD2    N1 1977   4.530   2.794   1.608  0.5505 -0.0604  0.0476
  129MPD2    H7 1978   4.628   2.771   1.618  0.2030 -1.1713  1.0000
  130TCq2    C1 1979   4.446   2.689   1.650  0.4905 -0.6184 -0.5212
  130TCq2    O2 1980   4.321   2.683   1.643 -0.3658 -0.5814 -0.2109
  130TCq2    C2 1981   4.513   2.577   1.713  0.1521 -0.7512  0.3851
  130TCq2    C3 1982   4.650   2.559   1.690 -0.6410 -0.0211  0.1150
  130TCq2    C4 1983   4.719   2.459   1.758  0.3440  0.4012 -0.3333
  130TCq2    C5 1984   4.649   2.370   1.835 -0.5693 -0.1648 -0.5000
  130TCq2    C6 1985   4.513   2.391   1.859  0.2602 -0.0338  1.0516
  130TCq2    C7 1986   4.444   2.489   1.793  0.7417  0.4755  0.1816
  130TCq2    C8 1987   4.443   2.299   1.950  0.6437 -0.0679 -0.0515
  130TCq2    O4 1988   4.335   2.342   1.988 -0.3544  0.1267  0.6847
  130TCq2    C9 1989   0.137   2.436   1.736  0.1637 -0.0244  0.0656
  130TCq2    O5 1990   0.194   2.343   1.801 -0.3497  0.1913  0.4406
  130TCq2    O6 1991   0.191   2.512   1.652  0.0458 -0.2500 -0.4359
  130TCq2    H2 1992   4.706   2.625   1.625  0.8419 -0.0484  1.3597
  130TCq2    H3 1993   4.712   2.299   1.888 -0.4033  0.1865 -0.2235
  130TCq2    H4 1994   4.338   2.512   1.803  0.6127 -0.4051  0.7723
  131MPD2     C 1995   4.372   1.571   8.866  0.0498  0.7641 -0.1635
  131MPD2    C1 1996   4.493   1.625   8.910 -0.2735 -0.0226 -0.1341
  131MPD2    C2 1997   4.544   1.729   8.844 -0.4747  0.5266 -0.1661
  131MPD2    C3 1998   4.479   1.774   8.728  0.4654  0.0190  0.7061
  131MPD2    C4 1999   4.368   1.711   8.667  0.2619  0.3812  0.1180
  131MPD2    C5 2000   4.314   1.613   8.748  0.3593  0.8556  0.5577
  131MPD2     H 2001   4.641   1.769   8.872  0.4944 -1.2514 -0.9860
  131MPD2    H1 2002   4.304   1.772   8.603 -1.1117  0.0124  1.1509
  131MPD2    H2 2003   4.322   1.485   8.907  0.5396  0.2428 -0.6571
  131MPD2    H3 2004   4.218   1.582   8.709  0.4484 -0.4037  1.3444
  131MPD2     N 2005   4.546   1.886   8.669 -0.1916  0.5988  0.0091
  131MPD2    H5 2006   4.642   1.895   8.702 -1.0704 -0.5520  2.9561
  131MPD2    N1 2007   4.548   1.559   9.021 -0.0790  0.3996  0.1405
  131MPD2    H7 2008   4.498   1.476   9.051  1.1091 -0.2113  0.4427
  132TCq2    C1 2009   0.266   1.459   9.434  0.1438 -0.2948 -0.6693
  132TCq2    O2 2010   0.262   1.407   9.547 -0.2121 -0.3051  0.2340
  132TCq2    C2 2011   0.156   1.425   9.347  1.4212 -0.4768 -0.6062
  132TCq2    C3 2012   0.076   1.319   9.383  0.3614  0.5282 -0.0727
  132TCq2    C4 2013   4.686   1.292   9.304  0.3301 -0.1319  0.6495
  132TCq2    C5 2014   4.633   1.387   9.221  0.3704 -0.1698  0.6274
  132TCq2    C6 2015   4.705   1.503   9.200  1.1352  0.6274 -0.1407
  132TCq2    C7 2016   0.111   1.520   9.255 -0.1956 -0.3185  0.4817
  132TCq2    C8 2017   4.662   1.593   9.094  0.3641  0.3604  0.2251
  132TCq2    O4 2018   0.002   1.699   9.087  0.1396  0.0744 -0.2672
  132TCq2    C9 2019   4.611   1.173   9.329 -0.1842  0.0935 -0.2918
  132TCq2    O5 2020   4.507   1.154   9.261 -0.4211 -0.2455 -0.8315
  132TCq2    O6 2021   4.646   1.104   9.428  0.3792 -0.2795  0.2403
  132TCq2    H2 2022   0.115   1.250   9.457 -0.7927 -0.8771 -0.7916
  132TCq2    H3 2023   4.533   1.365   9.185 -0.0048  1.0023  0.9491
  132TCq2    H4 2024   0.153   1.620   9.256  0.1684 -0.4552 -2.0413
  133MPD2     C 2025   4.463   2.610   9.082 -0.0084  0.0173  0.8295
  133MPD2    C1 2026   4.525   2.488   9.102 -0.0934 -0.1113  0.5776
  133MPD2    C2 2027   4.458   2.371   9.076 -0.3795 -0.1087  0.0928
  133MPD2    C3 2028   4.332   2.374   9.023 -0.0149  0.1416 -0.0602
  133MPD2    C4 2029   4.274   2.498   8.990 -0.1861 -0.2129 -0.3057
  133MPD2    C5 2030   4.340   2.614   9.029 -0.6635  0.0254  0.2670
  133MPD2     H 2031   4.499   2.273   9.094 -1.7309 -0.5376  0.7827
  133MPD2    H1 2032   4.188   2.508   8.925  0.0387  2.9670 -0.0998
  133MPD2    H2 2033   4.518   2.701   9.106  1.0787  0.3277 -2.8443
  133MPD2    H3 2034   4.298   2.710   8.999  1.2686  0.3734 -1.3410
  133MPD2     N 2035   4.249   2.261   8.999 -0.1908 -0.4988 -0.1376
  133MPD2    H5 2036   4.161   2.284   8.954 -0.1174 -0.6079 -0.3382
  133MPD2    N1 2037   4.656   2.491   9.151 -0.1361 -0.6759 -0.5820
  133MPD2    H7 2038   4.697   2.583   9.148  2.4450 -1.7047  2.2872
  134TCq2    C1 2039   0.008   2.386   9.204 -0.5080 -0.6224  0.5149
  134TCq2    O2 2040   4.702   2.267   9.220 -0.5226  0.0968  0.0853
  134TCq2    C2 2041   0.134   2.428   9.259 -0.0011  0.2943  0.1605
  134TCq2    C3 2042   0.225   2.329   9.287 -0.0396  0.1856  0.0279
  134TCq2    C4 2043   0.326   2.361   9.369 -0.8422 -0.1430  0.1522
  134TCq2    C5 2044   0.340   2.490   9.426  0.2407  0.5109 -0.3223
  134TCq2    C6 2045   0.248   2.592   9.390  0.3196 -0.3203 -1.2160
  134TCq2    C7 2046   0.140   2.551   9.316 -0.2775  0.1334 -0.1651
  134TCq2    C8 2047   0.290   2.730   9.368  0.6639  0.0723  0.7660
  134TCq2    O4 2048   0.216   2.815   9.315 -0.3866 -0.2456  0.2673
  134TCq2    C9 2049   0.426   2.253   9.399 -0.7565 -0.5510 -0.0058
  134TCq2    O5 2050   0.409   2.130   9.385 -0.1710 -0.1936 -0.4820
  134TCq2    O6 2051   0.524   2.295   9.467 -0.2081  0.2737 -0.0089
  134TCq2    H2 2052   0.203   2.223   9.274  0.9049 -0.0039 -0.0041
  134TCq2    H3 2053   0.407   2.502   9.510  1.1654  3.0051 -1.4192
  134TCq2    H4 2054   0.065   2.628   9.303 -1.5625 -1.0587  0.1931
  135MPD2     C 2055   2.011   1.824   9.053 -0.1880  0.3902 -0.2807
  135MPD2    C1 2056   2.041   1.918   8.955  0.5011 -0.0516  0.0561
  135MPD2    C2 2057   2.167   1.964   8.948  0.1795 -0.0032 -0.2407
  135MPD2    C3 2058   2.262   1.916   9.039  0.1410  0.2169  1.2935
  135MPD2    C4 2059   2.234   1.808   9.120 -0.3275  0.6842 -0.0735
  135MPD2    C5 2060   2.104   1.766   9.128  0.6817 -0.4156  0.3911
  135MPD2     H 2061   2.194   2.032   8.867  0.1754  1.4972  1.0088
  135MPD2    H1 2062   2.311   1.754   9.175 -0.6840  0.1476 -0.0975
  135MPD2    H2 2063   1.909   1.800   9.081 -0.4728  1.8212 -0.1138
  135MPD2    H3 2064   2.072   1.689   9.197 -0.5889 -1.8780 -1.8409
  135MPD2     N 2065   2.399   1.952   9.040 -0.1028  0.1240  0.8836
  135MPD2    H5 2066   2.461   1.892   9.094 -0.6997  1.2093  2.7782
  135MPD2    N1 2067   1.941   1.982   8.885  0.0097  0.4322 -0.8527
  135MPD2    H7 2068   1.961   2.062   8.826  1.1274  1.4888  0.9595
  136TCq2    C1 2069   1.822   1.921   8.849 -0.7511 -0.0782 -0.7005
  136TCq2    O2 2070   1.785   1.809   8.874 -0.1779 -0.2851  0.0462
  136TCq2    C2 2071   1.737   2.008   8.770 -0.6797 -0.2778  0.7828
  136TCq2    C3 2072   1.620   1.949   8.722 -0.0295 -0.2321 -0.1244
  136TCq2    C4 2073   1.521   2.031   8.673  0.3252  0.6980  0.4152
  136TCq2    C5 2074   1.541   2.163   8.661 -0.2919  0.3205  0.2109
  136TCq2    C6 2075   1.658   2.220   8.703  0.6338  0.7028  0.3845
  136TCq2    C7 2076   1.759   2.141   8.754  0.8894 -0.0002 -0.3515
  136TCq2    C8 2077   1.686   2.364   8.683 -0.4958  1.2408  0.5066
  136TCq2    O4 2078   1.800   2.405   8.686 -0.2125  0.6583 -0.1415
  136TCq2    C9 2079   1.398   1.972   8.630  0.2025 -0.2285  0.2695
  136TCq2    O5 2080   1.334   2.049   8.553 -0.9285 -0.0042  0.6459
  136TCq2    O6 2081   1.386   1.848   8.643 -0.0224 -0.1410 -0.0684
  136TCq2    H2 2082   1.605   1.843   8.733  1.2773 -0.1329  2.4549
  136TCq2    H3 2083   1.458   2.225   8.627 -0.5850 -1.2468 -1.9170
  136TCq2    H4 2084   1.850   2.188   8.789  0.8565 -0.3722  0.2261
  137MPD2     C 2085   1.787   2.471  10.280  0.8100  0.1246 -0.2539
  137MPD2    C1 2086   1.768   2.427  10.154  0.4962 -0.2904 -0.7337
  137MPD2    C2 2087   1.710   2.519  10.065  0.2568  0.1714 -0.1940
  137MPD2    C3 2088   1.658   2.644  10.097 -0.4404  0.5922  0.8279
  137MPD2    C4 2089   1.676   2.682  10.228  0.2641  1.0414  0.2012
  137MPD2    C5 2090   1.743   2.596  10.318 -0.1667 -0.2675  0.6335
  137MPD2     H 2091   1.699   2.487   9.962 -0.0275  0.0136 -0.1135
  137MPD2    H1 2092   1.641   2.778  10.266 -0.8773 -0.1089  2.0162
  137MPD2    H2 2093   1.834   2.403  10.350  2.2429  1.5474  0.1733
  137MPD2    H3 2094   1.757   2.631  10.419 -0.3225  2.1139 -0.1646
  137MPD2     N 2095   1.595   2.718   9.997 -0.1881 -0.1112 -0.3074
  137MPD2    H5 2096   1.608   2.688   9.900  1.2397  0.8042 -0.3982
  137MPD2    N1 2097   1.811   2.294  10.116 -0.1257 -0.0860 -0.2180
  137MPD2    H7 2098   1.864   2.247  10.188 -0.7168  1.7679  1.4240
  138TCq2    C1 2099   1.756   2.230  10.008  0.0378 -0.0119 -0.6248
  138TCq2    O2 2100   1.661   2.270   9.941  0.4380  0.2827 -0.0580
  138TCq2    C2 2101   1.806   2.101   9.985 -0.3054 -0.4651 -0.0231
  138TCq2    C3 2102   1.926   2.056  10.032 -0.3707 -0.4341 -0.0771
  138TCq2    C4 2103   1.954   1.931   9.992  0.1050 -0.2534 -0.3581
  138TCq2    C5 2104   1.876   1.851   9.916 -0.2269 -0.5417 -0.5749
  138TCq2    C6 2105   1.751   1.891   9.872  0.0703  0.3439  0.1063
  138TCq2    C7 2106   1.714   2.021   9.909  0.2341 -0.2904 -0.5975
  138TCq2    C8 2107   1.683   1.800   9.780  0.1015 -0.2302 -0.4427
  138TCq2    O4 2108   1.711   1.684   9.794 -0.1989 -0.0045 -0.1495
  138TCq2    C9 2109   2.085   1.880  10.027  0.0335 -0.1277 -0.0582
  138TCq2    O5 2110   2.124   1.773   9.968  0.2350  0.1854  0.0858
  138TCq2    O6 2111   2.158   1.955  10.094  0.5376  0.8449 -0.2711
  138TCq2    H2 2112   2.000   2.113  10.087 -2.4799 -0.7576  3.0740
  138TCq2    H3 2113   1.919   1.756   9.886  1.6016  0.3981 -0.9426
  138TCq2    H4 2114   1.618   2.055   9.872 -0.0601 -0.4361  0.0305
  139TMC2    C1 2115   1.684   1.125  13.286 -0.2259 -0.1799  0.3357
  139TMC2    C2 2116   1.612   1.183  13.187 -0.2651  0.1531 -0.1227
  139TMC2    C3 2117   1.559   1.310  13.206  0.5321  0.1206 -0.4916
  139TMC2    C4 2118   1.703   1.197  13.401  0.0911  0.9705  0.9665
  139TMC2    C5 2119   1.642   1.315  13.419  0.6493 -0.4887  0.7429
  139TMC2    C6 2120   1.569   1.379  13.321 -0.0102 -0.3866  0.2195
  139TMC2     C 2121   1.714   0.984  13.275  0.1817 -0.4895  0.5971
  139TMC2     O 2122   1.635   0.922  13.204  0.2949  0.1177  0.2725
  139TMC2     H 2123   1.594   1.128  13.095 -0.3144  1.0811 -0.6801
  139TMC2    H1 2124   1.768   1.159  13.478 -1.2574  0.3704  1.8106
  139TMC2    H2 2125   1.528   1.477  13.342  1.3302  0.5914 -1.8218
  139TMC2    C7 2126   1.630   1.358  13.549 -0.4751 -0.3926 -0.2562
  139TMC2    C8 2127   1.455   1.345  13.108 -0.5014  0.5554  0.2637
  139TMC2    O1 2128   1.708   1.310  13.631  0.6529  1.0552 -0.2574
  139TMC2    O2 2129   1.392   1.269  13.037 -0.0970 -0.6768 -0.4623
  139TMC2    O5 2130   1.429   1.479  13.127 -0.4057  0.0651  0.1681
  139TMC2    H5 2131   1.505   1.533  13.158  0.7191 -0.4755 -1.6268
  140MPD2     C 2132   1.945   0.773  13.473 -0.3458  0.3973 -0.0152
  140MPD2    C1 2133   1.861   0.804  13.367 -0.1073 -0.2268 -0.6001
  140MPD2    C2 2134   1.814   0.702  13.284  0.4617 -0.1510  0.0350
  140MPD2    C3 2135   1.841   0.570  13.310 -0.1224  0.3714 -0.2490
  140MPD2    C4 2136   1.922   0.537  13.414  0.6853 -0.1213  0.2653
  140MPD2    C5 2137   1.982   0.640  13.489 -0.5519 -0.4460  0.2413
  140MPD2     H 2138   1.750   0.730  13.201  2.4050  1.9676 -0.7691
  140MPD2    H1 2139   1.946   0.433  13.430  1.4866  0.0878  0.4123
  140MPD2    H2 2140   1.990   0.840  13.546  1.0450  0.7019 -1.1684
  140MPD2    H3 2141   2.046   0.609  13.572  2.1569 -0.0762 -1.7044
  140MPD2     N 2142   1.787   0.472  13.221 -0.2023 -0.1631  0.4899
  140MPD2    H5 2143   1.733   0.501  13.140 -0.1917 -0.5198  0.3535
  140MPD2    N1 2144   1.821   0.939  13.349 -0.1504  0.5126  0.1616
  140MPD2    H7 2145   1.871   1.002  13.410  1.2255 -0.5739  0.1376
  141TCq2    C1 2146   2.647   2.276  13.792  0.3177 -0.0015  0.0136
  141TCq2    O2 2147   2.578   2.329  13.710  0.5707 -0.1429  0.5726
  141TCq2    C2 2148   2.586   2.219  13.913 -0.1374 -0.6908  0.1911
  141TCq2    C3 2149   2.455   2.188  13.904 -0.2517 -0.0959  0.0430
  141TCq2    C4 2150   2.404   2.102  13.999 -0.0578  0.0701 -0.6185
  141TCq2    C5 2151   2.473   2.072  14.109  0.3270  0.0357 -0.9895
  141TCq2    C6 2152   2.592   2.123  14.133  0.4089  0.4663 -0.4608
  141TCq2    C7 2153   2.656   2.190  14.030  0.1379  0.1001  0.1255
  141TCq2    C8 2154   2.654   2.133  14.264 -0.5371  0.0770 -0.1109
  141TCq2    O4 2155   2.718   2.234  14.288 -0.1208  1.0145  0.1425
  141TCq2    C9 2156   2.268   2.059  13.983  0.9111 -0.4700 -0.7584
  141TCq2    O5 2157   2.191   2.109  13.897  0.0013 -0.4121 -0.8059
  141TCq2    O6 2158   2.232   1.962  14.054 -0.0702  0.4120  0.2919
  141TCq2    H2 2159   2.393   2.210  13.818 -0.1520  0.0254  0.0027
  141TCq2    H3 2160   2.411   2.033  14.190  1.3441 -0.3474 -0.4028
  141TCq2    H4 2161   2.755   2.232  14.042  0.7541 -1.1584 -0.5959
  142MPD2     C 2162   4.199   0.748   9.524  0.0380 -0.0977 -0.2603
  142MPD2    C1 2163   4.282   0.661   9.579  0.2335 -0.3560 -0.0174
  142MPD2    C2 2164   4.414   0.685   9.578 -0.4928  0.6347 -0.1977
  142MPD2    C3 2165   4.472   0.799   9.533 -0.0352 -0.1637  0.0383
  142MPD2    C4 2166   4.387   0.894   9.487  0.1888 -0.2915  0.1848
  142MPD2    C5 2167   4.253   0.866   9.476 -0.0068 -0.4390 -0.3186
  142MPD2     H 2168   4.474   0.604   9.618 -0.8785  0.8210  0.7612
  142MPD2    H1 2169   4.417   0.990   9.448  2.3164 -0.9173  0.3218
  142MPD2    H2 2170   4.092   0.734   9.517 -0.3734  0.8905  3.8300
  142MPD2    H3 2171   4.184   0.918   9.411  0.4215  0.7565  0.1844
  142MPD2     N 2172   4.609   0.824   9.526  0.3092 -0.4801 -0.1350
  142MPD2    H5 2173   4.640   0.909   9.479  2.1622 -0.0093  1.9537
  142MPD2    N1 2174   4.220   0.550   9.642  0.2836  0.5286 -0.3823
  142MPD2    H7 2175   4.120   0.539   9.629  0.5274  0.6676 -2.4676
  143TCq2    C1 2176   4.713   0.739   9.563  0.3892  1.1416  0.1604
  143TCq2    O2 2177   4.695   0.636   9.629  0.1091  0.0065 -0.1822
  143TCq2    C2 2178   0.124   0.803   9.553  0.6981  0.2378  0.0562
  143TCq2    C3 2179   0.222   0.733   9.619 -0.3229  0.4758  0.0624
  143TCq2    C4 2180   0.357   0.757   9.586 -0.2929  0.0738  0.3650
  143TCq2    C5 2181   0.396   0.839   9.483 -0.0064  0.4718  0.1874
  143TCq2    C6 2182   0.291   0.898   9.417 -0.0132  0.0319 -0.3643
  143TCq2    C7 2183   0.154   0.882   9.442  0.2810 -0.1260 -0.0784
  143TCq2    C8 2184   0.334   1.015   9.332  0.3041  0.1861  0.2027
  143TCq2    O4 2185   0.447   1.047   9.366 -0.4271  0.2041  1.1185
  143TCq2    C9 2186   0.451   0.717   9.678  0.2415 -0.3181 -0.5914
  143TCq2    O5 2187   0.567   0.685   9.633 -0.6070 -0.2202  0.7193
  143TCq2    O6 2188   0.412   0.698   9.795 -0.3017  0.8585 -0.8038
  143TCq2    H2 2189   0.200   0.671   9.705  1.1093  3.1177  2.3601
  143TCq2    H3 2190   0.501   0.865   9.471  0.6212 -0.7877  3.0327
  143TCq2    H4 2191   0.079   0.921   9.374 -0.4828  1.9249  1.9699
  144MPD2     C 2192   2.223   0.153   0.647 -0.1547  0.2993 -0.1119
  144MPD2    C1 2193   2.255   0.024   0.607 -0.4959  0.2005 -0.2808
  144MPD2    C2 2194   2.357   4.683   0.684 -0.3761 -0.5270  0.8527
  144MPD2    C3 2195   2.432   0.028   0.774 -0.4138 -0.6288  0.3041
  144MPD2    C4 2196   2.405   0.158   0.808  0.5870 -0.1375 -0.4282
  144MPD2    C5 2197   2.295   0.218   0.744 -0.4861 -0.3512 -0.2067
  144MPD2     H 2198   2.372   4.579   0.655  0.7290 -0.4197  1.0536
  144MPD2    H1 2199   2.460   0.224   0.874 -0.2537  0.6178 -0.4666
  144MPD2    H2 2200   2.139   0.210   0.609 -0.8939 -0.9718 -0.4110
  144MPD2    H3 2201   2.267   0.321   0.762 -0.6944 -0.6916  1.3866
  144MPD2     N 2202   2.535   4.682   0.855 -0.0961 -0.2527  0.6428
  144MPD2    H5 2203   2.591   0.028   0.906  1.1392  0.4680 -1.6609
  144MPD2    N1 2204   2.188   4.668   0.514 -0.0046 -0.1805  0.6734
  144MPD2    H7 2205   2.208   4.569   0.511 -0.2580 -0.2136 -0.0332
  145TCq2    C1 2206   2.568   4.549   0.838  0.4214 -0.1470  0.0824
  145TCq2    O2 2207   2.514   4.459   0.770  0.3700  0.1261  0.4986
  145TCq2    C2 2208   2.684   4.501   0.909 -0.0227 -0.0802  0.2622
  145TCq2    C3 2209   2.728   4.375   0.877  0.0082  0.0233 -0.5493
  145TCq2    C4 2210   2.846   4.331   0.937 -0.2502 -0.0608 -0.0460
  145TCq2    C5 2211   2.899   4.402   1.038 -0.0279  0.8630  0.2780
  145TCq2    C6 2212   2.850   4.523   1.070 -0.5140  0.3245  0.1450
  145TCq2    C7 2213   2.737   4.573   1.009 -0.1932 -0.0386  0.0204
  145TCq2    C8 2214   2.934   4.609   1.150 -0.4871 -0.2527 -0.1381
  145TCq2    O4 2215   3.027   4.564   1.213  0.5483  0.5078  0.8347
  145TCq2    C9 2216   2.901   4.208   0.892 -0.1176 -0.3538 -0.1406
  145TCq2    O5 2217   2.842   4.148   0.802 -0.2786 -0.1277 -0.3872
  145TCq2    O6 2218   2.971   4.143   0.972  0.3907  0.0887 -0.1008
  145TCq2    H2 2219   2.675   4.319   0.801  1.1814  1.1694 -2.1893
  145TCq2    H3 2220   2.992   4.365   1.080  0.5979  0.6450 -1.2781
  145TCq2    H4 2221   2.686   4.660   1.049  1.2367  0.5932  0.4590
  146TMC2    C1 2222   0.298   2.879  12.024 -0.2682 -0.1214 -0.3265
  146TMC2    C2 2223   0.271   2.852  11.895  0.0052 -0.3561 -0.1069
  146TMC2    C3 2224   0.373   2.840  11.808  0.0539 -0.1446  0.3622
  146TMC2    C4 2225   0.426   2.889  12.073 -0.4287 -0.0267 -0.0111
  146TMC2    C5 2226   0.528   2.874  11.981 -0.2657 -0.3361 -0.2497
  146TMC2    C6 2227   0.506   2.851  11.850 -0.2267  0.0870  0.2437
  146TMC2     C 2228   0.195   2.909  12.125 -0.0655 -0.0626 -0.1552
  146TMC2     O 2229   0.089   2.946  12.078  0.1242 -0.4904  0.0392
  146TMC2     H 2230   0.171   2.878  11.860 -0.5424 -2.3852 -0.0663
  146TMC2    H1 2231   0.455   2.947  12.160  1.3994  0.5933 -1.0371
  146TMC2    H2 2232   0.585   2.828  11.780  1.9564  2.0201  2.0730
  146TMC2    C7 2233   0.668   2.896  12.028 -0.0071 -0.2492  0.4281
  146TMC2    C8 2234   0.362   2.874  11.668  0.3018  0.0256  0.5334
  146TMC2    O1 2235   0.747   2.945  11.948 -0.1314  0.3098 -0.2141
  146TMC2    O2 2236   0.452   2.866  11.589  0.4862 -0.0899 -0.2587
  146TMC2    O5 2237   0.253   2.951  11.637 -0.9662  0.5392 -0.7299
  146TMC2    H5 2238   0.194   2.970  11.713 -0.3836 -0.2833 -0.0517
  147MPD2     C 2239   1.021   2.870  12.392 -0.5068  0.1505  0.0119
  147MPD2    C1 2240   0.917   2.793  12.427 -0.1838 -0.1982  0.4649
  147MPD2    C2 2241   0.808   2.788  12.345  0.5583  0.4689  0.3192
  147MPD2    C3 2242   0.798   2.853  12.228 -0.0019  0.1195 -0.4203
  147MPD2    C4 2243   0.904   2.931  12.192  0.2828  0.3568 -0.0120
  147MPD2    C5 2244   1.016   2.933  12.272  0.5033  0.4777  0.2062
  147MPD2     H 2245   0.733   2.711  12.358  2.5002 -1.4829 -0.1707
  147MPD2    H1 2246   0.909   2.984  12.097 -0.0569 -0.5849 -0.5657
  147MPD2    H2 2247   1.111   2.865  12.452 -0.0271  1.1820 -0.6226
  147MPD2    H3 2248   1.101   2.991  12.237 -0.6845  1.7818 -0.4864
  147MPD2     N 2249   0.680   2.845  12.154 -0.4046  0.1740 -0.6250
  147MPD2    H5 2250   0.596   2.807  12.198 -0.9891  0.9160 -1.0915
  147MPD2    N1 2251   0.937   2.719  12.540 -0.3889 -0.3902  0.0562
  147MPD2    H7 2252   1.020   2.741  12.594 -0.5977  1.1964 -0.2576
  148MPD2     C 2253   0.029   2.427  10.270  0.3603 -0.5022 -0.3636
  148MPD2    C1 2254   0.065   2.295  10.246  0.1386  0.1952  0.0697
  148MPD2    C2 2255   4.688   2.204  10.246 -0.1508  0.1587 -0.0661
  148MPD2    C3 2256   4.547   2.237  10.251  1.1371  0.2165 -0.0147
  148MPD2    C4 2257   4.516   2.368  10.267 -0.2334 -0.2881 -0.4905
  148MPD2    C5 2258   4.609   2.461  10.289 -0.6852 -0.5089 -0.4034
  148MPD2     H 2259   4.719   2.103  10.222 -2.1689 -0.6338  0.7270
  148MPD2    H1 2260   4.412   2.392  10.253 -0.1669  1.3343  1.7422
  148MPD2    H2 2261   0.105   2.504  10.265 -1.0982  1.0462  1.1764
  148MPD2    H3 2262   4.591   2.566  10.311 -2.9492 -1.1784  0.9712
  148MPD2     N 2263   4.451   2.137  10.246 -0.4135 -0.3151 -0.2070
  148MPD2    H5 2264   4.356   2.171  10.238 -0.4436 -0.4455 -0.4033
  148MPD2    N1 2265   0.193   2.239  10.222  0.4587 -0.1705  0.2379
  148MPD2    H7 2266   0.195   2.141  10.197 -1.8748 -0.0853 -0.2694
  149TCq2    C1 2267   0.310   2.305  10.213  0.3845 -0.0326 -0.1400
  149TCq2    O2 2268   0.323   2.421  10.251 -0.7060 -0.0307  0.5278
  149TCq2    C2 2269   0.420   2.223  10.180  0.3337 -0.3712  0.0252
  149TCq2    C3 2270   0.544   2.256  10.233  0.3886 -0.3842  0.2102
  149TCq2    C4 2271   0.647   2.180  10.187 -0.4418  0.0678 -0.7002
  149TCq2    C5 2272   0.626   2.055  10.126  0.3041  0.2443 -0.7439
  149TCq2    C6 2273   0.501   2.029  10.076  0.1286 -0.0493  0.6369
  149TCq2    C7 2274   0.397   2.113  10.100 -0.0512 -0.1714 -0.7975
  149TCq2    C8 2275   0.468   1.892  10.077  0.3077 -0.6980  0.8300
  149TCq2    O4 2276   0.349   1.866  10.096  0.4976 -0.2623 -0.0666
  149TCq2    C9 2277   0.773   2.203  10.255  0.0874 -0.7429 -0.6207
  149TCq2    O5 2278   0.862   2.115  10.245 -0.4479 -0.2714  0.5847
  149TCq2    O6 2279   0.792   2.320  10.302 -0.3170  0.0874  0.3987
  149TCq2    H2 2280   0.568   2.343  10.293  0.6412  0.0327 -0.5026
  149TCq2    H3 2281   0.710   1.988  10.109 -0.3489 -0.5068 -1.0067
  149TCq2    H4 2282   0.303   2.084  10.054 -0.9533  0.9592  0.3078
  150MPD2     C 2283   1.000   1.584  12.041 -0.3470 -0.2041 -0.3666
  150MPD2    C1 2284   1.075   1.567  11.927 -0.1352 -0.4091 -0.4386
  150MPD2    C2 2285   1.181   1.661  11.904  0.4261  0.2035 -0.2158
  150MPD2    C3 2286   1.202   1.768  11.988 -0.5293 -0.6251  0.3733
  150MPD2    C4 2287   1.122   1.781  12.094 -0.6225  0.8224 -0.7874
  150MPD2    C5 2288   1.022   1.696  12.122  0.3267  0.6644 -0.2355
  150MPD2     H 2289   1.251   1.651  11.821 -0.9755 -1.6657 -1.1794
  150MPD2    H1 2290   1.127   1.858  12.170  1.0719 -0.6816  0.6298
  150MPD2    H2 2291   0.913   1.521  12.060 -1.0005  0.3489 -1.4983
  150MPD2    H3 2292   0.966   1.714  12.214 -0.2541  0.5145 -0.5607
  150MPD2     N 2293   1.299   1.868  11.968  0.5485 -0.0855  0.5982
  150MPD2    H5 2294   1.297   1.945  12.034  0.7159  0.6674 -0.2739
  150MPD2    N1 2295   1.040   1.458  11.846 -0.0913 -0.2157  0.2991
  150MPD2    H7 2296   0.969   1.391  11.875 -0.5427  0.1499  0.0417
  151TCq2    C1 2297   1.402   1.856  11.881 -0.5046  0.0240  0.3699
  151TCq2    O2 2298   1.444   1.755  11.828 -0.0689 -0.2417 -0.0099
  151TCq2    C2 2299   1.479   1.977  11.856 -0.4825  0.2090  0.5150
  151TCq2    C3 2300   1.421   2.099  11.872 -0.2025 -0.3947  0.5825
  151TCq2    C4 2301   1.503   2.208  11.903 -0.8703  0.0138  1.1124
  151TCq2    C5 2302   1.632   2.184  11.942 -0.2533 -0.1168 -0.0756
  151TCq2    C6 2303   1.686   2.059  11.920  0.4666 -0.0748  0.0746
  151TCq2    C7 2304   1.614   1.953  11.867  0.3442 -0.1259  0.1252
  151TCq2    C8 2305   1.829   2.037  11.934  0.1625 -0.7330  0.1475
  151TCq2    O4 2306   1.901   2.137  11.942 -0.1738 -0.3961 -0.5393
  151TCq2    C9 2307   1.450   2.344  11.914 -0.5352 -0.9675  0.4512
  151TCq2    O5 2308   1.330   2.358  11.884  0.4423 -0.1070  0.1360
  151TCq2    O6 2309   1.535   2.435  11.934  0.1860 -0.1982 -0.4853
  151TCq2    H2 2310   1.320   2.116  11.837 -0.3448  1.7001  1.9927
  151TCq2    H3 2311   1.687   2.272  11.974 -1.9857  1.4371 -1.4060
  151TCq2    H4 2312   1.650   1.851  11.857  1.5096  0.0607  2.1667
  152MPD2     C 2313   1.104   1.159  12.908  0.3225  0.4796  0.3677
  152MPD2    C1 2314   1.104   1.243  12.801 -0.4366 -0.2725 -0.1196
  152MPD2    C2 2315   1.006   1.234  12.710 -0.2039 -0.9119 -0.2234
  152MPD2    C3 2316   0.900   1.146  12.725 -0.1776  0.1733  0.3176
  152MPD2    C4 2317   0.896   1.060  12.835 -0.4333  0.4079 -0.3488
  152MPD2    C5 2318   0.998   1.070  12.927  0.3817 -0.1603 -0.6315
  152MPD2     H 2319   1.010   1.292  12.619 -0.5240  0.5636  0.7097
  152MPD2    H1 2320   0.822   0.985  12.858  0.8813 -1.4667 -2.2753
  152MPD2    H2 2321   1.187   1.170  12.977  0.9899 -1.1829 -0.1518
  152MPD2    H3 2322   1.000   1.004  13.013  0.8018  0.6199 -0.0368
  152MPD2     N 2323   0.797   1.139  12.626 -0.7954  0.1595 -0.7121
  152MPD2    H5 2324   0.820   1.187  12.540 -0.4933 -0.5672 -1.0347
  152MPD2    N1 2325   1.217   1.335  12.795  0.1064 -0.1841 -0.3264
  152MPD2    H7 2326   1.289   1.324  12.866 -0.8801  0.9151  0.8523
  153TCq2    C1 2327   1.224   1.438  12.712 -0.0339  0.4122  0.0446
  153TCq2    O2 2328   1.139   1.493  12.646 -0.2274 -0.5467 -0.0805
  153TCq2    C2 2329   1.357   1.512  12.730  0.2696  0.3246 -0.2577
  153TCq2    C3 2330   1.469   1.445  12.778  0.7975  0.0921  0.1746
  153TCq2    C4 2331   1.589   1.514  12.774 -0.1124 -0.4684 -0.2955
  153TCq2    C5 2332   1.588   1.643  12.737  0.0917 -0.3706  0.0997
  153TCq2    C6 2333   1.480   1.707  12.686  0.0373  0.3407  0.1052
  153TCq2    C7 2334   1.360   1.638  12.677  0.3281  0.2642 -0.2005
  153TCq2    C8 2335   1.487   1.848  12.636  0.3023 -1.0999 -0.1366
  153TCq2    O4 2336   1.376   1.894  12.603  0.1326 -0.0299 -0.0666
  153TCq2    C9 2337   1.712   1.448  12.810  0.1725  0.4350  0.1893
  153TCq2    O5 2338   1.718   1.352  12.889 -0.3954 -0.2067 -0.0124
  153TCq2    O6 2339   1.824   1.497  12.771 -0.1941 -0.2151  0.4295
  153TCq2    H2 2340   1.464   1.343  12.814 -1.3087  0.6224  1.3559
  153TCq2    H3 2341   1.687   1.688  12.736 -0.2072  0.2700 -0.9172
  153TCq2    H4 2342   1.274   1.686  12.632  1.0183  2.7036  1.1103
  154MPD2     C 2343   2.052   1.786  17.191  0.0137  0.5542 -1.1140
  154MPD2    C1 2344   2.033   1.731  17.316 -0.5095 -0.7260  0.1626
  154MPD2    C2 2345   2.003   1.814  17.419 -0.0251 -0.5084 -0.5279
  154MPD2    C3 2346   1.985   1.951  17.399 -0.1246 -0.3008 -0.0969
  154MPD2    C4 2347   2.023   2.006  17.275  0.2320 -0.5506 -0.0126
  154MPD2    C5 2348   2.053   1.921  17.166 -0.4300 -0.5047 -0.5191
  154MPD2     H 2349   1.997   1.773  17.519  1.0736 -0.3668 -0.4078
  154MPD2    H1 2350   2.034   2.113  17.265  0.6934 -0.8750 -2.8568
  154MPD2    H2 2351   2.064   1.722  17.104 -1.9694 -0.4567 -0.6370
  154MPD2    H3 2352   2.070   1.963  17.068 -1.3439 -1.7995 -1.2420
  154MPD2     N 2353   1.961   2.025  17.518  0.2228  0.4612 -1.0045
  154MPD2    H5 2354   1.947   1.970  17.601 -0.9248  2.1044 -0.1047
  154MPD2    N1 2355   2.036   1.596  17.326 -0.5295 -0.3701  0.3677
  154MPD2    H7 2356   2.041   1.543  17.239 -0.0093  0.8267 -0.3192
  155TCq2    C1 2357   2.028   1.513  17.430  0.3531  0.4533  0.7303
  155TCq2    O2 2358   2.039   1.542  17.549  0.3827 -0.3738  0.9963
  155TCq2    C2 2359   2.043   1.379  17.388  0.4241 -0.1770  0.1978
  155TCq2    C3 2360   2.112   1.289  17.470  0.7354 -0.4494  0.0158
  155TCq2    C4 2361   2.151   1.170  17.420 -0.3947 -0.1267 -0.2844
  155TCq2    C5 2362   2.122   1.148  17.291 -0.6194  0.5204 -0.5536
  155TCq2    C6 2363   2.066   1.239  17.211  0.6786 -0.0272  0.3846
  155TCq2    C7 2364   2.023   1.359  17.255  0.8499 -0.7670  0.0418
  155TCq2    C8 2365   2.082   1.229  17.065  0.4476 -0.5061 -0.8046
  155TCq2    O4 2366   2.093   1.338  17.005 -0.4830 -0.2722  0.2505
  155TCq2    C9 2367   2.218   1.073  17.496 -0.4867  0.0084  0.2208
  155TCq2    O5 2368   2.245   1.111  17.615 -0.4745  0.0986  0.0159
  155TCq2    O6 2369   2.276   0.979  17.441 -0.6469  0.1549 -0.0135
  155TCq2    H2 2370   2.130   1.322  17.572  1.7811 -1.0238  0.0137
  155TCq2    H3 2371   2.137   1.047  17.257  2.0818  1.0699 -0.9996
  155TCq2    H4 2372   1.959   1.415  17.188  0.2269 -0.2347  1.0842
  156MPD2     C 2373   0.284   3.574  12.064  0.4527 -0.0172  0.5507
  156MPD2    C1 2374   0.418   3.589  12.041  0.3405 -0.8672 -0.3119
  156MPD2    C2 2375   0.507   3.590  12.151  0.4719  0.5306  0.5889
  156MPD2    C3 2376   0.458   3.568  12.279  0.9656 -0.1959 -0.3960
  156MPD2    C4 2377   0.323   3.563  12.301 -0.1454 -0.3737 -0.2091
  156MPD2    C5 2378   0.239   3.570  12.192 -0.3891 -0.1080  0.8016
  156MPD2     H 2379   0.615   3.605  12.145  0.2527  0.9192 -2.3455
  156MPD2    H1 2380   0.283   3.542  12.400  0.5463 -2.9350 -0.4883
  156MPD2    H2 2381   0.213   3.581  11.982 -0.3422 -3.0337  0.9980
  156MPD2    H3 2382   0.131   3.580  12.202 -0.6274 -0.6617 -1.3113
  156MPD2     N 2383   0.562   3.551  12.377  0.1628  0.0441  0.5275
  156MPD2    H5 2384   0.654   3.571  12.339 -0.0599 -0.3627 -0.2330
  156MPD2    N1 2385   0.464   3.608  11.911 -0.3574 -0.2267  0.3585
  156MPD2    H7 2386   0.396   3.607  11.836  0.9992 -2.5964 -0.8286
  157TCq2    C1 2387   0.590   3.650  11.878 -0.4205 -0.7298 -0.5017
  157TCq2    O2 2388   0.681   3.692  11.948  0.2296  0.3731 -0.6736
  157TCq2    C2 2389   0.626   3.623  11.742  0.1310  0.1525  0.3471
  157TCq2    C3 2390   0.534   3.559  11.665  0.0558  0.0307  0.3603
  157TCq2    C4 2391   0.546   3.569  11.531  0.3095 -0.2213  0.1227
  157TCq2    C5 2392   0.641   3.644  11.478  0.3363 -0.0252  0.0047
  157TCq2    C6 2393   0.734   3.705  11.550  0.1861  0.3457 -0.6034
  157TCq2    C7 2394   0.725   3.701  11.687  0.3960  0.2699  0.2986
  157TCq2    C8 2395   0.836   3.794  11.493 -0.5020 -0.0174  1.4352
  157TCq2    O4 2396   0.926   3.836  11.562 -0.4357 -0.1523  0.3008
  157TCq2    C9 2397   0.463   3.489  11.452  0.2028  0.0686 -0.4888
  157TCq2    O5 2398   0.399   3.397  11.510 -0.0192 -0.1443 -0.6721
  157TCq2    O6 2399   0.446   3.519  11.333 -0.5055 -0.2055 -0.1026
  157TCq2    H2 2400   0.464   3.487  11.707 -2.7552  0.6540 -3.2681
  157TCq2    H3 2401   0.644   3.638  11.370 -3.5947  1.2195 -0.1936
  157TCq2    H4 2402   0.795   3.753  11.750 -1.6394  1.8191  1.2978
  158TMC2    C1 2403   1.751   2.919  13.735 -0.6730  0.7267 -0.1401
  158TMC2    C2 2404   1.815   3.015  13.661  0.6941 -0.3533 -0.3462
  158TMC2    C3 2405   1.772   3.043  13.534 -0.6051 -0.0226  0.4842
  158TMC2    C4 2406   1.648   2.843  13.673  0.1096 -1.1883 -0.5888
  158TMC2    C5 2407   1.603   2.877  13.545  0.9491  0.0025 -0.5724
  158TMC2    C6 2408   1.664   2.981  13.474  0.3388  0.2361  0.0629
  158TMC2     C 2409   1.832   2.858  13.839  0.4718 -0.0917  0.4732
  158TMC2     O 2410   1.951   2.863  13.819 -0.0722 -0.4520  0.2535
  158TMC2     H 2411   1.899   3.071  13.699 -0.3536 -0.2229  1.7620
  158TMC2    H1 2412   1.600   2.765  13.731  0.8672 -3.7255 -3.4020
  158TMC2    H2 2413   1.637   3.003  13.371  1.0104  0.2724 -0.1008
  158TMC2    C7 2414   1.485   2.822  13.488  0.4227  1.0055  0.6056
  158TMC2    C8 2415   1.870   3.128  13.458  0.1390  0.5982  0.3532
  158TMC2    O1 2416   1.466   2.870  13.375  0.7690 -0.1368 -0.3982
  158TMC2    O2 2417   1.987   3.113  13.492 -0.0935 -0.3840 -0.0241
  158TMC2    O5 2418   1.830   3.129  13.324 -0.0567  0.1793 -0.0104
  158TMC2    H5 2419   1.734   3.146  13.312  0.1390 -0.7100 -2.8607
  159MPD2     C 2420   1.940   2.571  14.238  0.0783 -0.2796  0.1442
  159MPD2    C1 2421   1.803   2.574  14.230  0.5368 -0.3247  0.3153
  159MPD2    C2 2422   1.747   2.649  14.124 -0.1766 -0.2404  0.8120
  159MPD2    C3 2423   1.827   2.708  14.028  0.3293 -0.7311  0.1992
  159MPD2    C4 2424   1.965   2.697  14.040  0.1386 -0.3498  0.5551
  159MPD2    C5 2425   2.019   2.622  14.136  0.5789 -0.0465  0.0327
  159MPD2     H 2426   1.640   2.664  14.123 -0.5842 -3.1755 -0.0141
  159MPD2    H1 2427   2.037   2.736  13.969 -0.3292  0.6514  0.6366
  159MPD2    H2 2428   1.987   2.512  14.316  0.8814 -1.3577 -1.1345
  159MPD2    H3 2429   2.125   2.601  14.138  0.8521  1.2186 -1.2443
  159MPD2     N 2430   1.765   2.785  13.932 -0.1140  0.5840 -0.2043
  159MPD2    H5 2431   1.664   2.793  13.929 -0.4251 -3.6871 -0.1812
  159MPD2    N1 2432   1.711   2.521  14.333 -0.1002  0.2832  0.0669
  159MPD2    H7 2433   1.613   2.543  14.316  0.1764  1.4232 -0.0643
  160TMC2    C1 2434   0.911   0.493   1.581 -0.0300 -0.1447  0.1251
  160TMC2    C2 2435   0.899   0.458   1.712 -0.3048  0.5171  0.5153
  160TMC2    C3 2436   0.961   0.343   1.758  0.3262 -0.3717 -0.4214
  160TMC2    C4 2437   0.988   0.421   1.498 -0.4125 -0.1648  0.4593
  160TMC2    C5 2438   1.063   0.317   1.552  0.1388 -0.1122 -0.2326
  160TMC2    C6 2439   1.041   0.268   1.677 -0.2220 -0.2293  0.1183
  160TMC2     C 2440   0.838   0.603   1.524 -0.3097 -0.4755  0.1481
  160TMC2     O 2441   0.871   0.649   1.419  0.2829 -0.1095 -0.8743
  160TMC2     H 2442   0.855   0.526   1.784 -1.3220 -0.7103  1.0386
  160TMC2    H1 2443   0.980   0.439   1.391 -0.2507 -1.1734  0.2805
  160TMC2    H2 2444   1.113   0.196   1.712  1.7867  2.2520  1.1178
  160TMC2    C7 2445   1.187   0.277   1.476  0.3049 -0.2291 -0.8366
  160TMC2    C8 2446   0.949   0.329   1.899 -0.8605  0.4487  0.0573
  160TMC2    O1 2447   1.207   0.156   1.470 -0.3429  0.4494  0.0754
  160TMC2    O2 2448   0.881   0.400   1.976 -0.3603 -0.2779  0.2200
  160TMC2    O5 2449   1.006   0.207   1.931  0.1966 -0.1616 -0.4300
  160TMC2    H5 2450   1.000   0.143   1.858 -0.0708  0.7983 -1.2468
  161MPD2     C 2451   0.697   0.866   1.525 -0.5954 -0.6502  0.2148
  161MPD2    C1 2452   0.642   0.745   1.579 -0.3714  0.2927  0.2726
  161MPD2    C2 2453   0.516   0.759   1.633 -0.5276 -0.1807 -0.3392
  161MPD2    C3 2454   0.439   0.871   1.616  0.5440 -0.4231  0.5751
  161MPD2    C4 2455   0.492   0.981   1.553 -0.4412 -0.5471  0.6051
  161MPD2    C5 2456   0.620   0.975   1.506 -0.2070 -0.4629 -0.1872
  161MPD2     H 2457   0.478   0.673   1.686 -2.4254 -0.1524 -1.6125
  161MPD2    H1 2458   0.434   1.070   1.533 -0.1079 -0.8163 -1.6422
  161MPD2    H2 2459   0.802   0.867   1.499 -0.6420  0.2898  0.0557
  161MPD2    H3 2460   0.660   1.068   1.468 -1.2948  0.4508  0.8889
  161MPD2     N 2461   0.315   0.894   1.684 -0.4626  0.2708  0.4192
  161MPD2    H5 2462   0.283   0.988   1.660  2.7063  1.2517 -0.0324
  161MPD2    N1 2463   0.718   0.628   1.594  0.4672 -0.3141  0.1921
  161MPD2    H7 2464   0.685   0.566   1.667 -0.0861  0.2596  0.4290
  162TMC2    C1 2465   3.473   2.589   1.420  0.4935 -0.1827  0.0941
  162TMC2    C2 2466   3.390   2.699   1.430  0.0587 -0.1490 -0.3332
  162TMC2    C3 2467   3.277   2.692   1.511 -0.0726 -0.5059 -0.9280
  162TMC2    C4 2468   3.448   2.470   1.486  0.2121  0.4271  0.2380
  162TMC2    C5 2469   3.343   2.470   1.570 -1.0011  0.2856  0.1364
  162TMC2    C6 2470   3.255   2.580   1.586 -0.1504  0.4330  0.0633
  162TMC2     C 2471   3.573   2.578   1.314  0.4844  0.8589 -0.0257
  162TMC2     O 2472   3.634   2.471   1.297  0.0186  0.5292  0.7350
  162TMC2     H 2473   3.411   2.796   1.386  0.1366 -0.5361 -1.1602
  162TMC2    H1 2474   3.489   2.373   1.460  2.3414  1.5283 -0.4987
  162TMC2    H2 2475   3.184   2.575   1.668  0.2198 -2.0736  0.2287
  162TMC2    C7 2476   3.295   2.349   1.634 -0.0504  0.2858 -0.2362
  162TMC2    C8 2477   3.200   2.808   1.525  1.4359  0.3094  0.8198
  162TMC2    O1 2478   3.171   2.338   1.652 -0.1968  0.7177 -0.3171
  162TMC2    O2 2479   3.193   2.894   1.433  0.2223  0.5662 -0.3108
  162TMC2    O5 2480   3.171   2.830   1.656 -0.5776 -0.0758  0.7235
  162TMC2    H5 2481   3.159   2.758   1.721  1.3977  0.1381  1.3150
  163MPD2     C 2482   3.720   2.773   0.871  0.3878  0.2812 -0.0953
  163MPD2    C1 2483   3.750   2.648   0.925  0.4979  0.4187  0.3359
  163MPD2    C2 2484   3.702   2.624   1.053 -0.1198 -0.2806  0.3958
  163MPD2    C3 2485   3.636   2.718   1.121  0.2669  0.6395  0.0274
  163MPD2    C4 2486   3.610   2.843   1.065  0.2046 -0.1497 -0.0555
  163MPD2    C5 2487   3.657   2.872   0.943  1.1044 -0.5703 -0.4701
  163MPD2     H 2488   3.735   2.534   1.103  2.7866  0.2996 -0.4596
  163MPD2    H1 2489   3.565   2.924   1.121  0.1252 -0.6167  0.5540
  163MPD2    H2 2490   3.759   2.808   0.776  1.5796 -2.1785 -0.5062
  163MPD2    H3 2491   3.645   2.970   0.898 -1.4638 -0.0463  1.4129
  163MPD2     N 2492   3.590   2.701   1.256 -0.1393  0.7145  0.9756
  163MPD2    H5 2493   3.536   2.779   1.290  1.0777  0.8126  2.6905
  163MPD2    N1 2494   3.798   2.550   0.842 -0.0103  0.1835  0.4488
  163MPD2    H7 2495   3.817   2.575   0.746 -0.9525  0.1330  0.2526
  164TCq2    C1 2496   0.231   2.260  11.301  0.4276 -0.1055 -0.1395
  164TCq2    O2 2497   0.334   2.279  11.360  0.3661 -0.0724 -0.3728
  164TCq2    C2 2498   0.112   2.266  11.387  0.3730  0.0486 -0.1077
  164TCq2    C3 2499   0.133   2.241  11.518 -0.0900 -0.1340 -0.4611
  164TCq2    C4 2500   0.026   2.224  11.598 -0.3230  0.0040 -0.5355
  164TCq2    C5 2501   4.622   2.248  11.547  0.2294  0.3780  0.0681
  164TCq2    C6 2502   4.610   2.288  11.413 -0.6084  0.1233 -0.1557
  164TCq2    C7 2503   4.714   2.296  11.329 -0.4675 -0.1115 -0.2264
  164TCq2    C8 2504   4.494   2.364  11.372 -0.6436  0.4128  0.6555
  164TCq2    O4 2505   4.477   2.397  11.255 -0.1256 -0.2224 -0.5287
  164TCq2    C9 2506   0.041   2.169  11.737  0.7121  0.0026 -0.0748
  164TCq2    O5 2507   0.152   2.117  11.772 -0.9815 -0.1021  0.0165
  164TCq2    O6 2508   4.660   2.172  11.809  0.5934  0.5958 -0.0690
  164TCq2    H2 2509   0.228   2.207  11.556 -0.4016  0.5096  0.8965
  164TCq2    H3 2510   4.541   2.228  11.616  0.2339  0.8433  0.2098
  164TCq2    H4 2511   4.702   2.315  11.222 -0.9722  1.1522  0.0528
  165MPD2     C 2512   1.570   3.497   2.279  0.2161 -0.3738 -0.0281
  165MPD2    C1 2513   1.505   3.568   2.183 -0.1673 -0.3008  0.3447
  165MPD2    C2 2514   1.519   3.706   2.191  0.2643 -0.8877  0.2067
  165MPD2    C3 2515   1.596   3.776   2.284  0.3635 -0.3740  0.2041
  165MPD2    C4 2516   1.653   3.693   2.382 -0.1160  0.1026 -0.2549
  165MPD2    C5 2517   1.625   3.560   2.377 -0.1953 -0.8322 -0.0313
  165MPD2     H 2518   1.470   3.771   2.120 -0.4530 -1.7733 -0.1190
  165MPD2    H1 2519   1.695   3.738   2.471  2.2399 -0.2197 -1.1951
  165MPD2    H2 2520   1.570   3.388   2.279 -2.1678 -0.3674 -1.4052
  165MPD2    H3 2521   1.668   3.508   2.461 -1.5081  0.9368  1.7273
  165MPD2     N 2522   1.618   3.912   2.311  0.0021  0.0953 -0.3302
  165MPD2    H5 2523   1.667   3.943   2.394  1.4281 -3.9626  0.3835
  165MPD2    N1 2524   1.444   3.502   2.075 -0.0091 -0.3130  0.6258
  165MPD2    H7 2525   1.449   3.401   2.080 -2.4466 -0.3339  2.5136
  166TCq2    C1 2526   1.575   4.007   2.219  0.0949  0.0580  0.0089
  166TCq2    O2 2527   1.523   3.987   2.107  0.0090 -0.0020  0.2516
  166TCq2    C2 2528   1.608   4.142   2.257 -0.5083 -0.4602 -0.0440
  166TCq2    C3 2529   1.617   4.190   2.386 -0.1500  0.9367 -0.9198
  166TCq2    C4 2530   1.645   4.321   2.414 -0.2456 -0.2703 -1.1846
  166TCq2    C5 2531   1.664   4.408   2.313  0.0560 -0.7348  0.6797
  166TCq2    C6 2532   1.657   4.360   2.186  0.2731  0.1922 -0.0292
  166TCq2    C7 2533   1.632   4.229   2.159  0.0759  0.1530 -0.4142
  166TCq2    C8 2534   1.665   4.443   2.069 -0.3771  0.5637  0.1154
  166TCq2    O4 2535   1.687   4.400   1.957 -0.1600 -0.2370  0.5042
  166TCq2    C9 2536   1.680   4.353   2.550  0.5348 -0.7030 -0.2794
  166TCq2    O5 2537   1.683   4.475   2.575 -0.4311 -0.1130  0.6561
  166TCq2    O6 2538   1.713   4.265   2.631  0.2616 -0.2543 -0.4055
  166TCq2    H2 2539   1.594   4.120   2.466  3.2721 -0.8378 -1.4911
  166TCq2    H3 2540   1.701   4.505   2.343  0.9416 -0.8003 -0.1657
  166TCq2    H4 2541   1.636   4.183   2.061 -1.2798  1.0322 -0.8725
  167TMC2    C1 2542   3.926   2.135  12.897  0.0899 -0.5067 -0.2106
  167TMC2    C2 2543   3.830   2.132  12.994 -0.0022  0.3791 -0.2067
  167TMC2    C3 2544   3.763   2.017  13.020 -0.1204  0.1534  0.0588
  167TMC2    C4 2545   3.948   2.020  12.821  0.2697  0.3045  0.3017
  167TMC2    C5 2546   3.871   1.909  12.850  0.0332 -0.0863 -0.0362
  167TMC2    C6 2547   3.787   1.900  12.950 -0.4737 -0.4164  0.4186
  167TMC2     C 2548   3.964   2.266  12.843 -0.6330 -0.0191  0.4924
  167TMC2     O 2549   3.885   2.364  12.861  0.5091  0.2145  0.0112
  167TMC2     H 2550   3.819   2.215  13.063  1.3127 -0.1238  0.6117
  167TMC2    H1 2551   4.010   2.022  12.731  0.6495  0.2366  0.5624
  167TMC2    H2 2552   3.734   1.809  12.977  1.2382 -1.7308 -0.6892
  167TMC2    C7 2553   3.887   1.791  12.766 -0.0411 -0.0760  0.1949
  167TMC2    C8 2554   3.675   2.023  13.138  0.3261 -0.7293 -0.9463
  167TMC2    O1 2555   3.782   1.725  12.776 -0.0553  0.1446  0.3028
  167TMC2    O2 2556   3.668   2.114  13.221  0.1143 -0.0102 -0.7220
  167TMC2    O5 2557   3.584   1.926  13.121  0.0866 -0.7150 -0.4456
  167TMC2    H5 2558   3.601   1.872  13.040 -2.2965 -1.8939 -0.1469
  168MPD2     C 2559   4.079   2.509  12.705  0.8918 -0.1742 -1.5650
  168MPD2    C1 2560   4.131   2.380  12.695  0.2911 -0.0382 -0.9379
  168MPD2    C2 2561   4.228   2.352  12.594  0.3921 -0.0054  0.1433
  168MPD2    C3 2562   4.274   2.456  12.517 -0.1100 -0.1965  0.5527
  168MPD2    C4 2563   4.228   2.582  12.539 -0.1222  0.3705 -0.1944
  168MPD2    C5 2564   4.129   2.610  12.623 -0.4734 -0.2603 -0.5616
  168MPD2     H 2565   4.260   2.249  12.590 -0.5955 -0.3309  0.6040
  168MPD2    H1 2566   4.276   2.665  12.489  2.1165 -1.3912 -0.9587
  168MPD2    H2 2567   4.011   2.538  12.784  0.7421 -1.7645 -1.1065
  168MPD2    H3 2568   4.102   2.714  12.635 -2.2873 -0.7816 -0.1238
  168MPD2     N 2569   4.366   2.428  12.406 -0.0802  0.5382  0.1762
  168MPD2    H5 2570   4.366   2.500  12.334 -0.7195  0.3457 -0.0181
  168MPD2    N1 2571   4.081   2.268  12.768  0.5292 -0.4284  0.0489
  168MPD2    H7 2572   4.143   2.188  12.761  0.2683 -0.6772  0.5608
  169MPD1     C 2573   2.348   4.504  10.203 -0.4361 -0.3537 -0.0680
  169MPD1    C1 2574   2.386   4.609  10.129 -0.1223 -0.0384 -0.1982
  169MPD1    C2 2575   2.379   4.598   9.992  0.3814  0.6429 -0.3868
  169MPD1    C3 2576   2.317   4.489   9.924  0.2065  0.7392 -0.3860
  169MPD1    C4 2577   2.272   4.387  10.004  0.0762 -0.5710 -0.1300
  169MPD1    C5 2578   2.293   4.395  10.140  0.2044  0.2525 -0.2294
  169MPD1     H 2579   2.424   4.670   9.924 -0.2930  1.3994 -0.0322
  169MPD1    H1 2580   2.213   4.303   9.967 -0.4151 -1.5861  3.0107
  169MPD1    H2 2581   2.349   4.500  10.312 -1.2526  1.0650 -0.0037
  169MPD1    H3 2582   2.259   4.312  10.202  1.3443 -2.4333 -3.2358
  169MPD1     N 2583   2.320   4.488   9.782 -0.9510 -0.1982 -0.0381
  169MPD1    H5 2584   2.350   4.572   9.732 -0.0326  1.0667  2.6358
  169MPD1    N1 2585   2.451   4.708  10.206  0.3803 -0.3344  0.3034
  169MPD1    H6 2586   2.435   4.719  10.306 -2.4300 -0.9984 -0.0538
  169MPD1    H7 2587   2.443   0.082  10.167 -1.6008 -0.4869  0.3205
  170MPD1     C 2588   0.396   4.138  12.864  0.1839 -1.0398  0.0212
  170MPD1    C1 2589   0.383   4.278  12.881 -0.2561 -0.3654  0.0512
  170MPD1    C2 2590   0.302   4.325  12.977  0.2847 -0.5840  0.2763
  170MPD1    C3 2591   0.250   4.243  13.075  0.0067 -0.7236 -0.8467
  170MPD1    C4 2592   0.277   4.107  13.067  0.0494  0.6201  0.2597
  170MPD1    C5 2593   0.353   4.057  12.961  0.5324 -0.1812 -0.9995
  170MPD1     H 2594   0.277   4.429  12.991  0.7913 -0.3566 -0.5560
  170MPD1    H1 2595   0.239   4.047  13.149 -1.6937 -0.4271 -1.3231
  170MPD1    H2 2596   0.460   4.090  12.790  1.1009  2.0668 -1.1829
  170MPD1    H3 2597   0.380   3.952  12.965 -0.9936 -0.4238  3.0362
  170MPD1     N 2598   0.190   4.305  13.192 -0.0583  0.5888  0.6778
  170MPD1    H5 2599   0.160   4.402  13.186  1.1074  0.7183 -2.8756
  170MPD1    N1 2600   0.416   4.357  12.768 -0.0996 -0.6297  0.7229
  170MPD1    H6 2601   0.472   4.307  12.699  0.8398  0.3165  0.7964
  170MPD1    H7 2602   0.332   4.374  12.713 -0.3057 -0.4011  1.1097
  171MPD1     C 2603   3.413   0.974  15.079 -0.3000  0.4978  0.0695
  171MPD1    C1 2604   3.368   0.856  15.036  0.1037  0.5858  0.4056
  171MPD1    C2 2605   3.383   0.743  15.112  0.4114 -0.2478 -0.1477
  171MPD1    C3 2606   3.439   0.758  15.242  0.8569 -0.4128 -0.2640
  171MPD1    C4 2607   3.483   0.877  15.285 -0.5682 -0.0265  0.9807
  171MPD1    C5 2608   3.472   0.986  15.203  0.5269 -0.4129  0.3380
  171MPD1     H 2609   3.335   0.647  15.092  1.7286 -1.6638  3.5624
  171MPD1    H1 2610   3.533   0.900  15.378  0.2780  1.8778  0.0557
  171MPD1    H2 2611   3.397   1.058  15.013 -0.5476  0.5606  0.2096
  171MPD1    H3 2612   3.505   1.084  15.237 -0.7404  0.7109 -1.6970
  171MPD1     N 2613   3.461   0.653  15.333 -0.5257  0.3592 -0.3287
  171MPD1    H5 2614   3.493   0.685  15.424 -3.5841  0.4978  0.6996
  171MPD1    N1 2615   3.286   0.849  14.925  0.1955 -0.7205  0.5929
  171MPD1    H6 2616   3.291   0.759  14.878 -1.5587 -1.2279  1.3633
  171MPD1    H7 2617   3.309   0.922  14.859  0.5589 -2.1939 -0.9041
  172MPD1     C 2618   2.361   4.211   0.084 -0.6992  0.3183  0.0375
  172MPD1    C1 2619   2.334   4.245   0.212  0.3610  0.3111 -0.0346
  172MPD1    C2 2620   2.414   4.346   0.265  0.5060  0.5886  0.4336
  172MPD1    C3 2621   2.509   4.416   0.185 -0.2362  0.9588  0.1491
  172MPD1    C4 2622   2.512   4.393   0.051  0.2965  0.0408 -0.5731
  172MPD1    C5 2623   2.447   4.283   0.008 -0.2018  0.5180  1.1086
  172MPD1     H 2624   2.402   4.370   0.370 -0.2444  1.6848  0.0965
  172MPD1    H1 2625   2.570   4.456  17.667  0.7873 -0.9923 -1.1192
  172MPD1    H2 2626   2.311   4.125   0.041 -2.8111  1.4595  0.1990
  172MPD1    H3 2627   2.470   4.255  17.589  0.0094  1.8929  0.7785
  172MPD1     N 2628   2.594   4.519   0.231  0.2603 -0.6911 -0.1684
  172MPD1    H5 2629   2.652   4.554   0.156 -0.8456  0.4100 -0.5184
  172MPD1    N1 2630   2.241   4.169   0.284  0.3472 -0.3211 -0.7316
  172MPD1    H6 2631   2.203   4.220   0.364 -0.1089  0.2824 -1.3246
  172MPD1    H7 2632   2.157   4.155   0.228  0.2010 -0.6859 -0.4176
  173MPD1     C 2633   3.812   0.230  14.704 -0.1970  0.1825 -0.1703
  173MPD1    C1 2634   3.694   0.160  14.729  1.3023  0.7039  0.8309
  173MPD1    C2 2635   3.702   0.019  14.724 -0.2850  0.3894 -0.2400
  173MPD1    C3 2636   3.810   4.675  14.673 -0.1016 -0.3985 -0.2500
  173MPD1    C4 2637   3.922   0.028  14.631 -0.2907  0.3441 -1.0025
  173MPD1    C5 2638   3.914   0.166  14.643  0.0735  0.1849  0.4102
  173MPD1     H 2639   3.624   4.676  14.765  0.9990 -1.1333 -0.1293
  173MPD1    H1 2640   4.020   4.713  14.602  0.5877 -0.2358  2.6635
  173MPD1    H2 2641   3.819   0.337  14.722 -0.8754 -0.0011  1.1631
  173MPD1    H3 2642   4.004   0.226  14.635  0.0958 -0.0199 -0.9019
  173MPD1     N 2643   3.808   4.531  14.670 -0.1263 -0.1603 -0.0536
  173MPD1    H5 2644   3.726   4.492  14.715 -0.2728 -0.2598 -0.4076
  173MPD1    N1 2645   3.586   0.223  14.793 -0.2872  0.4245  0.0552
  173MPD1    H6 2646   3.496   0.182  14.769  1.1105 -2.0214 -0.9770
  173MPD1    H7 2647   3.580   0.323  14.774  0.2181  0.6945  1.2769
  174MPD1     C 2648   4.070   3.916  13.914 -0.3697 -0.0128 -0.4767
  174MPD1    C1 2649   4.085   3.842  14.028  0.3278  0.7490  0.0162
  174MPD1    C2 2650   4.031   3.883  14.147  0.8593  0.0516 -1.2634
  174MPD1    C3 2651   3.990   4.014  14.161  0.0240 -0.4084  0.0919
  174MPD1    C4 2652   3.996   4.093  14.051  0.0456 -0.2990 -0.2541
  174MPD1    C5 2653   4.030   4.047  13.928  0.6913 -0.6244  0.2175
  174MPD1     H 2654   4.031   3.817  14.233  0.0313 -1.1002 -2.1636
  174MPD1    H1 2655   3.972   4.197  14.064 -1.4732 -0.4891 -1.5646
  174MPD1    H2 2656   4.091   3.874  13.816  1.7725 -0.2553  0.0926
  174MPD1    H3 2657   4.026   4.117  13.845 -1.1949 -1.6960 -0.5898
  174MPD1     N 2658   3.936   4.070  14.277  0.0182  0.1539  0.2959
  174MPD1    H5 2659   3.879   4.152  14.260  2.6267  1.9732  0.2520
  174MPD1    N1 2660   4.117   3.706  14.019  0.5379 -0.0964  0.7070
  174MPD1    H6 2661   4.144   3.666  14.109 -1.6341  1.6249  2.1483
  174MPD1    H7 2662   4.185   3.684  13.948 -0.3739 -1.0674  0.1336
  175MPD1     C 2663   2.043   0.784  15.401  0.4250  0.0672  0.3422
  175MPD1    C1 2664   1.925   0.782  15.479  0.2011 -0.3101 -0.1335
  175MPD1    C2 2665   1.935   0.740  15.607 -0.1464  0.1335  0.1079
  175MPD1    C3 2666   2.050   0.680  15.656 -0.0220 -0.7068  0.3757
  175MPD1    C4 2667   2.160   0.671  15.578  0.4973  0.1803 -0.1527
  175MPD1    C5 2668   2.156   0.716  15.448 -0.0270  0.0691  0.3206
  175MPD1     H 2669   1.842   0.733  15.663 -1.3474 -0.2622 -1.9696
  175MPD1    H1 2670   2.249   0.628  15.621 -0.0485  0.8602  1.6364
  175MPD1    H2 2671   2.046   0.829  15.302  3.1860 -1.6905 -0.3665
  175MPD1    H3 2672   2.246   0.700  15.389 -0.9581 -1.1045 -0.7769
  175MPD1     N 2673   2.062   0.613  15.785  0.2255 -0.0242 -0.4757
  175MPD1    H5 2674   2.154   0.575  15.804  1.6416  4.0173  0.8701
  175MPD1    N1 2675   1.815   0.855  15.432  0.4032 -0.5117  0.8213
  175MPD1    H6 2676   1.797   0.850  15.332  0.2404 -3.1473  0.9721
  175MPD1    H7 2677   1.730   0.819  15.475 -0.2114  1.6787  1.3864
  176MPD1     C 2678   4.090   2.296  16.531 -0.2824  0.2912 -0.2579
  176MPD1    C1 2679   3.978   2.374  16.512 -0.6434  0.3102  0.1157
  176MPD1    C2 2680   3.918   2.409  16.631 -0.1224  0.5092 -0.2056
  176MPD1    C3 2681   3.960   2.363  16.759  0.5943 -0.9638  0.1285
  176MPD1    C4 2682   4.067   2.281  16.767 -0.1603  0.2190 -0.1774
  176MPD1    C5 2683   4.134   2.250  16.653  0.8621 -0.3594  0.1418
  176MPD1     H 2684   3.840   2.483  16.621 -0.3686  0.1473 -0.9841
  176MPD1    H1 2685   4.098   2.231  16.859 -1.8600 -0.4458  0.0270
  176MPD1    H2 2686   4.152   2.270  16.445  1.6517  1.3698  0.8152
  176MPD1    H3 2687   4.225   2.192  16.659 -0.4398 -2.3404  0.6296
  176MPD1     N 2688   3.890   2.402  16.876 -0.2050  0.2239 -0.2000
  176MPD1    H5 2689   3.797   2.439  16.861 -0.6362 -0.9720 -0.5106
  176MPD1    N1 2690   3.944   2.438  16.390  0.0658  0.1202 -0.1020
  176MPD1    H6 2691   3.848   2.461  16.367  1.0551  1.7290 -2.6204
  176MPD1    H7 2692   3.981   2.380  16.315 -0.2468 -0.2042 -0.0019
  177MPD1     C 2693   2.869   2.084  10.136 -0.7782 -0.2050  0.3834
  177MPD1    C1 2694   2.831   1.961  10.095 -0.4896 -0.1893  0.4185
  177MPD1    C2 2695   2.761   1.956   9.980 -1.2189  0.6668  0.1893
  177MPD1    C3 2696   2.720   2.059   9.901  0.4087  0.2782  0.2244
  177MPD1    C4 2697   2.767   2.185   9.938 -0.1721  0.2542  0.7811
  177MPD1    C5 2698   2.847   2.196  10.052  0.2371  0.5092 -0.0936
  177MPD1     H 2699   2.733   1.854   9.957  4.3350 -1.0465  0.9516
  177MPD1    H1 2700   2.732   2.279   9.897  0.8943 -0.4002 -1.5921
  177MPD1    H2 2701   2.920   2.096  10.231  0.0259 -0.7644  0.0141
  177MPD1    H3 2702   2.887   2.289  10.092  0.0430  0.7079 -0.3652
  177MPD1     N 2703   2.642   2.029   9.790  0.4053 -0.4387 -0.9168
  177MPD1    H5 2704   2.601   1.936   9.788  0.2337 -0.3657 -0.8205
  177MPD1    N1 2705   2.858   1.846  10.164 -0.1553 -0.2303 -0.3859
  177MPD1    H6 2706   2.784   1.779  10.183 -1.4058  1.1937 -0.1596
  177MPD1    H7 2707   2.890   1.877  10.256  0.1752 -1.6009 -0.0394
  178MPD1     C 2708   0.096   3.697  16.646  0.1211  0.1503 -0.7499
  178MPD1    C1 2709   0.209   3.651  16.703 -0.0533  0.5566 -0.8478
  178MPD1    C2 2710   0.222   3.594  16.832 -0.0897 -0.5691  0.0905
  178MPD1    C3 2711   0.106   3.580  16.901 -0.2869  0.0066  0.0914
  178MPD1    C4 2712   4.712   3.635  16.852  0.4381 -0.3117 -0.8113
  178MPD1    C5 2713   4.703   3.691  16.725  1.3068  0.4182 -0.5631
  178MPD1     H 2714   0.314   3.545  16.860 -0.8356 -1.2985  1.2272
  178MPD1    H1 2715   4.632   3.635  16.925 -1.0227  1.2977 -2.4062
  178MPD1    H2 2716   0.080   3.736  16.547  0.3684 -1.6337 -1.4871
  178MPD1    H3 2717   4.610   3.734  16.690  1.7812  0.2491 -2.0446
  178MPD1     N 2718   0.096   3.509  17.020 -0.2266 -0.2888 -0.1125
  178MPD1    H5 2719   0.008   3.474  17.056  0.9229 -0.6200  2.3431
  178MPD1    N1 2720   0.317   3.642  16.617  0.3210  0.1315 -0.1233
  178MPD1    H6 2721   0.282   3.613  16.526 -1.6037 -0.2448  0.7312
  178MPD1    H7 2722   0.397   3.587  16.649 -1.7531 -2.4147  0.7485
  179MPD1     C 2723   4.477   2.092  16.485 -0.0827  0.4432 -0.0133
  179MPD1    C1 2724   4.468   2.160  16.360 -0.3301 -0.1236  0.9004
  179MPD1    C2 2725   4.465   2.084  16.246 -0.7298 -0.0775 -0.0932
  179MPD1    C3 2726   4.443   1.946  16.255  0.4869  0.2625 -0.2634
  179MPD1    C4 2727   4.426   1.892  16.380  0.0242 -0.0782  0.0069
  179MPD1    C5 2728   4.439   1.961  16.494 -0.3464  0.2965  0.0301
  179MPD1     H 2729   4.481   2.118  16.145  1.4354  1.1808  0.6698
  179MPD1    H1 2730   4.399   1.789  16.398 -0.2050  0.2618  1.5944
  179MPD1    H2 2731   4.489   2.156  16.571 -0.8560  0.6456 -0.0588
  179MPD1    H3 2732   4.428   1.910  16.589 -1.0664 -1.4261 -0.9903
  179MPD1     N 2733   4.438   1.853  16.147 -0.4793  0.3928  0.4247
  179MPD1    H5 2734   4.397   1.765  16.176 -0.6089  0.4789  0.5009
  179MPD1    N1 2735   4.508   2.297  16.354 -0.4187 -0.3028 -0.1502
  179MPD1    H6 2736   4.485   2.344  16.441  3.2939  1.5530 -0.1642
  179MPD1    H7 2737   4.474   2.353  16.276  2.7212  0.1933 -1.1805
  180MPD1     C 2738   3.470   3.242  14.086 -0.8928  0.2439 -0.0898
  180MPD1    C1 2739   3.602   3.277  14.104 -0.3843  0.3732  0.5690
  180MPD1    C2 2740   3.694   3.177  14.122  0.1767  0.2561 -0.3404
  180MPD1    C3 2741   3.648   3.045  14.114  0.3513 -0.6264 -0.1707
  180MPD1    C4 2742   3.521   3.011  14.085  0.2643 -0.5237 -0.1907
  180MPD1    C5 2743   3.433   3.111  14.071  1.0449  0.0967  0.2385
  180MPD1     H 2744   3.798   3.198  14.144  0.1493 -1.7165  1.6549
  180MPD1    H1 2745   3.478   2.911  14.098 -1.3457  0.4084  1.7634
  180MPD1    H2 2746   3.393   3.319  14.094 -0.7467  0.3409  0.4191
  180MPD1    H3 2747   3.331   3.075  14.067  0.6871  0.9407  1.5727
  180MPD1     N 2748   3.758   2.950  14.147  0.1511 -0.3665 -0.0246
  180MPD1    H5 2749   3.840   2.999  14.182 -1.7324  3.4693 -0.9841
  180MPD1    N1 2750   3.632   3.409  14.143  0.3325 -0.0471 -0.2846
  180MPD1    H6 2751   3.568   3.481  14.109 -0.4133 -0.5044  0.1427
  180MPD1    H7 2752   3.732   3.426  14.134  0.2690  1.5226  1.9388
  181MPD1     C 2753   1.812   3.956   9.836 -0.8038 -0.7949 -0.0989
  181MPD1    C1 2754   1.861   3.933   9.966 -0.8507 -0.4001  0.2530
  181MPD1    C2 2755   1.998   3.943   9.991  0.2424  0.7867  0.7930
  181MPD1    C3 2756   2.070   4.009   9.900  0.4589  0.0068 -0.7058
  181MPD1    C4 2757   2.024   4.044   9.781 -0.6235  0.3276 -0.4019
  181MPD1    C5 2758   1.900   4.012   9.743  0.3331  0.0373  1.5874
  181MPD1     H 2759   2.037   3.900  10.083 -1.3925 -3.3673 -0.4252
  181MPD1    H1 2760   2.085   4.111   9.720  0.7305  0.7057  1.3782
  181MPD1    H2 2761   1.708   3.947   9.804  0.2383 -3.6446 -2.6414
  181MPD1    H3 2762   1.855   4.050   9.652  0.7134 -2.1338  0.5154
  181MPD1     N 2763   2.214   4.024   9.912  0.0454 -0.3626  0.1004
  181MPD1    H5 2764   2.263   4.079   9.842  2.1913  0.0133  1.8936
  181MPD1    N1 2765   1.779   3.868  10.061 -0.1244 -0.8062  0.0463
  181MPD1    H6 2766   1.807   3.882  10.158  0.6919  2.0517 -0.6222
  181MPD1    H7 2767   1.681   3.893  10.048  0.4955  1.4401 -0.3530
  182MPD1     C 2768   1.949   3.869   2.125  0.0495 -0.1907 -0.1370
  182MPD1    C1 2769   1.921   3.784   2.025  0.1710  0.2734  0.2469
  182MPD1    C2 2770   1.894   3.830   1.897  0.1128  0.1902  1.2009
  182MPD1    C3 2771   1.878   3.963   1.874  0.0483 -0.1950 -0.2626
  182MPD1    C4 2772   1.886   4.051   1.984  0.2367 -0.5539  0.0888
  182MPD1    C5 2773   1.920   4.001   2.108  0.0461  0.0534  0.1563
  182MPD1     H 2774   1.878   3.765   1.811  1.5123 -0.5755  1.5132
  182MPD1    H1 2775   1.875   4.157   1.964  3.0817 -0.7215 -2.3463
  182MPD1    H2 2776   2.008   3.849   2.213 -1.7142 -1.8411  0.6653
  182MPD1    H3 2777   1.953   4.075   2.180  0.0924  0.5981 -0.4303
  182MPD1     N 2778   1.829   4.011   1.749  0.5833 -0.5608  0.4302
  182MPD1    H5 2779   1.804   4.109   1.743  0.7159 -0.5238  0.4768
  182MPD1    N1 2780   1.947   3.646   2.056 -0.3530 -0.1297  0.0945
  182MPD1    H6 2781   1.921   3.615   2.150  0.5145 -2.6148 -0.4786
  182MPD1    H7 2782   1.902   3.584   1.989  0.0301  1.3653 -1.5394
  183MPD1     C 2783   3.367   3.295   9.843  0.1112 -0.4667  0.0092
  183MPD1    C1 2784   3.419   3.250   9.721 -0.2292  0.2172 -0.4635
  183MPD1    C2 2785   3.360   3.298   9.608  0.3463 -0.0120  0.6975
  183MPD1    C3 2786   3.250   3.380   9.611  0.6087 -0.1558 -0.1637
  183MPD1    C4 2787   3.193   3.417   9.729 -0.2092  1.0186  0.4117
  183MPD1    C5 2788   3.257   3.377   9.847 -0.2829  0.2880  0.3379
  183MPD1     H 2789   3.393   3.267   9.509  1.8846  2.3430  0.4768
  183MPD1    H1 2790   3.106   3.477   9.752 -1.3297 -1.0036  1.4846
  183MPD1    H2 2791   3.399   3.257   9.939  1.3863  1.9310  0.5095
  183MPD1    H3 2792   3.209   3.388   9.944 -1.0788  0.0229 -0.0226
  183MPD1     N 2793   3.191   3.421   9.489  0.2730  0.4725 -0.3496
  183MPD1    H5 2794   3.240   3.390   9.406 -0.5065 -0.8155 -0.3257
  183MPD1    N1 2795   3.525   3.156   9.714  0.0602  0.0945  0.0503
  183MPD1    H6 2796   3.596   3.157   9.787  0.3358 -0.7645 -0.2096
  183MPD1    H7 2797   3.574   3.148   9.625 -2.4218 -3.0130 -1.0192
  184MPD1     C 2798   2.344   1.428  10.358  0.3574 -0.6520 -0.6017
  184MPD1    C1 2799   2.308   1.312  10.287 -0.6928 -0.3742 -0.5078
  184MPD1    C2 2800   2.228   1.333  10.174 -0.1994 -0.3056  0.2781
  184MPD1    C3 2801   2.218   1.454  10.105 -0.0206  0.3539 -0.1355
  184MPD1    C4 2802   2.259   1.561  10.179 -0.1123 -0.1329  0.5229
  184MPD1    C5 2803   2.319   1.555  10.299  0.4484  0.1240  0.7083
  184MPD1     H 2804   2.184   1.253  10.115 -0.7282 -0.5492  0.9955
  184MPD1    H1 2805   2.248   1.660  10.136  0.8437 -0.5446 -0.6837
  184MPD1    H2 2806   2.392   1.418  10.455 -1.6855 -1.6046  0.3164
  184MPD1    H3 2807   2.355   1.643  10.350 -0.9859  1.4672 -0.6087
  184MPD1     N 2808   2.169   1.465   9.973 -0.3653  0.2983 -0.2811
  184MPD1    H5 2809   2.163   1.560   9.938 -1.2412  0.3281 -0.0488
  184MPD1    N1 2810   2.324   1.193  10.355  1.0503  0.0085  0.2285
  184MPD1    H6 2811   2.314   1.127  10.278  0.4462  1.4423 -0.9130
  184MPD1    H7 2812   2.410   1.185  10.407  1.3089  1.1963 -0.0195
  185MPD1     C 2813   2.020   0.794   9.208 -0.5242  0.0612  0.2195
  185MPD1    C1 2814   2.055   0.912   9.155 -0.4304  0.0548 -0.2512
  185MPD1    C2 2815   2.069   1.026   9.235 -0.0818 -0.1267 -0.0413
  185MPD1    C3 2816   2.035   1.016   9.368  0.2290  0.0959 -0.3151
  185MPD1    C4 2817   2.003   0.897   9.421  0.5428 -0.0350  0.2324
  185MPD1    C5 2818   2.002   0.789   9.347  0.3459  0.1090  0.8003
  185MPD1     H 2819   2.112   1.116   9.193 -0.8255  1.0553  1.7098
  185MPD1    H1 2820   1.976   0.879   9.525 -1.4753  2.7309  0.1769
  185MPD1    H2 2821   2.015   0.696   9.162  0.1523 -0.2020  0.7019
  185MPD1    H3 2822   1.984   0.689   9.387 -0.3322  0.5533  1.5937
  185MPD1     N 2823   2.052   1.123   9.457 -0.0055 -0.3789 -0.6472
  185MPD1    H5 2824   2.037   1.105   9.556 -1.6415 -1.7119 -1.1437
  185MPD1    N1 2825   2.105   0.911   9.024  0.0350  1.1927 -0.0427
  185MPD1    H6 2826   2.092   1.006   8.988  0.8193  0.5846 -1.8809
  185MPD1    H7 2827   2.050   0.846   8.969  1.0937  0.1832  0.1115
  186MPD1     C 2828   0.136   1.536  15.937 -0.6672  0.0145 -0.2846
  186MPD1    C1 2829   0.106   1.670  15.945  0.5651  0.2317 -0.0431
  186MPD1    C2 2830   0.070   1.728  16.067  0.3893  0.3035 -0.5195
  186MPD1    C3 2831   0.049   1.642  16.178 -0.0386 -0.5851  0.6029
  186MPD1    C4 2832   0.058   1.508  16.153 -0.0493 -0.0158 -0.7367
  186MPD1    C5 2833   0.108   1.453  16.042  0.3490 -0.7795  0.3956
  186MPD1     H 2834   0.051   1.833  16.087  2.8263  0.6040  0.2052
  186MPD1    H1 2835   0.052   1.434  16.231  1.0893 -0.0139 -0.6483
  186MPD1    H2 2836   0.171   1.499  15.841  1.5946 -1.7365  1.2197
  186MPD1    H3 2837   0.116   1.345  16.046 -0.0564 -0.8838 -1.6100
  186MPD1     N 2838   0.013   1.701  16.303  0.1044 -0.4531  0.4098
  186MPD1    H5 2839   0.023   1.802  16.301  0.0179 -0.4356  0.8292
  186MPD1    N1 2840   0.134   1.745  15.833 -0.1609  0.0008 -0.2104
  186MPD1    H6 2841   0.081   1.832  15.835  0.6846  0.5244 -0.7865
  186MPD1    H7 2842   0.115   1.698  15.745 -1.0097  1.4741 -0.8176
  187MPD1     C 2843   2.698   4.048   0.229 -0.3656  0.8656  0.2537
  187MPD1    C1 2844   2.819   4.102   0.192  0.1879 -0.1044 -0.5546
  187MPD1    C2 2845   2.919   4.023   0.141  0.5479 -0.3189 -0.1885
  187MPD1    C3 2846   2.897   3.887   0.132 -0.2799 -0.7788  0.0684
  187MPD1    C4 2847   2.782   3.832   0.172 -1.1176  0.4549  0.1507
  187MPD1    C5 2848   2.683   3.917   0.224 -0.2420  0.3844 -0.0596
  187MPD1     H 2849   3.008   4.077   0.111  0.2674 -0.4345 -1.2258
  187MPD1    H1 2850   2.765   3.725   0.180  0.6072  0.0228 -2.0817
  187MPD1    H2 2851   2.615   4.104   0.270 -0.6539  0.0463  0.7886
  187MPD1    H3 2852   2.589   3.877   0.261 -0.3751  0.6667 -0.0877
  187MPD1     N 2853   2.997   3.794   0.086  0.1804  0.1404 -0.0993
  187MPD1    H5 2854   2.960   3.700   0.076 -1.2722  0.7677 -0.6735
  187MPD1    N1 2855   2.825   4.242   0.170 -0.9393  0.2866 -0.6529
  187MPD1    H6 2856   2.919   4.280   0.180 -0.5108 -1.0360  0.3623
  187MPD1    H7 2857   2.760   4.287   0.233 -2.0974 -0.8633 -1.0167
  188MPD1     C 2858   4.304   3.686   9.846  0.1196 -0.1263  0.6558
  188MPD1    C1 2859   4.325   3.643   9.716  0.5730 -0.1984 -0.3115
  188MPD1    C2 2860   4.321   3.505   9.693 -0.0142 -0.2597  0.8143
  188MPD1    C3 2861   4.289   3.410   9.788 -1.0130 -0.4096  0.1274
  188MPD1    C4 2862   4.244   3.459   9.902  0.0362 -0.7560 -0.2192
  188MPD1    C5 2863   4.261   3.594   9.934  0.1083  0.5096 -0.6048
  188MPD1     H 2864   4.351   3.472   9.594 -0.2957 -1.2233  1.0521
  188MPD1    H1 2865   4.217   3.389   9.980 -0.4458  0.1707  0.4376
  188MPD1    H2 2866   4.300   3.786   9.888 -0.5484  0.5258 -0.9755
  188MPD1    H3 2867   4.235   3.627  10.034 -1.4092  0.0903 -0.8775
  188MPD1     N 2868   4.282   3.272   9.767 -0.2596 -0.4974 -0.2037
  188MPD1    H5 2869   4.245   3.209   9.837  1.1804  1.4840  2.3289
  188MPD1    N1 2870   4.340   3.738   9.612 -0.5381 -0.2067  0.0072
  188MPD1    H6 2871   4.393   3.821   9.637  0.6323 -0.3424 -2.0222
  188MPD1    H7 2872   4.373   3.699   9.524  1.1031  1.6459 -0.1745
  189MPD1     C 2873   1.238   4.190   1.174 -0.6588 -0.2394  0.2334
  189MPD1    C1 2874   1.215   4.155   1.041  0.5494 -0.3061  0.3054
  189MPD1    C2 2875   1.117   4.230   0.973  0.1870 -0.0084 -0.4682
  189MPD1    C3 2876   1.069   4.353   1.027 -0.1934  0.7699 -0.3224
  189MPD1    C4 2877   1.115   4.392   1.145  0.4013  0.5475 -0.0760
  189MPD1    C5 2878   1.194   4.310   1.223  0.0738  0.4181 -0.2261
  189MPD1     H 2879   1.085   4.190   0.878 -1.1934  3.0707 -1.2962
  189MPD1    H1 2880   1.099   4.491   1.187  0.6787 -0.1078  1.5600
  189MPD1    H2 2881   1.318   4.140   1.228 -1.7231 -0.1517  1.8893
  189MPD1    H3 2882   1.242   4.354   1.309  2.0366  1.2272 -1.7463
  189MPD1     N 2883   0.984   4.430   0.943 -0.0350 -0.1335  0.8006
  189MPD1    H5 2884   0.960   4.384   0.856 -1.2586  1.6100  0.2113
  189MPD1    N1 2885   1.263   4.033   0.989 -0.0680 -0.3172  0.2005
  189MPD1    H6 2886   1.363   4.027   1.006  0.0697  0.0215 -0.4952
  189MPD1    H7 2887   1.254   4.019   0.889  2.6940  0.1368 -0.1014
  190MPD1     C 2888   3.832   2.944  15.767  0.2711 -0.3249 -0.0424
  190MPD1    C1 2889   3.830   2.867  15.881 -0.4533 -0.5868  0.6721
  190MPD1    C2 2890   3.948   2.817  15.930  0.6489 -0.0182 -0.8954
  190MPD1    C3 2891   4.067   2.822  15.856  0.6366  0.4088  0.3346
  190MPD1    C4 2892   4.065   2.893  15.735  0.5087  0.6512 -0.2501
  190MPD1    C5 2893   3.949   2.955  15.697 -0.2430  0.6547 -0.3776
  190MPD1     H 2894   3.966   2.786  16.032 -2.0200 -1.2114 -0.7797
  190MPD1    H1 2895   4.148   2.911  15.667  0.7927  0.2605 -0.0062
  190MPD1    H2 2896   3.739   2.984  15.728  2.0023  2.1536 -1.6356
  190MPD1    H3 2897   3.928   3.012  15.607  0.8100  0.6140 -0.6495
  190MPD1     N 2898   4.187   2.770  15.917  0.4751  0.0542 -0.9170
  190MPD1    H5 2899   4.177   2.713  16.000  0.4677  1.4000  0.0164
  190MPD1    N1 2900   3.716   2.863  15.961  0.2918  0.2935 -0.5772
  190MPD1    H6 2901   3.627   2.868  15.911  0.3141 -0.6795 -0.7106
  190MPD1    H7 2902   3.706   2.777  16.015  2.4607  0.9712  0.9010
  191MPD1     C 2903   4.055   0.019  13.060  0.4951 -0.0737 -0.9383
  191MPD1    C1 2904   4.171   4.711  12.991  0.3449 -0.0062  0.3443
  191MPD1    C2 2905   4.190   0.059  12.870  0.0930 -0.3802  0.0213
  191MPD1    C3 2906   4.101   0.165  12.838 -0.4206 -0.2158  0.0149
  191MPD1    C4 2907   4.000   0.200  12.917 -0.1906 -0.5625  0.6734
  191MPD1    C5 2908   3.974   0.121  13.026  0.3133  0.3617  1.0779
  191MPD1     H 2909   4.273   0.033  12.805 -0.3262  5.0040 -2.6325
  191MPD1    H1 2910   3.913   0.259  12.888  0.7405  0.3771 -0.2081
  191MPD1    H2 2911   4.008   4.673  13.133  0.2705 -1.6589 -2.5193
  191MPD1    H3 2912   3.885   0.146  13.082 -0.9469 -0.1147 -0.7379
  191MPD1     N 2913   4.128   0.236  12.720  0.5080 -0.1862  0.4156
  191MPD1    H5 2914   4.224   0.223  12.689 -0.6497 -1.9010 -2.4386
  191MPD1    N1 2915   4.239   4.595  13.023 -0.3232  0.3834 -0.1192
  191MPD1    H6 2916   4.337   4.599  12.994 -0.4980 -0.6295 -0.8619
  191MPD1    H7 2917   4.224   4.568  13.120  0.9262  1.3648  0.3403
  192MPD1     C 2918   3.825   1.144  12.328  0.0713 -0.1961 -0.6147
  192MPD1    C1 2919   3.853   1.077  12.216 -0.2331 -1.1044  0.1832
  192MPD1    C2 2920   3.906   0.951  12.234  0.4512  0.4425 -0.9571
  192MPD1    C3 2921   3.940   0.900  12.361  0.2418  0.6126  0.3615
  192MPD1    C4 2922   3.915   0.983  12.472 -0.5988  0.2556 -0.5278
  192MPD1    C5 2923   3.858   1.102  12.451 -0.7715 -0.6612  0.3924
  192MPD1     H 2924   3.920   0.888  12.146 -1.4965 -1.4897  0.1141
  192MPD1    H1 2925   3.928   0.940  12.571 -0.0312 -1.3169 -1.2850
  192MPD1    H2 2926   3.785   1.245  12.326 -0.0578 -0.2252  0.2850
  192MPD1    H3 2927   3.835   1.155  12.543 -0.1250 -0.0938  0.2224
  192MPD1     N 2928   3.991   0.773  12.392 -0.1264 -0.1159  0.7108
  192MPD1    H5 2929   4.016   0.757  12.489 -0.6191  0.5354  0.9467
  192MPD1    N1 2930   3.800   1.126  12.094 -0.4285 -0.2005 -0.0666
  192MPD1    H6 2931   3.862   1.108  12.016 -0.2448 -0.6053  0.1762
  192MPD1    H7 2932   3.771   1.223  12.103 -2.5526 -0.7768 -0.4844
  193MPD1     C 2933   2.953   0.203  16.720  0.0678  0.1915  0.4800
  193MPD1    C1 2934   3.073   0.134  16.720  0.2477 -0.7667  0.8037
  193MPD1    C2 2935   3.172   0.212  16.666 -0.5623  0.8552 -0.7817
  193MPD1    C3 2936   3.153   0.339  16.603  0.5166 -0.1082  0.0727
  193MPD1    C4 2937   3.026   0.386  16.594 -0.4543 -0.2604 -0.0061
  193MPD1    C5 2938   2.927   0.316  16.650 -0.8184 -1.1040  0.1698
  193MPD1     H 2939   3.275   0.180  16.665 -1.4583 -2.0088 -0.4658
  193MPD1    H1 2940   3.003   0.483  16.551 -1.7936 -0.5093  0.1581
  193MPD1    H2 2941   2.870   0.168  16.780 -0.4982  1.0952  0.2349
  193MPD1    H3 2942   2.824   0.351  16.652  0.0155  1.3354  0.4033
  193MPD1     N 2943   3.255   0.431  16.567 -0.0844 -0.3453  0.0637
  193MPD1    H5 2944   3.226   0.514  16.516 -0.2698 -0.4824 -0.0541
  193MPD1    N1 2945   3.096   0.021  16.797 -0.2523  0.5735 -0.4647
  193MPD1    H6 2946   3.180   4.692  16.771  0.0110  0.3700  0.7711
  193MPD1    H7 2947   3.022   4.671  16.806 -0.5885  0.7876 -1.5288
  194MPD1     C 2948   1.806   2.862  16.671 -0.2438 -0.6518 -0.1469
  194MPD1    C1 2949   1.807   2.732  16.620  0.4147 -0.0737 -1.6583
  194MPD1    C2 2950   1.836   2.617  16.696  0.4476  0.4049  0.3112
  194MPD1    C3 2951   1.859   2.625  16.832 -0.1205  0.4739  0.0257
  194MPD1    C4 2952   1.847   2.753  16.885 -0.1550  0.5023  0.7925
  194MPD1    C5 2953   1.827   2.864  16.807  0.1559 -0.4358 -0.0529
  194MPD1     H 2954   1.848   2.522  16.645  0.6596  1.4726 -1.6588
  194MPD1    H1 2955   1.850   2.772  16.991 -1.8314  2.6236  0.4625
  194MPD1    H2 2956   1.777   2.949  16.612  0.2473 -0.8326 -0.6577
  194MPD1    H3 2957   1.812   2.955  16.863  0.7583 -2.2540  3.0673
  194MPD1     N 2958   1.873   2.510  16.917  0.1321  0.3763 -0.1991
  194MPD1    H5 2959   1.876   2.537  17.015 -1.3441 -1.3018  0.3130
  194MPD1    N1 2960   1.788   2.720  16.481 -0.0496 -0.2951  0.2157
  194MPD1    H6 2961   1.737   2.803  16.451 -0.6801 -1.2485 -1.3416
  194MPD1    H7 2962   1.720   2.647  16.461 -0.3878  0.0595  0.0412
  195MPD1     C 2963   2.493   3.397   0.525 -0.7611 -0.4868 -0.4360
  195MPD1    C1 2964   2.515   3.436   0.395 -0.3567  0.3378 -0.0103
  195MPD1    C2 2965   2.626   3.392   0.330  0.8715  0.1450  0.3476
  195MPD1    C3 2966   2.713   3.288   0.378  0.1938 -0.0994  0.1774
  195MPD1    C4 2967   2.695   3.258   0.511  0.3436  0.4119 -0.6124
  195MPD1    C5 2968   2.584   3.305   0.574 -0.1175 -0.7861  0.3550
  195MPD1     H 2969   2.639   3.438   0.233  2.8134 -2.5182 -0.6515
  195MPD1    H1 2970   2.739   3.174   0.563  1.2792  1.6542  0.6046
  195MPD1    H2 2971   2.416   3.435   0.591 -0.0126 -3.1558  1.9794
  195MPD1    H3 2972   2.565   3.277   0.677  1.2183 -2.1535  0.2376
  195MPD1     N 2973   2.820   3.225   0.305 -0.3110 -0.0356 -0.1539
  195MPD1    H5 2974   2.884   3.165   0.356 -0.3569  0.4047  0.4207
  195MPD1    N1 2975   2.437   3.543   0.346  0.0210  0.3423  0.0841
  195MPD1    H6 2976   2.438   3.559   0.245  3.2537  1.7731  0.3381
  195MPD1    H7 2977   2.344   3.534   0.385 -0.2173  1.8732 -0.1400
  196MPD1     C 2978   1.530   2.695   0.176 -0.5622 -0.2450  0.5606
  196MPD1    C1 2979   1.532   2.830   0.172  0.9384 -0.2213 -0.0348
  196MPD1    C2 2980   1.610   2.895   0.264  0.3068  0.0837 -0.4275
  196MPD1    C3 2981   1.684   2.832   0.363 -0.4172 -0.8152 -0.3545
  196MPD1    C4 2982   1.685   2.696   0.359  0.2341  0.4012 -0.3127
  196MPD1    C5 2983   1.606   2.626   0.269 -0.0427 -0.2574  0.1416
  196MPD1     H 2984   1.609   3.004   0.260  2.1347  0.0917 -0.6279
  196MPD1    H1 2985   1.745   2.645   0.434  1.1188 -2.4285 -2.9469
  196MPD1    H2 2986   1.460   2.635   0.118 -0.5655 -0.4084  0.7338
  196MPD1    H3 2987   1.608   2.518   0.280 -1.2157 -0.1214  1.6993
  196MPD1     N 2988   1.769   2.905   0.452 -0.7032  0.4557  0.0390
  196MPD1    H5 2989   1.834   2.853   0.510  1.3189  1.0828 -1.6338
  196MPD1    N1 2990   1.448   2.901   0.093 -0.2942  0.0211  0.1828
  196MPD1    H6 2991   1.470   3.000   0.097 -2.2419  0.4759 -0.4802
  196MPD1    H7 2992   1.462   2.876  17.678 -1.2671 -1.4244  0.4133
  197MPD1     C 2993   2.277   0.455  17.666  0.2321  0.1148  0.0524
  197MPD1    C1 2994   2.210   0.416  17.548  0.2992  0.6589 -0.1324
  197MPD1    C2 2995   2.198   0.505  17.445  0.2358 -0.4962  0.0401
  197MPD1    C3 2996   2.232   0.638  17.455  0.2482  0.0588  1.0089
  197MPD1    C4 2997   2.283   0.678  17.579 -0.0933 -0.0159 -0.8643
  197MPD1    C5 2998   2.300   0.592  17.682  0.1253 -0.1931  0.1309
  197MPD1     H 2999   2.163   0.466  17.351 -1.8697 -0.9802  1.0384
  197MPD1    H1 3000   2.305   0.783  17.595  1.8315 -0.8032  1.5714
  197MPD1    H2 3001   2.302   0.394   0.070  1.4588 -0.0092 -0.3935
  197MPD1    H3 3002   2.349   0.622   0.091 -0.2231 -0.2584  0.3421
  197MPD1     N 3003   2.237   0.733  17.348 -0.3790  0.2994  0.0186
  197MPD1    H5 3004   2.274   0.826  17.369 -1.8733  1.3693 -2.1276
  197MPD1    N1 3005   2.194   0.274  17.532 -0.0789 -0.0254 -0.3620
  197MPD1    H6 3006   2.177   0.228  17.621  2.7685  0.1587  0.2814
  197MPD1    H7 3007   2.118   0.260  17.465  0.5070 -3.4462 -0.3094
  198MPD1     C 3008   3.955   3.506  15.826  0.2577 -0.0318  0.1887
  198MPD1    C1 3009   4.071   3.456  15.773  0.4879 -0.0785 -0.3046
  198MPD1    C2 3010   4.182   3.541  15.780  0.3661 -0.4085 -0.7919
  198MPD1    C3 3011   4.184   3.667  15.836 -0.4962 -0.6988 -0.3061
  198MPD1    C4 3012   4.064   3.712  15.886  0.1803 -0.0527 -0.2822
  198MPD1    C5 3013   3.955   3.632  15.881  0.2719 -0.0384  0.3884
  198MPD1     H 3014   4.281   3.505  15.755  0.0197 -3.7326  2.7403
  198MPD1    H1 3015   4.058   3.806  15.939 -1.1925 -0.5869  0.5005
  198MPD1    H2 3016   3.857   3.460  15.824  0.0448  0.3789  1.0877
  198MPD1    H3 3017   3.859   3.669  15.914  0.1814  1.2764 -1.3679
  198MPD1     N 3018   4.306   3.730  15.833 -0.0906 -0.2602 -0.1797
  198MPD1    H5 3019   4.385   3.682  15.791  0.0548 -0.8382  0.7579
  198MPD1    N1 3020   4.070   3.332  15.714  0.3770 -0.2264  0.2166
  198MPD1    H6 3021   3.992   3.274  15.744  0.0815 -0.0549 -0.2086
  198MPD1    H7 3022   4.163   3.292  15.726 -0.9588 -2.7400  2.1315
  199MPD1     C 3023   2.007   2.607   9.387 -0.1651  0.3102  0.2190
  199MPD1    C1 3024   2.121   2.676   9.427 -0.3768 -0.1603 -0.1187
  199MPD1    C2 3025   2.121   2.811   9.418 -0.0572  0.7964 -0.1657
  199MPD1    C3 3026   2.016   2.878   9.354 -0.1110 -0.2774  1.4417
  199MPD1    C4 3027   1.911   2.810   9.294 -0.0638  0.0062  0.1580
  199MPD1    C5 3028   1.906   2.675   9.318 -0.6519  0.1939 -0.8607
  199MPD1     H 3029   2.208   2.868   9.449  0.2731 -0.0537  0.4584
  199MPD1    H1 3030   1.830   2.848   9.232  2.0383  1.9613 -1.3907
  199MPD1    H2 3031   2.001   2.500   9.405  2.1717  0.3136  0.9932
  199MPD1    H3 3032   1.821   2.619   9.280 -0.2337  0.3760 -2.0646
  199MPD1     N 3033   2.032   3.018   9.323 -0.6151  0.1821 -0.1971
  199MPD1    H5 3034   1.950   3.061   9.281 -0.7013  2.6561  2.4343
  199MPD1    N1 3035   2.218   2.608   9.498  0.0623 -0.1703 -0.5059
  199MPD1    H6 3036   2.310   2.650   9.486  2.1252 -4.3484  0.6029
  199MPD1    H7 3037   2.218   2.506   9.489 -2.1888 -0.2239  0.2971
  200MPD1     C 3038   0.060   0.330  14.913  0.2575 -0.7815  0.3651
  200MPD1    C1 3039   0.104   0.325  14.787 -0.5273  0.1328  0.0379
  200MPD1    C2 3040   0.235   0.287  14.770  0.2337 -0.6472  0.6791
  200MPD1    C3 3041   0.322   0.247  14.868  0.1619  0.0320 -0.6659
  200MPD1    C4 3042   0.267   0.241  14.995 -0.5609 -0.6083 -0.1849
  200MPD1    C5 3043   0.141   0.288  15.019 -0.2983 -0.1366  0.3677
  200MPD1     H 3044   0.273   0.281  14.668 -0.5711 -0.2135  0.3505
  200MPD1    H1 3045   0.316   0.213  15.087  0.9565  1.7347 -0.2761
  200MPD1    H2 3046   4.678   0.360  14.937  0.0883 -0.2943 -0.9312
  200MPD1    H3 3047   0.107   0.288  15.122  0.7122  0.2218  0.7076
  200MPD1     N 3048   0.457   0.210  14.837  0.1275  0.2353 -0.3056
  200MPD1    H5 3049   0.487   0.204  14.740 -0.2670  2.5714 -0.5545
  200MPD1    N1 3050   0.029   0.375  14.677 -0.1953 -0.9618  0.3405
  200MPD1    H6 3051   0.048   0.326  14.590 -2.7213  2.4898 -2.1524
  200MPD1    H7 3052   4.649   0.360  14.687 -0.2126 -1.3111 -0.3897
  201MPD1     C 3053   3.617   3.566  12.984 -0.4915  0.7710  0.0904
  201MPD1    C1 3054   3.629   3.455  13.065  0.9745 -0.1056 -0.3247
  201MPD1    C2 3055   3.680   3.475  13.188 -0.3725 -0.0154 -0.2355
  201MPD1    C3 3056   3.686   3.591  13.251  0.5203  0.4384  0.0408
  201MPD1    C4 3057   3.662   3.706  13.176 -0.2726 -0.5535 -0.2124
  201MPD1    C5 3058   3.632   3.690  13.041 -0.5457 -0.7752 -0.3150
  201MPD1     H 3059   3.709   3.391  13.250  0.9459 -0.1778 -1.0777
  201MPD1    H1 3060   3.662   3.799  13.231  0.7758  0.7068 -2.3666
  201MPD1    H2 3061   3.593   3.562  12.879 -3.3442  0.4479  0.7695
  201MPD1    H3 3062   3.632   3.777  12.977 -2.7563 -0.2506  0.4199
  201MPD1     N 3063   3.718   3.588  13.391  0.3881  0.3130  0.0229
  201MPD1    H5 3064   3.706   3.499  13.439  1.0596  1.0073  1.4790
  201MPD1    N1 3065   3.625   3.330  13.005 -0.1172  0.1346 -0.5668
  201MPD1    H6 3066   3.557   3.333  12.929  0.2999 -0.8947 -0.9832
  201MPD1    H7 3067   3.595   3.255  13.068  0.7794  0.0588 -0.2303
  202MPD1     C 3068   0.009   3.821   9.086 -0.2675 -0.3665  0.3318
  202MPD1    C1 3069   4.631   3.862   9.172  0.6594 -0.9252  0.4697
  202MPD1    C2 3070   4.533   3.759   9.197 -0.4432  0.7564 -1.2300
  202MPD1    C3 3071   4.507   3.650   9.115  0.7222 -0.0924  0.3878
  202MPD1    C4 3072   4.599   3.631   9.009  0.9033  0.3020  0.0022
  202MPD1    C5 3073   4.712   3.709   9.003  0.2085 -0.4136 -0.2241
  202MPD1     H 3074   4.469   3.773   9.284  0.3520 -1.5506 -0.2793
  202MPD1    H1 3075   4.574   3.549   8.943  0.5885  0.2976  0.1281
  202MPD1    H2 3076   0.100   3.879   9.070 -0.4376 -0.7846 -2.2196
  202MPD1    H3 3077   0.075   3.696   8.935  0.5845 -1.9923  0.5521
  202MPD1     N 3078   4.390   3.569   9.124  0.4968  0.3228  0.5011
  202MPD1    H5 3079   4.352   3.514   9.047  1.1409  0.3651  0.1465
  202MPD1    N1 3080   4.667   3.946   9.278  0.3044 -0.1900  0.0030
  202MPD1    H6 3081   4.718   4.026   9.241 -1.8414  0.4537 -1.5500
  202MPD1    H7 3082   4.586   3.979   9.332  1.1278  1.0046  0.5138
  203MPD1     C 3083   1.982   0.743  12.215 -0.6238  0.0928 -0.1474
  203MPD1    C1 3084   2.064   0.655  12.152 -0.4217  0.4484  0.3171
  203MPD1    C2 3085   2.071   0.528  12.205 -0.6852 -0.1071  0.0970
  203MPD1    C3 3086   2.019   0.488  12.328 -0.3126  0.5064  0.1638
  203MPD1    C4 3087   1.931   0.574  12.385  0.4457 -0.4860 -0.2673
  203MPD1    C5 3088   1.912   0.703  12.325 -0.5240 -0.4324 -0.0707
  203MPD1     H 3089   2.132   0.459  12.148  2.2416  1.8676  0.8427
  203MPD1    H1 3090   1.872   0.549  12.472  0.7548 -1.4786 -0.3471
  203MPD1    H2 3091   1.961   0.837  12.165 -0.7409 -1.0465 -2.2802
  203MPD1    H3 3092   1.834   0.765  12.370  0.0991  0.0305  0.3705
  203MPD1     N 3093   2.040   0.359  12.371  0.0374 -0.4526 -0.2086
  203MPD1    H5 3094   2.084   0.303  12.299  2.7482  2.2160 -0.5961
  203MPD1    N1 3095   2.119   0.686  12.026  0.1293  0.3265  0.1299
  203MPD1    H6 3096   2.196   0.622  12.007 -1.0116 -0.5908 -1.4643
  203MPD1    H7 3097   2.154   0.781  12.015  2.2430 -0.5252 -0.4879
  204MPD1     C 3098   1.448   1.202   0.013  0.3992 -0.1894 -0.4930
  204MPD1    C1 3099   1.359   1.120   0.081  0.1999 -0.1692  0.3134
  204MPD1    C2 3100   1.254   1.061   0.008  1.0930  0.0136 -0.5546
  204MPD1    C3 3101   1.232   1.090  17.561  0.6006  0.6553 -0.5353
  204MPD1    C4 3102   1.313   1.180  17.497  0.2862  0.0125 -0.0607
  204MPD1    C5 3103   1.415   1.239  17.570  0.1713  0.4278 -0.7361
  204MPD1     H 3104   1.185   0.998   0.063  0.3000 -1.3579 -3.1311
  204MPD1    H1 3105   1.294   1.218  17.397 -0.5108 -1.8444 -0.6145
  204MPD1    H2 3106   1.537   1.243   0.059  0.0312 -1.7012  1.5688
  204MPD1    H3 3107   1.485   1.304  17.518  1.0746 -0.3810 -0.5278
  204MPD1     N 3108   1.119   1.045  17.502  0.4036  0.2497 -0.5061
  204MPD1    H5 3109   1.048   0.997  17.557  0.1934  1.5597  0.3438
  204MPD1    N1 3110   1.388   1.076   0.212 -0.0701  0.5644 -0.0150
  204MPD1    H6 3111   1.308   1.052   0.270  2.3419 -1.1036  2.5775
  204MPD1    H7 3112   1.430   1.144   0.274  0.9007  1.3364 -1.4983
  205MPD1     C 3113   1.080   4.503  16.809 -0.2425 -0.1800 -0.2413
  205MPD1    C1 3114   1.014   4.403  16.870 -0.2159 -0.5462 -0.2055
  205MPD1    C2 3115   0.969   4.428  17.001 -0.0071 -0.3348  0.1461
  205MPD1    C3 3116   0.967   4.554  17.054  0.6512 -0.9668  0.6969
  205MPD1    C4 3117   1.041   4.655  16.988  0.6850 -0.5727 -0.0722
  205MPD1    C5 3118   1.096   4.625  16.869 -0.2915  0.3124  0.4993
  205MPD1     H 3119   0.919   4.345  17.050  1.3970 -0.5539  1.2177
  205MPD1    H1 3120   1.061   0.032  17.033  0.6252 -0.9649  0.8029
  205MPD1    H2 3121   1.111   4.481  16.708  1.7470  1.7172 -0.0390
  205MPD1    H3 3122   1.166   4.699  16.832  0.6305 -1.4100 -1.2355
  205MPD1     N 3123   0.912   4.585  17.179 -0.0703  0.3636 -0.4324
  205MPD1    H5 3124   0.918   4.686  17.193 -1.1689  0.5194 -1.0434
  205MPD1    N1 3125   1.021   4.271  16.818 -0.2509  0.0534 -0.4613
  205MPD1    H6 3126   0.942   4.215  16.850  0.0071  0.1519  0.3515
  205MPD1    H7 3127   1.005   4.287  16.719 -2.6253  2.6202  0.3117
  206MPD1     C 3128   1.383   2.853  16.772  0.4418  0.4881  0.5491
  206MPD1    C1 3129   1.292   2.749  16.797 -0.4307  0.1779  0.5643
  206MPD1    C2 3130   1.236   2.681  16.690  0.1286 -0.3897  0.2111
  206MPD1    C3 3131   1.287   2.710  16.567 -0.3964 -0.0369  0.2326
  206MPD1    C4 3132   1.401   2.783  16.553 -0.4270 -0.8218 -0.7869
  206MPD1    C5 3133   1.445   2.861  16.653  0.3802 -0.6007 -0.5739
  206MPD1     H 3134   1.155   2.610  16.697 -0.7723  0.5952 -0.2363
  206MPD1    H1 3135   1.433   2.811  16.454  0.5752  0.4111 -0.1058
  206MPD1    H2 3136   1.403   2.932  16.844 -1.3996 -0.3606  2.0153
  206MPD1    H3 3137   1.504   2.948  16.628  0.2342 -0.2872  0.1903
  206MPD1     N 3138   1.218   2.639  16.464 -0.7347 -0.2444  0.1071
  206MPD1    H5 3139   1.135   2.594  16.502 -0.7369  0.4071  0.8749
  206MPD1    N1 3140   1.225   2.739  16.917 -0.2478  0.6127  0.4734
  206MPD1    H6 3141   1.190   2.644  16.928  0.4765  0.4556  1.3976
  206MPD1    H7 3142   1.282   2.758  16.999  1.4176  0.7218 -0.6834
  207MPD1     C 3143   3.379   0.114   9.779  0.4391  0.2291 -0.0115
  207MPD1    C1 3144   3.456   0.159   9.671 -0.0186  0.8555 -0.9298
  207MPD1    C2 3145   3.592   0.174   9.682 -0.0600 -0.4386  0.1052
  207MPD1    C3 3146   3.650   0.152   9.808 -0.6038  0.7714 -0.0402
  207MPD1    C4 3147   3.575   0.097   9.912 -0.0317 -0.2062 -0.1058
  207MPD1    C5 3148   3.439   0.079   9.896 -0.1585  0.1369  0.5152
  207MPD1     H 3149   3.651   0.205   9.596  0.4650  2.2456  1.4431
  207MPD1    H1 3150   3.614   0.071  10.010 -0.5131  2.4788  0.7824
  207MPD1    H2 3151   3.275   0.084   9.778  0.6273 -0.3848 -1.3500
  207MPD1    H3 3152   3.382   0.042   9.980  0.4943 -0.6263  0.6167
  207MPD1     N 3153   3.784   0.181   9.840  0.6134  0.0323  0.2573
  207MPD1    H5 3154   3.815   0.173   9.936  0.4925 -0.2356  0.2739
  207MPD1    N1 3155   3.388   0.160   9.543  0.0867 -0.1751  0.6012
  207MPD1    H6 3156   3.292   0.187   9.561  0.3882  1.2540  0.0339
  207MPD1    H7 3157   3.431   0.217   9.470  0.2090  0.1680  0.9402
  208MPD1     C 3158   1.628   4.249  17.457 -0.1240  0.6987 -0.7492
  208MPD1    C1 3159   1.516   4.167  17.451 -0.8080 -0.3577 -0.3701
  208MPD1    C2 3160   1.463   4.145  17.577 -0.9047  0.0335 -0.1434
  208MPD1    C3 3161   1.521   4.173   0.021 -0.0865  0.0180  0.5369
  208MPD1    C4 3162   1.644   4.234   0.017  0.3060 -0.5688  0.2351
  208MPD1    C5 3163   1.692   4.278  17.574  0.3260  0.3006  0.1165
  208MPD1     H 3164   1.367   4.095  17.578 -0.0902 -1.5092 -0.6815
  208MPD1    H1 3165   1.701   4.269   0.103 -0.6838 -0.7381  0.9598
  208MPD1    H2 3166   1.666   4.283  17.361  3.2110  0.4841  0.4984
  208MPD1    H3 3167   1.781   4.340  17.573  0.8140 -0.4070 -0.3264
  208MPD1     N 3168   1.457   4.125   0.136 -0.1197  0.0301  0.2526
  208MPD1    H5 3169   1.377   4.066   0.120  0.3898 -0.9159  1.1872
  208MPD1    N1 3170   1.441   4.148  17.334  0.2410  0.4466  0.3346
  208MPD1    H6 3171   1.497   4.148  17.249  0.4836 -1.4337  0.4978
  208MPD1    H7 3172   1.381   4.065  17.335  1.1869 -0.2531 -1.5600
  209MPD1     C 3173   4.426   3.734  10.770 -0.1100  0.5831  0.1902
  209MPD1    C1 3174   4.398   3.769  10.638 -0.4440  0.2299 -0.4378
  209MPD1    C2 3175   4.450   3.891  10.598 -0.0364 -0.9589 -0.6464
  209MPD1    C3 3176   4.529   3.975  10.669 -0.2666  0.2157  0.4963
  209MPD1    C4 3177   4.556   3.944  10.801 -0.1263  0.7054  0.1779
  209MPD1    C5 3178   4.506   3.819  10.847 -0.4630  0.2816 -0.0588
  209MPD1     H 3179   4.425   3.915  10.495  0.5498  0.5713 -0.4328
  209MPD1    H1 3180   4.620   4.006  10.863 -0.9522  1.3469  0.3847
  209MPD1    H2 3181   4.390   3.639  10.808  0.5207  0.8729  1.5083
  209MPD1    H3 3182   4.526   3.788  10.948 -0.0593  1.3887  0.1991
  209MPD1     N 3183   4.591   4.086  10.609 -0.2000  0.4604  0.3391
  209MPD1    H5 3184   4.563   4.111  10.515 -0.1267 -0.5636  0.0441
  209MPD1    N1 3185   4.319   3.679  10.560  0.2138  0.8126  0.5070
  209MPD1    H6 3186   4.272   3.732  10.487 -1.3605 -2.2747 -0.7333
  209MPD1    H7 3187   4.253   3.632  10.622 -0.3661  1.3193  0.2732
  210MPD1     C 3188   0.636   0.121  10.694  0.4274  0.3754 -0.0833
  210MPD1    C1 3189   0.549   0.050  10.776 -0.4341  0.1739 -0.3246
  210MPD1    C2 3190   0.449   4.688  10.724  0.9562  0.0929 -0.2983
  210MPD1    C3 3191   0.412   4.701  10.589 -0.1107 -0.0658 -0.0595
  210MPD1    C4 3192   0.491   0.062  10.511 -0.3590 -0.1623  0.0098
  210MPD1    C5 3193   0.602   0.134  10.559  0.7218 -0.0407  1.0326
  210MPD1     H 3194   0.401   4.624  10.797 -1.3895  0.1097 -1.8253
  210MPD1    H1 3195   0.469   0.053  10.405  0.3350  2.6930 -0.3813
  210MPD1    H2 3196   0.721   0.176  10.735 -0.7505  0.4627  2.2180
  210MPD1    H3 3197   0.667   0.189  10.493 -2.0413  1.2379 -0.6042
  210MPD1     N 3198   0.301   4.634  10.533 -0.3695  0.0216 -0.1467
  210MPD1    H5 3199   0.287   4.626  10.433 -1.1612 -1.8273  0.0943
  210MPD1    N1 3200   0.591   0.036  10.906  0.5573 -0.5051 -0.2414
  210MPD1    H6 3201   0.642   0.116  10.942 -1.8633  0.5853  0.7538
  210MPD1    H7 3202   0.510   0.026  10.968  0.1996 -1.5016 -0.8601
  211MPD1     C 3203   2.300   3.783  16.592  0.1774  0.1316 -0.1158
  211MPD1    C1 3204   2.270   3.914  16.555  0.6617  0.7331 -0.3820
  211MPD1    C2 3205   2.145   3.974  16.593 -0.1653 -0.3855  0.2805
  211MPD1    C3 3206   2.066   3.906  16.679  0.1770 -0.1894  1.1000
  211MPD1    C4 3207   2.113   3.788  16.738 -0.1607  1.0589 -0.0020
  211MPD1    C5 3208   2.232   3.730  16.698 -0.0428  0.1441  0.3969
  211MPD1     H 3209   2.122   4.070  16.549  0.0771 -0.7194 -0.5640
  211MPD1    H1 3210   2.055   3.749  16.821  2.1660 -3.1684 -0.3434
  211MPD1    H2 3211   2.394   3.734  16.573  0.2604  0.8906 -1.6119
  211MPD1    H3 3212   2.256   3.630  16.731 -2.9537 -0.4436  0.6753
  211MPD1     N 3213   1.928   3.942  16.682  0.1173 -0.3365 -0.6471
  211MPD1    H5 3214   1.913   4.033  16.638  1.5332  1.2478  2.1886
  211MPD1    N1 3215   2.347   3.972  16.447  0.4129  0.2022 -0.3667
  211MPD1    H6 3216   2.444   3.941  16.451  0.7468  1.3660  0.7007
  211MPD1    H7 3217   2.349   4.073  16.462  0.0792  0.5205 -2.4980
  212MPD1     C 3218   1.348   2.250  17.146 -0.4478  0.1467 -0.1467
  212MPD1    C1 3219   1.258   2.337  17.201  0.4677  0.4219 -0.6276
  212MPD1    C2 3220   1.137   2.281  17.234 -0.2130 -0.7109 -0.0331
  212MPD1    C3 3221   1.113   2.141  17.230 -0.0046 -0.2320 -0.1527
  212MPD1    C4 3222   1.210   2.059  17.182 -0.6185  0.9033  0.0059
  212MPD1    C5 3223   1.330   2.114  17.151  0.3411  0.4497  0.3362
  212MPD1     H 3224   1.052   2.346  17.255 -1.2139 -1.8857 -0.4648
  212MPD1    H1 3225   1.194   1.953  17.165  0.7858  0.6515  0.2331
  212MPD1    H2 3226   1.438   2.286  17.097 -0.6440  0.6779 -0.1105
  212MPD1    H3 3227   1.393   2.052  17.088 -1.2635 -0.7746 -0.0374
  212MPD1     N 3228   0.987   2.088  17.245 -0.2519  0.5573 -0.7328
  212MPD1    H5 3229   0.980   1.991  17.216 -1.8008  0.8972 -1.5022
  212MPD1    N1 3230   1.270   2.479  17.182 -0.1950 -0.2227 -0.5354
  212MPD1    H6 3231   1.201   2.539  17.228 -1.0215 -1.2093 -0.4983
  212MPD1    H7 3232   1.362   2.517  17.200  0.1289 -0.3406 -1.9282
  213MPD1     C 3233   3.511   3.862  15.985 -0.6124 -0.5307 -0.0759
  213MPD1    C1 3234   3.393   3.849  15.917 -0.0763  0.5828  0.0544
  213MPD1    C2 3235   3.405   3.802  15.785  0.3653 -0.4361  0.7200
  213MPD1    C3 3236   3.522   3.742  15.735 -0.3258  0.1934  0.1955
  213MPD1    C4 3237   3.629   3.749  15.815 -0.5596  0.1246 -0.2712
  213MPD1    C5 3238   3.630   3.809  15.939  0.1416  0.7214  0.5222
  213MPD1     H 3239   3.317   3.812  15.722 -0.9976 -2.0502  2.3724
  213MPD1    H1 3240   3.729   3.722  15.783  0.0276  1.7456  0.1990
  213MPD1    H2 3241   3.515   3.900  16.087  3.3174 -2.5396  0.5391
  213MPD1    H3 3242   3.722   3.808  15.996  0.2044  1.8206  0.4463
  213MPD1     N 3243   3.530   3.696  15.605 -0.5391 -0.5632 -0.3500
  213MPD1    H5 3244   3.444   3.697  15.551 -0.6299  3.2721 -0.1590
  213MPD1    N1 3245   3.289   3.933  15.946 -0.2526  0.1483 -0.4345
  213MPD1    H6 3246   3.284   3.950  16.046 -1.6507  2.0333 -0.8261
  213MPD1    H7 3247   3.199   3.923  15.900 -0.5980 -1.0186  0.4925
  214MPD1     C 3248   2.895   3.193  15.372  0.0614  0.2271 -0.4583
  214MPD1    C1 3249   2.994   3.131  15.302 -0.2124 -0.0995 -0.1902
  214MPD1    C2 3250   3.120   3.192  15.292  0.3811 -0.8232 -0.1075
  214MPD1    C3 3251   3.145   3.307  15.370  0.1168  0.3126  0.5985
  214MPD1    C4 3252   3.050   3.357  15.454  0.1479  0.4648 -0.4452
  214MPD1    C5 3253   2.930   3.297  15.458  0.1643  0.1285 -0.8693
  214MPD1     H 3254   3.206   3.146  15.244  0.8530 -0.3142  0.2447
  214MPD1    H1 3255   3.072   3.448  15.509  0.1537 -0.5610  1.2320
  214MPD1    H2 3256   2.800   3.143  15.388 -0.3317  0.5972 -1.6718
  214MPD1    H3 3257   2.848   3.340  15.515  1.5430  0.9632  0.4963
  214MPD1     N 3258   3.265   3.378  15.372 -0.1853 -0.2858  0.4745
  214MPD1    H5 3259   3.261   3.468  15.417 -0.0675  1.8789 -3.8171
  214MPD1    N1 3260   2.969   3.031  15.215  0.1300 -1.1069 -0.0851
  214MPD1    H6 3261   3.051   2.970  15.215 -1.2206 -2.9026  0.9764
  214MPD1    H7 3262   2.889   2.975  15.243 -0.6291 -0.4712 -0.9587
  215MPD1     C 3263   4.026   4.035  10.439 -0.4448 -0.3938 -0.2517
  215MPD1    C1 3264   3.989   4.024  10.575 -0.1466 -0.0983 -0.9125
  215MPD1    C2 3265   4.072   4.089  10.666 -0.5730 -0.5163  0.6142
  215MPD1    C3 3266   4.176   4.166  10.625 -0.3702  0.3784 -0.2710
  215MPD1    C4 3267   4.219   4.159  10.495  0.1754 -0.4673 -0.4040
  215MPD1    C5 3268   4.141   4.094  10.399 -0.0982 -0.0455  0.5857
  215MPD1     H 3269   4.033   4.092  10.767 -1.4079  0.2592  0.2739
  215MPD1    H1 3270   4.318   4.191  10.464 -0.2673  0.1385 -1.1977
  215MPD1    H2 3271   3.973   3.971  10.369 -0.1279 -1.3469  0.3726
  215MPD1    H3 3272   4.161   4.073  10.295  2.7308  0.9936  0.9085
  215MPD1     N 3273   4.245   4.240  10.725  0.5955  0.6284  0.2299
  215MPD1    H5 3274   4.222   4.224  10.822 -0.8010 -0.5805 -0.2945
  215MPD1    N1 3275   3.863   3.973  10.604 -0.7250 -0.6143 -0.2485
  215MPD1    H6 3276   3.863   3.924  10.693  3.0947  0.9788  0.5877
  215MPD1    H7 3277   3.837   3.905  10.533 -1.7630 -0.5972  0.1086
  216MPD1     C 3278   1.210   1.599  16.306 -0.5680  0.2936  0.4143
  216MPD1    C1 3279   1.222   1.467  16.341 -0.4809 -0.2810 -0.6286
  216MPD1    C2 3280   1.203   1.432  16.469  0.0642  0.5826 -0.0171
  216MPD1    C3 3281   1.146   1.524  16.557  0.1623  0.3291 -0.0075
  216MPD1    C4 3282   1.130   1.652  16.521  0.2096 -0.8969  0.2748
  216MPD1    C5 3283   1.156   1.686  16.390 -0.7803 -0.2234 -0.1718
  216MPD1     H 3284   1.210   1.329  16.500  2.0774  0.5849 -0.5014
  216MPD1    H1 3285   1.090   1.727  16.588 -4.3436 -4.9979  2.1822
  216MPD1    H2 3286   1.239   1.623  16.204  0.8019  2.1459  1.2430
  216MPD1    H3 3287   1.128   1.790  16.376 -1.0793 -0.1913  0.6603
  216MPD1     N 3288   1.118   1.471  16.686  0.1900 -0.6062  1.1554
  216MPD1    H5 3289   1.124   1.371  16.698  1.7977 -0.8971 -2.2909
  216MPD1    N1 3290   1.291   1.384  16.255  0.0922 -0.0095 -0.2540
  216MPD1    H6 3291   1.277   1.287  16.282 -0.8227  0.1179 -0.2562
  216MPD1    H7 3292   1.259   1.388  16.158 -0.4285 -0.1418 -0.0909
  217MPD1     C 3293   3.019   2.831   9.014 -0.5105  0.0683  0.1686
  217MPD1    C1 3294   2.938   2.788   8.914 -0.4301  0.4185  0.2556
  217MPD1    C2 3295   2.888   2.665   8.912  0.5737 -0.7270 -0.5612
  217MPD1    C3 3296   2.910   2.578   9.017  0.2209 -0.0940  0.0548
  217MPD1    C4 3297   2.990   2.622   9.118  0.7218  0.2809  0.2556
  217MPD1    C5 3298   3.048   2.742   9.120 -0.1714  0.6731  0.5530
  217MPD1     H 3299   2.828   2.641   8.826  0.0832 -0.9763 -0.1465
  217MPD1    H1 3300   3.014   2.559   9.203  1.0306  0.9797  0.6820
  217MPD1    H2 3301   3.070   2.926   9.017  2.1510 -1.3604  0.3159
  217MPD1    H3 3302   3.113   2.771   9.201  2.9137  0.6951 -1.9157
  217MPD1     N 3303   2.849   2.450   9.035 -0.0766 -0.8031 -0.3592
  217MPD1    H5 3304   2.866   2.403   9.123 -2.0222  0.9878  0.9731
  217MPD1    N1 3305   2.927   2.870   8.796  1.3081 -0.5027 -0.6249
  217MPD1    H6 3306   2.914   2.968   8.818 -4.6063 -1.3890  0.1062
  217MPD1    H7 3307   2.847   2.850   8.736  0.2105  1.6818  0.1263
  218MPD1     C 3308   3.492   0.634  12.813 -0.8986 -0.2738  0.3426
  218MPD1    C1 3309   3.610   0.616  12.741 -0.4494  0.3894 -0.3356
  218MPD1    C2 3310   3.665   0.496  12.735 -0.6744 -0.0457  0.4912
  218MPD1    C3 3311   3.616   0.390  12.806  0.3402  0.0941 -0.2624
  218MPD1    C4 3312   3.499   0.410  12.882  0.5180  0.0148 -0.6844
  218MPD1    C5 3313   3.440   0.530  12.884  0.2435 -0.6636 -0.0868
  218MPD1     H 3314   3.754   0.491  12.674  0.6954 -0.6625  2.5355
  218MPD1    H1 3315   3.451   0.334  12.942  2.5711 -0.4818  0.3144
  218MPD1    H2 3316   3.443   0.730  12.826  1.5582  1.4169 -2.9973
  218MPD1    H3 3317   3.350   0.541  12.944  0.5256 -0.7085  0.3466
  218MPD1     N 3318   3.682   0.264  12.795  0.0564 -0.2792  0.2775
  218MPD1    H5 3319   3.768   0.271  12.743  1.0976 -1.2327  1.8579
  218MPD1    N1 3320   3.663   0.720  12.662  0.2161 -0.4342 -0.1400
  218MPD1    H6 3321   3.764   0.732  12.665  0.0372  1.1132  0.0523
  218MPD1    H7 3322   3.618   0.810  12.682  1.2168  0.0319  0.0094
  219MPD1     C 3323   4.192   4.515  12.104 -0.1288  0.2621 -0.8470
  219MPD1    C1 3324   4.137   4.401  12.169  0.6227 -0.2756 -0.5158
  219MPD1    C2 3325   4.059   4.425  12.280 -0.4640  0.7937 -0.0648
  219MPD1    C3 3326   4.054   4.557  12.338  0.3243  0.7698 -1.0343
  219MPD1    C4 3327   4.116   4.662  12.276 -0.3635  0.5596 -0.6139
  219MPD1    C5 3328   4.191   4.636  12.165 -0.4262 -0.6309 -0.3032
  219MPD1     H 3329   4.007   4.337  12.317  1.8662 -0.6859 -0.3235
  219MPD1    H1 3330   4.115   0.045  12.310 -0.2140 -0.1084  1.4102
  219MPD1    H2 3331   4.248   4.506  12.013  0.6574  0.6794 -0.4050
  219MPD1    H3 3332   4.248   4.713  12.116  1.4313 -1.3648  0.7116
  219MPD1     N 3333   3.984   4.566  12.461  0.3291  0.2565  0.1145
  219MPD1    H5 3334   3.929   4.486  12.494  2.2977 -0.8461  0.7401
  219MPD1    N1 3335   4.127   4.278  12.092  0.7542 -0.2132 -0.3170
  219MPD1    H6 3336   4.213   4.258  12.042 -1.5515  0.4461 -4.5884
  219MPD1    H7 3337   4.107   4.196  12.149 -0.7713  1.0797  0.9950
  220MPD1     C 3338   3.914   0.910   9.715 -0.4248  0.8479  0.1354
  220MPD1    C1 3339   3.842   0.795   9.738  0.2792 -0.3196 -0.4589
  220MPD1    C2 3340   3.899   0.703   9.818  0.3064  0.5400  0.3110
  220MPD1    C3 3341   4.010   0.729   9.898  0.2096  0.3213 -0.7475
  220MPD1    C4 3342   4.069   0.852   9.891 -0.6057  0.0980  0.3593
  220MPD1    C5 3343   4.026   0.942   9.789  0.0139 -0.2869 -0.2602
  220MPD1     H 3344   3.841   0.613   9.835  1.5442 -0.4983 -0.9039
  220MPD1    H1 3345   4.159   0.888   9.941 -0.4289 -0.1177  0.1962
  220MPD1    H2 3346   3.890   0.972   9.629 -0.4568  0.5761 -0.0503
  220MPD1    H3 3347   4.081   1.028   9.754  1.5298 -0.9708  0.4264
  220MPD1     N 3348   4.052   0.632   9.995 -0.2035 -0.1118  0.2498
  220MPD1    H5 3349   3.980   0.562  10.004 -0.6043  0.2670  0.0327
  220MPD1    N1 3350   3.731   0.767   9.656  0.1696  1.0513 -0.5251
  220MPD1    H6 3351   3.662   0.706   9.700  0.5482  0.8503 -0.2048
  220MPD1    H7 3352   3.679   0.854   9.648 -0.8145  0.4868 -0.3071
  221MPD1     C 3353   1.318   3.684  17.552  0.6131  0.9313 -0.7260
  221MPD1    C1 3354   1.272   3.560  17.507 -1.3394 -0.1282  0.3064
  221MPD1    C2 3355   1.270   3.521  17.374 -0.0133  0.4726 -0.4115
  221MPD1    C3 3356   1.308   3.612  17.283  0.0979  0.6472 -0.2002
  221MPD1    C4 3357   1.370   3.723  17.322  0.1034 -0.6263  0.2681
  221MPD1    C5 3358   1.374   3.759  17.452  0.4132  0.0512  0.0340
  221MPD1     H 3359   1.207   3.435  17.354 -0.7950  1.0959 -0.6302
  221MPD1    H1 3360   1.408   3.794  17.250  3.4557 -0.7193  1.9899
  221MPD1    H2 3361   1.304   3.716  17.655 -0.8732  0.2352 -0.7133
  221MPD1    H3 3362   1.435   3.846  17.470  0.3255  0.0589  0.2902
  221MPD1     N 3363   1.290   3.593  17.140 -0.3512  0.1530 -0.5266
  221MPD1    H5 3364   1.312   3.668  17.075 -0.3258  0.6084  0.0087
  221MPD1    N1 3365   1.226   3.466  17.603  0.2277  0.0929 -0.0932
  221MPD1    H6 3366   1.163   3.399  17.559 -1.3617  2.3318 -1.1620
  221MPD1    H7 3367   1.184   3.498   0.007 -0.0874 -3.7672  1.1947
  222MPD1     C 3368   1.100   1.935  17.618  0.3388  0.1170  0.1311
  222MPD1    C1 3369   0.976   1.881  17.622 -0.3312 -0.1177  0.3390
  222MPD1    C2 3370   0.873   1.957  17.668 -0.0001 -0.4408  0.2032
  222MPD1    C3 3371   0.880   2.093   0.012 -0.1455 -0.1279  0.7348
  222MPD1    C4 3372   1.003   2.150  17.674 -0.0383  0.7253 -0.7741
  222MPD1    C5 3373   1.112   2.072  17.628 -0.4970 -0.3043  0.0293
  222MPD1     H 3374   0.774   1.912  17.668  0.5705 -1.6948 -2.7095
  222MPD1    H1 3375   1.021   2.255   0.011  2.1732  0.1552  0.3087
  222MPD1    H2 3376   1.187   1.874  17.595  0.1607 -0.8137  1.9029
  222MPD1    H3 3377   1.213   2.110  17.623 -0.3464 -0.4606  1.8539
  222MPD1     N 3378   0.771   2.181   0.041 -0.0633 -0.6015 -0.3730
  222MPD1    H5 3379   0.784   2.282   0.036 -3.5878 -0.1061  0.1606
  222MPD1    N1 3380   0.961   1.738  17.618 -0.1306  0.8710 -0.0866
  222MPD1    H6 3381   1.039   1.696  17.568 -1.3466 -1.3429 -0.0937
  222MPD1    H7 3382   0.874   1.706  17.577  0.8082 -2.3413  0.4783
  223MPD1     C 3383   4.674   2.303   0.718 -0.0202 -0.6036  0.3630
  223MPD1    C1 3384   0.046   2.406   0.722 -0.7505 -0.3257 -0.3410
  223MPD1    C2 3385   0.132   2.410   0.618 -0.3836  0.2135  0.5215
  223MPD1    C3 3386   0.143   2.305   0.525 -0.7531 -0.2060  0.2605
  223MPD1    C4 3387   0.062   2.194   0.534  1.0704  0.8442  0.0426
  223MPD1    C5 3388   4.689   2.195   0.631  0.2853 -0.5761  0.2294
  223MPD1     H 3389   0.192   2.500   0.609 -1.9977  1.3003  0.6720
  223MPD1    H1 3390   0.062   2.111   0.464  2.6263 -0.9893  2.2147
  223MPD1    H2 3391   4.590   2.301   0.786  0.6089 -1.1188  1.1164
  223MPD1    H3 3392   4.609   2.122   0.631 -0.8462  0.6526  1.7224
  223MPD1     N 3393   0.228   2.321   0.413 -0.0379 -0.8496  0.3106
  223MPD1    H5 3394   0.297   2.396   0.419  0.1629 -1.0329  0.2769
  223MPD1    N1 3395   0.027   2.519   0.802  0.3374 -0.0866  0.3796
  223MPD1    H6 3396   4.700   2.497   0.890 -1.5978 -2.7896 -1.2886
  223MPD1    H7 3397   0.118   2.549   0.836  0.5801  2.2023 -2.3375
  224MPD1     C 3398   2.931   3.263   8.757  0.3602  0.3711  0.0331
  224MPD1    C1 3399   3.055   3.257   8.820  0.3894  1.0252 -0.2403
  224MPD1    C2 3400   3.061   3.214   8.951 -0.1857  0.2218 -0.4938
  224MPD1    C3 3401   2.946   3.178   9.028 -0.4903 -0.2542 -0.8361
  224MPD1    C4 3402   2.828   3.183   8.963 -0.2126  0.2480 -0.2137
  224MPD1    C5 3403   2.825   3.220   8.832  0.0666 -1.0784  0.1770
  224MPD1     H 3404   3.159   3.211   8.997  0.7387 -0.7892 -2.5243
  224MPD1    H1 3405   2.733   3.166   9.013 -1.0497 -1.9337 -2.5161
  224MPD1    H2 3406   2.917   3.286   8.652  1.3634  2.4475  0.3537
  224MPD1    H3 3407   2.725   3.230   8.790  0.1509  0.1772  0.2722
  224MPD1     N 3408   2.937   3.144   9.165 -0.2492  0.0872  0.1737
  224MPD1    H5 3409   2.844   3.127   9.202 -0.6843 -2.0021 -1.9093
  224MPD1    N1 3410   3.172   3.278   8.737  0.2079 -0.5972 -0.3580
  224MPD1    H6 3411   3.259   3.304   8.784  0.1215 -1.2983  0.1867
  224MPD1    H7 3412   3.151   3.329   8.651 -0.3567  2.3105  1.5224
  225MPD1     C 3413   3.684   1.582  12.074 -0.3716 -0.9021  0.1068
  225MPD1    C1 3414   3.676   1.499  12.174 -0.0743 -0.9684 -0.7485
  225MPD1    C2 3415   3.601   1.383  12.153 -0.1127  0.7458 -0.0387
  225MPD1    C3 3416   3.528   1.354  12.040  0.0840 -0.2173  0.4199
  225MPD1    C4 3417   3.535   1.446  11.944  0.7571  0.1159 -0.1476
  225MPD1    C5 3418   3.614   1.558  11.959 -0.0816  0.5121 -0.2631
  225MPD1     H 3419   3.602   1.310  12.233 -2.7000 -1.4965 -2.1056
  225MPD1    H1 3420   3.465   1.436  11.862 -0.0291 -0.9084  0.6449
  225MPD1    H2 3421   3.747   1.670  12.071 -0.4132 -0.9365 -1.5357
  225MPD1    H3 3422   3.627   1.629  11.878 -0.4260  1.3121  0.3803
  225MPD1     N 3423   3.436   1.240  12.036 -0.3772 -0.4096 -0.3179
  225MPD1    H5 3424   3.396   1.235  11.943 -0.8239 -0.7665 -0.1093
  225MPD1    N1 3425   3.761   1.512  12.288  0.3015  0.1050 -0.3651
  225MPD1    H6 3426   3.717   1.481  12.374 -0.4673  1.1884 -0.3653
  225MPD1    H7 3427   3.784   1.610  12.302 -0.9272  0.2886  0.3236
  226MPD1     C 3428   2.659   2.398   9.344  0.3218  0.1785 -0.0048
  226MPD1    C1 3429   2.687   2.528   9.370 -0.1806  0.2395 -0.9481
  226MPD1    C2 3430   2.610   2.623   9.308  0.3960  0.5727 -0.3447
  226MPD1    C3 3431   2.507   2.583   9.223  0.2936 -0.7013  0.2514
  226MPD1    C4 3432   2.482   2.445   9.200  0.3370  0.8066  0.2951
  226MPD1    C5 3433   2.555   2.354   9.265  0.9918 -0.1240 -0.5536
  226MPD1     H 3434   2.620   2.730   9.322 -0.2179  0.5797  0.0324
  226MPD1    H1 3435   2.398   2.407   9.144  1.2939  1.1252 -1.3745
  226MPD1    H2 3436   2.717   2.314   9.382  2.2781  0.7818 -1.6543
  226MPD1    H3 3437   2.536   2.247   9.256 -0.6073  0.2814 -1.9729
  226MPD1     N 3438   2.436   2.685   9.160  0.3452 -0.4059  0.3863
  226MPD1    H5 3439   2.466   2.780   9.179  0.2844 -0.6281  1.6471
  226MPD1    N1 3440   2.773   2.569   9.474  0.0474  0.0272  0.2848
  226MPD1    H6 3441   2.811   2.662   9.455 -0.7962  0.2437 -0.4003
  226MPD1    H7 3442   2.848   2.504   9.493 -1.8786 -2.0658  0.6382
  227MPD1     C 3443   1.481   2.801   9.064  0.2063  0.5854 -0.0480
  227MPD1    C1 3444   1.557   2.687   9.070  0.3046 -0.5764  0.4969
  227MPD1    C2 3445   1.694   2.704   9.031 -0.1357 -0.5368 -1.1595
  227MPD1    C3 3446   1.738   2.826   8.977  0.2296  0.4040 -0.2539
  227MPD1    C4 3447   1.657   2.930   8.957 -0.8090  0.0829  0.7429
  227MPD1    C5 3448   1.531   2.916   9.008  0.5339 -0.1265  0.4787
  227MPD1     H 3449   1.764   2.621   9.028  0.3463 -0.1272 -1.1613
  227MPD1    H1 3450   1.684   3.027   8.917  0.3339 -1.0581 -1.2734
  227MPD1    H2 3451   1.377   2.812   9.095  0.3513  0.7071  0.3943
  227MPD1    H3 3452   1.456   2.993   8.998  1.2214  0.6874  1.6241
  227MPD1     N 3453   1.876   2.834   8.955  0.2857  0.5513 -0.0041
  227MPD1    H5 3454   1.927   2.747   8.950 -2.1373 -0.7844 -1.3270
  227MPD1    N1 3455   1.508   2.572   9.134  0.2835  0.0764  0.0241
  227MPD1    H6 3456   1.407   2.572   9.126  0.3636  1.1505 -0.9314
  227MPD1    H7 3457   1.542   2.487   9.089  0.1492 -0.5136  1.0432
  228MPD1     C 3458   1.633   2.878  13.018 -0.0242  0.5338 -0.3789
  228MPD1    C1 3459   1.549   2.945  12.933  0.3575 -0.8046 -0.6539
  228MPD1    C2 3460   1.430   2.882  12.892  0.3553  0.4376  0.1999
  228MPD1    C3 3461   1.388   2.766  12.949 -0.4423 -0.0133  0.6252
  228MPD1    C4 3462   1.467   2.707  13.049  0.0915 -0.5710  0.7087
  228MPD1    C5 3463   1.589   2.764  13.078 -0.5159  0.1733 -0.5732
  228MPD1     H 3464   1.363   2.926  12.819 -1.6992  1.9530  2.9921
  228MPD1    H1 3465   1.429   2.625  13.108 -2.5311  1.7986  2.3389
  228MPD1    H2 3466   1.731   2.911  13.050  0.2937 -0.5502 -0.2255
  228MPD1    H3 3467   1.650   2.713  13.151 -1.2729 -1.6162 -1.1968
  228MPD1     N 3468   1.272   2.700  12.890  0.9693 -0.4138 -0.4842
  228MPD1    H5 3469   1.231   2.750  12.812  2.4249  1.3085 -0.1545
  228MPD1    N1 3470   1.585   3.067  12.874  0.6349  0.0643 -0.1073
  228MPD1    H6 3471   1.503   3.126  12.860  1.7610  1.0431 -2.5705
  228MPD1    H7 3472   1.658   3.123  12.918 -0.6933  1.6016  0.1225
  229MPD1     C 3473   3.750   1.791  15.150  0.2305  0.2569  0.3858
  229MPD1    C1 3474   3.774   1.726  15.036 -1.0408  0.5421 -0.4825
  229MPD1    C2 3475   3.885   1.648  15.036  0.5733 -0.1114 -0.2898
  229MPD1    C3 3476   3.973   1.636  15.143 -0.4634  0.3505 -0.5113
  229MPD1    C4 3477   3.960   1.711  15.255 -0.0153 -0.0764 -0.0276
  229MPD1    C5 3478   3.844   1.782  15.256 -0.6159  0.0846 -0.5112
  229MPD1     H 3479   3.907   1.603  14.940  2.0625  0.1311 -0.0676
  229MPD1    H1 3480   4.029   1.713  15.339  1.1219 -2.3686 -0.8858
  229MPD1    H2 3481   3.663   1.850  15.173 -1.9384 -3.2403  1.1983
  229MPD1    H3 3482   3.822   1.848  15.340 -3.2192 -1.1696 -0.1924
  229MPD1     N 3483   4.092   1.564  15.129  0.0794 -0.6068  0.0837
  229MPD1    H5 3484   4.164   1.567  15.201  1.1995 -2.8448 -0.9444
  229MPD1    N1 3485   3.693   1.750  14.923  0.3159 -0.0698 -0.4972
  229MPD1    H6 3486   3.703   1.684  14.847 -0.1276 -2.9412  1.9538
  229MPD1    H7 3487   3.597   1.763  14.954 -0.7197 -0.0552 -3.6645
  230MPD1     C 3488   0.153   1.301  15.631 -0.5922 -0.1242  0.5657
  230MPD1    C1 3489   0.185   1.309  15.502  0.5460 -0.4966  0.2602
  230MPD1    C2 3490   0.087   1.285  15.411 -0.0386  0.5424 -0.5222
  230MPD1    C3 3491   4.671   1.280  15.445  0.5841  0.1452 -0.4636
  230MPD1    C4 3492   4.637   1.285  15.581  0.2235  0.2835  0.2505
  230MPD1    C5 3493   0.021   1.297  15.671  0.3044 -0.2455  0.4954
  230MPD1     H 3494   0.110   1.273  15.306 -3.2054 -0.1568 -1.1377
  230MPD1    H1 3495   4.542   1.264  15.626 -0.1727 -1.3287 -1.3396
  230MPD1    H2 3496   0.236   1.297  15.700  0.8423 -2.1256 -1.2724
  230MPD1    H3 3497   0.016   1.282  15.778  3.1513 -0.6803  0.5793
  230MPD1     N 3498   4.579   1.266  15.346  0.0879 -0.3182 -0.1858
  230MPD1    H5 3499   4.612   1.266  15.250  0.6264  1.5104  0.0075
  230MPD1    N1 3500   0.322   1.305  15.466 -0.2267 -0.0442  0.1939
  230MPD1    H6 3501   0.377   1.350  15.539  0.4836  1.7534 -1.4754
  230MPD1    H7 3502   0.336   1.366  15.386 -1.7338  1.0546  0.7783
  231MPD1     C 3503   2.359   3.170  15.122 -0.3440 -0.2720 -0.1162
  231MPD1    C1 3504   2.454   3.091  15.186  0.1340 -0.2322 -0.2266
  231MPD1    C2 3505   2.588   3.141  15.180 -0.7657  0.6519  0.8696
  231MPD1    C3 3506   2.613   3.268  15.124 -0.3754 -0.5456 -0.4381
  231MPD1    C4 3507   2.511   3.342  15.073 -0.0270 -1.4013 -0.4839
  231MPD1    C5 3508   2.383   3.288  15.065  0.3248 -0.6975 -0.0237
  231MPD1     H 3509   2.670   3.077  15.209 -0.5338 -0.2619 -1.7192
  231MPD1    H1 3510   2.534   3.430  15.014 -1.5412  0.6485  1.9715
  231MPD1    H2 3511   2.257   3.134  15.117  0.0799 -1.6022  1.0730
  231MPD1    H3 3512   2.303   3.334  15.008 -2.0366 -4.2169  0.4498
  231MPD1     N 3513   2.747   3.305  15.113 -0.0540 -0.0593  0.1612
  231MPD1    H5 3514   2.818   3.244  15.151  0.3902  0.6250  0.4137
  231MPD1    N1 3515   2.417   2.960  15.223  0.2889  0.1896  0.3887
  231MPD1    H6 3516   2.468   2.930  15.306 -0.2955  0.6030  0.9008
  231MPD1    H7 3517   2.323   2.948  15.260  0.1490  0.3321  0.0797
  232MPD1     C 3518   0.066   0.004   1.107  0.3407  0.1456  0.9091
  232MPD1    C1 3519   4.718   4.629   1.031 -0.5557  0.5874 -0.2119
  232MPD1    C2 3520   4.686   4.657   0.900  0.0823  0.3634  0.4613
  232MPD1    C3 3521   0.002   0.054   0.838 -0.5180 -0.0037 -0.0143
  232MPD1    C4 3522   0.079   0.138   0.919 -0.0358 -0.1761 -0.9892
  232MPD1    C5 3523   0.111   0.120   1.052 -0.1314 -0.1935  0.3419
  232MPD1     H 3524   4.635   4.583   0.839  0.9421 -0.4663  0.7659
  232MPD1    H1 3525   0.109   0.236   0.885 -2.3986  0.4715 -1.2074
  232MPD1    H2 3526   0.082   4.709   1.213 -0.9483  1.0625  1.2327
  232MPD1    H3 3527   0.176   0.186   1.108  1.1133  0.2369 -1.5831
  232MPD1     N 3528   4.693   0.074   0.700 -0.3125  0.5219  0.0366
  232MPD1    H5 3529   4.616   0.021   0.659  1.0566 -1.5850  0.1866
  232MPD1    N1 3530   4.651   4.522   1.104  0.3849  0.0044 -0.5272
  232MPD1    H6 3531   4.625   4.448   1.040 -0.3498 -0.0453 -0.1738
  232MPD1    H7 3532   4.708   4.482   1.179 -0.9101 -2.6770 -0.9869
  233MPD1     C 3533   0.255   0.520   1.346 -0.5687  0.8053 -0.2693
  233MPD1    C1 3534   0.384   0.540   1.372 -0.2447  1.2490  0.4771
  233MPD1    C2 3535   0.459   0.430   1.406 -0.3479 -0.4315  0.0220
  233MPD1    C3 3536   0.409   0.303   1.419 -0.1870  0.0671  0.4762
  233MPD1    C4 3537   0.281   0.285   1.372 -0.8513  0.2841 -0.4864
  233MPD1    C5 3538   0.205   0.396   1.347 -1.3214  0.4592  1.0554
  233MPD1     H 3539   0.563   0.450   1.429 -0.2368 -2.1669  0.9766
  233MPD1    H1 3540   0.233   0.187   1.370 -1.1214  0.4154 -0.4111
  233MPD1    H2 3541   0.200   0.610   1.321  4.4746  3.1472 -3.1131
  233MPD1    H3 3542   0.104   0.391   1.309 -1.0078  0.3180  0.2388
  233MPD1     N 3543   0.493   0.195   1.448  0.5118  0.1975  0.1898
  233MPD1    H5 3544   0.452   0.102   1.439 -3.1302  1.8318 -0.2578
  233MPD1    N1 3545   0.448   0.659   1.339 -0.2368  0.2963 -0.0227
  233MPD1    H6 3546   0.534   0.673   1.393 -1.6254  1.1968  1.9587
  233MPD1    H7 3547   0.394   0.744   1.353  1.3923  1.1000  1.4191
  234MPD1     C 3548   3.215   1.492  10.470  0.2708 -0.3186 -0.1542
  234MPD1    C1 3549   3.125   1.486  10.365  0.0357 -0.6123  0.5042
  234MPD1    C2 3550   3.096   1.603  10.290  0.2705  0.4132 -0.7857
  234MPD1    C3 3551   3.182   1.717  10.306 -0.0656  0.0234  0.1829
  234MPD1    C4 3552   3.277   1.718  10.402  0.0126 -0.7766 -0.0243
  234MPD1    C5 3553   3.288   1.609  10.481  0.1344 -1.2004 -0.4229
  234MPD1     H 3554   3.016   1.612  10.217 -0.0522 -1.7736 -0.6937
  234MPD1    H1 3555   3.345   1.801  10.416 -1.6067  0.5427  0.1062
  234MPD1    H2 3556   3.246   1.411  10.535  0.2296  1.3455  1.9423
  234MPD1    H3 3557   3.373   1.613  10.547  0.4060 -1.1829 -0.7722
  234MPD1     N 3558   3.159   1.829  10.221 -1.0675 -0.4054  0.4910
  234MPD1    H5 3559   3.096   1.803  10.146 -0.3540 -0.4257 -0.1083
  234MPD1    N1 3560   3.048   1.371  10.354  0.4113  0.2147 -0.2287
  234MPD1    H6 3561   3.011   1.354  10.261  0.6057 -1.2034 -0.0391
  234MPD1    H7 3562   3.106   1.295  10.386 -0.4591 -0.5124 -0.3867
  235MPD1     C 3563   0.131   2.801   8.551 -0.1790 -0.0208 -0.3888
  235MPD1    C1 3564   0.215   2.728   8.628  0.2029 -0.0558  0.3925
  235MPD1    C2 3565   0.208   2.592   8.599 -0.0148 -0.2643  0.4443
  235MPD1    C3 3566   0.120   2.535   8.504  0.2975 -0.4235 -0.1415
  235MPD1    C4 3567   0.042   2.618   8.435  0.5046 -0.0200  0.1036
  235MPD1    C5 3568   0.041   2.754   8.464 -0.0770 -0.1451 -0.3689
  235MPD1     H 3569   0.282   2.538   8.657 -0.4963 -0.4654  0.8682
  235MPD1    H1 3570   4.689   2.589   8.360 -0.8708 -1.6467  2.1101
  235MPD1    H2 3571   0.126   2.908   8.568 -1.4071  0.1773 -1.9677
  235MPD1    H3 3572   4.701   2.820   8.402  0.5731  0.8905  0.0994
  235MPD1     N 3573   0.120   2.394   8.492  0.5004 -0.4062 -0.7777
  235MPD1    H5 3574   0.185   2.337   8.546 -0.3704 -2.5557 -2.0021
  235MPD1    N1 3575   0.321   2.790   8.698 -0.1559 -0.3228  0.7536
  235MPD1    H6 3576   0.302   2.882   8.736 -0.2689  0.0457 -0.1897
  235MPD1    H7 3577   0.363   2.736   8.774 -1.6735  0.4578  2.1482
  236MPD1     C 3578   3.705   1.778   9.654 -0.0352  0.4361  0.0951
  236MPD1    C1 3579   3.783   1.900   9.660 -0.0278 -0.9549 -0.6135
  236MPD1    C2 3580   3.887   1.898   9.752 -0.6429 -1.1180 -0.3162
  236MPD1    C3 3581   3.901   1.794   9.853  0.3689 -0.2423 -0.5885
  236MPD1    C4 3582   3.816   1.686   9.847 -0.3612 -0.0035 -0.2493
  236MPD1    C5 3583   3.726   1.681   9.749 -0.5477 -0.3716  0.6531
  236MPD1     H 3584   3.962   1.976   9.745 -0.8798 -0.8636  0.0535
  236MPD1    H1 3585   3.819   1.605   9.920  0.5930  0.6471  0.4342
  236MPD1    H2 3586   3.630   1.768   9.576  0.4812  0.8801 -0.4554
  236MPD1    H3 3587   3.663   1.592   9.749  0.1729 -0.8796  0.1981
  236MPD1     N 3588   4.003   1.795   9.948 -0.1267 -0.4884 -0.1951
  236MPD1    H5 3589   4.011   1.717  10.012  0.1302 -0.9103 -0.7360
  236MPD1    N1 3590   3.769   1.997   9.566 -0.7486  0.0567 -0.4874
  236MPD1    H6 3591   3.821   2.080   9.594  0.6007 -1.3931  1.3100
  236MPD1    H7 3592   3.668   2.010   9.560 -0.7686 -1.0447 -2.5149
  237MPD1     C 3593   3.111   0.601  15.464  0.3000 -0.0900 -0.3776
  237MPD1    C1 3594   3.129   0.496  15.544  0.0782  0.5461 -0.2021
  237MPD1    C2 3595   3.084   0.374  15.500  0.3344 -0.1996  0.2279
  237MPD1    C3 3596   3.045   0.350  15.372  0.1436  0.5260  0.3156
  237MPD1    C4 3597   3.041   0.453  15.283 -0.0304 -0.2158 -0.1085
  237MPD1    C5 3598   3.073   0.578  15.336  0.7053  0.1309  0.4162
  237MPD1     H 3599   3.083   0.297  15.577  2.2081  0.0115  0.4583
  237MPD1    H1 3600   3.012   0.436  15.180 -0.9731  0.2357  0.0827
  237MPD1    H2 3601   3.137   0.702  15.495 -1.9803  0.1189  0.8436
  237MPD1    H3 3602   3.072   0.668  15.275 -1.5465  0.6295  1.1799
  237MPD1     N 3603   2.998   0.224  15.319 -0.6880  0.1904 -0.0926
  237MPD1    H5 3604   2.973   0.225  15.220  0.2824  2.3848 -0.3253
  237MPD1    N1 3605   3.159   0.519  15.680  0.1649 -0.9059  0.3706
  237MPD1    H6 3606   3.188   0.435  15.728  0.6726 -0.7101  0.4028
  237MPD1    H7 3607   3.217   0.602  15.693  1.1648 -1.2223 -2.1014
  238MPD1     C 3608   4.277   4.086  15.496 -0.0513  0.2511  0.2605
  238MPD1    C1 3609   4.363   4.054  15.391 -1.0355 -0.1148 -0.6674
  238MPD1    C2 3610   4.320   3.953  15.304  0.0250  0.1290 -0.0482
  238MPD1    C3 3611   4.225   3.865  15.332  0.0586 -0.5750 -0.2394
  238MPD1    C4 3612   4.153   3.886  15.445  0.1857 -0.1671  0.2931
  238MPD1    C5 3613   4.173   3.999  15.522 -0.0790 -0.2895  0.3787
  238MPD1     H 3614   4.389   3.949  15.221  0.8509  3.6719  0.4335
  238MPD1    H1 3615   4.071   3.818  15.464  0.4926 -1.4115 -2.7724
  238MPD1    H2 3616   4.296   4.173  15.557  1.7610 -0.4610  0.7190
  238MPD1    H3 3617   4.114   4.018  15.610 -0.0514 -0.8442  0.5141
  238MPD1     N 3618   4.195   3.743  15.252  0.0831 -0.5255  0.0870
  238MPD1    H5 3619   4.137   3.668  15.289 -1.7908  0.8638 -0.0419
  238MPD1    N1 3620   4.465   4.146  15.353 -0.6605 -0.7925 -0.1069
  238MPD1    H6 3621   4.514   4.183  15.434  0.0610  0.4824 -1.1158
  238MPD1    H7 3622   4.539   4.101  15.300 -0.9345 -0.8719 -0.4251
  239MPD1     C 3623   0.740   4.022  14.556  0.2684 -0.2968 -0.2502
  239MPD1    C1 3624   0.628   4.077  14.606  0.3616  0.3142 -0.1961
  239MPD1    C2 3625   0.546   4.151  14.526 -0.0392  0.3424 -0.1971
  239MPD1    C3 3626   0.560   4.160  14.390 -0.4171 -0.4563  1.0924
  239MPD1    C4 3627   0.667   4.102  14.337  0.4022 -0.4112 -0.4134
  239MPD1    C5 3628   0.756   4.037  14.421 -0.0290 -0.3534  0.4087
  239MPD1     H 3629   0.451   4.178  14.570 -0.2048  0.7653 -0.8100
  239MPD1    H1 3630   0.707   4.102  14.236  1.2310  0.6612 -0.0969
  239MPD1    H2 3631   0.810   3.976  14.624 -0.2962 -1.1174 -0.2190
  239MPD1    H3 3632   0.857   4.018  14.388  0.3868  0.9922  0.9052
  239MPD1     N 3633   0.473   4.232  14.306 -0.0065 -0.2084 -0.0085
  239MPD1    H5 3634   0.489   4.239  14.206  1.2488  2.0810  0.3507
  239MPD1    N1 3635   0.603   4.067  14.741  0.9463 -0.0867 -0.1007
  239MPD1    H6 3636   0.509   4.097  14.765  0.1300 -0.9050 -2.2571
  239MPD1    H7 3637   0.608   3.972  14.778  3.3443 -0.1901 -0.6793
  240MPD1     C 3638   0.171   3.183  14.065  0.1464  0.4241  0.3026
  240MPD1    C1 3639   0.118   3.287  13.994  0.1719  0.4805 -0.2088
  240MPD1    C2 3640   0.032   3.371  14.060 -0.5936  0.4207  0.2189
  240MPD1    C3 3641   0.013   3.367  14.195 -0.7435  0.4733 -0.3331
  240MPD1    C4 3642   0.081   3.270  14.265  0.5423  0.6093 -0.4600
  240MPD1    C5 3643   0.140   3.171  14.200 -0.0946 -0.1025 -0.3623
  240MPD1     H 3644   4.699   3.451  14.009  0.2670  1.1222  0.4154
  240MPD1    H1 3645   0.082   3.261  14.373 -0.0735 -3.2545 -0.7731
  240MPD1    H2 3646   0.237   3.114  14.013  0.3045  1.1122 -0.4098
  240MPD1    H3 3647   0.209   3.109  14.256  0.3138 -0.8752 -1.7294
  240MPD1     N 3648   4.658   3.465  14.247  0.0995 -0.1647 -0.8653
  240MPD1    H5 3649   4.605   3.529  14.189  0.1567 -0.3368 -1.1051
  240MPD1    N1 3650   0.119   3.301  13.852 -0.2688 -0.0981  0.0413
  240MPD1    H6 3651   0.202   3.262  13.809 -0.9475 -0.9116 -0.5470
  240MPD1    H7 3652   0.110   3.401  13.834  0.9786  0.2998  1.6661
  241MPD1     C 3653   4.252   4.368  14.188 -0.0479  0.0999  0.1073
  241MPD1    C1 3654   4.326   4.298  14.098  0.4966  0.1521 -0.4626
  241MPD1    C2 3655   4.358   4.167  14.124  0.2838 -0.2724  0.6916
  241MPD1    C3 3656   4.313   4.110  14.237 -0.2684  0.2068  0.1268
  241MPD1    C4 3657   4.234   4.187  14.329 -0.4633 -0.6882 -0.2333
  241MPD1    C5 3658   4.210   4.318  14.304  0.2511 -0.2139  0.1052
  241MPD1     H 3659   4.409   4.104  14.052 -3.2826 -0.0552 -2.0257
  241MPD1    H1 3660   4.209   4.139  14.423 -0.1213  0.3492  0.3883
  241MPD1    H2 3661   4.229   4.474  14.179  2.4947  0.6038 -0.3799
  241MPD1    H3 3662   4.158   4.391  14.365 -0.8205 -1.7446  1.0151
  241MPD1     N 3663   4.347   3.975  14.274 -0.2139 -0.3598 -0.3732
  241MPD1    H5 3664   4.305   3.926  14.352  3.7298 -2.5300  0.4062
  241MPD1    N1 3665   4.369   4.356  13.977  0.5775 -0.0978  0.4920
  241MPD1    H6 3666   4.367   4.456  13.994  1.4885 -0.2591  1.5306
  241MPD1    H7 3667   4.466   4.327  13.965  0.4454 -0.0801 -0.6147
  242MPD1     C 3668   4.016   2.500  15.711 -0.9407 -0.0296  0.6773
  242MPD1    C1 3669   3.937   2.524  15.601  0.0104 -1.0473 -0.0964
  242MPD1    C2 3670   3.935   2.431  15.495 -0.0634  0.2780 -0.4799
  242MPD1    C3 3671   4.007   2.314  15.501  0.8666  0.5495  0.9110
  242MPD1    C4 3672   4.089   2.293  15.607 -0.0710  0.0638  0.0636
  242MPD1    C5 3673   4.104   2.388  15.705 -0.6832 -0.3391 -0.5796
  242MPD1     H 3674   3.874   2.455  15.409  0.1456 -0.5115 -0.8536
  242MPD1    H1 3675   4.146   2.200  15.609 -0.3097 -0.0881 -0.3448
  242MPD1    H2 3676   4.019   2.569  15.794  0.7161  0.2797  0.3646
  242MPD1    H3 3677   4.164   2.362  15.792  1.0015  1.4591 -1.2236
  242MPD1     N 3678   4.001   2.224  15.394  0.2968  0.7611 -0.0517
  242MPD1    H5 3679   4.043   2.133  15.411  0.3545  1.0049  1.0948
  242MPD1    N1 3680   3.857   2.635  15.596  0.4107 -0.1314  0.3604
  242MPD1    H6 3681   3.854   2.677  15.503 -0.6621 -1.9146 -0.4031
  242MPD1    H7 3682   3.876   2.707  15.666  2.2442  0.0046 -0.2588
  243MPD1     C 3683   1.424   1.669  17.125  0.6414  0.5092 -0.3164
  243MPD1    C1 3684   1.397   1.583  17.231  0.3537 -0.1994  0.2006
  243MPD1    C2 3685   1.373   1.456  17.194  0.2910 -0.0508  0.2947
  243MPD1    C3 3686   1.350   1.412  17.063 -0.1684 -0.1662  0.3203
  243MPD1    C4 3687   1.370   1.493  16.957  0.2149 -0.1619  0.1128
  243MPD1    C5 3688   1.408   1.621  16.995 -0.1743 -0.3840 -0.3491
  243MPD1     H 3689   1.358   1.377  17.267 -2.5727 -0.4659 -0.7371
  243MPD1    H1 3690   1.348   1.470  16.853 -1.5182  2.7463 -0.1709
  243MPD1    H2 3691   1.424   1.776  17.141  1.0443  0.2660  1.3889
  243MPD1    H3 3692   1.428   1.697  16.919 -2.8410  0.3422 -0.3064
  243MPD1     N 3693   1.312   1.272  17.052 -0.0559 -0.1694  0.1844
  243MPD1    H5 3694   1.285   1.223  17.137  0.5736  2.9294  2.1531
  243MPD1    N1 3695   1.425   1.619  17.364  0.1061 -0.4772  0.2479
  243MPD1    H6 3696   1.403   1.717  17.379 -0.4973 -0.6382  0.4320
  243MPD1    H7 3697   1.375   1.574  17.440 -1.8411 -0.8216 -1.2393
  244MPD1     C 3698   1.486   0.603  17.596 -0.4531  0.0908 -0.0600
  244MPD1    C1 3699   1.477   0.745  17.589  0.0553  0.2446  0.0081
  244MPD1    C2 3700   1.454   0.797  17.468  0.6350  0.5406  0.6498
  244MPD1    C3 3701   1.418   0.723  17.359 -0.2138 -0.5057  0.2033
  244MPD1    C4 3702   1.407   0.583  17.368 -0.0942  0.5248 -0.2504
  244MPD1    C5 3703   1.457   0.528  17.488  0.5974 -0.0100  0.7828
  244MPD1     H 3704   1.472   0.903  17.458  1.4407  0.2876 -0.5833
  244MPD1    H1 3705   1.381   0.506  17.297 -2.6473  1.1098  0.0206
  244MPD1    H2 3706   1.511   0.551   0.004 -1.7781 -1.8864 -0.8401
  244MPD1    H3 3707   1.468   0.421  17.498 -1.5551 -0.1146  1.9689
  244MPD1     N 3708   1.406   0.790  17.234 -0.5857  0.0191  0.7054
  244MPD1    H5 3709   1.425   0.890  17.244  2.0602 -0.6459  2.3937
  244MPD1    N1 3710   1.545   0.818   0.004 -0.2296  0.6995 -0.2458
  244MPD1    H6 3711   1.534   0.772   0.094  0.7543  2.5051  0.8140
  244MPD1    H7 3712   1.517   0.916   0.013  2.1776  1.0206  3.8435
  245MPD1     C 3713   2.878   1.804  12.955  0.1964 -0.5443  0.5355
  245MPD1    C1 3714   2.827   1.897  13.050 -0.2488 -0.5472  0.1379
  245MPD1    C2 3715   2.908   2.003  13.078 -0.0748  0.5537 -0.4801
  245MPD1    C3 3716   3.017   2.027  13.003 -0.2920 -0.7644 -0.6337
  245MPD1    C4 3717   3.057   1.946  12.902  0.1862 -0.2097 -0.3027
  245MPD1    C5 3718   2.987   1.835  12.880  0.0573  0.1940  0.2947
  245MPD1     H 3719   2.890   2.076  13.156  0.5004  2.2429 -1.9168
  245MPD1    H1 3720   3.144   1.974  12.843  0.9796 -2.6159 -0.2584
  245MPD1    H2 3721   2.837   1.708  12.925  1.4797 -1.2299  0.9406
  245MPD1    H3 3722   3.020   1.778  12.795 -2.6258 -0.5442 -0.2631
  245MPD1     N 3723   3.099   2.140  13.046 -0.5124  0.6464  0.3877
  245MPD1    H5 3724   3.046   2.217  13.085 -1.4474  0.8315 -1.2404
  245MPD1    N1 3725   2.721   1.867  13.138 -0.8032 -0.1814  0.2415
  245MPD1    H6 3726   2.678   1.947  13.183  0.5323  0.0348  1.1465
  245MPD1    H7 3727   2.659   1.791  13.110  1.3350 -2.1095  0.7084
  246MPD1     C 3728   0.681   3.065   9.308  0.9090 -0.0795  0.1970
  246MPD1    C1 3729   0.730   2.958   9.381 -0.0635 -0.5076  0.6562
  246MPD1    C2 3730   0.639   2.852   9.412  0.0400  0.0322  0.4181
  246MPD1    C3 3731   0.505   2.856   9.367 -0.2462  0.6535 -0.6456
  246MPD1    C4 3732   0.464   2.975   9.309 -0.3350  0.4261 -0.0401
  246MPD1    C5 3733   0.549   3.075   9.276 -0.1045  0.1315  0.0768
  246MPD1     H 3734   0.674   2.761   9.458  0.4286  0.2703  0.5937
  246MPD1    H1 3735   0.360   2.983   9.279 -0.1872 -0.4696 -0.8110
  246MPD1    H2 3736   0.750   3.140   9.271 -0.9848  1.3373 -0.4594
  246MPD1    H3 3737   0.516   3.169   9.235 -1.9174 -0.2979  0.5720
  246MPD1     N 3738   0.421   2.749   9.399  0.0046 -0.0706 -1.0709
  246MPD1    H5 3739   0.475   2.680   9.451 -0.2281  0.7934  0.3357
  246MPD1    N1 3740   0.856   2.968   9.448 -0.5330 -0.1049  0.3931
  246MPD1    H6 3741   0.895   2.879   9.479  0.4659  0.5921  1.0917
  246MPD1    H7 3742   0.919   3.031   9.399  0.6775 -0.8161  1.0519
  247MPD1     C 3743   1.189   1.128  16.032  0.6463  0.1381  0.2815
  247MPD1    C1 3744   1.261   1.215  15.959 -0.7178 -0.1382  0.4989
  247MPD1    C2 3745   1.385   1.174  15.915  0.6226  0.2463  0.4193
  247MPD1    C3 3746   1.431   1.049  15.941 -0.2036 -0.1428 -0.3024
  247MPD1    C4 3747   1.357   0.954  16.005  0.1808 -0.0004 -0.3434
  247MPD1    C5 3748   1.235   1.002  16.050 -0.2365 -0.2730 -0.6646
  247MPD1     H 3749   1.448   1.243  15.859  0.0918  0.2514 -0.1829
  247MPD1    H1 3750   1.386   0.851  16.025  0.6134  0.0371 -0.7936
  247MPD1    H2 3751   1.093   1.157  16.071 -0.3076 -1.2591 -1.0417
  247MPD1    H3 3752   1.172   0.935  16.107  1.7311 -0.7350  0.9954
  247MPD1     N 3753   1.564   1.006  15.906 -0.3557 -0.9318  0.0939
  247MPD1    H5 3754   1.594   0.911  15.928  1.4188 -0.4847 -0.4165
  247MPD1    N1 3755   1.217   1.346  15.942  0.2280 -0.0356 -1.0961
  247MPD1    H6 3756   1.242   1.398  15.858  0.0860  3.5697  1.1009
  247MPD1    H7 3757   1.121   1.363  15.972  0.3476 -0.3092 -0.5581
  248MPD1     C 3758   1.939   0.977  16.632  0.4208 -0.2807 -0.1299
  248MPD1    C1 3759   1.929   0.886  16.736  0.2723 -0.4261  0.5965
  248MPD1    C2 3760   1.966   0.932  16.865 -0.4113 -0.4821 -0.0049
  248MPD1    C3 3761   2.012   1.059  16.886  0.5950 -0.6528  0.7632
  248MPD1    C4 3762   2.026   1.144  16.774  0.7048 -0.4664  0.3135
  248MPD1    C5 3763   1.995   1.103  16.651  0.4893 -0.0354  0.2018
  248MPD1     H 3764   1.931   0.874  16.950  0.2806  1.1817  1.4279
  248MPD1    H1 3765   2.071   1.242  16.786  0.5321 -0.2846 -0.5783
  248MPD1    H2 3766   1.905   0.947  16.534 -1.1462  1.4629 -0.1195
  248MPD1    H3 3767   2.012   1.154  16.557  0.0853  0.7316  0.5500
  248MPD1     N 3768   2.040   1.104  17.024  0.1119  0.0728 -0.2342
  248MPD1    H5 3769   2.028   1.034  17.097 -3.1726 -0.2310 -1.0284
  248MPD1    N1 3770   1.853   0.767  16.719 -0.4510  0.0176  0.1840
  248MPD1    H6 3771   1.887   0.714  16.639  2.0896  0.1125  1.1843
  248MPD1    H7 3772   1.859   0.706  16.800  0.8344 -1.2889 -0.8833
  249MPD1     C 3773   0.385   4.119  10.422  0.5413 -0.4803 -0.5194
  249MPD1    C1 3774   0.438   4.227  10.351  0.6618 -0.7194  1.3954
  249MPD1    C2 3775   0.365   4.282  10.244  0.3753  0.1055  0.0635
  249MPD1    C3 3776   0.232   4.249  10.224  1.1034  0.4905 -0.0861
  249MPD1    C4 3777   0.176   4.153  10.305  0.3294  0.0494  0.1527
  249MPD1    C5 3778   0.254   4.084  10.397  0.7248  0.0001  0.6774
  249MPD1     H 3779   0.415   4.353  10.178 -0.8740  2.4598  1.6391
  249MPD1    H1 3780   0.068   4.141  10.305  0.5078 -1.5611  2.7719
  249MPD1    H2 3781   0.450   4.068  10.492 -0.9930  0.3664  1.5252
  249MPD1    H3 3782   0.201   4.011  10.458 -0.2724  0.6998  0.6564
  249MPD1     N 3783   0.162   4.314  10.124  0.1647 -0.0691 -0.3002
  249MPD1    H5 3784   0.215   4.391  10.085  0.4772 -0.5562 -0.8359
  249MPD1    N1 3785   0.566   4.275  10.378 -0.1323  0.2073  0.3578
  249MPD1    H6 3786   0.600   4.253  10.471  2.1204  0.5636 -0.3887
  249MPD1    H7 3787   0.573   4.376  10.364  0.2626  0.1865  0.4071
  250MPD2     C 3788   0.957   0.273  13.600  0.2263 -0.3599 -0.5677
  250MPD2    C1 3789   1.017   0.293  13.474 -0.0474  0.4757 -0.4514
  250MPD2    C2 3790   1.000   0.209  13.368  0.9522  0.8585 -0.0180
  250MPD2    C3 3791   0.918   0.101  13.385  0.2117 -0.7495  0.0581
  250MPD2    C4 3792   0.854   0.083  13.506  0.3677  0.2294 -0.6192
  250MPD2    C5 3793   0.871   0.169  13.613  0.0644  0.2594  0.1751
  250MPD2     H 3794   1.054   0.229  13.276  1.0160 -1.0826 -0.4052
  250MPD2    H1 3795   0.778   0.005  13.516  0.5536  0.3844  1.9575
  250MPD2    H2 3796   0.967   0.347  13.679  3.4954  0.0903 -1.4005
  250MPD2    H3 3797   0.819   0.136  13.702 -0.1050  2.4511  0.8929
  250MPD2     N 3798   0.894   0.006  13.284 -0.2070  0.4983 -0.2145
  250MPD2    H5 3799   0.844   4.645  13.320 -2.2469  1.6360 -0.4936
  250MPD2    N1 3800   1.114   0.399  13.449  0.5447 -0.3438 -0.0779
  250MPD2    H7 3801   1.137   0.405  13.351  3.2360 -1.3630  0.4954
  251TMC3    C1 3802   1.258   0.573  13.462 -0.7739  0.3046 -0.0737
  251TMC3    C2 3803   1.282   0.694  13.521  0.5952 -0.1547 -0.2421
  251TMC3    C3 3804   1.345   0.788  13.444  0.0689  0.0879 -0.2398
  251TMC3    C4 3805   1.306   0.537  13.337  0.1424 -0.1085 -0.1969
  251TMC3    C5 3806   1.372   0.635  13.269 -0.0576  0.1952 -0.3508
  251TMC3    C6 3807   1.383   0.765  13.312 -0.3155 -0.1048 -0.0126
  251TMC3     C 3808   1.174   0.484  13.541  0.5456 -0.1792 -1.1184
  251TMC3     O 3809   1.154   0.507  13.660  0.2703  0.0449 -0.6595
  251TMC3     H 3810   1.236   0.722  13.615 -1.4169  0.5902 -1.4584
  251TMC3    H1 3811   1.292   0.439  13.293  1.9866  0.0060 -1.0470
  251TMC3    H2 3812   1.420   0.840  13.244 -0.5749  3.4270  3.7485
  251TMC3    C7 3813   1.430   0.600  13.143 -0.4018  0.6004 -0.5918
  251TMC3    C8 3814   1.338   0.925  13.490 -0.0086 -0.7280 -0.2074
  251TMC3    O1 3815   1.390   0.490  13.097 -0.0127 -0.3569  0.2192
  251TMC3    O2 3816   1.327   0.949  13.613  0.1670 -0.2060 -0.4190
  252TMC3    C1 3817   2.370   4.380   9.581  0.2376 -0.2548 -0.3574
  252TMC3    C2 3818   2.422   4.503   9.535 -0.5901  0.1261 -0.2815
  252TMC3    C3 3819   2.482   4.499   9.410  0.2819 -0.1790  0.2651
  252TMC3    C4 3820   2.371   4.266   9.511  0.2089 -0.3410 -0.0808
  252TMC3    C5 3821   2.447   4.269   9.393  0.5791 -0.5016 -0.6403
  252TMC3    C6 3822   2.508   4.384   9.344 -0.2571 -0.3305 -0.5030
  252TMC3     C 3823   2.317   4.369   9.714  0.4348  0.6643  0.6097
  252TMC3     O 3824   2.309   4.253   9.756  0.3679 -0.8653  0.1225
  252TMC3     H 3825   2.416   4.592   9.595 -0.8901 -1.1558  1.5933
  252TMC3    H1 3826   2.323   4.177   9.550 -1.3672  0.3073 -0.5360
  252TMC3    H2 3827   2.577   4.368   9.262 -0.5879  0.7463 -0.9938
  252TMC3    C7 3828   2.522   4.141   9.379 -0.1812 -0.5947  0.2416
  252TMC3    C8 3829   2.541   4.614   9.350 -1.2123  0.0220  0.3978
  252TMC3    O1 3830   2.640   4.148   9.334 -0.1508  1.0157  0.3727
  252TMC3    O2 3831   2.611   4.602   9.249  0.1176  0.5525 -0.0327
  253MPD2     C 3832   2.562   0.110  15.289  0.0513 -0.2585  0.0581
  253MPD2    C1 3833   2.427   0.076  15.272  0.1135 -0.1354  0.3418
  253MPD2    C2 3834   2.376   4.709  15.368  0.0971 -0.5217 -0.6576
  253MPD2    C3 3835   2.435   4.673  15.488  0.7572  0.7898  0.0335
  253MPD2    C4 3836   2.563   4.713  15.501 -0.1536  0.0994 -0.3082
  253MPD2    C5 3837   2.626   0.069  15.402  0.0173  1.1101 -0.1424
  253MPD2     H 3838   2.274   4.680  15.349  0.1313 -0.6796 -0.5967
  253MPD2    H1 3839   2.622   4.711  15.592 -1.5691 -1.8885  0.5664
  253MPD2    H2 3840   2.609   0.175  15.216  1.1699  0.6993  1.6170
  253MPD2    H3 3841   2.725   0.110  15.419  0.1823  0.8844 -0.5447
  253MPD2     N 3842   2.363   4.625  15.599  0.1272 -0.5023 -0.0047
  253MPD2    H5 3843   2.415   4.628  15.686 -0.4789  0.2685  0.3380
  253MPD2    N1 3844   2.346   0.117  15.170  0.7758  0.0821  0.3393
  253MPD2    H7 3845   2.249   0.091  15.185  0.4763  0.8336 -0.3009
  254TMC3    C1 3846   2.183   4.576  15.745 -0.5418  0.2512  0.4399
  254TMC3    C2 3847   2.062   4.615  15.782  0.2576  0.3744 -0.1429
  254TMC3    C3 3848   2.026   4.587  15.915  0.1802 -0.7506  0.6403
  254TMC3    C4 3849   2.271   4.513  15.828  0.6147 -0.0255 -0.2742
  254TMC3    C5 3850   2.227   4.476  15.946 -0.2000 -0.7363 -0.8258
  254TMC3    C6 3851   2.108   4.509  15.991  0.4617  0.1933 -0.2677
  254TMC3     C 3852   2.227   4.615  15.610 -0.2259 -0.6820  0.1885
  254TMC3     O 3853   2.137   4.627  15.525 -0.3620  0.5811  0.3001
  254TMC3     H 3854   2.002   4.658  15.701  0.4029  1.0149  0.0865
  254TMC3    H1 3855   2.370   4.483  15.798  1.1371  1.1709  0.2404
  254TMC3    H2 3856   2.071   4.485  16.090  0.0748  0.9869 -0.2171
  254TMC3    C7 3857   2.315   4.417  16.047 -0.1034 -0.7508  0.2500
  254TMC3    C8 3858   1.917   4.659  15.983 -1.3648 -0.4567 -0.4842
  254TMC3    O1 3859   2.264   4.352  16.142  0.6419 -0.5941  0.2745
  254TMC3    O2 3860   1.868   4.626  16.088  0.1372  0.0651 -0.7694
  255MPD2     C 3861   0.961   3.300   9.392 -0.0071  1.0975 -0.2929
  255MPD2    C1 3862   1.061   3.235   9.330  0.5477  0.2691 -0.1819
  255MPD2    C2 3863   1.158   3.184   9.409 -0.3789  0.7326 -0.3459
  255MPD2    C3 3864   1.155   3.203   9.551 -0.1061 -0.2918 -0.4587
  255MPD2    C4 3865   1.051   3.266   9.610 -0.5021  0.2773  0.0170
  255MPD2    C5 3866   0.952   3.313   9.527 -0.0375  0.2387 -0.1395
  255MPD2     H 3867   1.235   3.118   9.370 -0.6185  0.7707 -0.8782
  255MPD2    H1 3868   1.039   3.296   9.713  1.0002  0.1764  0.2214
  255MPD2    H2 3869   0.877   3.345   9.342  0.4922  0.9091 -1.2965
  255MPD2    H3 3870   0.864   3.359   9.571 -1.6186 -1.6237 -1.3500
  255MPD2     N 3871   1.268   3.154   9.626  0.7958 -0.4030 -0.2442
  255MPD2    H5 3872   1.346   3.113   9.576  1.6788 -1.4888  1.9793
  255MPD2    N1 3873   1.042   3.220   9.190  0.1677 -0.4036 -0.1851
  255MPD2    H7 3874   0.956   3.252   9.147 -0.5861 -2.0859  0.0597
  256TMC3    C1 3875   1.087   3.141   8.972  0.1387  0.0962 -0.2111
  256TMC3    C2 3876   1.184   3.127   8.879 -0.1946 -0.2221 -0.2810
  256TMC3    C3 3877   1.186   3.012   8.800 -0.1028 -0.0575  0.1470
  256TMC3    C4 3878   0.981   3.052   8.981 -0.6870 -0.4761 -0.5524
  256TMC3    C5 3879   0.998   2.933   8.911 -0.2446 -0.4993 -0.2554
  256TMC3    C6 3880   1.089   2.921   8.808 -0.4073  0.2301 -0.3346
  256TMC3     C 3881   1.141   3.166   9.107 -0.4498 -0.9188  0.5938
  256TMC3     O 3882   1.258   3.141   9.139 -0.5292  0.2237 -0.2128
  256TMC3     H 3883   1.272   3.189   8.875 -1.7814  2.0985  0.6307
  256TMC3    H1 3884   0.912   3.053   9.065 -0.6682 -0.4070 -0.5379
  256TMC3    H2 3885   1.075   2.840   8.738 -0.4038 -0.8403  0.8894
  256TMC3    C7 3886   0.968   2.810   8.978  0.5238 -0.2404 -0.6445
  256TMC3    C8 3887   1.305   2.991   8.723  0.6973  0.0895  0.2491
  256TMC3    O1 3888   1.057   2.724   8.975  0.2234  0.3765  0.1025
  256TMC3    O2 3889   1.370   3.084   8.672 -0.2609  0.1344  0.0639
  257MPD2     C 3890   0.292   0.401  13.313 -0.2902 -0.2138 -0.0565
  257MPD2    C1 3891   0.277   0.311  13.204 -0.4010 -0.6197  0.5381
  257MPD2    C2 3892   0.212   0.186  13.221 -0.1036  0.0082  0.1469
  257MPD2    C3 3893   0.161   0.158  13.344 -0.2849  0.3298  0.3415
  257MPD2    C4 3894   0.177   0.251  13.447 -0.6077 -0.0473  0.1317
  257MPD2    C5 3895   0.240   0.369  13.435 -0.5853 -0.1691 -0.0963
  257MPD2     H 3896   0.210   0.119  13.135 -1.9266  0.3189 -0.0612
  257MPD2    H1 3897   0.150   0.237  13.551  1.1120  0.1474  0.6046
  257MPD2    H2 3898   0.351   0.491  13.304 -1.0054  0.3199  0.5496
  257MPD2    H3 3899   0.250   0.438  13.517 -0.3648 -0.6751  0.3029
  257MPD2     N 3900   0.111   0.029  13.362  0.4484  0.4858 -0.2790
  257MPD2    H5 3901   0.098   4.687  13.282  1.1253 -0.3597  0.2586
  257MPD2    N1 3902   0.328   0.350  13.078  0.1666 -0.6845 -0.1225
  257MPD2    H7 3903   0.298   0.290  13.001 -1.8353  1.7397 -1.2741
  258TMC3    C1 3904   0.063   4.553  13.490 -0.0116 -0.2357  0.2618
  258TMC3    C2 3905   0.119   4.475  13.394  0.1174 -0.0234 -0.0594
  258TMC3    C3 3906   0.129   4.340  13.418  0.2171  0.3066  0.1099
  258TMC3    C4 3907   0.031   4.503  13.613 -0.0674  0.2385 -0.0893
  258TMC3    C5 3908   0.052   4.369  13.632  0.3792  0.9671 -0.0632
  258TMC3    C6 3909   0.102   4.281  13.539 -0.0622 -0.1690 -0.1317
  258TMC3     C 3910   0.057   4.697  13.477 -0.8170  0.3577 -0.1093
  258TMC3     O 3911   0.036   0.039  13.580 -0.1852 -0.1738 -0.5669
  258TMC3     H 3912   0.161   4.518  13.303  1.5529 -3.1684 -0.8762
  258TMC3    H1 3913   4.713   4.564  13.694  0.3680 -0.9470  1.0098
  258TMC3    H2 3914   0.101   4.174  13.553  1.9552 -0.0266  1.1073
  258TMC3    C7 3915   0.014   4.311  13.760 -0.0110 -0.2575 -0.6308
  258TMC3    C8 3916   0.173   4.247  13.319  0.1588 -0.4111  0.3769
  258TMC3    O1 3917   4.640   4.353  13.818  0.1204 -0.3046  0.1574
  258TMC3    O2 3918   0.171   4.126  13.345  0.1487  0.2320  0.3925
  259MPD2     C 3919   3.397   1.203   0.554 -0.0220  0.1393 -0.2944
  259MPD2    C1 3920   3.477   1.189   0.662  0.3155 -0.1310  0.1165
  259MPD2    C2 3921   3.610   1.183   0.646  0.1562  0.6873 -0.1000
  259MPD2    C3 3922   3.671   1.184   0.524 -0.2377  0.1018 -0.1395
  259MPD2    C4 3923   3.585   1.191   0.415 -0.1093  0.5464  0.2844
  259MPD2    C5 3924   3.448   1.205   0.429 -0.0713  0.1979  0.2707
  259MPD2     H 3925   3.671   1.167   0.734 -0.0135  0.6089  0.0014
  259MPD2    H1 3926   3.616   1.173   0.313 -1.9811  2.0515 -0.5672
  259MPD2    H2 3927   3.295   1.239   0.565 -0.6815 -0.8999 -3.1329
  259MPD2    H3 3928   3.390   1.185   0.339  2.4058 -0.7651 -1.1192
  259MPD2     N 3929   3.808   1.157   0.510  0.3567  0.2101  0.1199
  259MPD2    H5 3930   3.858   1.141   0.597 -1.2272  0.1884  1.0237
  259MPD2    N1 3931   3.415   1.198   0.787  0.3856  0.5104 -0.1871
  259MPD2    H7 3932   3.318   1.225   0.785 -0.5029 -2.5085  1.8966
  260TMC3    C1 3933   4.013   1.106   0.422 -0.1357  0.2195 -1.1643
  260TMC3    C2 3934   4.103   1.145   0.329  0.2913 -0.0177 -0.2594
  260TMC3    C3 3935   4.235   1.088   0.339  0.8434 -0.3958  0.8505
  260TMC3    C4 3936   4.045   1.024   0.524  0.3889  0.0326  0.0099
  260TMC3    C5 3937   4.174   0.974   0.534 -0.1438 -0.5041 -0.5431
  260TMC3    C6 3938   4.270   1.009   0.444 -0.1954  0.1610 -0.3856
  260TMC3     C 3939   3.874   1.135   0.391  0.2182 -0.2046 -0.2201
  260TMC3     O 3940   3.836   1.158   0.276 -0.3968  0.2919 -0.8987
  260TMC3     H 3941   4.079   1.217   0.252  0.4652 -1.9801 -2.1450
  260TMC3    H1 3942   3.972   0.977   0.589  2.0977 -0.9976  1.1770
  260TMC3    H2 3943   4.368   0.964   0.455 -0.4199 -0.3098 -0.2902
  260TMC3    C7 3944   4.188   0.827   0.564  0.1301 -0.3664 -0.7876
  260TMC3    C8 3945   4.272   1.038   0.205  0.0943  0.5416 -0.1627
  260TMC3    O1 3946   4.291   0.782   0.612 -0.5393 -0.4238 -0.2158
  260TMC3    O2 3947   4.225   1.084   0.105  0.1633  0.1056  0.0484
  261MPD2     C 3948   0.876   4.606  12.432  0.0614 -1.0520 -0.5584
  261MPD2    C1 3949   0.919   4.687  12.535  0.4185  0.9378 -0.4374
  261MPD2    C2 3950   0.976   0.088  12.507  0.6724  0.2602 -0.4459
  261MPD2    C3 3951   1.010   0.124  12.378  0.4539 -0.1923  0.7782
  261MPD2    C4 3952   0.974   0.040  12.279 -0.3056  1.0975  0.3487
  261MPD2    C5 3953   0.907   4.641  12.304 -0.2379 -0.3798 -0.2764
  261MPD2     H 3954   0.998   0.157  12.587 -1.4259  1.4905 -0.9405
  261MPD2    H1 3955   1.003   0.063  12.177 -1.0925 -1.8074 -0.5431
  261MPD2    H2 3956   0.822   4.513  12.445  0.7047 -1.3810 -0.2074
  261MPD2    H3 3957   0.890   4.581  12.216 -0.4240 -2.0910  0.9272
  261MPD2     N 3958   1.079   0.240  12.349 -0.4395  0.2809 -0.3294
  261MPD2    H5 3959   1.122   0.237  12.257  0.9367  1.8142  0.2650
  261MPD2    N1 3960   0.913   4.647  12.669  0.3564 -0.5143 -0.4095
  261MPD2    H7 3961   0.955   4.711  12.735  0.6759 -1.2766  0.1181
  262TMC3    C1 3962   1.175   0.451  12.364 -0.2708 -0.3005 -0.2390
  262TMC3    C2 3963   1.145   0.580  12.373 -0.1484 -0.1597 -0.0846
  262TMC3    C3 3964   1.210   0.666  12.293  0.1193  0.0279  0.6840
  262TMC3    C4 3965   1.279   0.405  12.282 -0.4964  0.1855 -0.1991
  262TMC3    C5 3966   1.330   0.494  12.191  0.2104  0.4730 -0.5000
  262TMC3    C6 3967   1.304   0.626  12.210 -0.5913  0.6511  0.1685
  262TMC3     C 3968   1.092   0.356  12.424 -0.2678  0.0712  0.2407
  262TMC3     O 3969   1.012   0.395  12.510 -0.1544 -0.0520  0.4602
  262TMC3     H 3970   1.056   0.606  12.429  0.8268  2.4205  0.2458
  262TMC3    H1 3971   1.306   0.300  12.278 -1.0801 -0.0396  1.6033
  262TMC3    H2 3972   1.346   0.695  12.137 -0.4280  0.6419  0.2536
  262TMC3    C7 3973   1.305   0.440  12.055  0.2819 -0.2222 -0.2601
  262TMC3    C8 3974   1.121   0.748  12.216 -0.5489  0.7840 -0.1679
  262TMC3    O1 3975   1.243   0.333  12.045 -0.3158  0.2280 -0.2815
  262TMC3    O2 3976   1.161   0.862  12.193 -0.4259  0.0616 -0.6482
  263MPD2     C 3977   1.941   3.953  11.159  0.4983 -0.1852  0.7149
  263MPD2    C1 3978   1.941   4.079  11.215  0.3673 -0.5331  0.4511
  263MPD2    C2 3979   2.025   4.177  11.161  0.1201  0.2397  0.2838
  263MPD2    C3 3980   2.109   4.153  11.050  0.7205 -0.2380 -1.0184
  263MPD2    C4 3981   2.119   4.028  11.003  0.3109  0.1609  0.2438
  263MPD2    C5 3982   2.034   3.936  11.060  0.5374  0.1438 -0.3294
  263MPD2     H 3983   2.025   4.279  11.200 -1.5962  0.3062  0.1387
  263MPD2    H1 3984   2.193   3.994  10.932  0.0833 -2.0093  1.0568
  263MPD2    H2 3985   1.884   3.868  11.194 -0.4164 -0.2545 -0.9481
  263MPD2    H3 3986   2.046   3.833  11.027  0.2397  0.1603 -0.4916
  263MPD2     N 3987   2.191   4.258  11.001  0.4162  0.4325  0.5931
  263MPD2    H5 3988   2.201   4.339  11.061  3.0147  0.0986  0.6234
  263MPD2    N1 3989   1.859   4.096  11.334 -0.1022 -0.6685  0.0668
  263MPD2    H7 3990   1.792   4.021  11.347 -0.0147 -0.8592 -0.5749
  264TMC3    C1 3991   2.356   4.362  10.859  0.6207  0.3548 -0.0273
  264TMC3    C2 3992   2.331   4.476  10.931  0.0169 -0.2850  0.3247
  264TMC3    C3 3993   2.419   4.574  10.905  0.1905 -0.1577 -0.1160
  264TMC3    C4 3994   2.465   4.344  10.778 -0.0987  0.3134  0.7444
  264TMC3    C5 3995   2.546   4.448  10.751  0.3512  0.8419 -0.0391
  264TMC3    C6 3996   2.527   4.562  10.826  0.7061  0.2815  0.1509
  264TMC3     C 3997   2.277   4.246  10.886 -0.4513 -0.1926 -0.0232
  264TMC3     O 3998   2.296   4.149  10.812  0.3395  0.1871  0.4642
  264TMC3     H 3999   2.239   4.498  10.982  0.1819  2.2848 -0.4829
  264TMC3    H1 4000   2.478   4.254  10.719  0.3813  0.0366  1.2712
  264TMC3    H2 4001   2.609   4.630  10.845 -0.3096  1.3129  0.8299
  264TMC3    C7 4002   2.633   4.454  10.641 -0.2654 -0.7852 -0.6461
  264TMC3    C8 4003   2.389   4.714  10.928 -0.9161  0.3418  0.1367
  264TMC3    O1 4004   2.684   4.353  10.596 -0.0545  0.3387  0.1666
  264TMC3    O2 4005   2.447   0.072  10.856  0.6246  0.1976 -0.7246
  265MPD2     C 4006   3.537   4.549  15.296 -0.2790  0.5987 -0.3802
  265MPD2    C1 4007   3.641   4.636  15.272  0.2782 -0.2906  0.2577
  265MPD2    C2 4008   3.743   4.607  15.184 -0.6804  0.0206  0.0261
  265MPD2    C3 4009   3.741   4.480  15.124  0.6543  0.3022 -0.4517
  265MPD2    C4 4010   3.638   4.397  15.148 -0.2749  0.2172  0.7299
  265MPD2    C5 4011   3.533   4.434  15.226 -0.3497 -1.0951  0.0984
  265MPD2     H 4012   3.829   4.669  15.163 -1.0275  0.2108 -0.8518
  265MPD2    H1 4013   3.637   4.298  15.106  1.0452  0.6454 -0.3054
  265MPD2    H2 4014   3.443   4.567  15.346 -0.3345 -0.6328 -0.0397
  265MPD2    H3 4015   3.438   4.384  15.234 -1.6976  1.4367 -0.2257
  265MPD2     N 4016   3.853   4.430  15.049  0.3223 -0.0176 -0.3610
  265MPD2    H5 4017   3.850   4.330  15.030 -0.3219  0.5633 -3.4192
  265MPD2    N1 4018   3.638   0.042  15.329  0.1271 -0.1193 -0.5088
  265MPD2    H7 4019   3.705   0.111  15.297  1.1701 -0.8446  0.0835
  266TMC3    C1 4020   3.565   0.214  15.478 -0.4115  0.6174 -0.1010
  266TMC3    C2 4021   3.554   0.246  15.609 -0.9789 -0.5597  0.4687
  266TMC3    C3 4022   3.501   0.373  15.643  0.1990 -0.1513  0.0491
  266TMC3    C4 4023   3.529   0.297  15.379 -0.0292 -0.2174  0.3833
  266TMC3    C5 4024   3.486   0.423  15.416  1.1835  0.5562  0.0006
  266TMC3    C6 4025   3.470   0.463  15.545  0.6621 -0.4306  0.2523
  266TMC3     C 4026   3.572   0.076  15.446 -0.0917 -0.3456  0.1202
  266TMC3     O 4027   3.499   0.003  15.512 -0.1603 -0.3328  0.3981
  266TMC3     H 4028   3.574   0.175  15.689  0.9722 -0.0011  0.4936
  266TMC3    H1 4029   3.516   0.261  15.277  0.6294 -0.8882  0.5309
  266TMC3    H2 4030   3.429   0.563  15.554  1.1608 -0.1304 -0.7496
  266TMC3    C7 4031   3.464   0.514  15.299  0.7852  0.1727 -0.2683
  266TMC3    C8 4032   3.490   0.403  15.784 -0.1461 -0.7582 -0.0330
  266TMC3    O1 4033   3.473   0.467  15.190  0.1311  0.1982 -0.3118
  266TMC3    O2 4034   3.459   0.304  15.850 -0.3564 -0.4181  0.6814
  267MPD2     C 4035   0.900   1.309   0.046  0.3932  0.1866  0.1179
  267MPD2    C1 4036   1.000   1.382  17.670  0.2939 -0.1734  0.5854
  267MPD2    C2 4037   0.987   1.393  17.530 -0.1968  0.1815 -0.1909
  267MPD2    C3 4038   0.874   1.339  17.459  0.4209 -0.1019  0.6709
  267MPD2    C4 4039   0.772   1.284  17.529  0.5891 -0.2239  0.5878
  267MPD2    C5 4040   0.785   1.271  17.665  0.3111 -0.1512 -0.0293
  267MPD2     H 4041   1.069   1.433  17.472  1.0229 -1.2346  0.5800
  267MPD2    H1 4042   0.685   1.237  17.483 -0.1621  1.4112  0.3284
  267MPD2    H2 4043   0.898   1.281   0.150  1.8427 -0.2427  0.0334
  267MPD2    H3 4044   0.711   1.214   0.038  1.7982  1.1512  3.3369
  267MPD2     N 4045   0.882   1.342  17.320 -0.4836 -0.0804  0.0009
  267MPD2    H5 4046   0.808   1.295  17.269 -1.2895  0.5199  0.6123
  267MPD2    N1 4047   1.102   1.434   0.070 -0.0654  0.0920 -0.0775
  267MPD2    H7 4048   1.089   1.418   0.169 -1.8249  0.4479 -0.2555
  268TMC3    C1 4049   1.299   1.543   0.129  0.2384 -0.0400  0.6949
  268TMC3    C2 4050   1.375   1.660   0.105  0.0518  0.0251 -0.4886
  268TMC3    C3 4051   1.393   1.749   0.208  0.1710  0.1991  0.0955
  268TMC3    C4 4052   1.265   1.510   0.257  0.1005 -0.3776 -0.1944
  268TMC3    C5 4053   1.287   1.597   0.358  0.3673 -0.1761  0.1270
  268TMC3    C6 4054   1.353   1.716   0.340 -0.6310 -0.0280 -0.4030
  268TMC3     C 4055   1.211   1.505   0.020  0.4985 -0.4175 -0.1651
  268TMC3     O 4056   1.235   1.542  17.588  0.3473  0.3851 -0.3752
  268TMC3     H 4057   1.395   1.691   0.003 -0.6199  3.2129  0.3413
  268TMC3    H1 4058   1.200   1.428   0.286  0.3037 -1.1103 -1.7711
  268TMC3    H2 4059   1.362   1.785   0.424  0.1169 -3.1413  2.0677
  268TMC3    C7 4060   1.275   1.555   0.498  0.6452 -0.2199 -0.3779
  268TMC3    C8 4061   1.423   1.889   0.194  0.3254 -0.5238 -0.4981
  268TMC3    O1 4062   1.265   1.640   0.582  0.1580  0.3597  0.0819
  268TMC3    O2 4063   1.371   1.970   0.272 -0.2016 -0.1951 -0.1234
  269MPD2     C 4064   1.474   0.289  15.661  0.3071 -0.3952 -0.0059
  269MPD2    C1 4065   1.372   0.337  15.745  0.8394  0.9472  0.1866
  269MPD2    C2 4066   1.338   0.473  15.731  0.7549  0.4124  0.2350
  269MPD2    C3 4067   1.409   0.563  15.662 -0.2159  0.0203 -1.0537
  269MPD2    C4 4068   1.514   0.512  15.584  0.4231 -0.2051  0.0354
  269MPD2    C5 4069   1.548   0.379  15.582  0.4586 -0.5547  0.0826
  269MPD2     H 4070   1.256   0.508  15.793  0.0041  0.0599 -0.5606
  269MPD2    H1 4071   1.577   0.573  15.520 -1.4420 -0.1218 -1.6994
  269MPD2    H2 4072   1.495   0.184  15.672  1.3909 -0.2660 -0.8302
  269MPD2    H3 4073   1.627   0.345  15.516  1.2098  0.3612  0.4921
  269MPD2     N 4074   1.387   0.703  15.677 -0.0333 -0.1582 -0.7375
  269MPD2    H5 4075   1.301   0.726  15.725  0.4541  0.2333 -0.0538
  269MPD2    N1 4076   1.302   0.240  15.824 -0.1776  0.3586  0.0127
  269MPD2    H7 4077   1.340   0.146  15.830 -1.8819 -0.3718 -0.5876
  270TMC3    C1 4078   1.179   0.140  15.970  0.4996  0.0326 -0.0918
  270TMC3    C2 4079   1.055   0.093  15.940 -0.8981  0.0634 -0.4501
  270TMC3    C3 4080   1.048   4.683  15.922 -0.0926 -0.3040  0.3463
  270TMC3    C4 4081   1.275   0.059  16.019 -0.5880 -0.5048 -0.0086
  270TMC3    C5 4082   1.260   4.647  16.023 -0.7420 -0.6064 -0.2725
  270TMC3    C6 4083   1.144   4.596  15.964 -0.3256  0.0982 -1.2494
  270TMC3     C 4084   1.206   0.266  15.912  0.0563 -0.1317  0.2536
  270TMC3     O 4085   1.118   0.351  15.928  0.8531  0.2241 -0.5628
  270TMC3     H 4086   0.978   0.161  15.906 -0.9960 -1.3114 -2.9779
  270TMC3    H1 4087   1.366   0.107  16.054  1.0768 -4.2099  0.7327
  270TMC3    H2 4088   1.130   4.490  15.946 -2.2264  0.4375 -1.7226
  270TMC3    C7 4089   1.378   4.560  16.015 -0.1505  0.0642 -0.3918
  270TMC3    C8 4090   0.928   4.637  15.851 -0.0004 -0.0663 -0.2358
  270TMC3    O1 4091   1.478   4.608  15.972 -0.3121 -0.3675  0.0654
  270TMC3    O2 4092   0.830   4.709  15.848  0.2677 -0.6243  0.0683
  271MPD2     C 4093   0.630   4.667  14.006  0.0263  0.5968  0.1539
  271MPD2    C1 4094   0.616   4.719  14.137 -0.1862 -0.8324  0.2390
  271MPD2    C2 4095   0.535   0.113  14.163  0.2003  0.3846 -0.2701
  271MPD2    C3 4096   0.478   0.187  14.056 -0.4967 -0.1417  0.5749
  271MPD2    C4 4097   0.511   0.138  13.926  0.3584 -0.4603 -0.3293
  271MPD2    C5 4098   0.580   0.024  13.905  0.1513 -0.0296  1.1189
  271MPD2     H 4099   0.518   0.147  14.265  0.9338 -2.3994  0.7681
  271MPD2    H1 4100   0.477   0.185  13.835  1.5102  1.9598  0.5159
  271MPD2    H2 4101   0.678   4.576  13.971 -1.9919  0.2284 -1.5991
  271MPD2    H3 4102   0.599   4.712  13.803 -1.8881  0.9374  0.4369
  271MPD2     N 4103   0.407   0.308  14.063  0.3180 -0.1045 -0.0780
  271MPD2    H5 4104   0.378   0.357  13.978 -0.0741  0.3410  0.3127
  271MPD2    N1 4105   0.679   4.649  14.242  0.9460 -0.2323  0.5757
  271MPD2    H7 4106   0.675   4.686  14.337 -2.3239  1.3835 -0.1847
  272TMC3    C1 4107   0.781   4.473  14.362  0.2054 -0.5277  0.0836
  272TMC3    C2 4108   0.868   4.375  14.369 -0.2701 -0.0228 -0.3974
  272TMC3    C3 4109   0.902   4.312  14.484 -0.2282 -0.1611 -0.0585
  272TMC3    C4 4110   0.717   4.510  14.476  0.6859  0.8402  0.1569
  272TMC3    C5 4111   0.741   4.452  14.597  0.6530 -0.6298 -0.0330
  272TMC3    C6 4112   0.843   4.353  14.602 -0.3975 -0.5473  0.5645
  272TMC3     C 4113   0.764   4.536  14.231  0.1754 -0.2536 -0.3882
  272TMC3     O 4114   0.803   4.469  14.134 -0.6770  0.0098 -0.0004
  272TMC3     H 4115   0.921   4.347  14.278  0.0299 -0.0682 -0.2072
  272TMC3    H1 4116   0.640   4.586  14.475  0.9333  1.0719 -2.0239
  272TMC3    H2 4117   0.853   4.295  14.693 -1.6225  0.1301  1.1319
  272TMC3    C7 4118   0.641   4.464  14.698 -0.1304  0.7652 -0.2243
  272TMC3    C8 4119   1.030   4.236  14.493  0.8365  1.4422  0.0377
  272TMC3    O1 4120   0.530   4.514  14.667  0.2666  0.1054 -0.2137
  272TMC3    O2 4121   1.101   4.262  14.396 -0.1497 -0.4555  0.3263
  273MPD2     C 4122   2.573   3.201  11.346 -0.5060  0.2206  0.0432
  273MPD2    C1 4123   2.540   3.264  11.462  0.5505  0.0161 -0.7237
  273MPD2    C2 4124   2.412   3.237  11.515  0.4478 -0.3871 -0.0859
  273MPD2    C3 4125   2.332   3.145  11.464 -0.9082  0.3921  0.1456
  273MPD2    C4 4126   2.366   3.089  11.340 -0.1453  0.1587 -0.3234
  273MPD2    C5 4127   2.482   3.119  11.282  0.1250  0.2357  0.1412
  273MPD2     H 4128   2.384   3.289  11.606  0.2008  1.4972 -1.2384
  273MPD2    H1 4129   2.304   3.013  11.296 -1.1002  0.9301 -0.3154
  273MPD2    H2 4130   2.668   3.213  11.297 -0.2795 -2.7354 -0.2552
  273MPD2    H3 4131   2.498   3.073  11.185  1.7746  0.2734  0.4060
  273MPD2     N 4132   2.204   3.105  11.507  0.3178  0.5046  0.3129
  273MPD2    H5 4133   2.151   3.042  11.447 -1.8940  1.0369  1.7028
  273MPD2    N1 4134   2.637   3.351  11.515  0.0745  0.0821  0.1372
  273MPD2    H7 4135   2.730   3.342  11.477  0.1726 -1.8207  0.8485
  274TMC3    C1 4136   1.996   3.121  11.618 -0.3930 -0.7288  0.5240
  274TMC3    C2 4137   1.932   3.114  11.498 -0.3470 -0.0437 -0.7652
  274TMC3    C3 4138   1.793   3.132  11.497 -0.1788 -0.0130 -0.2871
  274TMC3    C4 4139   1.932   3.138  11.732  0.6805 -0.4598 -0.1096
  274TMC3    C5 4140   1.794   3.152  11.726  0.2445  0.3772  0.4154
  274TMC3    C6 4141   1.723   3.166  11.610 -0.2315 -0.2499  0.0465
  274TMC3     C 4142   2.137   3.159  11.620 -0.3981 -0.3741 -0.0012
  274TMC3     O 4143   2.185   3.229  11.707  0.3735  0.0092 -0.4829
  274TMC3     H 4144   1.983   3.100  11.403  0.0543 -1.0683 -0.3884
  274TMC3    H1 4145   1.985   3.137  11.827 -1.5132 -0.1175  1.1347
  274TMC3    H2 4146   1.616   3.154  11.614 -0.2628  0.1690  0.6313
  274TMC3    C7 4147   1.739   3.215  11.845  0.5553  0.0446 -0.2335
  274TMC3    C8 4148   1.734   3.161  11.362  0.4858 -0.5949 -0.3034
  274TMC3    O1 4149   1.782   3.179  11.957 -0.1638 -0.3620  0.4741
  274TMC3    O2 4150   1.796   3.112  11.267  0.1125  0.5025 -0.2188
  275MPD2     C 4151   1.763   0.972  14.153  0.8282  0.4989 -0.4411
  275MPD2    C1 4152   1.763   0.971  14.293  0.4413 -0.0638  0.0421
  275MPD2    C2 4153   1.659   0.905  14.353 -0.1425 -0.1687  1.0441
  275MPD2    C3 4154   1.566   0.832  14.271 -0.8729  0.3249  0.4109
  275MPD2    C4 4155   1.583   0.828  14.134  0.5413  0.6559  0.4583
  275MPD2    C5 4156   1.672   0.906  14.077 -0.0854 -0.2010  0.5726
  275MPD2     H 4157   1.647   0.902  14.460  3.6022 -3.2080  1.3693
  275MPD2    H1 4158   1.510   0.777  14.073 -0.6541  2.5560  0.2956
  275MPD2    H2 4159   1.844   1.019  14.098 -0.6326  0.8206 -2.3209
  275MPD2    H3 4160   1.681   0.907  13.969  2.9398 -1.3650  0.7987
  275MPD2     N 4161   1.452   0.769  14.329 -0.3524  0.1112  0.0854
  275MPD2    H5 4162   1.388   0.721  14.266  1.0925 -1.4502 -0.2134
  275MPD2    N1 4163   1.864   1.032  14.375 -0.0932 -0.4352  0.6280
  275MPD2    H7 4164   1.845   1.021  14.474 -1.4044 -2.1982  0.1701
  276TMC3    C1 4165   2.013   1.191  14.448  0.2156 -0.6270 -0.6070
  276TMC3    C2 4166   1.921   1.198  14.549 -0.3251  0.0804  0.2487
  276TMC3    C3 4167   1.967   1.207  14.676 -0.0432 -1.1775 -0.3285
  276TMC3    C4 4168   2.148   1.171  14.470 -0.0144  0.0904 -0.0631
  276TMC3    C5 4169   2.189   1.185  14.596  0.1044 -0.5974 -0.4831
  276TMC3    C6 4170   2.098   1.194  14.701  0.2387  0.3056 -0.1213
  276TMC3     C 4171   1.969   1.110  14.337  0.2332 -0.6266  0.5741
  276TMC3     O 4172   2.025   1.124  14.231 -0.2031 -0.0856 -0.2283
  276TMC3     H 4173   1.819   1.228  14.528 -0.5766 -0.3975  0.7749
  276TMC3    H1 4174   2.214   1.150  14.387 -1.8824  1.4012 -1.8709
  276TMC3    H2 4175   2.135   1.202  14.802  0.7228 -1.0543 -0.1929
  276TMC3    C7 4176   2.320   1.139  14.637  0.4267  0.5336 -0.7213
  276TMC3    C8 4177   1.885   1.149  14.776 -0.1325  0.8579  0.7500
  276TMC3    O1 4178   2.318   1.090  14.751 -0.1813 -0.2827 -0.0917
  276TMC3    O2 4179   1.765   1.175  14.770 -0.0745  0.5212  0.0260
  277MPD2     C 4180   4.107   0.272  13.310  0.0617  0.5687  0.3457
  277MPD2    C1 4181   3.981   0.318  13.299 -0.1863  0.4969 -0.2431
  277MPD2    C2 4182   3.887   0.269  13.387 -0.0641  0.0139  0.2324
  277MPD2    C3 4183   3.919   0.173  13.479  0.9979 -0.2399  0.2944
  277MPD2    C4 4184   4.054   0.134  13.497  0.2799  0.7875 -0.5274
  277MPD2    C5 4185   4.143   0.182  13.406  0.2812  0.0330 -0.0796
  277MPD2     H 4186   3.781   0.289  13.374  0.2233  2.1505  1.2416
  277MPD2    H1 4187   4.095   0.065  13.570 -0.0398  0.7059 -0.4212
  277MPD2    H2 4188   4.179   0.312  13.239 -0.1900  0.3820 -0.0161
  277MPD2    H3 4189   4.249   0.168  13.420  0.3188 -0.3233 -0.7173
  277MPD2     N 4190   3.804   0.134  13.567  0.0592  0.1853  0.3112
  277MPD2    H5 4191   3.712   0.167  13.541 -1.8671 -1.4583  5.1070
  277MPD2    N1 4192   3.951   0.421  13.202  0.7856 -0.4776 -0.3371
  277MPD2    H7 4193   4.020   0.448  13.133  1.4381  0.4587  0.6648
  278TMC3    C1 4194   3.696   0.038  13.755  0.2250  0.5640 -0.2238
  278TMC3    C2 4195   3.688   4.642  13.833  0.0128 -0.2615  0.2062
  278TMC3    C3 4196   3.565   4.613  13.881  0.4290  0.3326 -0.1320
  278TMC3    C4 4197   3.589   0.121  13.731 -0.4406 -0.7563 -0.2657
  278TMC3    C5 4198   3.468   0.095  13.799 -0.7609  0.3824  0.1708
  278TMC3    C6 4199   3.454   4.702  13.874 -0.2524  0.0968  0.3140
  278TMC3     C 4200   3.819   0.050  13.678 -0.7960 -0.2739 -0.1112
  278TMC3     O 4201   3.905   4.694  13.722  0.0078 -0.2225 -0.1255
  278TMC3     H 4202   3.768   4.569  13.837 -0.6395 -0.9017  1.5044
  278TMC3    H1 4203   3.597   0.216  13.678  0.1015 -0.8247 -0.3057
  278TMC3    H2 4204   3.359   4.671  13.916 -0.0170 -1.4626 -0.2966
  278TMC3    C7 4205   3.354   0.186  13.772 -1.1433  0.4148  0.0948
  278TMC3    C8 4206   3.555   4.507  13.981 -0.5929 -0.6062  0.1984
  278TMC3    O1 4207   3.381   0.293  13.720 -0.3342  0.5701 -0.2401
  278TMC3    O2 4208   3.473   4.521  14.072  0.2482 -0.1480 -0.0688
  279MPD2     C 4209   3.183   0.431   0.239 -1.1076 -0.7489  0.5879
  279MPD2    C1 4210   3.093   0.339   0.182  0.3806  0.4029 -0.6832
  279MPD2    C2 4211   3.044   0.361   0.056 -0.0906  0.4538  0.2578
  279MPD2    C3 4212   3.097   0.466  17.663  0.1588 -0.0487  0.5673
  279MPD2    C4 4213   3.193   0.549   0.037  0.5469  0.0678 -0.9013
  279MPD2    C5 4214   3.241   0.532   0.165  0.4298  0.6456 -0.3978
  279MPD2     H 4215   2.978   0.288   0.010  1.2185 -0.5159 -0.0746
  279MPD2    H1 4216   3.225   0.632  17.657 -1.5621  2.2411  0.8788
  279MPD2    H2 4217   3.210   0.425   0.344  1.2664 -0.0905  0.0275
  279MPD2    H3 4218   3.309   0.605   0.208 -2.3875  0.7916  3.7522
  279MPD2     N 4219   3.060   0.492  17.528  0.1167 -0.3596  0.4764
  279MPD2    H5 4220   3.093   0.577  17.484 -1.6026  1.2627  2.3061
  279MPD2    N1 4221   3.028   0.252   0.271 -0.5358 -0.1494 -0.2633
  279MPD2    H7 4222   3.042   0.269   0.370 -0.3623 -0.1362 -0.2896
  280TMC3    C1 4223   2.852   0.109   0.321  0.1335 -1.0760  0.1923
  280TMC3    C2 4224   2.793   4.704   0.310 -0.0653  0.2302 -0.2914
  280TMC3    C3 4225   2.676   4.691   0.387  0.1873 -0.1267  0.0789
  280TMC3    C4 4226   2.812   0.202   0.410  0.0732 -0.7992 -0.8324
  280TMC3    C5 4227   2.696   0.177   0.477 -0.7532  0.0873 -0.5799
  280TMC3    C6 4228   2.619   0.063   0.471 -0.2246  0.5479 -0.9735
  280TMC3     C 4229   2.953   0.145   0.232 -0.5923 -0.0308 -0.1984
  280TMC3     O 4230   2.970   0.066   0.138  0.1353  0.0074 -0.0847
  280TMC3     H 4231   2.841   4.623   0.257 -4.0879 -2.2266 -0.2101
  280TMC3    H1 4232   2.852   0.302   0.412 -1.3259 -0.2368 -1.1611
  280TMC3    H2 4233   2.522   0.067   0.519  0.2756 -1.8542  0.2606
  280TMC3    C7 4234   2.644   0.296   0.536 -0.5225 -0.0282 -0.5102
  280TMC3    C8 4235   2.589   4.583   0.351 -0.3672  0.3508  0.1865
  280TMC3    O1 4236   2.730   0.359   0.597  0.2389 -0.5141  0.2600
  280TMC3    O2 4237   2.500   4.562   0.430  0.0266 -0.1732  0.0165
  281TMC3    C1 4238   1.719   0.262  13.141 -0.5067  0.6773  0.2445
  281TMC3    C2 4239   1.755   0.307  13.020 -0.1037  0.5288  0.2354
  281TMC3    C3 4240   1.670   0.260  12.920  0.6216 -0.5265  0.0186
  281TMC3    C4 4241   1.610   0.182  13.170 -0.2158  0.0709 -0.4217
  281TMC3    C5 4242   1.526   0.153  13.068 -0.5414 -0.0271  0.6759
  281TMC3    C6 4243   1.562   0.180  12.938  0.7005 -0.0014 -0.3050
  281TMC3     C 4244   1.770   0.339  13.252 -0.2728 -0.1405  0.1220
  281TMC3     O 4245   1.787   0.285  13.364 -0.2252 -0.4589 -0.0608
  281TMC3     H 4246   1.855   0.345  13.003 -0.3927  0.7771 -0.9329
  281TMC3    H1 4247   1.586   0.170  13.274  2.9892  0.1557  0.3259
  281TMC3    H2 4248   1.502   0.149  12.852  0.8055 -2.6152  0.5468
  281TMC3    C7 4249   1.423   0.059  13.081  0.3803  0.4348  0.6967
  281TMC3    C8 4250   1.707   0.288  12.789  0.0308  0.4458  0.8574
  281TMC3    O1 4251   1.382   4.713  12.986 -0.3291 -0.4663 -0.3320
  281TMC3    O2 4252   1.703   0.194  12.710  0.1672  0.0368  0.3830
  282MPD2     C 4253   3.741   1.388  14.889 -0.3210  0.1080  0.7898
  282MPD2    C1 4254   3.611   1.430  14.911  0.2347 -0.4315  0.0581
  282MPD2    C2 4255   3.544   1.480  14.801 -0.0599 -0.8578  0.3906
  282MPD2    C3 4256   3.601   1.487  14.677 -0.5723 -0.6786 -0.2527
  282MPD2    C4 4257   3.734   1.462  14.666 -0.3492 -0.1107 -0.0409
  282MPD2    C5 4258   3.805   1.407  14.769  0.8230  0.1046  0.0636
  282MPD2     H 4259   3.443   1.517  14.812  0.0840 -0.4045  0.1704
  282MPD2    H1 4260   3.789   1.464  14.573  0.1289 -0.7225  0.2286
  282MPD2    H2 4261   3.801   1.353  14.972  3.1049 -2.6482 -2.8223
  282MPD2    H3 4262   3.910   1.380  14.762  1.0018  1.0250 -0.8078
  282MPD2     N 4263   3.513   1.524  14.578  0.0493 -0.4387 -0.2915
  282MPD2    H5 4264   3.421   1.554  14.608  1.0151  0.7963  1.4073
  282MPD2    N1 4265   3.553   1.437  15.045  0.5533  0.3590 -0.3473
  282MPD2    H7 4266   3.605   1.400  15.124 -0.2246  0.3394  0.1599
  283TMC3    C1 4267   3.403   1.459  15.213  0.1242 -0.2743  0.2141
  283TMC3    C2 4268   3.473   1.548  15.291 -0.4915  0.3996 -0.3034
  283TMC3    C3 4269   3.415   1.574  15.412 -0.3368 -0.3371 -0.5487
  283TMC3    C4 4270   3.314   1.373  15.259  0.8821 -0.0520  0.7599
  283TMC3    C5 4271   3.275   1.389  15.387 -0.3769 -0.4233  0.3415
  283TMC3    C6 4272   3.329   1.488  15.468  0.0318 -0.3329  0.2160
  283TMC3     C 4273   3.422   1.463  15.069  1.0119  0.3271 -0.0419
  283TMC3     O 4274   3.322   1.479  15.000  0.0567  0.4145  0.0358
  283TMC3     H 4275   3.542   1.619  15.246 -0.4517  1.8504  2.0204
  283TMC3    H1 4276   3.262   1.305  15.192 -0.3430  0.2538  1.4060
  283TMC3    H2 4277   3.280   1.521  15.559 -2.2518 -2.3307 -0.2928
  283TMC3    C7 4278   3.161   1.322  15.457 -0.3134 -0.5568 -0.6621
  283TMC3    C8 4279   3.470   1.673  15.497  0.2152 -0.1923  0.4640
  283TMC3    O1 4280   3.156   1.349  15.581 -0.6737  0.0232 -0.1849
  283TMC3    O2 4281   3.481   1.645  15.612  0.1746  0.3366  0.0354
  284MPD2     C 4282   2.215   1.175  11.444 -0.0109  0.6605 -0.0281
  284MPD2    C1 4283   2.349   1.182  11.438 -0.1719  0.5076  0.3850
  284MPD2    C2 4284   2.427   1.074  11.470  0.1177  0.0115 -0.3593
  284MPD2    C3 4285   2.366   0.961  11.513 -0.3811 -0.1979  0.6980
  284MPD2    C4 4286   2.228   0.954  11.506  0.0440 -0.3194 -0.0303
  284MPD2    C5 4287   2.148   1.061  11.469 -0.5360 -0.1305 -0.1470
  284MPD2     H 4288   2.533   1.081  11.452  0.2781 -0.1408  0.5190
  284MPD2    H1 4289   2.172   0.862  11.518  0.5466 -0.5401  0.6301
  284MPD2    H2 4290   2.152   1.257  11.414 -0.7290  0.8770  2.0452
  284MPD2    H3 4291   2.043   1.048  11.443 -0.8385  0.3884  0.8300
  284MPD2     N 4292   2.445   0.853  11.542  0.2185  0.3040 -0.1374
  284MPD2    H5 4293   2.544   0.870  11.525  0.8718 -0.0401  3.3416
  284MPD2    N1 4294   2.416   1.305  11.404  0.9694  0.2034 -0.2682
  284MPD2    H7 4295   2.517   1.294  11.407  1.0040  0.8154  0.5358
  285TMC3    C1 4296   2.473   1.524  11.330  0.4987  0.1610  0.6968
  285TMC3    C2 4297   2.597   1.489  11.370  0.1445 -0.1793  0.2077
  285TMC3    C3 4298   2.706   1.515  11.293 -0.4100 -0.0025 -0.3702
  285TMC3    C4 4299   2.458   1.605  11.218  0.4035 -0.3070 -0.1033
  285TMC3    C5 4300   2.569   1.649  11.161  0.4543  0.1145 -0.1261
  285TMC3    C6 4301   2.691   1.593  11.183  0.3725 -0.6501 -0.0073
  285TMC3     C 4302   2.361   1.428  11.368 -0.1260  0.1251 -0.4313
  285TMC3     O 4303   2.243   1.464  11.342  0.5852 -0.0599 -0.0328
  285TMC3     H 4304   2.619   1.442  11.466  0.8401 -1.3802 -0.5329
  285TMC3    H1 4305   2.364   1.657  11.201 -0.4071 -1.2910  1.3955
  285TMC3    H2 4306   2.770   1.605  11.110 -0.2163 -2.1292 -0.8993
  285TMC3    C7 4307   2.565   1.786  11.115 -0.0462  0.6370 -0.4250
  285TMC3    C8 4308   2.748   1.385  11.252 -0.0985  0.8707 -0.2889
  285TMC3    O1 4309   2.656   1.852  11.150  0.2665  0.1844  0.0366
  285TMC3    O2 4310   2.682   1.287  11.295 -0.5729 -0.3693 -0.9774
  286MPD2     C 4311   2.155   4.227   1.569 -0.2129  0.1302 -0.2802
  286MPD2    C1 4312   2.097   4.259   1.453  0.1374  0.3704 -0.6943
  286MPD2    C2 4313   2.062   4.156   1.364 -1.2883 -0.5814  0.5670
  286MPD2    C3 4314   2.085   4.024   1.388  0.2778  0.5954  0.0015
  286MPD2    C4 4315   2.141   3.988   1.507 -0.7326  0.4798  0.0471
  286MPD2    C5 4316   2.162   4.089   1.597  1.1071  0.9400  0.4489
  286MPD2     H 4317   2.017   4.181   1.269  2.8429 -3.3153 -2.1282
  286MPD2    H1 4318   2.143   3.886   1.545  0.7301  0.5470  0.1402
  286MPD2    H2 4319   2.176   4.299   1.648  2.1723  0.0691 -0.8457
  286MPD2    H3 4320   2.191   4.059   1.698  1.1667  2.8933  1.0137
  286MPD2     N 4321   2.052   3.918   1.300  0.0873  0.0056 -0.8732
  286MPD2    H5 4322   2.053   3.823   1.334 -0.3989  0.4499  0.3632
  286MPD2    N1 4323   2.068   4.390   1.415  0.9768 -0.1259 -0.2450
  286MPD2    H7 4324   2.009   4.407   1.334  1.4017 -0.7934 -0.6974
  287TMC3    C1 4325   2.028   3.803   1.106 -0.3662 -0.2969  0.1038
  287TMC3    C2 4326   1.945   3.792   0.998  0.6232 -0.6021 -0.4982
  287TMC3    C3 4327   1.952   3.673   0.924 -0.3549  0.3671  0.2936
  287TMC3    C4 4328   2.118   3.707   1.141  0.6638  0.1649 -0.3525
  287TMC3    C5 4329   2.120   3.593   1.068 -0.8216  0.3724  0.8316
  287TMC3    C6 4330   2.039   3.569   0.957 -0.6121  0.9169  0.1585
  287TMC3     C 4331   2.033   3.932   1.164 -0.1280 -0.9836 -0.2877
  287TMC3     O 4332   1.996   4.033   1.105  0.5948  0.7741 -0.1556
  287TMC3     H 4333   1.866   3.861   0.969 -0.5185 -1.1880  1.2090
  287TMC3    H1 4334   2.181   3.716   1.229 -1.8994 -1.7865  1.6438
  287TMC3    H2 4335   2.041   3.473   0.906  0.2589  0.4330  1.1120
  287TMC3    C7 4336   2.212   3.492   1.111  0.1921 -0.3828  0.3304
  287TMC3    C8 4337   1.881   3.662   0.795  0.5445 -0.4609  0.4678
  287TMC3    O1 4338   2.228   3.497   1.231 -0.2032  0.3223  0.4729
  287TMC3    O2 4339   1.841   3.550   0.762  0.0286  0.0025 -0.2725
  288TMC3    C1 4340   3.875   4.103  14.504  0.2360 -0.1803  0.2249
  288TMC3    C2 4341   3.833   4.047  14.626 -0.5361 -0.1297  0.1687
  288TMC3    C3 4342   3.780   4.132  14.719  0.2075 -0.6579 -0.1774
  288TMC3    C4 4343   3.903   4.234  14.493 -0.0218 -0.3263  0.1528
  288TMC3    C5 4344   3.857   4.315  14.592  0.3913 -0.0934 -0.3246
  288TMC3    C6 4345   3.793   4.266  14.706  0.7210  0.3159 -0.1272
  288TMC3     C 4346   3.913   4.008  14.400  0.2642  0.0796 -0.3170
  288TMC3     O 4347   3.921   3.891  14.440  0.4886 -0.5022 -0.6996
  288TMC3     H 4348   3.829   3.939  14.639  1.6793 -0.3056 -0.5982
  288TMC3    H1 4349   3.949   4.273  14.403 -0.5097  0.2008  0.1353
  288TMC3    H2 4350   3.738   4.333  14.770 -0.9471 -1.9111  0.7729
  288TMC3    C7 4351   3.884   4.461  14.579  0.0312 -0.2855 -0.9029
  288TMC3    C8 4352   3.744   4.093  14.853 -0.2013  0.3922 -0.0624
  288TMC3    O1 4353   3.959   4.500  14.488  0.7254  0.1655 -0.1774
  288TMC3    O2 4354   3.769   4.171  14.945 -0.0917  0.4082  0.1932
  289MPD2     C 4355   4.032   3.334  14.677 -0.8141 -0.0652  0.6555
  289MPD2    C1 4356   4.043   3.418  14.572 -0.9428  0.1852 -0.7104
  289MPD2    C2 4357   3.927   3.456  14.511  0.9588 -0.2611 -0.3996
  289MPD2    C3 4358   3.804   3.407  14.547  0.5364  0.5561 -0.5175
  289MPD2    C4 4359   3.801   3.313  14.656  0.0470  0.3433  0.1254
  289MPD2    C5 4360   3.914   3.282  14.720 -0.1251 -0.2496  0.4630
  289MPD2     H 4361   3.917   3.534  14.437 -0.0250 -0.3138 -0.3293
  289MPD2    H1 4362   3.711   3.257  14.676  0.6911 -0.8040 -0.1697
  289MPD2    H2 4363   4.122   3.301  14.728 -1.0083 -1.7573 -0.1056
  289MPD2    H3 4364   3.915   3.223  14.811 -0.8242  0.0321  0.6522
  289MPD2     N 4365   3.688   3.453  14.478  0.1606 -0.7747 -0.3865
  289MPD2    H5 4366   3.703   3.506  14.393 -1.0092  2.0119  1.1153
  289MPD2    N1 4367   4.166   3.471  14.528  0.1669 -0.5027 -0.0231
  289MPD2    H7 4368   4.245   3.466  14.591 -0.8160 -0.4112  1.2028
  290TMC3    C1 4369   3.474   3.466  14.420 -1.0358  0.4697  0.1251
  290TMC3    C2 4370   3.463   3.594  14.381 -0.4864  0.0635 -0.7918
  290TMC3    C3 4371   3.348   3.633  14.319 -0.4201  0.1064 -0.3781
  290TMC3    C4 4372   3.383   3.371  14.395  0.3020 -0.2311 -0.2504
  290TMC3    C5 4373   3.265   3.414  14.338 -0.0762  0.3009  0.8112
  290TMC3    C6 4374   3.240   3.541  14.295  0.3640  0.6844 -0.5286
  290TMC3     C 4375   3.567   3.420  14.522  0.6194 -0.0411 -0.5674
  290TMC3     O 4376   3.524   3.351  14.611  0.1288  0.3485  0.8240
  290TMC3     H 4377   3.529   3.674  14.411 -3.2011  2.4233 -1.2212
  290TMC3    H1 4378   3.414   3.270  14.420  0.3082  0.2080  1.5354
  290TMC3    H2 4379   3.148   3.572  14.249  0.6339  0.5184 -1.1813
  290TMC3    C7 4380   3.161   3.312  14.316  0.1906  0.2991  1.1900
  290TMC3    C8 4381   3.324   3.777  14.315  0.2994 -0.1029 -0.3058
  290TMC3    O1 4382   3.049   3.352  14.287  0.4839  0.4554 -0.0904
  290TMC3    O2 4383   3.364   3.851  14.404  1.1371 -0.0732  0.4484
  291MPD2     C 4384   3.416   3.153   0.710  0.2724  0.4261  0.1161
  291MPD2    C1 4385   3.363   3.038   0.643 -0.0187  0.1180 -0.1513
  291MPD2    C2 4386   3.332   3.048   0.511 -0.2089 -0.8605  0.8933
  291MPD2    C3 4387   3.345   3.169   0.440 -0.3261 -0.6070 -0.5849
  291MPD2    C4 4388   3.399   3.276   0.507  0.6419  0.2176  0.4749
  291MPD2    C5 4389   3.426   3.273   0.640  0.2417 -0.2439 -0.8188
  291MPD2     H 4390   3.289   2.967   0.453 -1.3356 -0.0717  0.6268
  291MPD2    H1 4391   3.428   3.373   0.468 -1.4620  0.6032 -0.1347
  291MPD2    H2 4392   3.463   3.156   0.807 -1.2822 -0.5498  0.8971
  291MPD2    H3 4393   3.475   3.357   0.688  1.7503 -1.1211 -0.8258
  291MPD2     N 4394   3.296   3.193   0.312 -0.0638 -0.1678  0.0838
  291MPD2    H5 4395   3.268   3.288   0.291 -0.5653 -0.5155 -0.8425
  291MPD2    N1 4396   3.348   2.924   0.711  0.3334 -0.0502 -0.3958
  291MPD2    H7 4397   3.325   2.840   0.659  2.1760  0.0447 -1.3819
  292TMC3    C1 4398   3.327   2.778   0.879 -0.8745 -0.1566  0.0903
  292TMC3    C2 4399   3.272   2.749   0.998 -0.2400 -0.5776  0.0960
  292TMC3    C3 4400   3.266   2.622   1.043  0.2073  1.0830 -0.0183
  292TMC3    C4 4401   3.396   2.680   0.812  0.8857 -0.3369 -0.2723
  292TMC3    C5 4402   3.394   2.556   0.859  1.0973  0.6492  0.4898
  292TMC3    C6 4403   3.333   2.525   0.977  0.1850  0.2775  0.2763
  292TMC3     C 4404   3.359   2.909   0.849  0.2332  0.2702  0.3059
  292TMC3     O 4405   3.358   2.985   0.944 -0.1605  0.1965 -0.5900
  292TMC3     H 4406   3.211   2.826   1.043 -0.2600 -0.7628  0.3797
  292TMC3    H1 4407   3.450   2.713   0.724  0.8561  0.8078  0.1452
  292TMC3    H2 4408   3.317   2.425   1.016 -0.2618  0.6409  1.0164
  292TMC3    C7 4409   3.439   2.452   0.766  0.0806  0.1285  0.0458
  292TMC3    C8 4410   3.177   2.586   1.160 -0.0445 -0.2057 -0.0501
  292TMC3    O1 4411   3.455   2.484   0.650 -0.7915  0.3856 -0.1242
  292TMC3    O2 4412   3.217   2.499   1.236  0.1646 -0.3365  0.7046
  293MPD2     C 4413   0.521   0.156  12.376  0.3827  0.6110 -0.4447
  293MPD2    C1 4414   0.428   0.119  12.472 -0.5516  0.2909  0.0311
  293MPD2    C2 4415   0.457   0.132  12.611  0.4720 -0.3212 -0.4763
  293MPD2    C3 4416   0.576   0.194  12.651 -0.6147  0.1050  0.1295
  293MPD2    C4 4417   0.668   0.236  12.552  0.1682  0.0534 -0.2151
  293MPD2    C5 4418   0.633   0.222  12.421 -0.3740  0.3388  0.2880
  293MPD2     H 4419   0.402   0.091  12.694  0.9157  2.2447  1.0593
  293MPD2    H1 4420   0.769   0.266  12.576  0.5130 -1.0970 -0.2397
  293MPD2    H2 4421   0.498   0.141  12.271 -0.9268  3.9382 -0.6120
  293MPD2    H3 4422   0.699   0.264  12.346  1.1127 -0.4062  1.1974
  293MPD2     N 4423   0.608   0.191  12.789 -0.1436 -0.2009 -0.0980
  293MPD2    H5 4424   0.546   0.135  12.847  0.2590 -1.3742 -0.7939
  293MPD2    N1 4425   0.308   0.055  12.426  0.0474  0.2126 -0.2334
  293MPD2    H7 4426   0.302   0.040  12.325  1.9644  2.7754 -0.7201
  294TMC3    C1 4427   0.094   4.694  12.424  0.3913 -0.0733 -0.2716
  294TMC3    C2 4428   4.694   4.706  12.483 -0.8449  0.5936  0.1643
  294TMC3    C3 4429   4.582   4.678  12.403 -0.4988 -0.5236 -0.3395
  294TMC3    C4 4430   0.114   4.652  12.294 -0.6615  0.3368  0.4881
  294TMC3    C5 4431   0.003   4.616  12.216  0.2697  0.5239 -0.5984
  294TMC3    C6 4432   4.594   4.628  12.275  0.5802  0.4992  0.6556
  294TMC3     C 4433   0.202   0.031  12.500 -0.7114  0.5111  0.1531
  294TMC3     O 4434   0.186   0.044  12.619  0.0573  0.3979  0.0962
  294TMC3     H 4435   4.682   0.011  12.588  0.3207 -0.3694  0.5315
  294TMC3    H1 4436   0.215   4.640  12.256 -0.7078 -0.6051  0.6431
  294TMC3    H2 4437   4.504   4.623  12.214  0.5926  2.6564  0.4758
  294TMC3    C7 4438   0.013   4.487  12.146  0.1942  0.4481 -0.5104
  294TMC3    C8 4439   4.488   4.595  12.478  0.1211 -0.0908 -0.1569
  294TMC3    O1 4440   4.636   4.414  12.165  0.3243  0.0727 -0.3381
  294TMC3    O2 4441   4.462   4.620  12.593 -0.2763  0.7521 -0.1321
  295MPD2     C 4442   0.800   3.428   0.697  0.7415 -0.8093 -0.5379
  295MPD2    C1 4443   0.665   3.428   0.678 -0.2474  0.6891 -0.0335
  295MPD2    C2 4444   0.575   3.402   0.781  0.6743  0.0668 -0.3217
  295MPD2    C3 4445   0.613   3.383   0.912  0.1353 -0.4750 -0.4428
  295MPD2    C4 4446   0.750   3.389   0.936  0.2046 -0.3592 -0.3218
  295MPD2    C5 4447   0.840   3.399   0.828  0.1052 -0.3710  0.1094
  295MPD2     H 4448   0.473   3.399   0.745  0.9852 -2.7424 -0.9470
  295MPD2    H1 4449   0.792   3.373   1.034  1.0008  0.0220 -0.5954
  295MPD2    H2 4450   0.879   3.443   0.625  0.5793 -1.7500 -0.9160
  295MPD2    H3 4451   0.946   3.389   0.846  0.5686  0.5931 -2.1279
  295MPD2     N 4452   0.526   3.388   1.025 -0.7735  0.0910  0.2981
  295MPD2    H5 4453   0.567   3.389   1.118 -0.5794  0.3570  0.2086
  295MPD2    N1 4454   0.600   3.448   0.556  0.1013  0.0268  0.3304
  295MPD2    H7 4455   0.499   3.449   0.550  0.1357  0.7450 -0.1268
  296TMC3    C1 4456   0.319   3.367   1.137  0.1897  0.0652 -0.0872
  296TMC3    C2 4457   0.389   3.396   1.255 -0.3519 -0.7341 -0.0183
  296TMC3    C3 4458   0.331   3.367   1.371 -0.1474 -0.1405 -0.7154
  296TMC3    C4 4459   0.197   3.306   1.129  0.3418 -0.8274  0.0360
  296TMC3    C5 4460   0.145   3.282   1.250  0.3860 -0.2000  0.3751
  296TMC3    C6 4461   0.210   3.310   1.373 -0.5327  0.4763  0.7535
  296TMC3     C 4462   0.389   3.369   1.010  0.3956  0.3364  0.0569
  296TMC3     O 4463   0.323   3.346   0.910 -0.1417  0.2715  0.3338
  296TMC3     H 4464   0.472   3.466   1.246  0.0026 -0.7569  3.3260
  296TMC3    H1 4465   0.155   3.263   1.038 -2.0999 -0.0107  0.7857
  296TMC3    H2 4466   0.144   3.319   1.458 -0.1102 -1.3087  1.2623
  296TMC3    C7 4467   0.017   3.233   1.258 -0.4291  0.0416  0.3903
  296TMC3    C8 4468   0.389   3.415   1.496 -0.0648 -0.3066  0.0916
  296TMC3    O1 4469   4.666   3.268   1.167  0.2663 -0.1166  0.4678
  296TMC3    O2 4470   0.311   3.436   1.588 -0.0458  0.4466 -0.1231
  297MPD2     C 4471   2.571   0.403  16.291 -0.5327 -0.4217  0.0761
  297MPD2    C1 4472   2.522   0.483  16.195  0.0031  0.1772 -1.1863
  297MPD2    C2 4473   2.612   0.565  16.133 -0.4834  1.0234  0.4365
  297MPD2    C3 4474   2.749   0.567  16.156  0.6228 -0.2571  0.5365
  297MPD2    C4 4475   2.800   0.488  16.261 -0.1039 -0.3030 -0.4884
  297MPD2    C5 4476   2.709   0.405  16.324  0.2404 -0.1012  0.2666
  297MPD2     H 4477   2.575   0.622  16.048 -1.1789  0.5553  0.4232
  297MPD2    H1 4478   2.906   0.484  16.283  0.0399  0.3706 -1.0910
  297MPD2    H2 4479   2.509   0.340  16.353  0.8841 -1.1145  0.7961
  297MPD2    H3 4480   2.754   0.344  16.401 -0.2949  0.1433  0.7832
  297MPD2     N 4481   2.827   0.645  16.076  0.4083  0.5077  0.4233
  297MPD2    H5 4482   2.775   0.701  16.009 -1.1122 -2.3307 -0.7902
  297MPD2    N1 4483   2.382   0.488  16.154 -0.3228  0.5702 -0.4265
  297MPD2    H7 4484   2.362   0.552  16.078 -0.1826  1.3506  0.1960
  298TMC3    C1 4485   2.150   0.441  16.165 -0.5785 -0.1611 -0.3897
  298TMC3    C2 4486   2.128   0.480  16.039  0.7181 -0.2118 -0.7526
  298TMC3    C3 4487   1.998   0.522  16.005  0.1368 -0.1026 -0.0867
  298TMC3    C4 4488   2.048   0.425  16.253 -0.4729 -0.2206  0.2189
  298TMC3    C5 4489   1.927   0.462  16.222 -0.3952 -0.6052 -0.8537
  298TMC3    C6 4490   1.898   0.503  16.096 -0.1161 -0.6951 -0.2634
  298TMC3     C 4491   2.281   0.408  16.209  0.1744  0.1498  0.3257
  298TMC3     O 4492   2.295   0.334  16.306  0.0481 -0.0628 -0.0113
  298TMC3     H 4493   2.206   0.504  15.966 -0.3412 -3.2764 -2.8927
  298TMC3    H1 4494   2.071   0.394  16.354 -0.7534  3.2721  1.3513
  298TMC3    H2 4495   1.797   0.515  16.059  0.5561 -0.1209 -1.9177
  298TMC3    C7 4496   1.861   0.532  16.326 -0.4858  0.6736  0.9466
  298TMC3    C8 4497   1.971   0.599  15.889 -0.4914  0.4511  0.6518
  298TMC3    O1 4498   1.920   0.556  16.433  0.7615 -0.4375  0.5985
  298TMC3    O2 4499   1.864   0.661  15.881 -0.1814 -0.2891  0.5550
  299MPD2     C 4500   4.163   4.685  10.833 -1.0602  0.8355 -0.2064
  299MPD2    C1 4501   4.140   0.084  10.772  0.1288 -0.0570  0.0214
  299MPD2    C2 4502   4.030   0.103  10.692 -0.4514 -0.5332  0.3141
  299MPD2    C3 4503   3.952   4.711  10.666 -0.7465  0.3341 -0.3273
  299MPD2    C4 4504   3.981   4.588  10.727  0.1173 -0.6792 -0.3153
  299MPD2    C5 4505   4.095   4.578  10.802 -0.1504 -0.4936 -0.0999
  299MPD2     H 4506   4.010   0.204  10.657  4.4119  0.3223  0.0529
  299MPD2    H1 4507   3.923   4.497  10.728  0.7639 -1.0691  1.9982
  299MPD2    H2 4508   4.251   4.680  10.896 -2.2638 -0.2916  1.3963
  299MPD2    H3 4509   4.122   4.486  10.854  0.5649 -1.4344 -2.1396
  299MPD2     N 4510   3.834   4.716  10.586  0.6461 -0.0265  0.1839
  299MPD2    H5 4511   3.780   4.631  10.572 -0.7015  0.8900 -0.1670
  299MPD2    N1 4512   4.223   0.194  10.798  0.1521  1.1067  0.7117
  299MPD2    H7 4513   4.283   0.185  10.879  0.1599 -0.5746  0.5126
  300TMC3    C1 4514   3.668   0.078  10.447 -0.0358 -0.2278  0.9109
  300TMC3    C2 4515   3.646   0.176  10.356  0.1081  0.0130  0.1584
  300TMC3    C3 4516   3.519   0.206  10.314  0.2382  0.3542 -0.0317
  300TMC3    C4 4517   3.562   0.026  10.510 -0.1515  0.0146 -0.0579
  300TMC3    C5 4518   3.437   0.074  10.483 -0.2243 -0.2940 -0.8436
  300TMC3    C6 4519   3.404   0.156  10.375  0.0049 -0.1235  0.6256
  300TMC3     C 4520   3.790   0.105  10.523 -0.9791  0.1110  0.1300
  300TMC3     O 4521   3.843   0.215  10.509 -0.1444 -0.6014  0.2147
  300TMC3     H 4522   3.737   0.204  10.305  1.8493 -2.9340  1.6768
  300TMC3    H1 4523   3.576   4.674  10.590  0.4420  1.0035  0.7211
  300TMC3    H2 4524   3.303   0.191  10.355  0.8200  3.2556  2.2859
  300TMC3    C7 4525   3.329   0.025  10.569  0.6047  0.4539 -0.2073
  300TMC3    C8 4526   3.494   0.325  10.237  0.7207  0.1651  0.2540
  300TMC3    O1 4527   3.329   4.622  10.574 -0.7932  0.3509  0.3568
  300TMC3    O2 4528   3.592   0.400  10.234  0.5799 -0.0495 -0.2277
  301MPD2     C 4529   0.193   1.638   1.908 -0.8193 -0.2422 -0.5733
  301MPD2    C1 4530   0.077   1.604   1.844  0.3867 -0.6435  0.1109
  301MPD2    C2 4531   0.044   1.468   1.843 -0.2289 -0.2351  0.2762
  301MPD2    C3 4532   0.123   1.365   1.904 -0.2092 -0.5977 -0.1034
  301MPD2    C4 4533   0.239   1.395   1.971  0.2685  0.4524  0.0877
  301MPD2    C5 4534   0.270   1.534   1.958  0.3351 -0.2106 -0.0690
  301MPD2     H 4535   4.675   1.436   1.789  1.9685 -1.2225 -2.7564
  301MPD2    H1 4536   0.304   1.323   2.020 -0.2989 -1.5488 -2.1068
  301MPD2    H2 4537   0.216   1.744   1.915  0.0657 -0.4675 -0.0803
  301MPD2    H3 4538   0.355   1.558   2.020  0.6392  1.9463 -1.3226
  301MPD2     N 4539   0.080   1.226   1.913 -0.2558 -0.7284  0.0528
  301MPD2    H5 4540   0.142   1.160   1.959  0.3315  0.9757  1.6797
  301MPD2    N1 4541   4.700   1.690   1.800 -0.9137  0.1761 -0.5830
  301MPD2    H7 4542   4.614   1.657   1.757 -1.8534  0.7131  0.8598
  302TMC3    C1 4543   4.689   1.042   1.847  0.4350  0.5858 -0.0450
  302TMC3    C2 4544   0.091   0.985   1.818 -0.1547 -0.1309  0.4494
  302TMC3    C3 4545   0.099   0.859   1.764  0.4914  0.0345  0.6166
  302TMC3    C4 4546   4.573   0.977   1.824 -0.2633  0.0400  0.1102
  302TMC3    C5 4547   4.584   0.846   1.773  0.4645  0.3841 -0.2361
  302TMC3    C6 4548   4.704   0.781   1.750  0.3441  0.2956 -0.7157
  302TMC3     C 4549   4.682   1.183   1.870 -0.1628  0.6358 -0.0740
  302TMC3     O 4550   4.576   1.243   1.861 -0.4167 -0.0103 -0.1021
  302TMC3     H 4551   0.187   1.029   1.840  0.8638 -1.7462 -0.7380
  302TMC3    H1 4552   4.476   1.023   1.842 -1.4206 -1.9538 -0.9514
  302TMC3    H2 4553   4.704   0.684   1.703 -1.1616  0.8779 -1.8966
  302TMC3    C7 4554   4.465   0.794   1.709 -0.2895 -0.3024 -0.0364
  302TMC3    C8 4555   0.224   0.798   1.734 -0.9614  0.4455 -0.4673
  302TMC3    O1 4556   4.473   0.678   1.670 -0.0480 -0.1628  0.7634
  302TMC3    O2 4557   0.227   0.678   1.727 -0.4787  0.0856  0.3078
  303MPD2     C 4558   0.316   3.941   9.352 -0.1924  0.5020 -0.0953
  303MPD2    C1 4559   0.333   3.808   9.319 -0.2471  0.1239  0.2420
  303MPD2    C2 4560   0.461   3.760   9.289  0.0420 -0.3366  0.0967
  303MPD2    C3 4561   0.567   3.849   9.295  0.1881  0.3810 -0.1877
  303MPD2    C4 4562   0.549   3.982   9.325 -0.0376 -0.5317 -0.1624
  303MPD2    C5 4563   0.422   4.028   9.358 -0.2434  0.3768 -0.2803
  303MPD2     H 4564   0.481   3.655   9.269 -1.5832 -0.6756  0.2664
  303MPD2    H1 4565   0.623   4.060   9.334 -1.3325  1.1343 -3.8476
  303MPD2    H2 4566   0.220   3.979   9.385  1.0705  3.1814  0.4823
  303MPD2    H3 4567   0.404   4.133   9.378  1.0239  0.5620 -0.1223
  303MPD2     N 4568   0.699   3.806   9.285  0.1160  0.3316 -0.2247
  303MPD2    H5 4569   0.770   3.869   9.321  0.7994  0.6223 -2.0684
  303MPD2    N1 4570   0.214   3.726   9.328 -0.5267  0.8000 -0.2009
  303MPD2    H7 4571   0.131   3.776   9.359 -0.7899 -0.6585  1.3996
  304TMC3    C1 4572   0.093   3.529   9.378  0.8076 -0.9192 -0.9725
  304TMC3    C2 4573   0.116   3.403   9.419  0.0054 -0.0745  0.6068
  304TMC3    C3 4574   0.051   3.374   9.541 -0.5820  0.8316  0.0575
  304TMC3    C4 4575   0.011   3.617   9.443  0.1112  0.1721 -0.4857
  304TMC3    C5 4576   4.682   3.589   9.571  0.2609 -0.0868 -0.7059
  304TMC3    C6 4577   4.691   3.463   9.615  0.6218 -0.3631 -0.0816
  304TMC3     C 4578   0.208   3.591   9.307  0.3500 -0.1230 -0.6112
  304TMC3     O 4579   0.292   3.515   9.260 -0.1077  0.0854 -0.3027
  304TMC3     H 4580   0.204   3.352   9.382  0.1715  1.4200 -1.0405
  304TMC3    H1 4581   4.716   3.723   9.424 -2.0370 -0.1454 -0.4525
  304TMC3    H2 4582   4.652   3.450   9.716  1.0882  3.3579  0.5729
  304TMC3    C7 4583   4.713   3.697   9.665  0.0509  0.4494  0.2795
  304TMC3    C8 4584   0.141   3.315   9.635  0.2661  0.1659 -0.0621
  304TMC3    O1 4585   4.690   3.814   9.640  0.1733  0.4174  0.0803
  304TMC3    O2 4586   0.178   3.391   9.721  0.7954 -0.5990  0.0277
  305MPD2     C 4587   3.825   2.124  13.714 -0.2877 -0.1998  0.2890
  305MPD2    C1 4588   3.757   2.003  13.722 -0.8010 -0.8588 -0.2650
  305MPD2    C2 4589   3.767   1.917  13.618  0.4330  0.0844  0.7067
  305MPD2    C3 4590   3.832   1.945  13.498 -0.6998  0.8132 -0.6084
  305MPD2    C4 4591   3.908   2.060  13.505  0.0828  0.3005 -0.7272
  305MPD2    C5 4592   3.898   2.150  13.600 -0.6927 -0.3710  0.0815
  305MPD2     H 4593   3.703   1.830  13.611 -0.3408  0.8178 -1.4223
  305MPD2    H1 4594   3.979   2.078  13.425  1.9818 -0.1966  0.8208
  305MPD2    H2 4595   3.823   2.187  13.803  1.2918  1.7976 -1.0828
  305MPD2    H3 4596   3.965   2.234  13.588 -1.5712  0.4249  0.6767
  305MPD2     N 4597   3.830   1.859  13.386  0.9665  0.4750  0.3018
  305MPD2    H5 4598   3.882   1.909  13.315 -0.3524  0.2086 -0.8462
  305MPD2    N1 4599   3.687   1.983  13.847  0.0073 -0.2791 -0.2104
  305MPD2    H7 4600   3.697   2.065  13.905 -2.0968 -0.0539 -0.1422
  306TMC3    C1 4601   3.631   1.868  14.042 -0.2341 -0.4478  0.3840
  306TMC3    C2 4602   3.703   1.772  14.106  0.0187 -0.4982 -0.6666
  306TMC3    C3 4603   3.731   1.800  14.238 -0.2042 -1.3033 -0.2122
  306TMC3    C4 4604   3.576   1.985  14.092  0.2943  0.4033 -0.2161
  306TMC3    C5 4605   3.598   1.999  14.227 -0.4232  0.5314  0.0168
  306TMC3    C6 4606   3.684   1.916  14.296 -0.5066 -0.7358  0.1761
  306TMC3     C 4607   3.638   1.863  13.896 -0.2195  1.1101 -0.3595
  306TMC3     O 4608   3.647   1.753  13.843  0.4485 -0.5217  0.2971
  306TMC3     H 4609   3.766   1.699  14.056  0.7057 -0.0694 -0.4150
  306TMC3    H1 4610   3.525   2.053  14.025  4.4591  0.4602 -3.3692
  306TMC3    H2 4611   3.704   1.919  14.403  0.9878  2.1331 -0.1909
  306TMC3    C7 4612   3.549   2.120  14.295 -0.6214  0.0839 -0.2786
  306TMC3    C8 4613   3.857   1.747  14.289 -0.0978  0.4345  0.6632
  306TMC3    O1 4614   3.459   2.190  14.252  0.2354  0.4972  0.6481
  306TMC3    O2 4615   3.942   1.724  14.206 -0.1971  0.6510 -0.5043
  307MPD2     C 4616   1.246   4.385   0.556 -0.1474  0.2279 -0.6670
  307MPD2    C1 4617   1.213   4.514   0.521  0.2799 -0.2310  0.4185
  307MPD2    C2 4618   1.246   4.612   0.614  0.4884 -0.8004 -0.4505
  307MPD2    C3 4619   1.309   4.589   0.730 -0.0072  0.6291  0.8536
  307MPD2    C4 4620   1.349   4.461   0.758  0.6453 -0.5470  0.1427
  307MPD2    C5 4621   1.306   4.363   0.675  0.4733  0.8348 -0.0943
  307MPD2     H 4622   1.220   4.713   0.586 -1.6474 -0.9365  1.1001
  307MPD2    H1 4623   1.398   4.420   0.846 -1.0065 -0.0976  1.2676
  307MPD2    H2 4624   1.236   4.295   0.496 -0.4229  0.2040 -0.5835
  307MPD2    H3 4625   1.328   4.260   0.700 -0.0789 -0.0560 -3.2244
  307MPD2     N 4626   1.339   4.699   0.810  0.3637 -0.5724  0.0605
  307MPD2    H5 4627   1.305   0.071   0.782 -0.7007 -1.0878 -0.3831
  307MPD2    N1 4628   1.155   4.550   0.396  0.4296  0.0352  0.0548
  307MPD2    H7 4629   1.145   4.648   0.372  0.1067  0.1022  0.4603
  308TMC3    C1 4630   1.239   0.267   1.075 -0.5052  0.6884  0.1576
  308TMC3    C2 4631   1.306   0.369   1.022  0.1456 -0.5253 -0.4835
  308TMC3    C3 4632   1.423   0.337   0.950  0.0756 -0.5537  0.3617
  308TMC3    C4 4633   1.272   0.136   1.059  0.0026  0.1571 -0.4429
  308TMC3    C5 4634   1.390   0.109   0.993 -0.5070  0.1559  0.2370
  308TMC3    C6 4635   1.462   0.206   0.929 -0.6387  0.2349  0.0241
  308TMC3     C 4636   1.110   0.305   1.129  0.1206  0.2930  0.2364
  308TMC3     O 4637   1.109   0.423   1.152  0.0722 -0.2179  0.5518
  308TMC3     H 4638   1.284   0.476   1.025  3.0318  0.0825 -1.3469
  308TMC3    H1 4639   1.223   0.042   1.084  1.2609 -0.0701  1.1543
  308TMC3    H2 4640   1.546   0.185   0.863 -0.7064 -0.6878  0.2192
  308TMC3    C7 4641   1.398   4.698   0.935  0.4791  0.6586 -0.4677
  308TMC3    C8 4642   1.469   0.438   0.854 -0.2008 -0.1034 -0.5466
  308TMC3    O1 4643   1.419   4.600   1.005 -0.4291 -0.4607 -0.2573
  308TMC3    O2 4644   1.584   0.423   0.813  0.2086  0.4796 -0.1465
  309MPD2     C 4645   0.489   4.360  17.117 -0.2207 -0.0328  0.2019
  309MPD2    C1 4646   0.487   4.487  17.075 -0.3774 -0.1912 -0.4587
  309MPD2    C2 4647   0.456   4.589  17.168  0.5793 -0.1524  0.0356
  309MPD2    C3 4648   0.427   4.564  17.297  1.1056 -0.1602 -0.3576
  309MPD2    C4 4649   0.453   4.437  17.341  0.4245 -0.2063  0.4311
  309MPD2    C5 4650   0.472   4.338  17.249 -0.5238 -0.9950 -0.1793
  309MPD2     H 4651   0.430   4.690  17.138 -0.1128 -0.1681  0.5807
  309MPD2    H1 4652   0.448   4.410  17.446 -0.4206  1.5327  0.8492
  309MPD2    H2 4653   0.523   4.271  17.066  1.0908  0.0311  0.9792
  309MPD2    H3 4654   0.493   4.242  17.294  0.5414  0.6104  2.7631
  309MPD2     N 4655   0.389   4.655  17.396 -0.2384 -0.0340 -0.0208
  309MPD2    H5 4656   0.348   4.613  17.479 -0.3893 -0.7955 -0.4774
  309MPD2    N1 4657   0.511   4.512  16.931  0.2633  0.1202 -0.7125
  309MPD2    H7 4658   0.504   4.610  16.908 -2.5271  0.2121  0.4746
  310TMC3    C1 4659   0.597   4.462  16.713  0.8201 -0.6098  0.1048
  310TMC3    C2 4660   0.554   4.584  16.655  0.1407  0.9938  0.4497
  310TMC3    C3 4661   0.617   4.628  16.543 -0.6067  0.3054  0.1443
  310TMC3    C4 4662   0.693   4.391  16.650  0.7341 -0.1518 -0.9795
  310TMC3    C5 4663   0.752   4.432  16.535 -0.9600  0.6543  0.4644
  310TMC3    C6 4664   0.712   4.555  16.480 -0.5922 -0.7046 -0.2473
  310TMC3     C 4665   0.550   4.410  16.839 -0.1288  0.6476  0.2058
  310TMC3     O 4666   0.563   4.291  16.851  0.2810  0.4124 -0.1429
  310TMC3     H 4667   0.472   4.631  16.708 -0.0703  1.7783 -0.5697
  310TMC3    H1 4668   0.730   4.303  16.702  0.8456  0.6070  0.2350
  310TMC3    H2 4669   0.767   4.594  16.395 -3.7262  1.6175 -1.1964
  310TMC3    C7 4670   0.885   4.374  16.511  0.6663 -0.0881  0.6758
  310TMC3    C8 4671   0.583   0.029  16.478  0.1265 -0.0996  0.2485
  310TMC3    O1 4672   0.910   4.262  16.554 -0.5140 -0.0653 -0.3037
  310TMC3    O2 4673   0.579   0.026  16.359 -0.4128  0.5580 -0.4862
  311MPD2     C 4674   3.032   1.938  12.467 -0.1571  0.1691  0.1295
  311MPD2    C1 4675   3.039   2.053  12.543 -0.8596 -0.4349 -0.6299
  311MPD2    C2 4676   2.916   2.106  12.584  0.3985  0.0866  0.4536
  311MPD2    C3 4677   2.791   2.055  12.538 -0.3736  0.4315  0.0853
  311MPD2    C4 4678   2.797   1.940  12.460 -0.1450 -0.7348  0.0014
  311MPD2    C5 4679   2.913   1.887  12.424 -0.0349 -0.0070  0.1116
  311MPD2     H 4680   2.918   2.195  12.645 -0.5166  1.4137 -1.4610
  311MPD2    H1 4681   2.709   1.891  12.420 -0.6162 -0.4471  0.6967
  311MPD2    H2 4682   3.117   1.884  12.428 -0.5878 -1.2352  1.1454
  311MPD2    H3 4683   2.914   1.801  12.358  0.1147 -0.4003  0.6208
  311MPD2     N 4684   2.667   2.122  12.574 -0.2467  0.1563  0.0599
  311MPD2    H5 4685   2.662   2.197  12.643  2.8557  0.1791  0.2619
  311MPD2    N1 4686   3.165   2.119  12.572 -0.3914  0.3996  0.6256
  311MPD2    H7 4687   3.159   2.215  12.604  0.8265  0.2974  1.1765
  312TMC3    C1 4688   2.436   2.141  12.620  0.2527  0.3640 -0.2115
  312TMC3    C2 4689   2.314   2.101  12.590  0.4730 -0.5042 -0.0876
  312TMC3    C3 4690   2.210   2.175  12.638  0.9528 -0.8009 -0.9258
  312TMC3    C4 4691   2.461   2.245  12.706 -0.6230  0.0082 -0.5452
  312TMC3    C5 4692   2.346   2.300  12.757 -0.4513  0.3681 -0.0864
  312TMC3    C6 4693   2.218   2.279  12.723 -0.4966  0.1875  0.1847
  312TMC3     C 4694   2.541   2.080  12.544 -0.2574 -0.1369 -0.5218
  312TMC3     O 4695   2.510   1.997  12.458 -0.2591 -0.2218 -0.1742
  312TMC3     H 4696   2.298   2.035  12.506 -0.1230 -0.8297  0.2834
  312TMC3    H1 4697   2.556   2.297  12.713 -0.0143 -0.9068 -2.1007
  312TMC3    H2 4698   2.136   2.321  12.779  0.0454  0.6313  0.6478
  312TMC3    C7 4699   2.365   2.390  12.871 -0.5123 -0.1537 -0.4262
  312TMC3    C8 4700   2.081   2.118  12.611  1.3461  0.3440  0.2058
  312TMC3    O1 4701   2.285   2.481  12.875 -0.0579 -0.0552  0.3557
  312TMC3    O2 4702   2.083   1.995  12.606  1.1354  0.2012  0.3675
  313MPD2     C 4703   3.068   0.979  10.154 -0.0833 -0.3082  0.2817
  313MPD2    C1 4704   3.067   0.874  10.245  1.2622 -0.2230  0.6619
  313MPD2    C2 4705   3.017   0.751  10.206 -0.6946  0.2595  0.0249
  313MPD2    C3 4706   2.975   0.739  10.071  0.0145 -0.0957 -0.2085
  313MPD2    C4 4707   2.987   0.837   9.981  0.4558 -0.0139 -0.0982
  313MPD2    C5 4708   3.031   0.957  10.023 -0.4018  0.2395  0.1548
  313MPD2     H 4709   3.024   0.657  10.260  1.1086  0.1714 -0.3628
  313MPD2    H1 4710   2.938   0.828   9.885  1.1055 -1.5336 -0.2820
  313MPD2    H2 4711   3.091   1.081  10.185  1.5606 -1.3729  2.5025
  313MPD2    H3 4712   3.048   1.040   9.956  1.9558  0.5197  1.0774
  313MPD2     N 4713   2.922   0.612  10.036  0.2730  0.3819  0.1944
  313MPD2    H5 4714   2.925   0.548  10.115  0.1922  0.1717  0.0289
  313MPD2    N1 4715   3.108   0.888  10.384 -0.1873  0.1325  0.0096
  313MPD2    H7 4716   3.099   0.803  10.440 -0.4743 -0.4933 -0.9908
  314TMC3    C1 4717   3.103   0.992  10.596  0.1623  0.2318  0.5197
  314TMC3    C2 4718   3.114   1.106  10.665 -0.1864  0.4471  0.0736
  314TMC3    C3 4719   3.005   1.150  10.739 -0.1001 -0.3475 -0.2796
  314TMC3    C4 4720   2.992   0.910  10.608  0.1674  0.3778 -0.4628
  314TMC3    C5 4721   2.891   0.966  10.678 -0.8839 -0.3996 -0.2328
  314TMC3    C6 4722   2.887   1.086  10.734 -0.1993  0.5504 -0.2014
  314TMC3     C 4723   3.131   1.006  10.451  0.1661  0.0005  0.0606
  314TMC3     O 4724   3.171   1.108  10.406  0.2005 -0.7769 -0.3945
  314TMC3     H 4725   3.192   1.176  10.641 -0.0126  0.6241  1.1923
  314TMC3    H1 4726   2.977   0.814  10.560 -3.3702  0.2397  0.8955
  314TMC3    H2 4727   2.801   1.126  10.786  0.3465  1.4725 -0.0030
  314TMC3    C7 4728   2.768   0.902  10.643  0.3526 -0.1599 -0.3813
  314TMC3    C8 4729   3.010   1.290  10.777 -0.1948  0.5340 -0.8166
  314TMC3    O1 4730   2.686   0.883  10.734 -0.4822  0.0969  0.2832
  314TMC3    O2 4731   2.908   1.355  10.787 -0.3369  0.4611  0.0213
  315MPD2     C 4732   1.714   0.066  17.645  0.7583  0.3582 -0.3036
  315MPD2    C1 4733   1.769   0.088   0.090  0.4487 -0.6520 -0.0170
  315MPD2    C2 4734   1.819   0.216   0.115 -0.3399 -0.0938 -0.0484
  315MPD2    C3 4735   1.819   0.313   0.022  0.1036  0.3188  0.4960
  315MPD2    C4 4736   1.763   0.291  17.581 -0.6137 -0.3040 -0.6765
  315MPD2    C5 4737   1.713   0.168  17.552  0.0925 -0.3332  0.1973
  315MPD2     H 4738   1.863   0.237   0.212 -1.2343 -1.7484  0.7152
  315MPD2    H1 4739   1.771   0.361  17.499  0.2058 -0.3462 -0.6336
  315MPD2    H2 4740   1.677   4.691  17.610  1.4021  0.1483 -0.4015
  315MPD2    H3 4741   1.665   0.152  17.456  0.1953  0.1703  0.0623
  315MPD2     N 4742   1.868   0.440   0.060 -0.3550  0.2601  0.1504
  315MPD2    H5 4743   1.899   0.461   0.154  0.1684  2.2164 -0.4645
  315MPD2    N1 4744   1.778   4.710   0.189  0.0008  0.4383  0.0661
  315MPD2    H7 4745   1.821   0.025   0.274  0.4213  1.8448 -0.7097
  316TMC3    C1 4746   1.926   0.666   0.045  0.0478  0.4847 -0.8247
  316TMC3    C2 4747   2.021   0.654   0.145 -0.0395 -0.0413 -0.0212
  316TMC3    C3 4748   2.052   0.773   0.198  0.3133 -0.3936  0.1972
  316TMC3    C4 4749   1.864   0.779   0.001  0.7483  0.1626 -0.0455
  316TMC3    C5 4750   1.890   0.898   0.063 -0.0528 -0.3427 -0.3926
  316TMC3    C6 4751   1.990   0.897   0.164 -0.5801 -0.2527 -0.4319
  316TMC3     C 4752   1.886   0.549  17.659  0.1285  1.1472  0.2013
  316TMC3     O 4753   1.857   0.560  17.540 -0.9185  0.2374 -0.4600
  316TMC3     H 4754   2.051   0.552   0.167 -0.2214 -0.1446 -0.2506
  316TMC3    H1 4755   1.786   0.782  17.608  2.6145 -0.8153 -2.0223
  316TMC3    H2 4756   2.019   0.985   0.221  1.1471 -1.3042  0.3297
  316TMC3    C7 4757   1.852   1.022   0.011 -0.6167 -0.0412 -0.2312
  316TMC3    C8 4758   2.145   0.773   0.311 -0.2764 -0.2212  0.1840
  316TMC3    O1 4759   1.893   1.115   0.077  0.5134  0.6502  0.5319
  316TMC3    O2 4760   2.199   0.882   0.330  0.0360 -0.0591  0.1236
  317MPD2     C 4761   0.047   3.006  12.370  0.4276 -0.2541 -0.2653
  317MPD2    C1 4762   0.149   2.913  12.371  0.1997  0.4105  0.2651
  317MPD2    C2 4763   0.201   2.868  12.495 -0.8023 -0.4331 -0.6083
  317MPD2    C3 4764   0.128   2.885  12.611  0.8189 -0.2534 -0.0426
  317MPD2    C4 4765   0.021   2.973  12.610 -0.5907  0.4993 -0.6734
  317MPD2    C5 4766   4.702   3.030  12.494  0.3139 -0.4221 -0.0995
  317MPD2     H 4767   0.284   2.798  12.501  0.2879  0.9577  0.5492
  317MPD2    H1 4768   4.686   3.008  12.696  0.2673 -1.8651  0.8361
  317MPD2    H2 4769   0.008   3.046  12.277  1.0734  1.5228  0.2187
  317MPD2    H3 4770   4.624   3.104  12.483 -0.1775 -0.7625  1.0446
  317MPD2     N 4771   0.183   2.827  12.728  0.4688  0.6131 -0.3305
  317MPD2    H5 4772   0.277   2.788  12.730  0.2146 -0.0250 -0.9957
  317MPD2    N1 4773   0.233   2.889  12.255 -0.4066 -0.4751  0.4173
  317MPD2    H7 4774   0.321   2.851  12.288 -0.0276 -1.8051 -2.1622
  318TMC3    C1 4775   0.190   2.743  12.941 -0.7560 -0.3573  0.5071
  318TMC3    C2 4776   0.116   2.645  13.007  0.1431 -0.4604 -0.0885
  318TMC3    C3 4777   0.182   2.538  13.063  0.2421 -0.2565  0.3828
  318TMC3    C4 4778   0.325   2.720  12.927  0.0711  0.0344  0.4627
  318TMC3    C5 4779   0.383   2.610  12.982 -0.3237  0.0495  0.4717
  318TMC3    C6 4780   0.320   2.521  13.055  0.4416 -0.7476  0.4623
  318TMC3     C 4781   0.117   2.825  12.847 -1.0804 -0.5761  0.2536
  318TMC3     O 4782   4.719   2.843  12.868  0.7544  0.1460 -0.2922
  318TMC3     H 4783   0.011   2.662  13.028  0.1599 -1.2269  0.6359
  318TMC3    H1 4784   0.389   2.806  12.910 -0.2542  0.0106 -0.8215
  318TMC3    H2 4785   0.379   2.439  13.094 -1.0116 -1.3421  1.3848
  318TMC3    C7 4786   0.527   2.601  12.967  0.8872 -0.4004  0.4463
  318TMC3    C8 4787   0.111   2.431  13.130  0.2633  0.1460 -0.4339
  318TMC3    O1 4788   0.566   2.599  12.849  0.1889 -0.0922 -0.4000
  318TMC3    O2 4789   0.154   2.318  13.115 -0.0197 -0.7554  0.0342
  319MPD2     C 4790   4.531   0.260  16.750  0.0857 -0.0728  0.0700
  319MPD2    C1 4791   4.571   0.130  16.742 -0.2683 -0.4282  0.4592
  319MPD2    C2 4792   4.567   0.075  16.617 -0.4409  0.5023  0.0523
  319MPD2    C3 4793   4.529   0.145  16.496  0.1965  0.2606 -0.8660
  319MPD2    C4 4794   4.497   0.276  16.516 -0.3358  0.5481 -0.0349
  319MPD2    C5 4795   4.500   0.335  16.638  0.5113  0.0156 -0.0829
  319MPD2     H 4796   4.591   4.690  16.604  0.8099  0.7359  0.4360
  319MPD2    H1 4797   4.465   0.337  16.432  2.5639 -0.9923 -2.2384
  319MPD2    H2 4798   4.527   0.312  16.845 -0.7879  1.1974 -0.6666
  319MPD2    H3 4799   4.479   0.441  16.652  1.0094  0.2001 -0.7447
  319MPD2     N 4800   4.529   0.087  16.367 -0.3891 -0.7025 -0.3570
  319MPD2    H5 4801   4.505   0.155  16.296  1.8521  0.5657  0.1273
  319MPD2    N1 4802   4.601   0.051  16.853 -0.1098 -0.1370 -0.5045
  319MPD2    H7 4803   4.612   4.675  16.822  0.7590  0.2566 -1.4263
  320TMC3    C1 4804   4.504   4.626  16.208  0.4930  0.1927 -0.5867
  320TMC3    C2 4805   4.412   4.710  16.149  0.2042  0.6109  0.2150
  320TMC3    C3 4806   4.314   4.652  16.078  0.0292 -0.7801  0.4150
  320TMC3    C4 4807   4.508   4.495  16.183 -0.0211  0.9504 -0.1965
  320TMC3    C5 4808   4.415   4.440  16.105 -0.4926  0.0163 -0.1551
  320TMC3    C6 4809   4.314   4.516  16.048  0.6606  0.0442  0.5575
  320TMC3     C 4810   4.558   4.673  16.330 -0.4521  0.1325  0.1712
  320TMC3     O 4811   4.592   4.585  16.411  0.4206  0.4879  0.2474
  320TMC3     H 4812   4.433   0.096  16.147  0.3923  0.5396 -1.9364
  320TMC3    H1 4813   4.581   4.428  16.227 -2.3878 -1.0483  0.6776
  320TMC3    H2 4814   4.239   4.457  15.999  0.2958 -0.7406  2.0644
  320TMC3    C7 4815   4.360   4.312  16.154 -0.3076 -0.2196 -0.5085
  320TMC3    C8 4816   4.222   0.021  16.019  0.0182 -0.0388 -0.2762
  320TMC3    O1 4817   4.441   4.219  16.149 -0.3526 -0.2410  0.4371
  320TMC3    O2 4818   4.223   0.137  16.051 -0.2685 -0.0044 -0.9155
  321TMC3    C1 4819   4.649   4.691  17.075 -0.0044 -1.0140 -0.2958
  321TMC3    C2 4820   4.685   4.576  17.013  0.4536  0.1805  0.3306
  321TMC3    C3 4821   0.042   4.498  17.092 -0.2161 -0.1073 -0.1549
  321TMC3    C4 4822   4.663   4.717  17.208 -0.3542 -0.3717 -0.2538
  321TMC3    C5 4823   0.006   4.620  17.284 -0.1074  0.3050  0.6093
  321TMC3    C6 4824   0.085   4.530  17.217  0.2388 -1.3339 -0.3778
  321TMC3     C 4825   4.605   0.083  16.988 -0.0997 -0.1215  0.2155
  321TMC3     O 4826   4.594   0.198  17.029 -0.3157 -0.2370  0.4885
  321TMC3     H 4827   4.684   4.563  16.906 -2.4368 -3.1687  0.7520
  321TMC3    H1 4828   4.630   0.094  17.244 -1.1985 -1.2694  1.4042
  321TMC3    H2 4829   0.135   4.454  17.276 -0.5859  0.0867  2.1711
  321TMC3    C7 4830   4.707   4.616  17.424 -0.6156 -0.0050  0.1692
  321TMC3    C8 4831   0.006   4.358  17.091  0.3727  0.2506 -0.1699
  321TMC3    O1 4832   0.064   4.534  17.470  0.5508 -0.3471  0.8914
  321TMC3    O2 4833   0.054   4.291  17.178 -0.4117 -0.0296  0.1360
  322MPD2     C 4834   3.604   1.271  13.409  0.0028  0.5413 -0.5465
  322MPD2    C1 4835   3.601   1.177  13.517 -0.1009  0.3226 -0.8841
  322MPD2    C2 4836   3.677   1.062  13.511 -0.2096 -0.4177 -0.8963
  322MPD2    C3 4837   3.763   1.036  13.410  0.3407 -0.2334 -1.0728
  322MPD2    C4 4838   3.757   1.119  13.303 -0.3806  0.3441 -0.0690
  322MPD2    C5 4839   3.682   1.237  13.295 -0.4028  0.3351 -0.0434
  322MPD2     H 4840   3.690   0.997  13.598 -2.5592 -0.4020 -0.5138
  322MPD2    H1 4841   3.815   1.093  13.216  0.3080  0.0921  0.4675
  322MPD2    H2 4842   3.547   1.363  13.409  0.7624  1.0071  2.0731
  322MPD2    H3 4843   3.681   1.290  13.200 -0.0415 -0.2480 -0.3703
  322MPD2     N 4844   3.844   0.922  13.424 -0.2265 -0.8278  0.0173
  322MPD2    H5 4845   3.845   0.879  13.515 -1.4789 -1.0673 -0.0802
  322MPD2    N1 4846   3.551   1.225  13.640 -0.8254 -0.0155 -0.8122
  322MPD2    H7 4847   3.536   1.326  13.643 -0.7210 -0.0129 -0.2587
  323TMC3    C1 4848   3.595   1.235  13.873 -0.0330 -0.0909  0.4206
  323TMC3    C2 4849   3.666   1.346  13.856  0.1224  0.5254  0.5190
  323TMC3    C3 4850   3.717   1.413  13.966  0.1612 -0.0271 -0.2989
  323TMC3    C4 4851   3.573   1.185  13.996  0.0296  0.0588 -0.6392
  323TMC3    C5 4852   3.614   1.259  14.111  0.0918  0.7759 -0.2316
  323TMC3    C6 4853   3.685   1.371  14.094 -0.3028 -0.0338  1.2223
  323TMC3     C 4854   3.569   1.151  13.758  0.3738  0.4980  0.0599
  323TMC3     O 4855   3.558   1.033  13.779 -0.0454 -0.2285 -0.2154
  323TMC3     H 4856   3.716   1.372  13.764  0.8682 -2.7116  0.0334
  323TMC3    H1 4857   3.521   1.091  14.007  1.9635 -0.8582  0.5866
  323TMC3    H2 4858   3.731   1.423  14.178  0.5231  1.2459 -0.0071
  323TMC3    C7 4859   3.655   1.172  14.220  0.0028 -0.0849  0.5578
  323TMC3    C8 4860   3.854   1.447  13.951 -0.2639  0.1609 -0.1592
  323TMC3    O1 4861   3.618   1.053  14.205  0.0117 -0.2279 -0.4156
  323TMC3    O2 4862   3.917   1.428  14.054  0.2113 -0.3165  0.7601
  324MPD2     C 4863   0.467   2.933  14.916  0.9359 -0.4635 -0.1662
  324MPD2    C1 4864   0.521   2.806  14.898  0.4470 -0.1586  0.7027
  324MPD2    C2 4865   0.445   2.692  14.930  0.0183 -0.5034 -0.5543
  324MPD2    C3 4866   0.306   2.708  14.958  0.4113 -0.3073 -0.7829
  324MPD2    C4 4867   0.258   2.837  14.967 -0.0849 -0.2008  0.1096
  324MPD2    C5 4868   0.334   2.951  14.937 -0.3721 -0.2029 -0.1308
  324MPD2     H 4869   0.485   2.597  14.898  0.6550 -0.4584  0.0970
  324MPD2    H1 4870   0.156   2.847  15.003 -0.5233  0.2019 -1.2200
  324MPD2    H2 4871   0.520   3.025  14.897  1.6650 -0.6216  1.0955
  324MPD2    H3 4872   0.297   3.052  14.950  1.3453  0.2409  1.3506
  324MPD2     N 4873   0.214   2.599  14.964 -0.4585  0.3179  0.8599
  324MPD2    H5 4874   0.119   2.629  14.980 -0.5249  0.1112  0.8499
  324MPD2    N1 4875   0.655   2.788  14.857 -0.1005 -0.1664  0.1730
  324MPD2    H7 4876   0.710   2.868  14.830 -1.9853  1.6943  1.8521
  325TMC3    C1 4877   0.110   2.404  14.915  0.2087  0.1182  0.1079
  325TMC3    C2 4878   0.104   2.319  14.810 -0.5729 -0.2387 -0.5808
  325TMC3    C3 4879   4.708   2.302  14.738  0.1644  0.4900 -0.5560
  325TMC3    C4 4880   4.716   2.470  14.954 -0.5728 -0.1079  0.1444
  325TMC3    C5 4881   4.599   2.452  14.883 -0.0342  0.2136  0.2607
  325TMC3    C6 4882   4.591   2.372  14.769 -0.9412  0.0006 -0.1789
  325TMC3     C 4883   0.242   2.467  14.941 -0.5976  0.3746 -0.5020
  325TMC3     O 4884   0.345   2.407  14.946 -0.3162  0.6693  0.7917
  325TMC3     H 4885   0.199   2.278  14.779 -0.0924  0.5682 -0.1734
  325TMC3    H1 4886   4.708   2.523  15.048 -1.3656  2.1109 -1.1842
  325TMC3    H2 4887   4.502   2.346  14.714 -0.4383 -1.8349 -0.1170
  325TMC3    C7 4888   4.495   2.555  14.907 -0.7202 -0.1977 -0.0907
  325TMC3    C8 4889   0.009   2.262  14.598 -0.5216 -0.1795 -0.1992
  325TMC3    O1 4890   4.495   2.620  15.012 -0.0173  0.1826  0.0102
  325TMC3    O2 4891   0.108   2.194  14.577 -0.3420  0.1744 -0.2968
  326MPD2     C 4892   1.991   3.342  10.998 -0.2219 -0.0899  0.7408
  326MPD2    C1 4893   2.035   3.351  10.866 -0.0091 -0.1645 -0.0479
  326MPD2    C2 4894   2.152   3.425  10.849  0.2744 -1.0332  0.5462
  326MPD2    C3 4895   2.224   3.484  10.953 -0.1260 -0.1421  0.4102
  326MPD2    C4 4896   2.167   3.494  11.076  0.2993  0.0406 -0.3085
  326MPD2    C5 4897   2.053   3.413  11.099  0.4624  0.4605  0.4593
  326MPD2     H 4898   2.194   3.432  10.750  1.7038 -0.9560  1.1637
  326MPD2    H1 4899   2.221   3.538  11.159  0.2568  0.2449 -0.3909
  326MPD2    H2 4900   1.893   3.299  11.018  0.4393 -1.9750 -0.0779
  326MPD2    H3 4901   2.000   3.396  11.192 -0.4647 -0.3460 -0.2140
  326MPD2     N 4902   2.338   3.561  10.927 -0.5645  0.0148  0.3404
  326MPD2    H5 4903   2.372   3.619  11.002  1.3868 -1.0244  0.2506
  326MPD2    N1 4904   1.973   3.291  10.760 -0.3058  0.0895  0.3058
  326MPD2    H7 4905   2.000   3.318  10.666  0.8918 -0.0722  0.6133
  327TMC3    C1 4906   1.816   3.157  10.643  0.0484 -0.2369  0.0930
  327TMC3    C2 4907   1.823   3.257  10.548  0.0361 -0.4685 -0.2722
  327TMC3    C3 4908   1.712   3.330  10.500 -0.0415 -0.6940  0.1435
  327TMC3    C4 4909   1.688   3.132  10.689  0.0972 -0.0550 -0.2369
  327TMC3    C5 4910   1.585   3.214  10.652 -0.3344  0.3447 -0.4100
  327TMC3    C6 4911   1.589   3.300  10.546 -0.2637  0.2520 -0.1273
  327TMC3     C 4912   1.894   3.184  10.767 -0.3070 -0.6255 -1.0773
  327TMC3     O 4913   1.849   3.132  10.866 -0.4754  0.3123 -0.3444
  327TMC3     H 4914   1.920   3.292  10.514  0.2165 -1.6193 -0.9086
  327TMC3    H1 4915   1.664   3.047  10.752 -0.9071 -1.3295 -2.3457
  327TMC3    H2 4916   1.496   3.352  10.526 -0.5682  0.4245  1.7704
  327TMC3    C7 4917   1.506   3.257  10.758  1.0520  0.0336 -0.1739
  327TMC3    C8 4918   1.740   3.475  10.472 -0.0037  0.0633  0.9900
  327TMC3    O1 4919   1.423   3.344  10.741 -0.3242 -0.1475  0.1775
  327TMC3    O2 4920   1.853   3.520  10.458  0.1613  0.4603 -0.9443
  328MPD2     C 4921   4.051   2.936  17.254  0.7842 -0.2133  0.2809
  328MPD2    C1 4922   3.923   2.896  17.232  0.5795 -0.1785 -0.6594
  328MPD2    C2 4923   3.833   2.990  17.184 -0.0098 -0.5291  0.2955
  328MPD2    C3 4924   3.865   3.117  17.153  0.2431 -0.0056  0.2418
  328MPD2    C4 4925   3.992   3.161  17.166 -0.5283  0.1135  0.4256
  328MPD2    C5 4926   4.084   3.067  17.222  0.2233 -0.0286 -0.0183
  328MPD2     H 4927   3.729   2.960  17.183  0.0490 -0.6332 -1.9233
  328MPD2    H1 4928   4.028   3.260  17.142 -2.8079  1.4768  2.6121
  328MPD2    H2 4929   4.123   2.865  17.295  0.2058 -0.8832  0.1316
  328MPD2    H3 4930   4.185   3.107  17.225  0.1190  0.1052  2.0053
  328MPD2     N 4931   3.766   3.204  17.102  0.4413 -0.6934  0.0389
  328MPD2    H5 4932   3.784   3.302  17.082 -0.7260 -0.8334 -1.6782
  328MPD2    N1 4933   3.861   2.768  17.254 -0.2920  0.3898 -0.0496
  328MPD2    H7 4934   3.768   2.750  17.217 -0.4496  0.7994  0.1495
  329TMC3    C1 4935   3.849   2.546  17.316 -0.3446  0.2601  0.1039
  329TMC3    C2 4936   3.714   2.572  17.294  0.4417  0.4097  0.3442
  329TMC3    C3 4937   3.651   2.513  17.187 -0.4687 -0.6077  0.5138
  329TMC3    C4 4938   3.919   2.469  17.230  0.1117  0.2448 -0.2108
  329TMC3    C5 4939   3.859   2.435  17.117  0.3372 -0.4266  0.0502
  329TMC3    C6 4940   3.722   2.448  17.093  0.2600 -0.8996  0.3610
  329TMC3     C 4941   3.918   2.669  17.336  0.4167  0.5776  0.1178
  329TMC3     O 4942   4.031   2.671  17.382 -0.4094 -0.3123  1.0990
  329TMC3     H 4943   3.658   2.635  17.361  1.7887  0.9070  1.0022
  329TMC3    H1 4944   4.026   2.456  17.239 -0.0627 -0.0995  1.2840
  329TMC3    H2 4945   3.671   2.418  17.002  2.7274 -0.4433 -1.1602
  329TMC3    C7 4946   3.944   2.386  17.007  0.2667 -0.3410 -0.5154
  329TMC3    C8 4947   3.508   2.525  17.159  0.3778 -0.1442  0.8163
  329TMC3    O1 4948   4.054   2.352  17.046 -0.4093  0.2905  0.1753
  329TMC3    O2 4949   3.459   2.473  17.061  0.6574 -0.0960 -0.6914
  330TMC3    C1 4950   2.348   2.104   9.431 -0.2172  0.3587  0.8573
  330TMC3    C2 4951   2.338   1.967   9.409  0.3049  0.2299 -0.4521
  330TMC3    C3 4952   2.409   1.877   9.492 -0.6475  0.5090  0.0473
  330TMC3    C4 4953   2.430   2.157   9.523 -0.1948 -0.2576 -0.4363
  330TMC3    C5 4954   2.509   2.068   9.595 -0.2567 -0.0998  0.0333
  330TMC3    C6 4955   2.494   1.936   9.583 -0.3682  0.1640  0.0114
  330TMC3     C 4956   2.241   2.190   9.396 -0.1320 -0.0713 -0.0537
  330TMC3     O 4957   2.250   2.309   9.415 -0.5209 -0.1318 -0.3112
  330TMC3     H 4958   2.282   1.934   9.322  1.4586 -1.4252 -0.5531
  330TMC3    H1 4959   2.456   2.263   9.527 -0.3208 -0.3252  2.4523
  330TMC3    H2 4960   2.578   1.872   9.607 -2.3350 -1.2828  3.0440
  330TMC3    C7 4961   2.599   2.126   9.694  0.7601  0.7034 -0.9374
  330TMC3    C8 4962   2.469   1.778   9.411  0.7788  0.1067 -0.5794
  330TMC3    O1 4963   2.638   2.239   9.678 -0.4855 -0.1001 -0.0175
  330TMC3    O2 4964   2.499   1.810   9.296 -0.1840  0.7477 -0.1639
  331MPD2     C 4965   4.627   1.636  12.577 -0.9747 -0.6831 -0.2177
  331MPD2    C1 4966   0.021   1.699  12.528  0.4238 -0.4575  0.3343
  331MPD2    C2 4967   0.134   1.610  12.495  0.0443  1.1183  0.3243
  331MPD2    C3 4968   0.124   1.478  12.521 -0.2967  0.2429 -0.3994
  331MPD2    C4 4969   0.017   1.424  12.580  0.4023 -0.0233  0.4093
  331MPD2    C5 4970   4.625   1.500  12.599  0.8335 -0.8559  0.6526
  331MPD2     H 4971   0.229   1.648  12.459 -0.2453  1.0659 -0.4990
  331MPD2    H1 4972   0.010   1.317  12.595 -0.2040  0.0515  0.6398
  331MPD2    H2 4973   4.543   1.698  12.606 -0.0690  1.0012 -1.2416
  331MPD2    H3 4974   4.535   1.454  12.638 -0.7819  0.0727 -2.0178
  331MPD2     N 4975   0.239   1.398  12.490 -0.0639 -0.4124  0.0382
  331MPD2    H5 4976   0.314   1.445  12.440  0.2599 -0.1414  0.7772
  331MPD2    N1 4977   0.023   1.838  12.504  0.0361 -0.8717 -0.1588
  331MPD2    H7 4978   4.659   1.891  12.523  1.0528  0.4260  0.6725
  332TMC3    C1 4979   0.390   1.222  12.495 -0.0057 -0.2581  0.2417
  332TMC3    C2 4980   0.441   1.263  12.378  0.5796 -0.9276  0.4461
  332TMC3    C3 4981   0.569   1.219  12.346 -0.1538  0.5870  0.5879
  332TMC3    C4 4982   0.462   1.139  12.576 -0.2079  0.3006 -0.2781
  332TMC3    C5 4983   0.592   1.103  12.536  0.4801 -0.2244  0.1227
  332TMC3    C6 4984   0.645   1.133  12.422 -0.0435 -0.2924  0.3581
  332TMC3     C 4985   0.267   1.270  12.538 -0.1485  0.3232  0.1473
  332TMC3     O 4986   0.215   1.192  12.617  0.7559 -0.0015 -0.1019
  332TMC3     H 4987   0.378   1.312  12.304  0.2378  0.5801  1.7390
  332TMC3    H1 4988   0.423   1.113  12.674 -0.3345 -2.0039 -0.9426
  332TMC3    H2 4989   0.745   1.115  12.385  0.6404  0.5417  1.8450
  332TMC3    C7 4990   0.676   1.075  12.647 -0.3967  0.5652  0.1551
  332TMC3    C8 4991   0.618   1.239  12.210  0.1174 -0.1091  0.2181
  332TMC3    O1 4992   0.630   1.028  12.752  0.4614  0.0540  0.3731
  332TMC3    O2 4993   0.699   1.158  12.162 -0.4910  0.2099  0.1528
  333MPD2     C 4994   0.687   1.330  11.128 -0.0594 -0.2330  0.0932
  333MPD2    C1 4995   0.712   1.203  11.077 -0.4049 -0.1770  0.3660
  333MPD2    C2 4996   0.693   1.090  11.158  0.1301 -0.7271  0.7349
  333MPD2    C3 4997   0.635   1.100  11.282 -1.1234  0.0962  1.1668
  333MPD2    C4 4998   0.624   1.232  11.337  0.3565  0.5821  0.8887
  333MPD2    C5 4999   0.659   1.338  11.261  0.0184 -0.4928  0.2448
  333MPD2     H 5000   0.730   0.995  11.121 -2.1521 -0.1784 -2.9978
  333MPD2    H1 5001   0.600   1.247  11.441  1.0962  0.2346  1.1082
  333MPD2    H2 5002   0.708   1.415  11.063 -1.8236 -0.4077 -0.6856
  333MPD2    H3 5003   0.645   1.435  11.307  1.8497 -0.3504  0.4965
  333MPD2     N 5004   0.621   0.987  11.363  0.2660  0.3037 -0.1655
  333MPD2    H5 5005   0.635   0.898  11.316  0.6928  1.5713 -2.4698
  333MPD2    N1 5006   0.768   1.199  10.944  0.4523  0.1926 -0.9596
  333MPD2    H7 5007   0.781   1.291  10.902  3.6678  0.8646  1.5049
  334TMC3    C1 5008   0.896   1.153  10.768 -0.2942  0.4781 -0.1582
  334TMC3    C2 5009   1.029   1.114  10.741  0.1446 -1.1134  0.8506
  334TMC3    C3 5010   1.105   1.196  10.665 -0.6146  0.2011  0.4091
  334TMC3    C4 5011   0.837   1.257  10.699  0.1633 -0.1810  0.9689
  334TMC3    C5 5012   0.920   1.336  10.625  0.8347 -0.9870 -0.4844
  334TMC3    C6 5013   1.059   1.315  10.616  0.2922  0.7987 -0.3334
  334TMC3     C 5014   0.833   1.095  10.885  1.1106 -0.0986  0.2014
  334TMC3     O 5015   0.891   0.997  10.931 -0.7311 -0.1176  0.2268
  334TMC3     H 5016   1.072   1.030  10.794 -0.4883 -1.5175  0.7274
  334TMC3    H1 5017   0.736   1.290  10.716 -0.2519 -0.9868  0.0812
  334TMC3    H2 5018   1.122   1.391  10.570 -0.9221  4.0801  3.4077
  334TMC3    C7 5019   0.875   1.467  10.567 -0.1976  0.8617  0.3957
  334TMC3    C8 5020   1.243   1.153  10.644  0.0010 -0.1470 -0.0670
  334TMC3    O1 5021   0.957   1.557  10.589 -0.2641 -0.5286  0.1908
  334TMC3    O2 5022   1.275   1.038  10.675 -0.3695  0.1579 -0.1000
  335TMC3    C1 5023   0.176   3.402  17.219  0.3632 -0.9503 -0.5199
  335TMC3    C2 5024   0.067   3.320  17.212  0.1057 -0.1179 -0.3207
  335TMC3    C3 5025   0.027   3.255  17.324  0.1866  0.8353  0.0673
  335TMC3    C4 5026   0.246   3.410  17.326 -0.4307  0.0841  0.0430
  335TMC3    C5 5027   0.208   3.352  17.438  0.3681 -0.6300 -0.3415
  335TMC3    C6 5028   0.098   3.274  17.435  0.6858 -0.5234 -0.4373
  335TMC3     C 5029   0.209   3.479  17.101  0.1648 -0.4472 -0.6211
  335TMC3     O 5030   0.327   3.521  17.087 -0.1421  0.9946  0.1772
  335TMC3     H 5031   0.026   3.300  17.114 -0.1323  2.5169 -0.7618
  335TMC3    H1 5032   0.322   3.487  17.320 -1.6659  1.1768 -1.7090
  335TMC3    H2 5033   0.069   3.224  17.527 -0.8198 -0.4981 -0.8929
  335TMC3    C7 5034   0.321   3.313  17.514  1.0642  0.1382  0.1866
  335TMC3    C8 5035   4.633   3.160  17.324 -0.8804  0.0213  0.5276
  335TMC3    O1 5036   0.357   3.193  17.508 -0.2216 -0.3072 -0.5933
  335TMC3    O2 5037   4.641   3.074  17.413  0.5717 -0.3145  0.7638
  336MPD2     C 5038   4.384   1.300  16.286 -0.2424  0.4029  0.5869
  336MPD2    C1 5039   4.440   1.282  16.165  0.3579  0.5433 -0.2058
  336MPD2    C2 5040   4.483   1.152  16.122 -0.1841 -0.2887 -0.5272
  336MPD2    C3 5041   4.475   1.050  16.215 -0.2200  0.0847 -0.0133
  336MPD2    C4 5042   4.418   1.076  16.338  0.0986 -0.1276  0.4130
  336MPD2    C5 5043   4.360   1.195  16.370  0.5432  0.9572  0.5544
  336MPD2     H 5044   4.513   1.133  16.020  2.0816  1.0064 -0.0960
  336MPD2    H1 5045   4.410   0.996  16.411  1.4717  0.9771  1.7456
  336MPD2    H2 5046   4.370   1.404  16.314 -0.0367  0.0224  2.0818
  336MPD2    H3 5047   4.317   1.208  16.468  0.2455  1.4876  0.3534
  336MPD2     N 5048   4.523   0.914  16.193 -0.0869  0.1690  0.2196
  336MPD2    H5 5049   4.507   0.846  16.266  1.7054  0.2648  0.7008
  336MPD2    N1 5050   4.437   1.399  16.084  0.0936  0.1597  0.0573
  336MPD2    H7 5051   4.402   1.484  16.127 -0.0773 -1.1978  2.5916
  337TMC3    C1 5052   4.470   1.537  15.890 -0.0026  0.0035 -0.1470
  337TMC3    C2 5053   4.408   1.537  15.768  0.1083 -0.0508 -0.3927
  337TMC3    C3 5054   4.360   1.657  15.732  0.7697 -0.3019 -0.2713
  337TMC3    C4 5055   4.475   1.640  15.974 -0.4686 -0.1265 -0.5551
  337TMC3    C5 5056   4.442   1.765  15.930 -0.3893  0.1248  0.2364
  337TMC3    C6 5057   4.372   1.768  15.816  0.0074  0.5051  0.2180
  337TMC3     C 5058   4.484   1.402  15.955 -0.1274 -0.2048 -0.4783
  337TMC3     O 5059   4.518   1.308  15.881 -0.5626 -0.7506  0.1730
  337TMC3     H 5060   4.413   1.447  15.708  0.7528 -1.3587  1.6308
  337TMC3    H1 5061   4.540   1.630  16.060 -1.9929  0.8842  0.7222
  337TMC3    H2 5062   4.325   1.861  15.787 -1.4735  0.0951  1.2834
  337TMC3    C7 5063   4.450   1.886  16.009  0.5016  0.1297 -0.0856
  337TMC3    C8 5064   4.235   1.657  15.655  0.2968  0.3110  0.2960
  337TMC3    O1 5065   4.442   1.994  15.960  0.8965  0.1040 -0.1153
  337TMC3    O2 5066   4.175   1.761  15.636  0.1935 -0.3919  0.3377
  338MPD2     C 5067   0.113   4.127   1.194  0.0186 -0.2629  0.5475
  338MPD2    C1 5068   0.068   4.202   1.086  0.2436  0.4833 -0.3684
  338MPD2    C2 5069   4.664   4.181   1.034 -0.6107  0.4337  0.0087
  338MPD2    C3 5070   4.570   4.098   1.083  0.2931 -0.7300 -0.8469
  338MPD2    C4 5071   4.612   4.024   1.192  0.1225 -0.0187  0.1553
  338MPD2    C5 5072   0.020   4.037   1.243 -0.1518  0.0909 -0.0125
  338MPD2     H 5073   4.640   4.220   0.936 -2.3042  1.2489  0.7533
  338MPD2    H1 5074   4.553   3.959   1.254 -0.3101  0.0551 -0.1768
  338MPD2    H2 5075   0.216   4.134   1.226  0.8411 -2.2419 -1.6616
  338MPD2    H3 5076   0.053   3.975   1.326 -0.3071 -0.6273 -0.4913
  338MPD2     N 5077   4.444   4.092   1.019 -0.4771  1.0886  0.4731
  338MPD2    H5 5078   4.415   4.157   0.946 -2.4170  0.2795  0.5305
  338MPD2    N1 5079   0.146   4.304   1.032  0.4386 -0.0538  0.0721
  338MPD2    H7 5080   0.105   4.346   0.948  1.5972  1.9198  0.4962
  339TMC3    C1 5081   4.222   4.048   0.980  0.5176 -1.2724 -0.6325
  339TMC3    C2 5082   4.098   4.020   1.032  0.5167 -0.6335  0.1667
  339TMC3    C3 5083   3.986   4.064   0.959  0.0645 -0.6532 -0.1682
  339TMC3    C4 5084   4.237   4.094   0.852  0.7078 -0.1741  0.2288
  339TMC3    C5 5085   4.128   4.148   0.789  0.3069 -0.2153 -0.1764
  339TMC3    C6 5086   4.003   4.139   0.846  0.2216 -0.6793  0.2718
  339TMC3     C 5087   4.337   4.020   1.068  0.5408 -0.2564 -0.0740
  339TMC3     O 5088   4.325   3.960   1.173  0.2714 -0.1859  0.4723
  339TMC3     H 5089   4.093   3.990   1.136  0.8984 -1.2909  0.0008
  339TMC3    H1 5090   4.332   4.100   0.802  0.8168 -0.3104  0.4183
  339TMC3    H2 5091   3.916   4.177   0.793 -0.3605 -1.4035  0.7123
  339TMC3    C7 5092   4.156   4.269   0.712 -0.3850 -0.6608 -0.1224
  339TMC3    C8 5093   3.849   4.059   1.008 -0.1802 -0.2903 -0.7757
  339TMC3    O1 5094   4.275   4.309   0.718 -0.9595  0.3574  0.0897
  339TMC3    O2 5095   3.766   4.144   0.967  0.0817  0.2434  0.1667
  340MPD2     C 5096   0.615   2.480   9.143 -0.0188  0.5135  0.6601
  340MPD2    C1 5097   0.752   2.465   9.130 -0.1720  0.5824 -0.5663
  340MPD2    C2 5098   0.831   2.577   9.106  0.4764  0.2510  0.0075
  340MPD2    C3 5099   0.770   2.698   9.080  0.2891 -0.2076  0.5264
  340MPD2    C4 5100   0.634   2.715   9.106  0.1898 -0.4178  0.1838
  340MPD2    C5 5101   0.560   2.605   9.130 -0.9176  0.7063 -1.3161
  340MPD2     H 5102   0.939   2.570   9.101  0.1212 -3.1660 -3.0191
  340MPD2    H1 5103   0.578   2.808   9.099  0.1624 -0.5271 -1.1754
  340MPD2    H2 5104   0.547   2.399   9.163  1.4159 -0.5016  1.4003
  340MPD2    H3 5105   0.455   2.608   9.157 -0.4559 -0.8616  0.6722
  340MPD2     N 5106   0.836   2.808   9.026  0.4267 -0.0760  0.1478
  340MPD2    H5 5107   0.782   2.893   9.018  1.2235  0.1557 -2.7151
  340MPD2    N1 5108   0.805   2.337   9.135 -0.6154  0.2742 -0.3986
  340MPD2    H7 5109   0.729   2.270   9.135 -0.5428  0.1738 -1.9989
  341TMC3    C1 5110   0.969   2.166   9.164 -0.9949 -0.3661  1.2283
  341TMC3    C2 5111   0.873   2.070   9.135  0.3196  0.2137  0.3488
  341TMC3    C3 5112   0.886   1.948   9.195 -0.3923  0.5334  0.5521
  341TMC3    C4 5113   1.086   2.132   9.229 -0.1785 -0.1861 -0.4904
  341TMC3    C5 5114   1.096   2.009   9.278  0.0239 -0.0308 -0.6717
  341TMC3    C6 5115   1.005   1.914   9.263  0.0503 -0.4335  0.3328
  341TMC3     C 5116   0.938   2.302   9.149 -0.8056  0.7330 -0.1841
  341TMC3     O 5117   1.033   2.378   9.163  0.2465  0.4939 -0.4692
  341TMC3     H 5118   0.795   2.088   9.062  1.8762  1.3090 -1.0560
  341TMC3    H1 5119   1.158   2.205   9.265 -0.1525  0.5680 -2.0184
  341TMC3    H2 5120   1.008   1.821   9.318 -0.9955 -1.3350 -1.1458
  341TMC3    C7 5121   1.220   1.974   9.346  0.1181 -0.0316  0.6710
  341TMC3    C8 5122   0.769   1.871   9.228  0.0995  0.5175 -0.7961
  341TMC3    O1 5123   1.279   2.076   9.382  0.4306 -0.4157  0.1547
  341TMC3    O2 5124   0.670   1.900   9.162  0.3605 -0.4893 -0.0301
  342MPD2     C 5125   2.821   1.530  17.569 -0.4836 -0.2700 -0.4275
  342MPD2    C1 5126   2.931   1.510  17.491 -0.4339  0.0900  0.1609
  342MPD2    C2 5127   3.048   1.586  17.520 -0.1390  0.2357 -0.1068
  342MPD2    C3 5128   3.055   1.676  17.623  0.2569 -0.6112  0.0497
  342MPD2    C4 5129   2.948   1.701   0.013 -0.3744  0.4069 -0.0680
  342MPD2    C5 5130   2.834   1.626  17.667  0.1619 -0.4101  0.1657
  342MPD2     H 5131   3.135   1.567  17.458  0.6917 -0.4464  1.2404
  342MPD2    H1 5132   2.946   1.766   0.100 -1.3116 -1.7744  1.5643
  342MPD2    H2 5133   2.732   1.471  17.547 -0.3574 -1.2263  1.6347
  342MPD2    H3 5134   2.754   1.643   0.056 -0.0479  0.2997 -0.2393
  342MPD2     N 5135   3.173   1.725  17.678  0.0322  0.3213 -0.4880
  342MPD2    H5 5136   3.161   1.792   0.070 -1.1179 -0.3185 -0.1002
  342MPD2    N1 5137   2.938   1.412  17.391 -0.2169  0.4506 -0.3001
  342MPD2    H7 5138   3.014   1.423  17.325  0.0980  0.5644  0.0804
  343TMC3    C1 5139   2.876   1.219  17.272 -0.5254  0.1127  0.7427
  343TMC3    C2 5140   2.945   1.264  17.162  0.7137 -0.2080  0.1308
  343TMC3    C3 5141   2.968   1.173  17.066  0.8822 -0.3977 -0.1905
  343TMC3    C4 5142   2.845   1.089  17.286  0.1777  0.0687 -0.0785
  343TMC3    C5 5143   2.876   1.009  17.189 -0.2440  0.3637  0.5553
  343TMC3    C6 5144   2.926   1.045  17.067  0.3877  0.9177  0.4376
  343TMC3     C 5145   2.852   1.307  17.383 -0.7634 -0.2901  0.0572
  343TMC3     O 5146   2.772   1.274  17.471  0.3033 -0.4867  0.0105
  343TMC3     H 5147   2.966   1.369  17.148  2.3270 -0.4261  0.9505
  343TMC3    H1 5148   2.815   1.059  17.386 -0.5754  1.9174  0.2500
  343TMC3    H2 5149   2.955   0.965  17.000 -2.4114 -1.4170  2.0423
  343TMC3    C7 5150   2.816   0.874  17.197 -0.2814 -0.9156 -0.8459
  343TMC3    C8 5151   3.078   1.215  16.979  0.3327 -0.2151  0.2049
  343TMC3    O1 5152   2.819   0.805  17.098 -0.6272  0.3024 -0.1082
  343TMC3    O2 5153   3.111   1.331  16.986  0.8995 -0.1326 -0.0999
  344MPD2     C 5154   0.040   0.726  10.826  0.2242  0.2224  0.6339
  344MPD2    C1 5155   4.648   0.751  10.744 -0.2711  0.5685  0.0918
  344MPD2    C2 5156   4.669   0.819  10.621 -0.9218 -0.2001 -0.0679
  344MPD2    C3 5157   0.076   0.867  10.590  0.1821  0.1443 -1.0843
  344MPD2    C4 5158   0.182   0.836  10.670  0.5271  0.3281 -0.1400
  344MPD2    C5 5159   0.161   0.774  10.788 -0.5228 -0.3431 -0.5391
  344MPD2     H 5160   4.581   0.821  10.557 -1.9103 -0.1704  1.2963
  344MPD2    H1 5161   0.288   0.850  10.654  0.5082  0.1155 -0.4552
  344MPD2    H2 5162   0.033   0.657  10.910 -0.1906  0.6559  0.9511
  344MPD2    H3 5163   0.256   0.740  10.830 -1.5325 -1.3437  0.9310
  344MPD2     N 5164   0.104   0.932  10.470 -0.1942 -0.0089  0.3035
  344MPD2    H5 5165   0.201   0.941  10.441 -0.1135  0.3690  0.6871
  344MPD2    N1 5166   4.521   0.705  10.780 -0.7403  0.0308 -0.6607
  344MPD2    H7 5167   4.453   0.724  10.707 -0.7335 -0.3048 -0.7532
  345TMC3    C1 5168   0.066   1.040  10.257  0.1289 -0.2859  0.4537
  345TMC3    C2 5169   0.197   1.083  10.262 -0.2954 -0.4396 -0.5080
  345TMC3    C3 5170   0.228   1.169  10.160 -0.2638 -0.4415 -0.1104
  345TMC3    C4 5171   4.690   1.093  10.180 -0.2118 -0.0053 -0.0758
  345TMC3    C5 5172   0.009   1.187  10.088 -0.5202  0.3627  0.3906
  345TMC3    C6 5173   0.139   1.223  10.072 -0.8119 -0.2132 -0.2424
  345TMC3     C 5174   0.014   0.971  10.371  0.2443  0.6109 -0.4530
  345TMC3     O 5175   4.615   0.960  10.380  0.3385 -0.3814  0.2719
  345TMC3     H 5176   0.276   1.053  10.330 -0.3721  2.1107  0.7047
  345TMC3    H1 5177   4.584   1.089  10.202 -0.2947  1.1121 -0.2609
  345TMC3    H2 5178   0.160   1.296   9.994  0.7713  0.0569  0.4277
  345TMC3    C7 5179   4.633   1.282  10.030  0.1871 -0.2768 -0.7598
  345TMC3    C8 5180   0.362   1.235  10.155 -0.0231  0.8113  0.2095
  345TMC3    O1 5181   4.675   1.394  10.002 -0.1504  0.1006  0.3144
  345TMC3    O2 5182   0.455   1.168  10.196 -0.2534  0.6653  0.0731
  346MPD2     C 5183   4.326   2.125  13.719  0.3545  0.4765 -1.1896
  346MPD2    C1 5184   4.418   2.221  13.758  1.2069  0.2240  0.0800
  346MPD2    C2 5185   4.373   2.328  13.835  0.3996  0.5454  0.4444
  346MPD2    C3 5186   4.237   2.332  13.871  0.2921 -0.2047 -0.0913
  346MPD2    C4 5187   4.155   2.232  13.839 -0.1120  0.6424  0.3701
  346MPD2    C5 5188   4.198   2.133  13.757  0.1434 -0.1507 -0.2143
  346MPD2     H 5189   4.447   2.403  13.859  0.9039  0.4247 -0.6885
  346MPD2    H1 5190   4.054   2.215  13.875 -0.7552  1.8955 -0.8635
  346MPD2    H2 5191   4.366   2.055  13.647 -1.8018 -0.5988 -1.3349
  346MPD2    H3 5192   4.129   2.057  13.719 -1.7075  1.7677 -0.6700
  346MPD2     N 5193   4.193   2.444  13.949  0.1266 -0.0811 -0.0057
  346MPD2    H5 5194   4.263   2.512  13.977 -0.7465  1.1138 -0.7506
  346MPD2    N1 5195   4.556   2.226  13.713 -0.1615  0.3856 -0.0305
  346MPD2    H7 5196   4.606   2.312  13.729  0.6410 -0.7412  3.5004
  347TMC3    C1 5197   4.031   2.579  14.066 -0.0970 -0.0855 -0.0362
  347TMC3    C2 5198   4.120   2.625  14.158  0.4095  0.1920 -0.5541
  347TMC3    C3 5199   4.074   2.721  14.247 -0.1609  0.0124 -0.4135
  347TMC3    C4 5200   3.904   2.632  14.056 -0.2023 -0.1060 -0.7286
  347TMC3    C5 5201   3.864   2.732  14.144  0.1101 -0.6524 -0.1111
  347TMC3    C6 5202   3.948   2.779  14.243  0.1115  0.0547  0.3774
  347TMC3     C 5203   4.062   2.470  13.974 -0.8260 -0.0196 -0.4821
  347TMC3     O 5204   3.964   2.418  13.920 -0.1101  0.0593 -0.5175
  347TMC3     H 5205   4.214   2.573  14.174 -0.8097 -1.6966  0.4124
  347TMC3    H1 5206   3.831   2.603  13.981 -0.5169 -0.7272 -0.1824
  347TMC3    H2 5207   3.899   2.834  14.322 -1.6712 -0.2013 -0.5502
  347TMC3    C7 5208   3.744   2.809  14.122 -0.0268 -0.3935 -0.4799
  347TMC3    C8 5209   4.156   2.715  14.361  0.7135  0.2590  0.1800
  347TMC3    O1 5210   3.649   2.756  14.059 -0.2683 -0.6533 -0.1216
  347TMC3    O2 5211   4.266   2.668  14.343 -0.5897  0.3065 -0.4892
  348MPD2     C 5212   2.551   2.535  11.779 -0.2024 -0.4396  0.8875
  348MPD2    C1 5213   2.647   2.607  11.718  0.0721 -0.1552 -0.6389
  348MPD2    C2 5214   2.629   2.664  11.594  0.1461 -0.0786 -0.9838
  348MPD2    C3 5215   2.509   2.646  11.526  0.3524  0.9201 -0.0335
  348MPD2    C4 5216   2.409   2.576  11.590  0.2102 -0.1123  0.1417
  348MPD2    C5 5217   2.431   2.514  11.710  1.0238  0.6659  0.3404
  348MPD2     H 5218   2.712   2.721  11.556  1.1439  0.4084  1.9326
  348MPD2    H1 5219   2.314   2.557  11.541  1.1172 -0.0974 -1.5979
  348MPD2    H2 5220   2.554   2.497  11.880 -0.8353  0.3034  1.1803
  348MPD2    H3 5221   2.361   2.445  11.754  3.5327 -1.2635  1.3164
  348MPD2     N 5222   2.499   2.700  11.393 -0.1425 -0.0086 -0.4657
  348MPD2    H5 5223   2.586   2.744  11.365 -2.7428  1.2300 -6.6057
  348MPD2    N1 5224   2.764   2.653  11.791  0.2094  0.4025  0.4912
  348MPD2    H7 5225   2.823   2.721  11.744  1.3559 -1.2084 -0.3801
  349TMC3    C1 5226   2.931   2.669  11.954  0.4235  0.5371  0.3318
  349TMC3    C2 5227   3.020   2.585  12.012  0.3512  0.4048  0.3862
  349TMC3    C3 5228   3.157   2.590  11.977 -0.2580  0.8636  0.2737
  349TMC3    C4 5229   2.976   2.770  11.874 -0.4325  0.0084  0.0784
  349TMC3    C5 5230   3.103   2.768  11.828  0.0932  0.2926 -0.3776
  349TMC3    C6 5231   3.198   2.685  11.882 -0.0641 -0.5919 -0.3822
  349TMC3     C 5232   2.802   2.611  11.918 -0.0870 -0.1712  0.9227
  349TMC3     O 5233   2.754   2.523  11.986  0.8672  0.1809 -0.1977
  349TMC3     H 5234   2.984   2.497  12.065 -0.0191  0.5154  0.3197
  349TMC3    H1 5235   2.907   2.845  11.838  0.7969  1.4536  0.7780
  349TMC3    H2 5236   3.288   2.655  11.829  1.3222  1.8793  0.5881
  349TMC3    C7 5237   3.102   2.789  11.682  0.3441 -0.5707 -0.5557
  349TMC3    C8 5238   3.251   2.491  12.044 -0.4690 -0.4632 -0.6409
  349TMC3    O1 5239   2.986   2.794  11.640  0.6862  0.6137 -0.5092
  349TMC3    O2 5240   3.204   2.443  12.148  0.2796  0.6419  0.0857
  350MPD2     C 5241   2.749   4.357   9.597  0.9103  0.4206 -0.1828
  350MPD2    C1 5242   2.701   4.368   9.723  0.4403 -0.1147 -0.0742
  350MPD2    C2 5243   2.695   4.494   9.782 -0.7195 -1.0147 -0.1533
  350MPD2    C3 5244   2.749   4.603   9.717 -0.2112 -0.2486  0.4430
  350MPD2    C4 5245   2.818   4.581   9.603  0.7948  0.1838  0.4824
  350MPD2    C5 5246   2.812   4.457   9.540  0.1613 -0.0384 -0.2945
  350MPD2     H 5247   2.645   4.499   9.878 -0.7547  1.4052 -0.2999
  350MPD2    H1 5248   2.866   4.666   9.556  0.6503 -1.4498 -2.6550
  350MPD2    H2 5249   2.732   4.273   9.531 -2.6561  1.2046 -0.2417
  350MPD2    H3 5250   2.857   4.441   9.443  1.9333  0.7329  0.3935
  350MPD2     N 5251   2.730   0.014   9.769 -0.7816  0.2319  0.5145
  350MPD2    H5 5252   2.677   0.023   9.855 -1.1340  1.1812  0.1986
  350MPD2    N1 5253   2.647   4.260   9.798  0.4743 -0.5945 -0.1993
  350MPD2    H7 5254   2.596   4.285   9.882  2.4330  1.5717  0.3472
  351TMC3    C1 5255   2.624   4.040   9.850  0.3195  0.5576  0.1527
  351TMC3    C2 5256   2.677   3.911   9.845 -0.0353  0.6918  0.5126
  351TMC3    C3 5257   2.597   3.810   9.865 -0.3744  0.7133  0.0176
  351TMC3    C4 5258   2.502   4.060   9.905 -0.2236 -0.6470 -0.1614
  351TMC3    C5 5259   2.433   3.951   9.958 -0.2699  0.2872  0.1008
  351TMC3    C6 5260   2.482   3.830   9.934 -0.4277 -0.1903  0.1323
  351TMC3     C 5261   2.679   4.133   9.760 -0.4572 -0.6231  0.5327
  351TMC3     O 5262   2.761   4.088   9.678  0.0846  0.1240 -0.2389
  351TMC3     H 5263   2.778   3.903   9.806  0.2148 -1.0145  1.4959
  351TMC3    H1 5264   2.457   4.158   9.918 -0.2937 -0.6495 -0.3958
  351TMC3    H2 5265   2.426   3.743   9.968 -1.0435  0.5835  1.0907
  351TMC3    C7 5266   2.294   3.953  10.003  0.0603  0.0531  0.0917
  351TMC3    C8 5267   2.636   3.678   9.838 -0.1976  0.0145  0.5353
  351TMC3    O1 5268   2.263   3.861  10.083  0.0735 -0.0600 -0.3075
  351TMC3    O2 5269   2.752   3.659   9.808  0.1004  0.5222 -0.4580
  352MPD2     C 5270   4.618   2.546   1.266 -0.9829 -0.1914  0.1030
  352MPD2    C1 5271   4.493   2.508   1.309  0.2356 -0.4168  0.2883
  352MPD2    C2 5272   4.471   2.403   1.394  0.3136 -0.2483  0.1232
  352MPD2    C3 5273   4.586   2.330   1.433 -0.3919 -0.3941  0.3220
  352MPD2    C4 5274   4.713   2.366   1.390 -0.1549 -0.1065  0.1640
  352MPD2    C5 5275   0.005   2.466   1.302  0.1293  0.0617 -0.2331
  352MPD2     H 5276   4.370   2.375   1.422  0.4020  1.6837  2.4060
  352MPD2    H1 5277   0.079   2.305   1.417 -2.5796 -2.4560  2.5962
  352MPD2    H2 5278   4.632   2.633   1.204  0.8922  1.0856  2.2854
  352MPD2    H3 5279   0.099   2.484   1.250  0.4506 -1.7022 -0.2406
  352MPD2     N 5280   4.569   2.210   1.512  0.1186  1.0282  0.1756
  352MPD2    H5 5281   4.655   2.158   1.524  0.2175  0.5103 -2.7423
  352MPD2    N1 5282   4.387   2.583   1.253 -0.0070  0.1949  0.2832
  352MPD2    H7 5283   4.412   2.645   1.177  0.0131  0.6150  0.6387
  353TMC3    C1 5284   4.466   2.039   1.643  0.6519 -0.5781 -0.6298
  353TMC3    C2 5285   4.583   1.992   1.688 -0.5613 -0.0680 -0.3158
  353TMC3    C3 5286   4.576   1.874   1.756  0.0382  0.0880  0.2120
  353TMC3    C4 5287   4.349   1.977   1.668  0.2136  0.4074  0.1587
  353TMC3    C5 5288   4.345   1.854   1.730  0.3568 -0.2923 -0.1288
  353TMC3    C6 5289   4.462   1.796   1.768 -1.0322  0.3375 -0.5395
  353TMC3     C 5290   4.452   2.161   1.564  0.0331 -0.2738 -0.0636
  353TMC3     O 5291   4.337   2.204   1.551  0.0350  0.2023 -0.2589
  353TMC3     H 5292   4.680   2.039   1.681 -0.9545  0.9390  1.0176
  353TMC3    H1 5293   4.251   2.015   1.640 -1.2602 -3.6054 -0.2267
  353TMC3    H2 5294   4.459   1.692   1.798  1.0275  0.5905  0.5330
  353TMC3    C7 5295   4.232   1.762   1.690  0.3319  0.4695  0.2957
  353TMC3    C8 5296   4.705   1.826   1.792  0.4874  0.0332 -0.5342
  353TMC3    O1 5297   4.277   1.664   1.636 -0.5622 -0.2752 -0.6364
  353TMC3    O2 5298   0.079   1.902   1.811  0.2455 -0.1215 -0.1365
  354TMC3    C1 5299   1.627   4.246  13.419 -0.6867 -0.2671  0.4366
  354TMC3    C2 5300   1.624   4.383  13.401 -0.0776  0.6200 -0.1924
  354TMC3    C3 5301   1.536   4.432  13.302 -0.1395 -0.2030  0.2860
  354TMC3    C4 5302   1.568   4.162  13.334  0.1225 -0.4410  0.6780
  354TMC3    C5 5303   1.492   4.208  13.229 -0.5242  0.1744 -0.1355
  354TMC3    C6 5304   1.470   4.349  13.218 -0.6660  0.9335 -0.2240
  354TMC3     C 5305   1.698   4.199  13.529 -0.4782 -0.2339 -0.2764
  354TMC3     O 5306   1.778   4.279  13.578  0.2558 -0.1622  0.8587
  354TMC3     H 5307   1.655   4.456  13.475  3.0824 -0.4179 -0.5070
  354TMC3    H1 5308   1.614   4.064  13.333  2.1071  0.5015 -0.5941
  354TMC3    H2 5309   1.408   4.382  13.136  0.0434 -1.7759 -1.8396
  354TMC3    C7 5310   1.514   4.138  13.099 -0.4033 -0.1263 -1.2074
  354TMC3    C8 5311   1.613   4.527  13.223 -0.9383 -0.7275  0.3884
  354TMC3    O1 5312   1.601   4.050  13.105 -0.2127  0.0472 -0.4453
  354TMC3    O2 5313   1.613   4.512  13.103 -0.3702 -0.0348  0.3721
  355MPD2     C 5314   2.698   4.348  11.845  0.2291  0.0902 -0.1246
  355MPD2    C1 5315   2.744   4.466  11.799  0.9388 -0.4175  0.5447
  355MPD2    C2 5316   2.874   4.505  11.839  0.6225 -0.7241 -0.4310
  355MPD2    C3 5317   2.952   4.428  11.930  0.0943  0.0138 -0.0225
  355MPD2    C4 5318   2.888   4.312  11.976  0.4501 -0.4724  0.3518
  355MPD2    C5 5319   2.767   4.272  11.930  0.3351 -0.2000  0.1435
  355MPD2     H 5320   2.920   4.594  11.796  0.9410 -0.9705 -0.5938
  355MPD2    H1 5321   2.948   4.247  12.038  0.2168  0.2518  1.3485
  355MPD2    H2 5322   2.609   4.298  11.807  0.5516 -0.1996 -0.4943
  355MPD2    H3 5323   2.736   4.170  11.947 -0.2219 -0.4185 -2.1999
  355MPD2     N 5324   3.077   4.471  11.971  0.5437  0.4316 -0.3031
  355MPD2    H5 5325   3.118   4.551  11.923 -0.0911  0.9462  0.0021
  355MPD2    N1 5326   2.660   4.539  11.700 -0.2355  0.5458  0.3343
  355MPD2    H7 5327   2.572   4.502  11.665  0.3918 -0.6531  0.0604
  356TMC3    C1 5328   3.267   4.480  12.091 -0.6047  0.1905 -0.0852
  356TMC3    C2 5329   3.338   4.489  11.984  0.1039 -0.3715  0.2920
  356TMC3    C3 5330   3.417   4.596  11.977 -0.1855 -0.2579 -0.7315
  356TMC3    C4 5331   3.276   4.557  12.207 -0.2434  0.0435 -0.0696
  356TMC3    C5 5332   3.353   4.671  12.196 -0.1582  0.4026 -0.1182
  356TMC3    C6 5333   3.427   4.690  12.080  0.2235 -0.4455  0.5606
  356TMC3     C 5334   3.141   4.418  12.078  0.1448  1.1624 -0.0705
  356TMC3     O 5335   3.091   4.354  12.171  0.4733  0.4675 -0.0821
  356TMC3     H 5336   3.320   4.420  11.903 -0.7177 -0.7265  0.7748
  356TMC3    H1 5337   3.205   4.526  12.282 -0.1571 -0.2713 -0.1208
  356TMC3    H2 5338   3.500   0.050  12.069  1.3404 -1.8223 -2.3569
  356TMC3    C7 5339   3.347   0.055  12.297  0.8583  0.1860 -0.2319
  356TMC3    C8 5340   3.508   4.600  11.861 -0.6540  0.1873 -0.2305
  356TMC3    O1 5341   3.328   0.014  12.410 -0.6338  0.5586 -0.2602
  356TMC3    O2 5342   3.522   4.495  11.801 -0.6291 -0.7908  0.7708
  357MPD2     C 5343   1.374   4.370   1.845  0.6704  0.5820  0.1740
  357MPD2    C1 5344   1.367   4.356   1.702 -0.2117 -0.9942 -0.1753
  357MPD2    C2 5345   1.265   4.426   1.631  0.1740  0.3100 -0.0037
  357MPD2    C3 5346   1.167   4.489   1.700 -0.3057  0.2957 -0.1125
  357MPD2    C4 5347   1.167   4.488   1.839  0.2606 -0.0803  0.1015
  357MPD2    C5 5348   1.267   4.429   1.910 -0.4419  0.2274  0.6584
  357MPD2     H 5349   1.254   4.428   1.523  1.0780  0.7894 -0.0909
  357MPD2    H1 5350   1.087   4.545   1.885 -0.4811 -1.6058  0.7065
  357MPD2    H2 5351   1.459   4.344   1.906  2.2210  2.0538 -1.3654
  357MPD2    H3 5352   1.269   4.451   2.016 -0.5375 -0.8907  0.8874
  357MPD2     N 5353   1.079   4.560   1.625 -0.1508 -0.5883  0.7663
  357MPD2    H5 5354   1.063   4.535   1.528  0.3286  1.6647  0.1093
  357MPD2    N1 5355   1.473   4.286   1.640  0.2706 -0.0213 -0.1223
  357MPD2    H7 5356   1.516   4.219   1.704  0.5512 -0.8965 -1.2271
  358TMC3    C1 5357   1.594   4.174   1.468 -0.3783 -0.3182  0.6016
  358TMC3    C2 5358   1.596   4.138   1.338 -0.0422  0.4598  0.8652
  358TMC3    C3 5359   1.667   4.021   1.310 -0.5647  0.2085  0.0857
  358TMC3    C4 5360   1.675   4.123   1.565  0.2625  0.2668  0.1341
  358TMC3    C5 5361   1.744   4.013   1.534 -0.4520 -0.1948  0.4016
  358TMC3    C6 5362   1.731   3.949   1.412  0.2490  0.2889  0.4350
  358TMC3     C 5363   1.494   4.273   1.504 -0.3091  0.3667  0.6845
  358TMC3     O 5364   1.445   4.332   1.406 -0.0979 -0.2151  0.3671
  358TMC3     H 5365   1.525   4.172   1.264 -0.2275 -0.8334  0.4363
  358TMC3    H1 5366   1.674   4.168   1.664 -1.1552 -0.2484  0.3522
  358TMC3    H2 5367   1.797   3.865   1.393 -3.4182 -2.9316  1.7975
  358TMC3    C7 5368   1.812   3.938   1.635 -0.5492  0.3357 -0.4554
  358TMC3    C8 5369   1.637   3.959   1.185  0.4976  0.0407  0.0455
  358TMC3    O1 5370   1.852   3.827   1.601  0.3476  0.0994 -0.1401
  358TMC3    O2 5371   1.587   4.039   1.111  0.3894 -0.1277 -0.6763
  359MPD2     C 5372   3.010   3.685  12.195 -0.3067  0.5373  0.0481
  359MPD2    C1 5373   2.949   3.586  12.119 -0.4242 -0.1981  0.3884
  359MPD2    C2 5374   2.923   3.467  12.183  0.4074  0.0675 -0.9900
  359MPD2    C3 5375   2.963   3.444  12.317 -1.1566 -0.4781 -0.3781
  359MPD2    C4 5376   3.011   3.548  12.387 -0.0813 -0.1262  0.0843
  359MPD2    C5 5377   3.031   3.669  12.330  0.2114  0.7866 -0.0650
  359MPD2     H 5378   2.876   3.388  12.125 -0.1200 -1.4107  1.4471
  359MPD2    H1 5379   3.022   3.535  12.494  1.4358 -1.8439 -0.2856
  359MPD2    H2 5380   3.034   3.779  12.147 -1.0583 -0.7689 -2.8980
  359MPD2    H3 5381   3.073   3.748  12.392 -2.2956  0.2165  2.3818
  359MPD2     N 5382   2.937   3.320  12.384 -0.0630 -0.3268  0.6743
  359MPD2    H5 5383   2.968   3.307  12.480  1.0975 -0.2708  0.3127
  359MPD2    N1 5384   2.901   3.597  11.985 -0.3539 -0.4244 -0.2540
  359MPD2    H7 5385   2.853   3.517  11.944  3.1272 -2.0667 -1.1443
  360TMC3    C1 5386   2.833   3.687  11.781  0.6032  0.2823 -0.5947
  360TMC3    C2 5387   2.896   3.751  11.682  0.1616 -1.0506  0.5551
  360TMC3    C3 5388   2.883   3.688  11.561 -0.1923  0.1333 -0.2014
  360TMC3    C4 5389   2.744   3.586  11.763  0.0046  0.5929  0.8023
  360TMC3    C5 5390   2.729   3.527  11.643 -0.1709  0.4686 -0.2311
  360TMC3    C6 5391   2.800   3.584  11.535 -0.1015 -0.1105 -0.4080
  360TMC3     C 5392   2.894   3.713  11.912 -0.1469  0.1848  0.6606
  360TMC3     O 5393   2.919   3.825  11.947  0.7497  0.0842  0.5214
  360TMC3     H 5394   2.985   3.811  11.698 -0.2273 -0.6602  1.2620
  360TMC3    H1 5395   2.699   3.540  11.851 -2.9993 -0.2960 -1.2077
  360TMC3    H2 5396   2.790   3.549  11.433  1.2511 -0.4703 -0.4160
  360TMC3    C7 5397   2.616   3.433  11.619  0.4260  0.3027 -0.0293
  360TMC3    C8 5398   2.981   3.716  11.451 -0.9990 -0.6290  0.6838
  360TMC3    O1 5399   2.512   3.457  11.683  0.5330 -0.0969 -0.0387
  360TMC3    O2 5400   2.997   3.837  11.439 -0.1205  0.3952 -0.1288
  361MPD2     C 5401   4.333   1.587  16.681 -0.5870  0.0860  0.6282
  361MPD2    C1 5402   4.283   1.643  16.798  0.1417  0.2527  0.2810
  361MPD2    C2 5403   4.323   1.596  16.923  0.1131 -0.0410 -0.4591
  361MPD2    C3 5404   4.392   1.474  16.935 -0.4033 -0.2265  0.3247
  361MPD2    C4 5405   4.413   1.404  16.816  0.6272 -0.5100  0.8856
  361MPD2    C5 5406   4.394   1.464  16.694 -0.2920  0.3337 -0.3513
  361MPD2     H 5407   4.297   1.656  17.010 -2.8120 -0.4856 -1.0241
  361MPD2    H1 5408   4.469   1.312  16.809  1.7990  0.4375 -2.4882
  361MPD2    H2 5409   4.318   1.643  16.589 -0.5694  1.4593  1.4615
  361MPD2    H3 5410   4.427   1.418  16.601 -1.6569  0.4151 -0.8738
  361MPD2     N 5411   4.425   1.411  17.055  0.0862  0.1398  0.5341
  361MPD2    H5 5412   4.486   1.331  17.043 -1.2564 -0.6402 -1.0908
  361MPD2    N1 5413   4.197   1.758  16.802 -0.0118 -0.3772 -0.4357
  361MPD2    H7 5414   4.186   1.802  16.893 -0.0257 -0.5762 -0.3396
  362TMC3    C1 5415   4.025   1.906  16.736  0.2127  0.2584  0.8450
  362TMC3    C2 5416   3.976   1.910  16.866  0.4162 -0.2523  0.1364
  362TMC3    C3 5417   3.864   1.985  16.886 -0.2743  0.2328  0.3477
  362TMC3    C4 5418   3.955   1.970  16.636  0.2144 -0.2138  0.2247
  362TMC3    C5 5419   3.845   2.044  16.666 -0.7390  0.0540  0.5352
  362TMC3    C6 5420   3.806   2.064  16.797 -0.0122 -0.0687  0.0258
  362TMC3     C 5421   4.126   1.812  16.696  0.0344 -0.6206 -0.3319
  362TMC3     O 5422   4.121   1.768  16.582  0.3022  0.5551 -0.1898
  362TMC3     H 5423   4.012   1.839  16.940  0.4805 -0.0292  0.3183
  362TMC3    H1 5424   3.993   1.952  16.536  1.0835  0.2585  0.4679
  362TMC3    H2 5425   3.719   2.123  16.823  0.2408  1.0380 -1.6238
  362TMC3    C7 5426   3.766   2.111  16.561 -0.2951  0.6395 -0.2111
  362TMC3    C8 5427   3.847   2.025  17.028 -0.5486 -0.3400  1.4460
  362TMC3    O1 5428   3.679   2.189  16.599 -0.2361  0.3475 -0.6313
  362TMC3    O2 5429   3.935   1.998  17.106 -0.2040  0.5358  0.6103
  363TMC3    C1 5430   3.056   3.510   9.340 -0.9338  0.7027 -0.9574
  363TMC3    C2 5431   3.154   3.528   9.250  0.1669 -0.1997 -0.6312
  363TMC3    C3 5432   3.111   3.528   9.114  0.0857  0.3487  0.5999
  363TMC3    C4 5433   2.921   3.489   9.310  0.6915 -0.4945 -0.1315
  363TMC3    C5 5434   2.885   3.508   9.180 -0.3083 -0.4076 -0.9596
  363TMC3    C6 5435   2.978   3.514   9.080  0.6243 -0.2199  0.1428
  363TMC3     C 5436   3.078   3.491   9.478  0.4543 -0.6449 -0.2667
  363TMC3     O 5437   2.988   3.507   9.556 -0.0478  0.2960 -0.1279
  363TMC3     H 5438   3.255   3.535   9.287  0.2501  0.6476 -1.0190
  363TMC3    H1 5439   2.852   3.496   9.393 -0.4036 -0.7000 -1.0141
  363TMC3    H2 5440   2.952   3.500   8.975 -0.3969 -0.8510  0.4832
  363TMC3    C7 5441   2.747   3.463   9.156  0.2418 -0.1677 -0.3823
  363TMC3    C8 5442   3.209   3.555   9.010  0.8054 -0.1412  0.1464
  363TMC3    O1 5443   2.702   3.374   9.230  0.2774 -0.4912  0.2849
  363TMC3    O2 5444   3.164   3.580   8.898 -0.0884 -0.2356 -0.3456
  364MPD2     C 5445   1.572   3.966  10.470  0.1418 -0.7865  0.3853
  364MPD2    C1 5446   1.702   3.920  10.459 -0.3408 -0.1028 -1.0703
  364MPD2    C2 5447   1.712   3.782  10.452 -0.0848 -0.6575 -0.1736
  364MPD2    C3 5448   1.616   3.691  10.490  0.3971 -0.0351 -0.4137
  364MPD2    C4 5449   1.489   3.742  10.534  0.0769  0.5107 -0.1162
  364MPD2    C5 5450   1.472   3.880  10.517 -0.2602  0.1922  0.3629
  364MPD2     H 5451   1.807   3.741  10.419  1.3596  0.8228  2.1510
  364MPD2    H1 5452   1.408   3.687  10.581  2.3532 -1.8976  0.9745
  364MPD2    H2 5453   1.545   4.070  10.452  1.2851 -0.9998 -2.4930
  364MPD2    H3 5454   1.372   3.922  10.517 -0.1250  0.5216 -0.9303
  364MPD2     N 5455   1.628   3.552  10.493 -0.2256 -0.2409  0.1920
  364MPD2    H5 5456   1.538   3.506  10.502 -0.8111  0.2889 -2.7612
  364MPD2    N1 5457   1.807   4.015  10.428 -0.2270 -0.6109  0.4182
  364MPD2    H7 5458   1.775   4.111  10.436 -1.7787 -1.2438  1.8092
  365TMC3    C1 5459   2.030   4.091  10.387  0.1714 -0.0216 -0.3731
  365TMC3    C2 5460   2.154   4.060  10.328 -0.2621  0.1120  0.5977
  365TMC3    C3 5461   2.260   4.131  10.370  0.1897  0.1676  0.3188
  365TMC3    C4 5462   2.015   4.196  10.469 -0.0674 -0.2331 -0.0291
  365TMC3    C5 5463   2.128   4.271  10.502  0.6223  0.5973 -0.6009
  365TMC3    C6 5464   2.253   4.232  10.457 -0.1833 -0.0884 -0.2447
  365TMC3     C 5465   1.938   3.981  10.389  0.2143  0.2656  0.1093
  365TMC3     O 5466   1.980   3.875  10.341 -0.1859 -0.1655 -0.3651
  365TMC3     H 5467   2.154   3.981  10.254  0.5529 -0.2488  0.9817
  365TMC3    H1 5468   1.917   4.229  10.501  0.3315  0.4639  0.4893
  365TMC3    H2 5469   2.339   4.289  10.492 -1.2287  0.1080  2.0328
  365TMC3    C7 5470   2.124   4.380  10.594  0.2257  0.2139  0.0846
  365TMC3    C8 5471   2.394   4.095  10.334  0.7622 -0.4722  0.2057
  365TMC3    O1 5472   2.217   4.462  10.588 -0.2395 -0.0468 -0.8300
  365TMC3    O2 5473   2.490   4.171  10.364  0.0498  0.0245  0.7187
  366MPD2     C 5474   4.416   0.390  15.740 -0.2670 -0.0126 -0.7648
  366MPD2    C1 5475   4.431   0.431  15.608 -1.3068 -0.0620 -0.7138
  366MPD2    C2 5476   4.407   0.338  15.510 -0.2590  0.3453 -0.1104
  366MPD2    C3 5477   4.389   0.204  15.532  0.1943  1.0677 -0.5707
  366MPD2    C4 5478   4.380   0.164  15.665  0.8596 -0.5498  0.1574
  366MPD2    C5 5479   4.384   0.257  15.764 -0.2822 -0.4449 -0.5283
  366MPD2     H 5480   4.403   0.376  15.409  0.4538  0.5334 -0.0682
  366MPD2    H1 5481   4.384   0.062  15.701  1.9986 -0.5342  0.0590
  366MPD2    H2 5482   4.424   0.455  15.826  0.4867  0.0515 -0.8866
  366MPD2    H3 5483   4.399   0.216  15.863 -0.9775 -0.4923 -0.4449
  366MPD2     N 5484   4.374   0.110  15.429 -0.1357  0.6367  0.8751
  366MPD2    H5 5485   4.372   0.149  15.335  0.9418 -0.9869  0.1722
  366MPD2    N1 5486   4.460   0.562  15.568  0.8836 -0.3142  0.7699
  366MPD2    H7 5487   4.478   0.587  15.472 -2.6940  0.0423  0.1959
  367TMC3    C1 5488   4.545   0.779  15.588 -0.4236  0.2570 -0.1765
  367TMC3    C2 5489   4.646   0.845  15.652  0.0253  0.4434 -0.1360
  367TMC3    C3 5490   0.022   0.896  15.575  0.8114 -0.2974 -0.2197
  367TMC3    C4 5491   4.529   0.781  15.448 -0.1999 -0.3213  0.7127
  367TMC3    C5 5492   4.623   0.848  15.377 -0.7492  0.1937  0.9681
  367TMC3    C6 5493   0.012   0.904  15.442  0.0058  0.1407 -0.1624
  367TMC3     C 5494   4.479   0.661  15.656 -0.5375  0.0780 -0.5253
  367TMC3     O 5495   4.469   0.664  15.779  0.7819 -1.0418 -0.1038
  367TMC3     H 5496   4.658   0.836  15.760 -1.6374 -0.3138 -0.0170
  367TMC3    H1 5497   4.442   0.739  15.398 -0.9705  2.2291 -0.0947
  367TMC3    H2 5498   0.092   0.954  15.388  0.9482 -1.0963  0.0875
  367TMC3    C7 5499   4.626   0.846  15.232 -0.4503  0.2809  0.6949
  367TMC3    C8 5500   0.142   0.942  15.636 -0.1299 -0.3946 -0.1890
  367TMC3    O1 5501   4.589   0.956  15.189  0.0090 -0.4220  0.1746
  367TMC3    O2 5502   0.240   0.907  15.572  0.4191 -0.7257 -0.5285
  368MPD2     C 5503   1.608   2.368  13.427  0.3374  0.1156  0.3618
  368MPD2    C1 5504   1.582   2.354  13.293  0.2446 -0.4498  0.0740
  368MPD2    C2 5505   1.669   2.406  13.197  0.2269 -0.0692  0.7160
  368MPD2    C3 5506   1.792   2.465  13.231  0.2414  0.4230 -0.2075
  368MPD2    C4 5507   1.818   2.463  13.367 -0.3946  0.6445  0.0638
  368MPD2    C5 5508   1.729   2.421  13.458 -0.0189 -0.1152  0.4239
  368MPD2     H 5509   1.635   2.409  13.094  1.8455 -2.1942  0.1389
  368MPD2    H1 5510   1.900   2.517  13.414 -0.9426 -0.1057  1.8549
  368MPD2    H2 5511   1.540   2.337  13.506 -0.0616 -1.8437 -0.7632
  368MPD2    H3 5512   1.750   2.448  13.561  2.0407  0.0313 -0.0415
  368MPD2     N 5513   1.883   2.525  13.144  0.0595 -0.4427  0.5806
  368MPD2    H5 5514   1.975   2.553  13.176  1.0168 -2.4845 -0.3921
  368MPD2    N1 5515   1.462   2.293  13.249  0.0386 -0.0495  0.3627
  368MPD2    H7 5516   1.383   2.297  13.313 -0.1090  0.4730  0.1474
  369TMC3    C1 5517   1.327   2.180  13.086 -0.7629 -0.2232  0.1366
  369TMC3    C2 5518   1.306   2.190  12.959 -0.3924 -0.7861 -0.0382
  369TMC3    C3 5519   1.179   2.182  12.912  0.5306 -0.2493  0.7470
  369TMC3    C4 5520   1.225   2.162  13.177 -0.2958 -0.0737  0.5997
  369TMC3    C5 5521   1.100   2.140  13.135  0.3581  0.1125 -0.2769
  369TMC3    C6 5522   1.076   2.146  13.002  0.1900 -0.0567 -0.3007
  369TMC3     C 5523   1.454   2.210  13.135  0.4317 -0.1422 -0.4619
  369TMC3     O 5524   1.551   2.187  13.065 -0.3907 -0.0727  0.8474
  369TMC3     H 5525   1.390   2.206  12.891 -1.6339 -0.0987 -1.4035
  369TMC3    H1 5526   1.248   2.154  13.282  2.1453 -0.8544  0.0176
  369TMC3    H2 5527   0.975   2.143  12.963  0.2557  1.8291 -0.5799
  369TMC3    C7 5528   0.988   2.126  13.234  0.2152  0.4218 -0.2315
  369TMC3    C8 5529   1.144   2.226  12.779 -0.0755 -0.0567  0.3019
  369TMC3    O1 5530   1.007   2.185  13.340 -0.8394 -0.6906 -0.3226
  369TMC3    O2 5531   1.044   2.176  12.735  0.5013  0.2808  0.4851
  370TMC3    C1 5532   0.188   2.671  16.574 -0.6318  0.4064 -0.5539
  370TMC3    C2 5533   0.107   2.609  16.668  0.3806 -0.4537  0.6483
  370TMC3    C3 5534   0.044   2.488  16.640 -0.3332  0.7475 -0.2776
  370TMC3    C4 5535   0.203   2.612  16.448 -0.3542 -0.3160 -0.0066
  370TMC3    C5 5536   0.138   2.495  16.422  0.0592 -0.2131 -0.0267
  370TMC3    C6 5537   0.052   2.429  16.514 -0.2252 -1.4396 -0.1779
  370TMC3     C 5538   0.283   2.768  16.621 -0.5254 -0.2109 -0.1511
  370TMC3     O 5539   0.276   2.796  16.740  0.7095 -0.6881 -0.2963
  370TMC3     H 5540   0.104   2.643  16.771  2.0418 -0.7577  0.8032
  370TMC3    H1 5541   0.265   2.645  16.365 -0.8099  3.8895  1.3325
  370TMC3    H2 5542   4.716   2.338  16.494 -1.3766 -1.3419  2.6379
  370TMC3    C7 5543   0.163   2.433  16.296  0.2776  0.2946  0.2545
  370TMC3    C8 5544   4.697   2.400  16.736  0.2927 -0.1126 -0.5096
  370TMC3    O1 5545   0.150   2.502  16.192 -0.0450 -0.1384 -0.5279
  370TMC3    O2 5546   4.692   2.284  16.709  0.7233  0.0679 -0.2131
  371TMC3    C1 5547   1.395   0.926  15.600  0.3938  0.0963  0.3840
  371TMC3    C2 5548   1.259   0.927  15.591 -0.8030  0.0567  0.3879
  371TMC3    C3 5549   1.195   1.041  15.602  0.6313  0.3346 -0.3357
  371TMC3    C4 5550   1.459   1.040  15.565  0.3597  0.3149 -0.6999
  371TMC3    C5 5551   1.392   1.158  15.540  0.4508 -0.7772 -0.1460
  371TMC3    C6 5552   1.259   1.162  15.586 -0.5633 -0.0405  0.3049
  371TMC3     C 5553   1.464   0.798  15.617  0.3255 -0.2927  0.4022
  371TMC3     O 5554   1.573   0.799  15.570  0.4791  0.1181 -1.0747
  371TMC3     H 5555   1.205   0.833  15.579  3.1906 -1.9056 -2.0464
  371TMC3    H1 5556   1.567   1.040  15.553  0.0376 -0.9073 -3.5559
  371TMC3    H2 5557   1.200   1.252  15.577 -0.1234  0.3121  0.9433
  371TMC3    C7 5558   1.467   1.275  15.508  0.4187  0.5232  0.2114
  371TMC3    C8 5559   1.056   1.032  15.642  0.3754 -0.1350  0.3369
  371TMC3    O1 5560   1.414   1.381  15.529  0.1328 -0.5594 -0.0674
  371TMC3    O2 5561   1.009   0.918  15.638 -0.7776 -0.3882 -0.4212
  372MPD2     C 5562   1.270   2.645  13.372  0.1095  0.7272 -0.4429
  372MPD2    C1 5563   1.336   2.625  13.496  0.1315  0.3217 -0.1914
  372MPD2    C2 5564   1.301   2.513  13.568  0.3749 -0.7582  0.7135
  372MPD2    C3 5565   1.193   2.434  13.533 -0.0867 -0.1132  0.9116
  372MPD2    C4 5566   1.114   2.472  13.427 -0.3709  0.9513  0.3037
  372MPD2    C5 5567   1.156   2.570  13.339 -0.0229  0.5345  0.3148
  372MPD2     H 5568   1.349   2.507  13.665 -1.2815 -1.1855  1.5178
  372MPD2    H1 5569   1.037   2.405  13.392  0.2656 -0.1432  0.9984
  372MPD2    H2 5570   1.298   2.725  13.304  1.0720 -1.2648 -2.3744
  372MPD2    H3 5571   1.120   2.591  13.239 -0.6714 -1.5086  0.1157
  372MPD2     N 5572   1.170   2.325  13.620  0.7100  0.4420  0.3968
  372MPD2    H5 5573   1.242   2.304  13.688 -0.0245 -0.3249  0.9299
  372MPD2    N1 5574   1.442   2.705  13.542  0.0406 -0.2937  0.3761
  372MPD2    H7 5575   1.487   2.675  13.628  0.1743 -1.0862  0.0253
  373TMC3    C1 5576   1.048   2.161  13.718  0.0681 -0.5269  0.4966
  373TMC3    C2 5577   0.989   2.168  13.837 -0.4591  0.9569  0.2305
  373TMC3    C3 5578   0.981   2.051  13.913  0.3945  0.2148 -0.1774
  373TMC3    C4 5579   1.095   2.047  13.660  0.1511  0.2769  0.5432
  373TMC3    C5 5580   1.085   1.932  13.736 -0.4272  0.5187  0.3274
  373TMC3    C6 5581   1.038   1.936  13.861 -0.2838  0.2279  0.1286
  373TMC3     C 5582   1.045   2.279  13.645 -0.1251  0.8422 -0.7880
  373TMC3     O 5583   0.939   2.340  13.634 -0.0479  0.3701 -0.2242
  373TMC3     H 5584   0.973   2.267  13.878 -1.1115  0.9070  0.0963
  373TMC3    H1 5585   1.130   2.045  13.557  0.0379 -0.2007  0.5142
  373TMC3    H2 5586   1.043   1.852  13.930 -1.6485 -0.3419 -0.4612
  373TMC3    C7 5587   1.175   1.818  13.698  0.3570 -0.2220 -0.0803
  373TMC3    C8 5588   0.932   2.055  14.047  0.3022 -0.4518 -0.4043
  373TMC3    O1 5589   1.203   1.813  13.581  0.1020  0.7850  0.0059
  373TMC3    O2 5590   0.879   1.955  14.089 -0.5092  0.1118 -0.0354
  374TMC3    C1 5591   2.096   1.407   9.753  0.1100  0.5568 -0.0354
  374TMC3    C2 5592   2.075   1.542   9.718 -0.0753 -0.0618 -0.0640
  374TMC3    C3 5593   2.048   1.573   9.586 -0.6926  0.8178 -0.6049
  374TMC3    C4 5594   2.094   1.308   9.657 -0.8375  0.5476  0.4041
  374TMC3    C5 5595   2.062   1.345   9.534 -0.1153  0.4969 -0.0330
  374TMC3    C6 5596   2.045   1.474   9.497 -0.4238 -0.2100  0.0399
  374TMC3     C 5597   2.140   1.368   9.882  0.6567 -0.5254  0.1074
  374TMC3     O 5598   2.120   1.250   9.894 -0.1343  0.2995  0.3605
  374TMC3     H 5599   2.074   1.614   9.799 -0.2744  0.5376 -0.6057
  374TMC3    H1 5600   2.119   1.204   9.671 -1.6914  0.3286  0.2743
  374TMC3    H2 5601   2.034   1.500   9.392 -2.4174 -0.6868  0.1302
  374TMC3    C7 5602   2.068   1.252   9.417  0.0362  0.7273  0.6978
  374TMC3    C8 5603   2.006   1.705   9.551 -0.4450 -0.1889  0.4700
  374TMC3    O1 5604   2.078   1.297   9.304 -0.0002  0.0932  0.0501
  374TMC3    O2 5605   1.928   1.713   9.459  0.4966  0.1761 -0.0122
  375MPD2     C 5606   1.419   2.724  17.432 -0.3609  0.4267  1.1253
  375MPD2    C1 5607   1.419   2.839  17.366  0.2397 -0.1929  0.0885
  375MPD2    C2 5608   1.537   2.912  17.346  0.2699  0.0593 -0.3719
  375MPD2    C3 5609   1.659   2.855  17.386  0.0988  0.0371  0.4607
  375MPD2    C4 5610   1.661   2.731  17.438 -1.0165 -0.0695 -0.1461
  375MPD2    C5 5611   1.539   2.673  17.470 -0.5921  0.3722  0.7299
  375MPD2     H 5612   1.534   3.007  17.294 -1.4151 -0.6845 -1.6633
  375MPD2    H1 5613   1.749   2.684  17.480  0.5444  0.4016 -2.9168
  375MPD2    H2 5614   1.326   2.673  17.456  0.9295 -1.5528  2.0107
  375MPD2    H3 5615   1.543   2.579  17.524  1.8458 -0.1756 -0.3988
  375MPD2     N 5616   1.788   2.908  17.362 -0.1353  0.5322 -0.0107
  375MPD2    H5 5617   1.868   2.856  17.398  0.7555  2.1375  0.3476
  375MPD2    N1 5618   1.304   2.902  17.314 -0.2059  0.0396 -0.1026
  375MPD2    H7 5619   1.317   2.998  17.285  0.1523  1.0826  3.4923
  376TMC3    C1 5620   1.950   3.041  17.267  0.0694  0.1125 -0.4596
  376TMC3    C2 5621   2.028   2.934  17.243 -0.6305  0.6199  0.4123
  376TMC3    C3 5622   2.102   2.945  17.126  0.0445  0.5232 -0.0050
  376TMC3    C4 5623   1.956   3.158  17.195  0.1467 -0.5957 -1.1651
  376TMC3    C5 5624   2.037   3.163  17.082 -0.8940 -0.0875  0.0184
  376TMC3    C6 5625   2.110   3.059  17.049 -0.8380 -1.6113 -0.2686
  376TMC3     C 5626   1.810   3.026  17.313 -0.5140  0.0064  0.6154
  376TMC3     O 5627   1.731   3.114  17.276 -0.3817  0.5336 -0.5800
  376TMC3     H 5628   2.019   2.836  17.287  0.8492  0.3481  0.1283
  376TMC3    H1 5629   1.900   3.245  17.230  0.1843 -0.7704 -0.6661
  376TMC3    H2 5630   2.177   3.069  16.965 -1.8465 -0.1226 -0.9073
  376TMC3    C7 5631   1.970   3.197  16.959 -0.1640  0.4328  0.0976
  376TMC3    C8 5632   2.167   2.822  17.079  0.1269 -0.2096 -0.0887
  376TMC3    O1 5633   2.027   3.166  16.856  0.3685  0.0448 -0.5132
  376TMC3    O2 5634   2.194   2.742  17.167 -0.2513 -0.0198 -0.1133
  377MPD2     C 5635   4.619   2.737  12.246  0.5695 -0.3962 -0.2292
  377MPD2    C1 5636   4.683   2.627  12.305 -0.7756 -1.1664 -0.0302
  377MPD2    C2 5637   4.659   2.589  12.434 -0.2624 -0.0771  0.2186
  377MPD2    C3 5638   4.581   2.665  12.513 -0.5541 -0.0564  0.6624
  377MPD2    C4 5639   4.511   2.773  12.459  0.6468  0.4330 -0.5420
  377MPD2    C5 5640   4.528   2.807  12.326 -0.0318 -0.6599  0.2494
  377MPD2     H 5641   4.716   2.507  12.477  1.5441  1.0163 -0.1256
  377MPD2    H1 5642   4.438   2.826  12.519 -0.7341 -1.8506 -0.1913
  377MPD2    H2 5643   4.633   2.770  12.144  0.3210  0.9417  0.1811
  377MPD2    H3 5644   4.466   2.885  12.285 -0.3303  0.3941  2.7065
  377MPD2     N 5645   4.553   2.633  12.646 -0.3392 -0.0156 -0.2117
  377MPD2    H5 5646   4.498   2.702  12.696 -1.3775 -1.2011  0.2908
  377MPD2    N1 5647   0.062   2.560  12.240 -0.3221 -0.0831  0.4376
  377MPD2    H7 5648   0.136   2.516  12.294  1.8049 -0.4061 -2.7674
  378TMC3    C1 5649   0.233   2.449  11.830  0.2101  0.2593 -0.5004
  378TMC3    C2 5650   0.147   2.439  11.935  0.7396  0.1325 -0.3466
  378TMC3    C3 5651   0.175   2.480  12.061 -0.1520 -0.0200  0.3037
  378TMC3    C4 5652   0.359   2.472  11.857  0.0176  0.0000  0.2199
  378TMC3    C5 5653   0.390   2.506  11.984  0.2571  0.7426 -0.0692
  378TMC3    C6 5654   0.301   2.526  12.081  0.0309 -0.4467 -0.0157
  378TMC3     C 5655   0.189   2.505  11.709  0.2061 -0.0623 -0.3673
  378TMC3     O 5656   0.270   2.523  11.617 -0.3511 -0.1208  0.4631
  378TMC3     H 5657   0.046   2.422  11.898 -0.0816 -0.1954  2.0708
  378TMC3    H1 5658   0.427   2.463  11.773 -1.3699 -1.4852 -0.7467
  378TMC3    H2 5659   0.327   2.578  12.172 -1.1599  0.7874 -0.3850
  378TMC3    C7 5660   0.528   2.518  12.031 -0.2102 -0.8116  0.0378
  378TMC3    C8 5661   0.072   2.561  12.104  0.2090 -0.1970  0.0955
  378TMC3    O1 5662   0.544   2.537  12.154  0.1595 -0.4619 -0.4520
  378TMC3    O2 5663   0.009   2.613  12.018  0.3892 -0.3194 -0.1706
  379MPD2     C 5664   0.515   0.532  16.453 -0.2590 -0.0991 -0.2078
  379MPD2    C1 5665   0.594   0.447  16.376 -0.2397 -0.2056  0.0401
  379MPD2    C2 5666   0.599   0.315  16.409 -0.3101  0.3811 -0.4202
  379MPD2    C3 5667   0.544   0.270  16.526 -0.7209  0.3206  0.2738
  379MPD2    C4 5668   0.481   0.357  16.610 -0.2694  0.9111  0.8911
  379MPD2    C5 5669   0.474   0.490  16.575 -0.0152  0.5870  0.3607
  379MPD2     H 5670   0.652   0.239  16.354  1.4266  1.9376 -0.8857
  379MPD2    H1 5671   0.431   0.317  16.697 -0.0519 -0.6511  0.2944
  379MPD2    H2 5672   0.501   0.634  16.420 -0.7836  0.9366  3.2393
  379MPD2    H3 5673   0.410   0.553  16.637  0.9212  2.5587 -0.6746
  379MPD2     N 5674   0.546   0.130  16.564  0.0629 -0.1581  0.0641
  379MPD2    H5 5675   0.501   0.098  16.649 -1.7920  0.1015 -0.8123
  379MPD2    N1 5676   0.645   0.497  16.259 -0.5233  0.6835  0.0521
  379MPD2    H7 5677   0.624   0.593  16.233  0.3843  1.2749  1.4314
  380TMC3    C1 5678   0.732   0.499  16.040  0.6337 -1.1532  0.1556
  380TMC3    C2 5679   0.820   0.445  15.951 -0.1270  0.0674  0.1958
  380TMC3    C3 5680   0.850   0.517  15.843 -0.3394  0.0925  0.1508
  380TMC3    C4 5681   0.673   0.620  16.018  0.1984  0.9091 -0.0750
  380TMC3    C5 5682   0.705   0.695  15.904  0.5158  0.3990  0.8616
  380TMC3    C6 5683   0.794   0.640  15.817 -0.7192  0.2645 -1.2101
  380TMC3     C 5684   0.721   0.429  16.170  0.2527 -0.3733  0.1817
  380TMC3     O 5685   0.772   0.313  16.173  0.1357  0.1583  0.0736
  380TMC3     H 5686   0.868   0.351  15.974  0.8986  0.3380 -0.8532
  380TMC3    H1 5687   0.591   0.653  16.081 -0.0606 -1.3496  0.7493
  380TMC3    H2 5688   0.813   0.697  15.727 -2.1893 -0.2490 -1.8495
  380TMC3    C7 5689   0.602   0.784  15.853 -0.0430 -0.0420 -0.1859
  380TMC3    C8 5690   0.852   0.449  15.712 -0.4976 -0.3080  0.2256
  380TMC3    O1 5691   0.595   0.802  15.733  0.4299 -0.1879 -0.1485
  380TMC3    O2 5692   0.912   0.510  15.619  0.0350  0.0454  0.2252
  381TMC3    C1 5693   0.014   1.738  16.527  0.4171  0.4503  0.3096
  381TMC3    C2 5694   0.089   1.850  16.520  0.3129  0.4420 -0.0694
  381TMC3    C3 5695   0.095   1.936  16.625 -0.0799  1.1036  0.4583
  381TMC3    C4 5696   4.668   1.701  16.642 -0.3522 -0.6303  0.5757
  381TMC3    C5 5697   4.664   1.804  16.735  0.4387  0.0998  0.3771
  381TMC3    C6 5698   0.022   1.915  16.734  0.2059 -0.0438 -0.1757
  381TMC3     C 5699   0.015   1.635  16.422 -0.1229  0.4845  0.4057
  381TMC3     O 5700   0.011   1.519  16.447  0.1711  0.5525  0.0139
  381TMC3     H 5701   0.147   1.863  16.429  2.3126  2.8154  1.5552
  381TMC3    H1 5702   4.632   1.601  16.661 -2.7576  0.5375  2.1831
  381TMC3    H2 5703   0.043   1.975  16.823  1.0144  0.2210 -0.5422
  381TMC3    C7 5704   4.627   1.751  16.861 -0.8900  0.7266 -0.0182
  381TMC3    C8 5705   0.185   2.049  16.604 -0.2130 -0.0867  0.3517
  381TMC3    O1 5706   4.649   1.630  16.889  0.3202 -0.1116  0.4684
  381TMC3    O2 5707   0.210   2.078  16.487  0.6730 -0.3104  0.1482
  382MPD2     C 5708   3.955   3.768  17.253  0.0259  0.1588  0.4044
  382MPD2    C1 5709   3.891   3.869  17.318 -0.9599 -0.9101  0.3721
  382MPD2    C2 5710   3.786   3.843  17.400  0.5705  0.0002 -0.2606
  382MPD2    C3 5711   3.749   3.712  17.413  0.6529  0.3024  0.4685
  382MPD2    C4 5712   3.820   3.611  17.354  0.9510  0.4210 -0.4340
  382MPD2    C5 5713   3.918   3.640  17.264 -0.1218 -0.0900 -0.0371
  382MPD2     H 5714   3.732   3.923  17.449  0.8514  0.0218  0.0098
  382MPD2    H1 5715   3.790   3.508  17.373  1.2528  0.2160 -1.0789
  382MPD2    H2 5716   4.045   3.787  17.195 -1.6593  0.9711 -1.9391
  382MPD2    H3 5717   3.954   3.561  17.200 -1.2884  0.2100 -1.0820
  382MPD2     N 5718   3.634   3.676  17.488  0.7437 -0.0079 -0.0372
  382MPD2    H5 5719   3.612   3.577  17.493 -1.3609  0.3556 -2.2861
  382MPD2    N1 5720   3.926   4.006  17.309 -0.8838  0.1573 -0.3200
  382MPD2    H7 5721   3.882   4.065  17.378 -0.5529  1.4862 -1.2564
  383TMC3    C1 5722   3.426   3.688  17.601  0.7689 -0.3672  0.3497
  383TMC3    C2 5723   3.381   3.589  17.514  0.2735  0.5254  0.4385
  383TMC3    C3 5724   3.248   3.563  17.522 -0.1344 -0.4414 -0.3638
  383TMC3    C4 5725   3.348   3.756   0.006 -0.1419  1.1685 -0.7932
  383TMC3    C5 5726   3.215   3.728  17.681  0.1121  0.0243 -0.8154
  383TMC3    C6 5727   3.160   3.629  17.605 -0.5650  0.3150  0.6672
  383TMC3     C 5728   3.545   3.758  17.548 -0.9302  0.1317  0.2654
  383TMC3     O 5729   3.545   3.876  17.562  0.2144 -0.4948 -0.9827
  383TMC3     H 5730   3.445   3.543  17.440 -0.7087 -1.5426  0.8646
  383TMC3    H1 5731   3.387   3.840   0.062 -1.8787  0.9652  0.7100
  383TMC3    H2 5732   3.054   3.606  17.597 -0.8246  1.8324 -0.2085
  383TMC3    C7 5733   3.131   3.833   0.059 -0.4178 -0.8836 -0.1439
  383TMC3    C8 5734   3.193   3.443  17.451 -0.7018 -0.8316 -0.2791
  383TMC3    O1 5735   3.189   3.940   0.075 -0.6058  0.2723  0.1894
  383TMC3    O2 5736   3.070   3.437  17.437 -0.4951 -0.3980  0.1792
  384MPD2     C 5737   1.542   0.895  12.006  0.1544  0.1776  0.9023
  384MPD2    C1 5738   1.560   0.842  12.136  0.2103  0.2457 -0.1581
  384MPD2    C2 5739   1.617   0.719  12.155 -0.2751 -0.3293 -0.2843
  384MPD2    C3 5740   1.652   0.642  12.053  0.6598  0.1248  0.0457
  384MPD2    C4 5741   1.624   0.684  11.926  0.2392 -0.1424  0.0199
  384MPD2    C5 5742   1.574   0.812  11.905  0.5116 -0.0917 -0.0958
  384MPD2     H 5743   1.637   0.695  12.259 -0.0887 -0.8137 -0.4347
  384MPD2    H1 5744   1.648   0.620  11.842 -1.1031  1.1306 -1.3323
  384MPD2    H2 5745   1.503   0.993  11.986  1.7184  0.9433  1.5852
  384MPD2    H3 5746   1.564   0.834  11.799  0.7924  0.1248 -0.0757
  384MPD2     N 5747   1.692   0.514  12.094  0.0418 -0.2388  0.1470
  384MPD2    H5 5748   1.690   0.490  12.192  0.2536 -0.1653  0.1684
  384MPD2    N1 5749   1.521   0.906  12.259 -0.3359 -0.1512  0.0208
  384MPD2    H7 5750   1.541   0.862  12.348  1.5880  0.2036 -0.2300
  385TMC3    C1 5751   1.691   0.279  12.084 -1.2354  0.1249 -0.0054
  385TMC3    C2 5752   1.618   0.174  12.045  0.0424 -0.2846 -0.6957
  385TMC3    C3 5753   1.563   0.097  12.140 -0.7782 -0.6186  0.3002
  385TMC3    C4 5754   1.730   0.293  12.212  0.6972  0.9349 -0.2315
  385TMC3    C5 5755   1.666   0.227  12.312 -0.2983  0.3330  0.4709
  385TMC3    C6 5756   1.572   0.132  12.275 -0.0155 -0.3877  0.1721
  385TMC3     C 5757   1.700   0.401  12.010  0.2193  0.5653 -0.4509
  385TMC3     O 5758   1.703   0.394  11.886  0.0829 -0.3950  0.0993
  385TMC3     H 5759   1.606   0.163  11.938 -0.4404 -0.2515 -0.6449
  385TMC3    H1 5760   1.795   0.375  12.237 -1.2185  1.9448  1.4409
  385TMC3    H2 5761   1.547   0.055  12.348 -0.2187 -1.3489 -0.9190
  385TMC3    C7 5762   1.609   0.328  12.401  0.3948  0.9387  0.1273
  385TMC3    C8 5763   1.452   0.009  12.103 -0.2020 -0.7065  0.5634
  385TMC3    O1 5764   1.635   0.444  12.367  0.4521 -0.9876 -0.2714
  385TMC3    O2 5765   1.369   4.694  12.190 -0.2709  0.0445  0.3697
  386TMC3    C1 5766   1.710   2.582  11.355  0.5895 -0.2199  0.0088
  386TMC3    C2 5767   1.611   2.510  11.284 -0.1062  0.4457  0.8318
  386TMC3    C3 5768   1.481   2.570  11.280 -0.2162 -0.2378 -0.8751
  386TMC3    C4 5769   1.680   2.695  11.425  0.5449 -0.4018 -0.2836
  386TMC3    C5 5770   1.548   2.737  11.427 -0.2737 -0.6493  0.3767
  386TMC3    C6 5771   1.442   2.675  11.359 -0.3466 -0.4805  0.0453
  386TMC3     C 5772   1.838   2.520  11.385 -0.3993  0.3927  0.7043
  386TMC3     O 5773   1.938   2.584  11.348 -0.1255  0.2416 -0.5428
  386TMC3     H 5774   1.633   2.416  11.234 -1.3191  1.3613 -1.3593
  386TMC3    H1 5775   1.765   2.748  11.467  0.7421 -1.7038  0.9442
  386TMC3    H2 5776   1.341   2.713  11.361 -0.7058 -1.3574 -0.9559
  386TMC3    C7 5777   1.535   2.845  11.529  0.3559  0.0599 -0.6200
  386TMC3    C8 5778   1.386   2.522  11.183 -0.0277  0.2108  0.0201
  386TMC3    O1 5779   1.624   2.852  11.607 -0.3109 -0.2908  0.0293
  386TMC3    O2 5780   1.270   2.557  11.200  0.8762 -0.1284 -0.3644
  387MPD2     C 5781   4.068   2.591   9.321 -0.4560 -0.1313 -0.1191
  387MPD2    C1 5782   4.096   2.575   9.457  0.3075  1.2946  0.0471
  387MPD2    C2 5783   4.113   2.448   9.510  0.3393 -0.4551 -0.1317
  387MPD2    C3 5784   4.114   2.339   9.422  0.7915 -0.1092  0.4783
  387MPD2    C4 5785   4.097   2.356   9.287  0.3442 -0.3413 -0.1516
  387MPD2    C5 5786   4.063   2.476   9.243  0.6885  0.3144 -0.2273
  387MPD2     H 5787   4.144   2.430   9.612 -0.9525 -0.4087  0.2680
  387MPD2    H1 5788   4.096   2.279   9.210  0.3195  1.2530 -1.7515
  387MPD2    H2 5789   4.038   2.684   9.273 -3.0421 -0.0348  1.6802
  387MPD2    H3 5790   4.034   2.480   9.139  0.1091 -0.0932 -0.0835
  387MPD2     N 5791   4.148   2.218   9.482  0.1363 -0.1016  0.5747
  387MPD2    H5 5792   4.178   2.232   9.578 -0.7285  4.1896  0.2077
  387MPD2    N1 5793   4.102   2.681   9.549 -0.4257 -0.1425  0.8416
  387MPD2    H7 5794   4.126   2.664   9.646 -0.3962  0.4545  0.9382
  388TMC3    C1 5795   4.128   2.897   9.622 -0.1418 -0.2646 -0.3317
  388TMC3    C2 5796   4.197   3.007   9.577 -0.2302  0.2234 -0.2106
  388TMC3    C3 5797   4.278   3.070   9.668  0.8180  0.5692  0.0781
  388TMC3    C4 5798   4.147   2.845   9.753  0.0282  0.3713 -0.3920
  388TMC3    C5 5799   4.240   2.908   9.835 -0.1457  0.3700 -0.3798
  388TMC3    C6 5800   4.293   3.022   9.797 -0.5877  0.2142  0.1243
  388TMC3     C 5801   4.079   2.811   9.516  0.1893  0.4671 -0.1092
  388TMC3     O 5802   4.056   2.858   9.406 -0.2337 -0.4412 -0.0569
  388TMC3     H 5803   4.179   3.053   9.481 -2.3145 -0.2976 -0.0644
  388TMC3    H1 5804   4.084   2.762   9.784 -0.1085  0.9760  0.9268
  388TMC3    H2 5805   4.376   3.060   9.856  0.0107  0.2998 -0.7596
  388TMC3    C7 5806   4.344   2.819   9.895  0.2812  0.5085 -0.1296
  388TMC3    C8 5807   4.301   3.205   9.648  0.0270 -0.2877  0.8492
  388TMC3    O1 5808   4.448   2.861   9.939 -0.3631  0.8734 -0.7464
  388TMC3    O2 5809   4.306   3.246   9.536 -0.9254  0.0944  0.2156
  389MPD2     C 5810   3.715   1.011  10.792 -0.6742  0.5025  0.4270
  389MPD2    C1 5811   3.640   0.934  10.701 -0.3459  0.0780  0.4494
  389MPD2    C2 5812   3.566   0.816  10.739 -0.0143  0.4462  0.0623
  389MPD2    C3 5813   3.573   0.789  10.878  0.0481 -0.2007  0.6235
  389MPD2    C4 5814   3.641   0.872  10.965 -0.4317  0.6137 -0.8200
  389MPD2    C5 5815   3.717   0.976  10.922 -0.2215 -0.1925 -0.1052
  389MPD2     H 5816   3.516   0.752  10.667  0.9132  0.4468 -0.5688
  389MPD2    H1 5817   3.643   0.849  11.071 -1.0201  1.1141 -0.6999
  389MPD2    H2 5818   3.774   1.097  10.763  1.4974 -1.3602 -0.6905
  389MPD2    H3 5819   3.770   1.038  10.993 -0.0396 -2.8522  2.0889
  389MPD2     N 5820   3.516   0.673  10.938 -0.1820 -0.1725 -0.5149
  389MPD2    H5 5821   3.515   0.674  11.039  1.5779 -0.8900 -0.4863
  389MPD2    N1 5822   3.639   0.978  10.564 -0.1704 -0.4031 -0.6494
  389MPD2    H7 5823   3.696   1.059  10.543  1.3098 -0.3131  3.7620
  390TMC3    C1 5824   3.409   0.476  10.987 -0.0859  0.9471  0.5875
  390TMC3    C2 5825   3.283   0.415  10.972 -0.5243  0.5810 -0.5830
  390TMC3    C3 5826   3.250   0.318  11.065 -0.2422 -0.3272  0.1448
  390TMC3    C4 5827   3.503   0.436  11.080 -0.5622 -0.3430  0.8639
  390TMC3    C5 5828   3.462   0.348  11.175  0.7324  0.8134  0.3257
  390TMC3    C6 5829   3.347   0.281  11.157  0.1810  0.1654 -0.7255
  390TMC3     C 5830   3.444   0.573  10.883 -0.1675  0.8319  0.2903
  390TMC3     O 5831   3.389   0.570  10.772 -0.4595 -0.5741 -0.2065
  390TMC3     H 5832   3.213   0.442  10.893 -0.6321  0.2070 -0.6142
  390TMC3    H1 5833   3.596   0.488  11.097 -1.7230  2.0118  0.0336
  390TMC3    H2 5834   3.322   0.204  11.229  2.2989 -1.0100 -1.2822
  390TMC3    C7 5835   3.482   0.411  11.305 -0.6502 -0.1111 -0.2316
  390TMC3    C8 5836   3.120   0.323  11.124  0.1467 -0.0400  0.1580
  390TMC3    O1 5837   3.571   0.493  11.310  0.5425 -0.2146  0.4201
  390TMC3    O2 5838   3.092   0.225  11.185 -0.0302  0.0415 -0.0755
  391MPD2     C 5839   2.060   2.387  10.803 -0.0483  0.6158  0.1822
  391MPD2    C1 5840   2.167   2.470  10.775  0.6289 -0.2311 -0.0813
  391MPD2    C2 5841   2.204   2.478  10.645  0.7144  0.6915 -0.4277
  391MPD2    C3 5842   2.142   2.407  10.548 -0.4935 -0.3228 -0.1515
  391MPD2    C4 5843   2.037   2.317  10.578  0.0773 -0.2833  0.3390
  391MPD2    C5 5844   1.999   2.302  10.709 -0.5496  0.0139 -0.2347
  391MPD2     H 5845   2.287   2.543  10.622  0.8963  1.5339  2.5934
  391MPD2    H1 5846   2.001   2.234  10.517 -1.2060  0.1403  0.5161
  391MPD2    H2 5847   2.041   2.374  10.908  0.8960  0.4439  0.3364
  391MPD2    H3 5848   1.940   2.215  10.736 -0.7367 -0.2140 -1.3415
  391MPD2     N 5849   2.199   2.431  10.422 -0.4669  0.3018 -0.4650
  391MPD2    H5 5850   2.269   2.504  10.417  0.5448 -0.6750 -0.5090
  391MPD2    N1 5851   2.219   2.553  10.880 -0.8062  0.2595 -0.2876
  391MPD2    H7 5852   2.170   2.567  10.968  2.4998 -1.8233  1.8553
  392TMC3    C1 5853   2.241   2.399  10.197  0.0233  0.0807 -0.1540
  392TMC3    C2 5854   2.201   2.342  10.076  0.9235 -0.5934  0.1131
  392TMC3    C3 5855   2.296   2.324   9.977  0.2292 -0.1734  0.0803
  392TMC3    C4 5856   2.363   2.453  10.216 -0.1008  0.7186  0.1463
  392TMC3    C5 5857   2.453   2.439  10.109  0.3087  0.0469 -0.0514
  392TMC3    C6 5858   2.426   2.367   9.994  0.3259  0.7320  0.5446
  392TMC3     C 5859   2.169   2.357  10.304  0.3937  0.0692 -0.1607
  392TMC3     O 5860   2.072   2.280  10.285  0.1924  0.7860  0.6893
  392TMC3     H 5861   2.113   2.280  10.068  0.3854 -0.0677  2.0151
  392TMC3    H1 5862   2.396   2.511  10.301  0.0648  0.6203  0.1499
  392TMC3    H2 5863   2.500   2.342   9.920 -2.3683  2.0126 -2.5721
  392TMC3    C7 5864   2.571   2.513  10.115 -0.1382 -0.1827  0.1005
  392TMC3    C8 5865   2.263   2.226   9.880  0.1347  0.3910 -0.5285
  392TMC3    O1 5866   2.614   2.523  10.230  0.4624 -0.2573  0.1556
  392TMC3    O2 5867   2.331   2.131   9.867 -0.7201 -0.2098  0.1393
  393TMC3    C1 5868   1.900   4.613  10.445  0.2210 -0.5054  0.6951
  393TMC3    C2 5869   1.783   4.610  10.520 -0.2092  0.5143 -0.2833
  393TMC3    C3 5870   1.764   4.720  10.595  0.7671 -0.2445  0.2839
  393TMC3    C4 5871   1.998   4.704  10.461 -1.1538 -0.3446 -0.0798
  393TMC3    C5 5872   1.966   0.091  10.533 -0.3329  0.0768  0.3035
  393TMC3    C6 5873   1.851   0.105  10.606  0.7763 -0.1507  0.2450
  393TMC3     C 5874   1.915   4.536  10.321  0.0387 -0.2291  0.1909
  393TMC3     O 5875   1.999   4.575  10.242  0.5480  0.3374 -0.1967
  393TMC3     H 5876   1.702   4.540  10.508  2.6260 -3.1116  1.7962
  393TMC3    H1 5877   2.098   4.706  10.420 -1.2729  0.4080 -0.3400
  393TMC3    H2 5878   1.834   0.194  10.665  2.7211  0.9354 -0.8486
  393TMC3    C7 5879   2.079   0.172  10.572  0.2849  0.3921  1.1355
  393TMC3    C8 5880   1.638   0.010  10.660 -0.2684 -0.2931  0.3291
  393TMC3    O1 5881   2.089   0.206  10.687  0.5173  0.1266 -0.4341
  393TMC3    O2 5882   1.591   0.124  10.664 -0.1513  0.3109  0.4073
  394TMC3    C1 5883   3.582   0.964  10.340  0.8230 -0.3179  0.0221
  394TMC3    C2 5884   3.473   0.966  10.258 -0.3855 -0.0185  0.5214
  394TMC3    C3 5885   3.487   1.010  10.129  0.4671  0.0514  0.4339
  394TMC3    C4 5886   3.714   0.980  10.305 -0.4898 -0.0334 -1.4417
  394TMC3    C5 5887   3.725   1.026  10.176  0.6334 -0.4450 -0.2335
  394TMC3    C6 5888   3.616   1.042  10.093 -1.1200 -0.5800  0.5521
  394TMC3     C 5889   3.555   0.924  10.472 -0.2688 -0.4288  0.2605
  394TMC3     O 5890   3.452   0.858  10.483  0.0106  0.0508  0.8300
  394TMC3     H 5891   3.374   0.956  10.300  0.9092  0.0147  3.5592
  394TMC3    H1 5892   3.800   0.971  10.371  0.1306  0.5458 -2.1634
  394TMC3    H2 5893   3.633   1.075   9.991 -0.8269  2.4565  1.5855
  394TMC3    C7 5894   3.849   1.095  10.140 -0.1731 -0.0735  0.7994
  394TMC3    C8 5895   3.415   0.925  10.039  0.0917 -0.0286 -0.0504
  394TMC3    O1 5896   3.831   1.194  10.068 -0.6810  0.1844 -1.0222
  394TMC3    O2 5897   3.407   0.954   9.920 -0.1360  0.5952 -0.3376
  395TMC3    C1 5898   2.812   2.335  15.209  0.2851  0.3075 -0.0877
  395TMC3    C2 5899   2.804   2.225  15.124  0.0117  0.2931  0.0704
  395TMC3    C3 5900   2.844   2.242  14.995  0.0479  0.1514  0.2718
  395TMC3    C4 5901   2.855   2.458  15.169  0.2350 -0.5415 -0.1230
  395TMC3    C5 5902   2.899   2.468  15.038 -0.4003 -0.2857  0.5656
  395TMC3    C6 5903   2.893   2.367  14.952  0.2970  0.6023 -0.1828
  395TMC3     C 5904   2.724   2.339  15.326  0.0016  1.0573 -0.0346
  395TMC3     O 5905   2.672   2.448  15.351  0.9846 -0.5356 -0.0300
  395TMC3     H 5906   2.757   2.134  15.158 -0.2872  0.1247 -0.7966
  395TMC3    H1 5907   2.845   2.548  15.229 -0.4964 -0.8134  0.1588
  395TMC3    H2 5908   2.909   2.380  14.845  0.9248 -1.3153 -0.3249
  395TMC3    C7 5909   2.935   2.598  14.988 -0.0185  0.0669 -0.3525
  395TMC3    C8 5910   2.836   2.123  14.908 -0.1541 -0.1522 -0.9093
  395TMC3    O1 5911   2.880   2.686  15.051  0.0738 -0.2303 -0.1639
  395TMC3    O2 5912   2.839   2.018  14.974 -0.2303  0.1740 -0.4300
  396MPD2     C 5913   2.018   3.807  17.164 -0.1278 -0.3500  0.1161
  396MPD2    C1 5914   2.141   3.843  17.209 -0.3155  0.0610  0.7151
  396MPD2    C2 5915   2.189   3.960  17.173 -0.2867  0.6099 -0.8996
  396MPD2    C3 5916   2.132   4.044  17.075 -0.3954 -0.3165 -0.1240
  396MPD2    C4 5917   2.012   4.010  17.027  0.7790  0.6764  0.8876
  396MPD2    C5 5918   1.962   3.889  17.071 -0.2359  0.2487  0.4212
  396MPD2     H 5919   2.287   3.985  17.210 -0.2570 -0.2239 -0.3945
  396MPD2    H1 5920   1.963   4.070  16.951  2.8309  2.6339  1.1042
  396MPD2    H2 5921   1.967   3.721  17.206  0.1795 -0.8341 -0.4947
  396MPD2    H3 5922   1.867   3.858  17.030  0.6902 -2.2491  0.1537
  396MPD2     N 5923   2.212   4.149  17.029 -0.1961 -0.1021  0.2887
  396MPD2    H5 5924   2.305   4.161  17.069  0.2593  0.1431 -0.8360
  396MPD2    N1 5925   2.202   3.739  17.284  0.0467 -0.3670 -0.3538
  396MPD2    H7 5926   2.142   3.660  17.304  0.5295 -0.3854  1.0724
  397TMC3    C1 5927   2.380   3.594  17.341  0.1501  0.0752 -0.6675
  397TMC3    C2 5928   2.496   3.549  17.287  0.0739  0.0138 -0.2978
  397TMC3    C3 5929   2.500   3.414  17.253  0.1193  0.5297  0.2433
  397TMC3    C4 5930   2.281   3.512  17.378  0.2845  0.1568 -0.3277
  397TMC3    C5 5931   2.299   3.379  17.358  0.2685 -0.3366  0.3113
  397TMC3    C6 5932   2.408   3.328  17.295  0.3581  0.0883 -0.5995
  397TMC3     C 5933   2.340   3.722  17.294  0.3730 -0.7485 -0.1498
  397TMC3     O 5934   2.432   3.797  17.258 -0.1196  0.0158 -0.3512
  397TMC3     H 5935   2.565   3.626  17.253  1.0955 -1.2363 -1.0327
  397TMC3    H1 5936   2.206   3.550  17.446  0.3713 -3.8500  1.9936
  397TMC3    H2 5937   2.423   3.224  17.271  1.0389 -0.3624  1.7359
  397TMC3    C7 5938   2.219   3.278  17.421  0.3481  0.0295 -0.0153
  397TMC3    C8 5939   2.555   3.373  17.124  0.0540 -1.1428  0.0566
  397TMC3    O1 5940   2.245   3.158  17.398  0.2893  0.3027  0.4381
  397TMC3    O2 5941   2.521   3.269  17.066  0.4340 -0.9197  0.1447
  398MPD2     C 5942   0.388   0.236   0.466  0.9071  0.6410  0.1712
  398MPD2    C1 5943   0.507   0.252   0.535  1.0715  0.3525 -0.2921
  398MPD2    C2 5944   0.574   0.375   0.537 -0.5990  0.2020  0.4778
  398MPD2    C3 5945   0.520   0.487   0.467  0.3868  0.2277 -0.4263
  398MPD2    C4 5946   0.404   0.464   0.397 -0.2414 -0.2254 -0.2904
  398MPD2    C5 5947   0.343   0.339   0.388  0.1462 -0.2591 -0.9918
  398MPD2     H 5948   0.668   0.384   0.589  1.3100  0.8450 -3.0950
  398MPD2    H1 5949   0.363   0.544   0.336 -0.4591 -0.4547 -0.4434
  398MPD2    H2 5950   0.339   0.140   0.471  0.9735  0.4478 -2.6437
  398MPD2    H3 5951   0.249   0.326   0.335 -0.8093 -0.1586  0.6906
  398MPD2     N 5952   0.594   0.606   0.471  0.0736  0.0415 -0.8125
  398MPD2    H5 5953   0.668   0.610   0.540 -1.0505  1.9725  0.2998
  398MPD2    N1 5954   0.557   0.139   0.607  0.1586 -0.2555 -0.5527
  398MPD2    H7 5955   0.500   0.055   0.600  0.4463 -0.3324 -1.8866
  399TMC3    C1 5956   0.695   0.002   0.742  0.0455  0.1132  0.2004
  399TMC3    C2 5957   0.789   4.712   0.837  0.1339 -0.4120 -0.3265
  399TMC3    C3 5958   0.825   4.585   0.872  0.2146 -0.8076  0.1702
  399TMC3    C4 5959   0.635   4.614   0.682  0.2462 -0.4719  0.3984
  399TMC3    C5 5960   0.668   4.487   0.728  0.0690  0.3415 -0.4231
  399TMC3    C6 5961   0.759   4.478   0.831 -0.5250  0.3474  0.3414
  399TMC3     C 5962   0.670   0.140   0.686 -0.4376 -0.0599  0.2145
  399TMC3     O 5963   0.757   0.221   0.701  0.0180 -0.2485  0.7058
  399TMC3     H 5964   0.834   0.082   0.876  0.3866 -0.7684  0.2157
  399TMC3    H1 5965   0.582   4.631   0.589  1.4911  1.5016  0.0302
  399TMC3    H2 5966   0.764   4.377   0.869  1.9532 -0.1499 -1.2981
  399TMC3    C7 5967   0.590   4.366   0.695  0.3215  0.6432 -0.2885
  399TMC3    C8 5968   0.935   4.562   0.959  0.3996  0.3906  0.1109
  399TMC3    O1 5969   0.596   4.271   0.768 -0.6000  0.1821  0.2922
  399TMC3    O2 5970   0.990   4.652   1.018  0.8664  0.0128  0.3816
  400TMC3    C1 5971   3.543   3.243  17.003 -0.6276  0.0816 -0.6924
  400TMC3    C2 5972   3.448   3.200  16.904  0.0478  0.4233  0.1213
  400TMC3    C3 5973   3.354   3.301  16.868  0.0624  0.0294  0.1072
  400TMC3    C4 5974   3.539   3.366  17.064 -0.3320 -0.2125  0.1449
  400TMC3    C5 5975   3.456   3.457  17.012 -0.0694 -0.3495 -0.2256
  400TMC3    C6 5976   3.360   3.424  16.920  0.9093  0.3422  0.4736
  400TMC3     C 5977   3.658   3.159  17.035  0.9338  0.1783 -0.1050
  400TMC3     O 5978   3.641   3.042  16.997 -0.1267  0.0469 -0.4663
  400TMC3     H 5979   3.439   3.104  16.855  1.6165  0.1450  0.3839
  400TMC3    H1 5980   3.603   3.398  17.146  0.4610  0.5463 -0.7673
  400TMC3    H2 5981   3.301   3.502  16.873 -0.1738  0.0481  1.3524
  400TMC3    C7 5982   3.477   3.591  17.068  0.1956 -0.6788  0.2229
  400TMC3    C8 5983   3.260   3.277  16.757 -0.0884 -0.2735 -0.2438
  400TMC3    O1 5984   3.594   3.621  17.095  0.7383 -0.0609 -0.2826
  400TMC3    O2 5985   3.162   3.352  16.757 -0.2232  0.1660 -0.0602
  401MPD2     C 5986   2.143   2.870   0.489  0.1014  0.6005 -0.0609
  401MPD2    C1 5987   2.133   2.743   0.547 -0.5974 -0.1416  0.8750
  401MPD2    C2 5988   2.085   2.632   0.474 -0.0185  0.3234 -0.4028
  401MPD2    C3 5989   2.040   2.644   0.342  0.9143  0.4469 -0.2618
  401MPD2    C4 5990   2.048   2.770   0.280  0.0698  0.6820 -0.1435
  401MPD2    C5 5991   2.106   2.878   0.356 -0.0385  0.2901 -0.0746
  401MPD2     H 5992   2.093   2.534   0.521 -0.3839 -0.1701 -1.3866
  401MPD2    H1 5993   2.025   2.788   0.176 -1.0818 -0.4677 -0.0859
  401MPD2    H2 5994   2.200   2.951   0.533  0.8587  0.9110 -1.6230
  401MPD2    H3 5995   2.137   2.962   0.295  0.1873  0.2993  0.0531
  401MPD2     N 5996   1.996   2.524   0.281 -0.1401  0.0685 -0.0230
  401MPD2    H5 5997   2.013   2.438   0.332  0.3271  0.1939  0.0366
  401MPD2    N1 5998   2.183   2.711   0.677 -0.1119 -0.9376 -0.2346
  401MPD2    H7 5999   2.172   2.616   0.711 -1.1672 -0.8525 -0.3298
  402TMC3    C1 6000   1.909   2.381   0.129 -0.4825  0.0153  0.0662
  402TMC3    C2 6001   1.868   2.296   0.232 -0.5164 -0.4531  0.0927
  402TMC3    C3 6002   1.863   2.167   0.202  0.3963 -0.0068 -0.3195
  402TMC3    C4 6003   1.934   2.336   0.003 -0.9179 -0.6929  0.0451
  402TMC3    C5 6004   1.938   2.203  17.669  0.1050  0.3383  0.3507
  402TMC3    C6 6005   1.899   2.114   0.083  0.3237  0.1472 -0.3703
  402TMC3     C 6006   1.939   2.518   0.161  0.0648  0.5517 -0.4988
  402TMC3     O 6007   1.933   2.600   0.070  0.0752 -0.2541 -0.0175
  402TMC3     H 6008   1.844   2.337   0.330  0.1289 -0.2081  0.1445
  402TMC3    H1 6009   1.969   2.410  17.614  2.0781 -2.3238 -0.1759
  402TMC3    H2 6010   1.895   2.006   0.072  0.9291  0.0751  0.0922
  402TMC3    C7 6011   1.968   2.165  17.531 -0.1486  0.1404 -0.3593
  402TMC3    C8 6012   1.817   2.083   0.306  0.1441  0.1536  0.0213
  402TMC3    O1 6013   1.986   2.252  17.447  0.4069 -0.2024 -0.3523
  402TMC3    O2 6014   1.713   2.118   0.363  0.2162  0.4365  0.5623
  403MPD2     C 6015   0.917   0.744  13.248 -0.5712  0.5732 -0.2568
  403MPD2    C1 6016   0.877   0.637  13.320  0.6193  0.1845  0.1314
  403MPD2    C2 6017   0.879   0.639  13.454 -0.3996 -0.4130 -0.0389
  403MPD2    C3 6018   0.916   0.753  13.524 -0.4453 -0.1452 -0.0642
  403MPD2    C4 6019   0.974   0.856  13.452  0.8571 -0.3276 -0.4363
  403MPD2    C5 6020   0.969   0.848  13.317 -0.5570 -0.4381 -0.3192
  403MPD2     H 6021   0.839   0.555  13.511 -2.6163  1.4595  1.1668
  403MPD2    H1 6022   1.027   0.937  13.501  0.6335 -1.0066  0.9202
  403MPD2    H2 6023   0.915   0.740  13.139 -1.1285 -1.4388 -0.1701
  403MPD2    H3 6024   1.005   0.929  13.255 -1.1617 -1.0186 -1.4224
  403MPD2     N 6025   0.913   0.747  13.665 -0.6779 -0.1034  0.1802
  403MPD2    H5 6026   0.870   0.664  13.706 -0.8522 -0.1785 -0.1512
  403MPD2    N1 6027   0.825   0.524  13.250 -0.5009  0.7424  0.1884
  403MPD2    H7 6028   0.856   0.512  13.154  1.1503 -0.0525  0.8230
  404TMC3    C1 6029   0.701   0.329  13.213  0.0656 -0.5475  0.2615
  404TMC3    C2 6030   0.621   0.220  13.263  0.0716 -1.0953  1.2275
  404TMC3    C3 6031   0.581   0.119  13.174  0.4439 -0.4117 -0.4580
  404TMC3    C4 6032   0.733   0.338  13.077  0.6915 -0.1780  0.0958
  404TMC3    C5 6033   0.703   0.231  12.996 -0.4413 -0.2723 -0.7838
  404TMC3    C6 6034   0.628   0.121  13.047  0.3308  0.1599  0.7339
  404TMC3     C 6035   0.733   0.437  13.301 -0.2772  0.1787 -0.2349
  404TMC3     O 6036   0.663   0.437  13.403 -0.2053 -0.3871 -0.3332
  404TMC3     H 6037   0.587   0.232  13.365  0.4193  2.4667  0.9459
  404TMC3    H1 6038   0.778   0.425  13.031 -1.7734  0.9177 -0.2917
  404TMC3    H2 6039   0.610   0.040  12.978 -1.0308 -0.1696  1.4701
  404TMC3    C7 6040   0.710   0.254  12.854  0.0356 -0.1111  0.1228
  404TMC3    C8 6041   0.536   4.712  13.229  0.6499  0.4938  0.3742
  404TMC3    O1 6042   0.788   0.338  12.810  0.4347  0.1510 -0.0980
  404TMC3    O2 6043   0.527   4.630  13.140 -0.2162  0.0044  0.2171
  405MPD2     C 6044   0.897   0.689  15.085 -0.0749 -0.4862  0.2105
  405MPD2    C1 6045   0.923   0.636  14.959  0.4628  0.5130 -0.4007
  405MPD2    C2 6046   0.928   0.722  14.853  0.3494  0.3293  0.2432
  405MPD2    C3 6047   0.912   0.860  14.863  0.8445 -0.1337 -0.4440
  405MPD2    C4 6048   0.870   0.907  14.982  0.4028  0.0355  0.5885
  405MPD2    C5 6049   0.863   0.825  15.088 -0.2111  0.2029  0.9150
  405MPD2     H 6050   0.965   0.686  14.758  1.2898 -2.3743  1.6486
  405MPD2    H1 6051   0.853   1.013  14.989  2.6678  0.4909 -0.6996
  405MPD2    H2 6052   0.887   0.623  15.171  0.1740 -0.9375 -0.1048
  405MPD2    H3 6053   0.823   0.863  15.182 -0.9221 -0.8119  1.0205
  405MPD2     N 6054   0.916   0.931  14.743 -0.2647  0.3618  0.6896
  405MPD2    H5 6055   0.936   0.868  14.666  1.7575  0.7807  0.8643
  405MPD2    N1 6056   0.937   0.499  14.949 -0.5282 -0.5710 -0.1622
  405MPD2    H7 6057   0.942   0.444  15.033 -3.3752 -0.7534 -0.0904
  406TMC3    C1 6058   0.817   1.224  14.397  0.7038  0.4047  0.3717
  406TMC3    C2 6059   0.770   1.125  14.317  0.1392  0.5932 -0.0826
  406TMC3    C3 6060   0.770   0.998  14.376 -0.3600  0.6705 -0.3751
  406TMC3    C4 6061   0.848   1.207  14.526 -0.0113 -0.4742 -0.2123
  406TMC3    C5 6062   0.846   1.080  14.579 -0.3360 -0.8194  0.0531
  406TMC3    C6 6063   0.793   0.975  14.510 -0.4106  0.2630 -0.3512
  406TMC3     C 6064   0.739   1.343  14.397 -0.4312 -0.0905 -0.1315
  406TMC3     O 6065   0.771   1.435  14.471  0.0656 -0.0886 -0.0168
  406TMC3     H 6066   0.739   1.146  14.215 -0.0501  0.2486 -0.0954
  406TMC3    H1 6067   0.902   1.278  14.587  0.5755  0.4877 -1.8420
  406TMC3    H2 6068   0.769   0.887  14.569  0.8299  0.5207  0.5242
  406TMC3    C7 6069   0.883   1.060  14.719  0.4023  0.0507  0.7675
  406TMC3    C8 6070   0.728   0.877  14.307 -0.2075 -0.1420  0.5591
  406TMC3    O1 6071   0.907   1.154  14.795 -0.2325  0.2969  0.3686
  406TMC3    O2 6072   0.693   0.892  14.193 -0.0979  0.1624  0.5627
  407MPD2     C 6073   3.601   2.170   9.184 -0.3007 -0.3477  0.3596
  407MPD2    C1 6074   3.730   2.175   9.244 -0.0266  0.9164  0.5813
  407MPD2    C2 6075   3.756   2.257   9.354 -0.4877 -0.0516  0.1791
  407MPD2    C3 6076   3.659   2.336   9.409 -0.4910  0.1865 -0.0219
  407MPD2    C4 6077   3.542   2.354   9.336  0.4275 -0.5988 -0.2231
  407MPD2    C5 6078   3.515   2.264   9.237  0.0756 -0.3764 -0.5881
  407MPD2     H 6079   3.859   2.262   9.388 -0.3110  3.3254 -0.8358
  407MPD2    H1 6080   3.470   2.428   9.367  1.6175  1.6380 -2.8222
  407MPD2    H2 6081   3.577   2.117   9.093 -2.0100  1.0196  0.0234
  407MPD2    H3 6082   3.427   2.284   9.176  0.3094  3.2631  0.2696
  407MPD2     N 6083   3.675   2.419   9.525 -0.4753 -0.8257 -0.0689
  407MPD2    H5 6084   3.616   2.502   9.529 -0.3426 -0.7056 -0.6122
  407MPD2    N1 6085   3.845   2.114   9.177  0.4669  0.1014 -0.0065
  407MPD2    H7 6086   3.931   2.163   9.199  0.4622 -0.0598  0.3703
  408TMC3    C1 6087   3.949   1.990   9.011  0.1922  0.4154  0.1048
  408TMC3    C2 6088   3.981   1.863   8.982  0.8210 -0.0758 -0.2320
  408TMC3    C3 6089   4.118   1.831   8.962 -0.4746  0.3149  0.1184
  408TMC3    C4 6090   4.045   2.092   9.011 -0.4059 -0.5291  0.2608
  408TMC3    C5 6091   4.176   2.057   8.986 -0.3566  0.5290 -0.3388
  408TMC3    C6 6092   4.211   1.930   8.954  0.3702  0.0198 -0.1980
  408TMC3     C 6093   3.830   2.020   9.082 -0.4282 -0.3011 -0.4930
  408TMC3     O 6094   3.736   1.943   9.064  0.0002  0.1983 -0.2022
  408TMC3     H 6095   3.904   1.786   8.982  1.5256 -0.7636  2.0624
  408TMC3    H1 6096   4.019   2.195   9.035 -0.2000 -0.3141 -0.4435
  408TMC3    H2 6097   4.313   1.912   8.925  0.6683 -1.4406  1.7174
  408TMC3    C7 6098   4.278   2.136   9.042 -0.4521  0.0521  0.6581
  408TMC3    C8 6099   4.157   1.734   9.061  0.0483  0.7039  0.0670
  408TMC3    O1 6100   4.363   2.079   9.113  0.0384 -0.1267  0.2063
  408TMC3    O2 6101   4.086   1.636   9.074 -0.1216  0.2262 -0.1675
  409MPD2     C 6102   2.716   2.300  16.823  0.4100  0.2199 -0.5310
  409MPD2    C1 6103   2.722   2.376  16.936  0.0606  0.0929  0.3520
  409MPD2    C2 6104   2.718   2.510  16.932  0.5017 -0.2226 -0.4206
  409MPD2    C3 6105   2.718   2.572  16.816 -0.4485  0.7013 -0.2278
  409MPD2    C4 6106   2.708   2.497  16.700 -0.6876 -0.1432 -0.0972
  409MPD2    C5 6107   2.714   2.361  16.695  0.6346  0.4539 -0.4369
  409MPD2     H 6108   2.733   2.561  17.026  2.0873  2.6270 -2.2273
  409MPD2    H1 6109   2.712   2.542  16.601  1.4818 -3.0326 -1.3097
  409MPD2    H2 6110   2.728   2.192  16.822 -0.4786  0.1146  0.8802
  409MPD2    H3 6111   2.711   2.304  16.603 -2.4005 -1.5262  0.8934
  409MPD2     N 6112   2.733   2.714  16.803 -0.8914 -0.0558 -0.6364
  409MPD2    H5 6113   2.728   2.754  16.709  0.0496 -0.5196 -0.8842
  409MPD2    N1 6114   2.744   2.330  17.069 -1.0187 -0.3745 -0.4177
  409MPD2    H7 6115   2.751   2.398  17.144 -0.8858 -2.9747  1.9489
  410TMC3    C1 6116   2.793   2.934  16.872 -1.0055 -0.1869  0.0283
  410TMC3    C2 6117   2.887   2.988  16.956 -0.0252 -0.0918  0.4441
  410TMC3    C3 6118   2.941   3.108  16.911 -0.1470  0.3619  0.5749
  410TMC3    C4 6119   2.733   2.990  16.761  0.4635 -1.2111  0.3540
  410TMC3    C5 6120   2.785   3.115  16.728  0.2132 -0.7204  0.3204
  410TMC3    C6 6121   2.888   3.177  16.805  0.2818 -0.7141 -0.2669
  410TMC3     C 6122   2.755   2.800  16.913 -1.0029  0.2911 -0.4361
  410TMC3     O 6123   2.734   2.785  17.034  0.1419 -0.2044 -0.2901
  410TMC3     H 6124   2.929   2.932  17.038  0.3346  3.0790  2.4444
  410TMC3    H1 6125   2.649   2.944  16.709 -0.5597 -2.6353  3.2525
  410TMC3    H2 6126   2.928   3.275  16.781 -0.5290 -0.9010 -2.4039
  410TMC3    C7 6127   2.726   3.186  16.609  0.2515 -0.1900  0.4375
  410TMC3    C8 6128   3.027   3.173  16.997 -0.4645  0.2349  0.6122
  410TMC3    O1 6129   2.628   3.138  16.555  0.1122 -0.3322  0.3342
  410TMC3    O2 6130   3.006   3.290  17.026 -0.4767  0.0496 -0.5349
  411MPD2     C 6131   3.242   3.786  14.720 -0.0257 -0.5445 -0.0549
  411MPD2    C1 6132   3.110   3.823  14.701  0.7044 -1.4485 -0.0513
  411MPD2    C2 6133   3.017   3.734  14.678 -0.1543 -0.1008  0.2688
  411MPD2    C3 6134   3.048   3.603  14.663  0.7206  0.2468 -0.1114
  411MPD2    C4 6135   3.177   3.563  14.664 -0.3086  0.3947 -0.4103
  411MPD2    C5 6136   3.267   3.657  14.710  0.2898 -0.5460  0.1807
  411MPD2     H 6137   2.912   3.761  14.671  0.1832  0.8707 -1.2038
  411MPD2    H1 6138   3.203   3.458  14.667 -2.7816 -0.2270 -1.0868
  411MPD2    H2 6139   3.323   3.852  14.748 -0.2116 -1.3103  2.2389
  411MPD2    H3 6140   3.369   3.624  14.724  0.3682 -0.5313 -0.3480
  411MPD2     N 6141   2.955   3.503  14.641  0.3705  0.7113 -0.3958
  411MPD2    H5 6142   2.996   3.414  14.616  0.4990  0.4854  0.6622
  411MPD2    N1 6143   3.084   3.966  14.705  0.2293  0.0341  0.4018
  411MPD2    H7 6144   3.159   4.019  14.748 -0.1952  0.2395  0.8888
  412TMC3    C1 6145   2.755   3.396  14.605  0.2253 -0.2507 -0.2104
  412TMC3    C2 6146   2.627   3.391  14.663 -0.4939  0.1999  0.3432
  412TMC3    C3 6147   2.539   3.320  14.588  0.3143 -0.1680 -0.2224
  412TMC3    C4 6148   2.785   3.358  14.475  0.3102 -0.2195  0.5194
  412TMC3    C5 6149   2.694   3.288  14.406  0.3583 -0.2591 -0.0500
  412TMC3    C6 6150   2.581   3.255  14.472 -0.7865 -0.1611 -0.6726
  412TMC3     C 6151   2.821   3.509  14.664 -0.0505  0.9616 -0.5390
  412TMC3     O 6152   2.742   3.599  14.687  0.3200  0.2165  0.1059
  412TMC3     H 6153   2.602   3.445  14.754 -0.3648 -0.7158  0.9270
  412TMC3    H1 6154   2.874   3.388  14.419 -0.6866  0.2002 -0.8398
  412TMC3    H2 6155   2.503   3.200  14.421 -2.0087  0.9022  0.0508
  412TMC3    C7 6156   2.661   3.361  14.288 -0.2426 -0.3585  0.0965
  412TMC3    C8 6157   2.403   3.368  14.602  0.4791  0.5809 -0.9266
  412TMC3    O1 6158   2.540   3.369  14.275  0.0513 -0.0626  0.0233
  412TMC3    O2 6159   2.355   3.382  14.713 -0.2007 -0.1193 -0.4958
  413MPD2     C 6160   4.414   1.767  15.352  0.3595 -0.6822  0.7104
  413MPD2    C1 6161   4.369   1.791  15.220 -0.4148 -0.1877  0.1545
  413MPD2    C2 6162   4.441   1.722  15.121  0.4593 -0.1144 -0.5984
  413MPD2    C3 6163   4.544   1.631  15.147  0.1510 -0.1715 -0.4625
  413MPD2    C4 6164   4.587   1.610  15.276 -1.1096 -0.8591  0.3516
  413MPD2    C5 6165   4.516   1.672  15.377  0.1658  0.3341  0.2572
  413MPD2     H 6166   4.421   1.737  15.015  0.8140  1.4216 -0.4518
  413MPD2    H1 6167   4.672   1.547  15.298 -0.7436 -1.3102 -2.2872
  413MPD2    H2 6168   4.366   1.812  15.438 -1.0356 -0.2216 -0.3093
  413MPD2    H3 6169   4.545   1.654  15.480 -1.7792  1.7732  1.0634
  413MPD2     N 6170   4.597   1.572  15.031 -0.3231  0.3440  0.0618
  413MPD2    H5 6171   4.581   1.621  14.943 -0.0378  1.9016  0.8802
  413MPD2    N1 6172   4.255   1.876  15.200 -0.5383 -0.0466 -0.0902
  413MPD2    H7 6173   4.217   1.930  15.277  1.6775 -1.4255  1.9405
  414TMC3    C1 6174   0.026   1.447  14.897  0.0339  0.5668  0.1034
  414TMC3    C2 6175   0.101   1.333  14.878  0.4896  0.2239  0.8338
  414TMC3    C3 6176   0.214   1.340  14.802  0.0327  0.2299  1.3350
  414TMC3    C4 6177   0.057   1.556  14.826  0.0552  0.2085  0.0068
  414TMC3    C5 6178   0.167   1.552  14.737  0.2786 -0.3892 -0.4061
  414TMC3    C6 6179   0.252   1.445  14.725  1.0483  0.3927  0.1203
  414TMC3     C 6180   4.684   1.472  15.028  0.3562 -0.6281  0.5240
  414TMC3     O 6181   4.716   1.388  15.109 -0.0235 -0.5472 -0.1771
  414TMC3     H 6182   0.083   1.245  14.938 -0.0018  0.0845  0.4861
  414TMC3    H1 6183   0.020   1.656  14.847 -0.5098 -0.2763  1.3409
  414TMC3    H2 6184   0.345   1.449  14.669 -0.1603  0.5750 -1.8593
  414TMC3    C7 6185   0.234   1.677  14.719  0.2485  0.4960 -0.0029
  414TMC3    C8 6186   0.297   1.218  14.799  0.8047  0.0256 -0.7808
  414TMC3    O1 6187   0.181   1.769  14.657  0.1190  0.4548  0.3977
  414TMC3    O2 6188   0.308   1.164  14.910 -0.0971  0.0986 -0.1589
  415TMC3    C1 6189   0.892   3.680   9.264 -0.3210 -0.2395  0.0959
  415TMC3    C2 6190   0.969   3.630   9.168  0.8355 -0.7095 -0.4062
  415TMC3    C3 6191   1.098   3.590   9.202 -0.1591  0.1064 -0.6018
  415TMC3    C4 6192   0.937   3.699   9.393  0.8016  0.2069 -0.5418
  415TMC3    C5 6193   1.070   3.666   9.419  0.0375 -0.8269 -0.6707
  415TMC3    C6 6194   1.159   3.616   9.324 -0.2827  0.6028 -0.3977
  415TMC3     C 6195   0.747   3.678   9.248 -0.1425  0.3487 -0.7178
  415TMC3     O 6196   0.697   3.594   9.177 -0.1489 -0.4251 -0.4307
  415TMC3     H 6197   0.935   3.612   9.067 -1.8610 -0.8840  0.5291
  415TMC3    H1 6198   0.877   3.741   9.473  2.6233  0.9240  0.4380
  415TMC3    H2 6199   1.252   3.573   9.358 -0.5327 -0.3093 -0.8361
  415TMC3    C7 6200   1.122   3.660   9.559  0.1232 -0.1578  0.7575
  415TMC3    C8 6201   1.176   3.536   9.090 -0.4139 -0.0658 -0.2924
  415TMC3    O1 6202   1.242   3.670   9.578 -0.4451  0.1079  0.5054
  415TMC3    O2 6203   1.148   3.585   8.981  0.3191 -0.3802 -0.2739
  416MPD2     C 6204   1.625   3.679  12.046  0.3896 -0.3759  0.4898
  416MPD2    C1 6205   1.670   3.691  11.918  0.4872 -0.2046 -0.1833
  416MPD2    C2 6206   1.704   3.579  11.844  0.0999 -0.4990  0.1143
  416MPD2    C3 6207   1.683   3.446  11.892  0.3304 -0.0400 -0.2720
  416MPD2    C4 6208   1.638   3.436  12.027  0.6070  0.3087 -0.5519
  416MPD2    C5 6209   1.608   3.553  12.098  1.0167 -0.4741 -0.1271
  416MPD2     H 6210   1.748   3.584  11.745  1.1670  0.6989  0.6498
  416MPD2    H1 6211   1.618   3.339  12.072 -2.4378  1.1051 -0.2016
  416MPD2    H2 6212   1.612   3.770  12.103  0.7909 -0.1556  0.2274
  416MPD2    H3 6213   1.572   3.540  12.199 -1.7025 -0.8554 -1.1443
  416MPD2     N 6214   1.712   3.343  11.805  0.3538 -0.2305  0.4258
  416MPD2    H5 6215   1.732   3.367  11.708  1.6345 -2.1972  0.2037
  416MPD2    N1 6216   1.675   3.822  11.861 -0.0790 -0.3146 -0.0534
  416MPD2    H7 6217   1.658   3.896  11.928  3.1043  0.7465 -0.4283
  417TMC3    C1 6218   1.738   3.997  11.708 -0.4887  0.0474  0.3938
  417TMC3    C2 6219   1.747   4.089  11.808  0.8999  0.5383 -0.3684
  417TMC3    C3 6220   1.777   4.221  11.777  0.5683  0.6321 -0.4272
  417TMC3    C4 6221   1.767   4.031  11.576  0.0544 -0.5591  0.6734
  417TMC3    C5 6222   1.814   4.161  11.552 -0.6038 -0.0866 -0.7949
  417TMC3    C6 6223   1.825   4.256  11.656  0.1143 -0.5063 -0.7843
  417TMC3     C 6224   1.705   3.855  11.731 -0.3885 -0.1905 -0.9870
  417TMC3     O 6225   1.732   3.774  11.642  0.2414  0.2847 -0.0330
  417TMC3     H 6226   1.717   4.063  11.909  1.8021 -0.1585 -0.2778
  417TMC3    H1 6227   1.750   3.954  11.502  0.3488 -0.9560  1.0198
  417TMC3    H2 6228   1.853   4.359  11.641 -1.9312 -0.3486 -3.6832
  417TMC3    C7 6229   1.874   4.194  11.429  0.1768 -0.4259 -0.5771
  417TMC3    C8 6230   1.769   4.316  11.881  0.0694 -0.0695  0.1737
  417TMC3    O1 6231   1.932   4.302  11.423  0.1297  0.0268 -0.2274
  417TMC3    O2 6232   1.856   4.406  11.883  0.1777  0.3302 -0.0661
  418TMC3    C1 6233   0.863   0.837   0.204  0.0959  0.1377 -0.5497
  418TMC3    C2 6234   0.734   0.818   0.237 -0.4157  0.7694  0.2705
  418TMC3    C3 6235   0.689   0.795   0.367 -0.4923 -0.1403  0.2290
  418TMC3    C4 6236   0.955   0.839   0.304  0.3636 -0.0365 -0.4858
  418TMC3    C5 6237   0.910   0.795   0.431  0.2682 -0.1116 -0.5597
  418TMC3    C6 6238   0.784   0.785   0.466 -0.3007 -0.1082  0.8056
  418TMC3     C 6239   0.911   0.792   0.081 -0.3846  0.6092 -0.5647
  418TMC3     O 6240   0.956   0.877   0.007 -0.0965 -0.9453 -0.0476
  418TMC3     H 6241   0.660   0.822   0.158 -0.9609 -1.1418  0.6789
  418TMC3    H1 6242   1.060   0.838   0.279  0.6322 -1.0099  0.6941
  418TMC3    H2 6243   0.771   0.755   0.570 -0.1440  1.4955  1.2858
  418TMC3    C7 6244   1.011   0.751   0.525  0.5041  0.3523  0.8796
  418TMC3    C8 6245   0.565   0.715   0.386  0.0808  0.1091 -0.0804
  418TMC3    O1 6246   0.975   0.699   0.628 -0.2491  0.2487  0.0835
  418TMC3    O2 6247   0.482   0.723   0.294  0.1267  0.4700  0.3382
  419MPD2     C 6248   4.142   3.362  12.427 -0.0357  1.0348  0.1127
  419MPD2    C1 6249   4.210   3.482  12.465 -0.3446 -0.3704  0.2051
  419MPD2    C2 6250   4.207   3.536  12.591 -0.5321 -0.6091 -0.1495
  419MPD2    C3 6251   4.137   3.468  12.686  0.5916  0.1241 -0.3821
  419MPD2    C4 6252   4.064   3.353  12.652  0.0518  0.2495 -0.0250
  419MPD2    C5 6253   4.063   3.304  12.526  0.4984 -0.3096  0.4830
  419MPD2     H 6254   4.251   3.632  12.615  0.0918 -0.7545 -0.7230
  419MPD2    H1 6255   4.008   3.298  12.728 -0.3537  0.8391  0.0997
  419MPD2    H2 6256   4.140   3.330  12.323 -0.3488  1.2769  0.0416
  419MPD2    H3 6257   4.009   3.212  12.509  0.4733 -0.7044  2.6868
  419MPD2     N 6258   4.137   3.524  12.817 -0.7025 -0.2569 -0.2724
  419MPD2    H5 6259   4.180   3.616  12.826  0.5426 -0.9235  0.5558
  419MPD2    N1 6260   4.275   3.558  12.367 -0.2918 -0.4177  0.0663
  419MPD2    H7 6261   4.316   3.643  12.404  0.6340  0.3868 -2.7977
  420TMC3    C1 6262   4.060   3.562  13.042 -0.2340  0.1979 -0.3118
  420TMC3    C2 6263   4.026   3.692  13.011 -0.2497 -1.7237  0.3274
  420TMC3    C3 6264   4.006   3.777  13.114 -0.2720  0.1177  0.9480
  420TMC3    C4 6265   4.082   3.522  13.171 -0.7780 -0.9085  0.0459
  420TMC3    C5 6266   4.060   3.614  13.269 -0.3313 -0.1312 -0.0127
  420TMC3    C6 6267   4.017   3.737  13.244 -0.0779 -0.6116 -0.8382
  420TMC3     C 6268   4.096   3.470  12.931  0.2205 -0.6058  0.6531
  420TMC3     O 6269   4.092   3.353  12.959  0.0552 -0.2461 -0.1642
  420TMC3     H 6270   4.024   3.731  12.910 -2.4821 -0.2571  0.9416
  420TMC3    H1 6271   4.128   3.430  13.204  1.6417 -0.5933 -2.5673
  420TMC3    H2 6272   4.022   3.812  13.323 -3.4039  0.4286 -1.6213
  420TMC3    C7 6273   4.122   3.579  13.395  0.1499 -0.6649 -0.0694
  420TMC3    C8 6274   3.951   3.909  13.085 -0.0406 -0.1867 -0.0047
  420TMC3    O1 6275   4.119   3.466  13.439  0.4639 -0.0494 -0.6638
  420TMC3    O2 6276   3.989   3.972  12.988  0.4067  0.4846 -1.0624
  421TMC3    C1 6277   0.979   0.809  13.883  0.2512  0.2497 -0.2729
  421TMC3    C2 6278   1.004   0.908  13.973  0.0920 -0.2267 -0.3371
  421TMC3    C3 6279   1.016   0.866  14.100  0.1442  0.1292 -0.5330
  421TMC3    C4 6280   0.958   0.677  13.906 -0.4210  0.0511  0.7718
  421TMC3    C5 6281   0.975   0.640  14.033 -0.5643 -1.5298 -0.1209
  421TMC3    C6 6282   0.995   0.735  14.131 -0.2573  0.0587 -0.4063
  421TMC3     C 6283   0.963   0.842  13.748  0.3502 -0.0432  0.0703
  421TMC3     O 6284   0.988   0.959  13.720  0.9758  0.0715 -0.2934
  421TMC3     H 6285   1.020   1.011  13.945  1.1344 -0.5164 -0.8033
  421TMC3    H1 6286   0.974   0.596  13.836 -2.0552 -0.6960  1.2646
  421TMC3    H2 6287   1.012   0.705  14.234 -0.4969 -0.5472 -0.5418
  421TMC3    C7 6288   1.036   0.512  14.064  0.5829 -0.5426  0.2136
  421TMC3    C8 6289   1.103   0.930  14.194  0.1326 -0.4861 -0.4419
  421TMC3    O1 6290   1.113   0.518  14.156  0.2242 -0.4308 -0.0849
  421TMC3    O2 6291   1.078   0.902  14.317 -0.3198  0.1389 -0.0263
  422TMC3    C1 6292   3.634   2.194  12.576  0.6643  0.2592 -0.9310
  422TMC3    C2 6293   3.623   2.305  12.649  0.0951  0.2329  0.2818
  422TMC3    C3 6294   3.498   2.335  12.694 -0.8784 -0.1920 -0.5310
  422TMC3    C4 6295   3.523   2.129  12.529  0.1272  0.1195  1.0322
  422TMC3    C5 6296   3.399   2.170  12.559 -0.4199  0.2017 -0.4544
  422TMC3    C6 6297   3.386   2.273  12.649 -0.0570  0.6407  0.1385
  422TMC3     C 6298   3.766   2.171  12.513 -0.1071  0.2688  0.1621
  422TMC3     O 6299   3.840   2.262  12.485  0.1533  0.6008 -0.0875
  422TMC3     H 6300   3.713   2.361  12.671 -0.4487 -0.2991  3.9406
  422TMC3    H1 6301   3.540   2.051  12.456  1.1143  2.0229 -0.8022
  422TMC3    H2 6302   3.284   2.297  12.676  0.4279  1.7822  0.9801
  422TMC3    C7 6303   3.288   2.075  12.531  0.7848 -0.5966 -0.7439
  422TMC3    C8 6304   3.481   2.453  12.768  0.0889  0.6985 -0.2637
  422TMC3    O1 6305   3.320   1.970  12.483 -0.3640 -0.0261 -0.2851
  422TMC3    O2 6306   3.368   2.502  12.761  0.1561 -0.0091 -0.1152
  423MPD2     C 6307   4.074   2.794   0.612 -0.5474  0.4773 -0.4717
  423MPD2    C1 6308   4.121   2.694   0.693  0.7139  0.0984  0.1683
  423MPD2    C2 6309   4.194   2.590   0.637 -0.0559 -0.3413  0.1959
  423MPD2    C3 6310   4.220   2.584   0.499  0.7918  0.0585  0.0586
  423MPD2    C4 6311   4.157   2.670   0.417 -0.5388  0.2553 -0.3380
  423MPD2    C5 6312   4.090   2.777   0.475 -0.0984  0.0197  0.3273
  423MPD2     H 6313   4.236   2.525   0.714 -0.5598 -0.4521  0.3788
  423MPD2    H1 6314   4.162   2.663   0.309 -0.3897  2.4413 -0.4612
  423MPD2    H2 6315   4.023   2.888   0.627 -0.3370  0.6541 -0.8552
  423MPD2    H3 6316   4.042   2.857   0.419 -1.8878 -0.0712  1.7369
  423MPD2     N 6317   4.292   2.483   0.437  0.0194 -0.1828  0.0275
  423MPD2    H5 6318   4.326   2.497   0.343 -0.1240 -0.0723 -0.0079
  423MPD2    N1 6319   4.099   2.694   0.837  0.6995 -0.6113 -0.4223
  423MPD2    H7 6320   4.128   2.607   0.881  0.8222  0.3144  1.3363
  424TMC3    C1 6321   4.067   2.800   1.048  0.8063  0.3758  0.1027
  424TMC3    C2 6322   4.173   2.721   1.096 -0.6653  0.0160  0.4486
  424TMC3    C3 6323   4.174   2.695   1.230  0.2280  0.4912  0.1783
  424TMC3    C4 6324   3.977   2.855   1.132  0.3852 -0.3961 -0.3303
  424TMC3    C5 6325   3.970   2.818   1.265  0.4353 -0.5215 -0.0673
  424TMC3    C6 6326   4.073   2.738   1.314  0.4714 -0.8210  0.3296
  424TMC3     C 6327   4.051   2.803   0.906 -0.7397  0.4054  0.5519
  424TMC3     O 6328   4.018   2.912   0.868 -0.2487 -0.0782 -0.1893
  424TMC3     H 6329   4.255   2.692   1.032 -0.4698 -0.6595  1.0070
  424TMC3    H1 6330   3.885   2.895   1.091 -0.3677 -0.5105  1.2418
  424TMC3    H2 6331   4.083   2.711   1.418  0.3954  0.8130  0.7723
  424TMC3    C7 6332   3.858   2.861   1.338 -0.0372  0.5223  0.4763
  424TMC3    C8 6333   4.249   2.577   1.284  0.1813 -0.2182 -0.2175
  424TMC3    O1 6334   3.810   2.968   1.306 -0.9019  0.0256  0.1108
  424TMC3    O2 6335   4.194   2.503   1.365 -0.3983  0.1136 -0.2845
  425MPD2     C 6336   4.112   1.768  17.366  0.0221  0.6191 -0.2875
  425MPD2    C1 6337   4.023   1.659  17.380  0.0956 -0.7758 -0.4926
  425MPD2    C2 6338   3.905   1.687  17.450 -0.4120 -0.1019 -0.3839
  425MPD2    C3 6339   3.881   1.805  17.513  0.3313 -0.6438 -0.5926
  425MPD2    C4 6340   3.969   1.905  17.496  0.2304 -0.1735 -0.0950
  425MPD2    C5 6341   4.089   1.894  17.424 -0.2084  0.1925  0.5227
  425MPD2     H 6342   3.841   1.603  17.476 -0.7839  0.8038  1.6070
  425MPD2    H1 6343   3.955   2.001  17.545  0.3387  0.4983 -1.3926
  425MPD2    H2 6344   4.208   1.767  17.317  0.4261  2.2597  0.4687
  425MPD2    H3 6345   4.161   1.974  17.414  1.6853 -1.7143 -1.1941
  425MPD2     N 6346   3.765   1.821  17.575 -0.3072 -0.0456 -0.1789
  425MPD2    H5 6347   3.706   1.739  17.570  1.7314 -1.5065  0.0614
  425MPD2    N1 6348   4.034   1.548  17.299  0.1761  0.0845 -0.3677
  425MPD2    H7 6349   4.115   1.552  17.238  0.5655 -0.1670  0.1296
  426TMC3    C1 6350   3.996   1.341  17.183 -0.0483 -0.1543  0.3018
  426TMC3    C2 6351   4.031   1.391  17.058  0.4911  0.1987 -0.2769
  426TMC3    C3 6352   4.024   1.307  16.949  0.6740 -0.0966 -0.4888
  426TMC3    C4 6353   3.948   1.218  17.199 -0.4543  0.0002  0.1753
  426TMC3    C5 6354   3.934   1.141  17.085 -0.4154  0.1077  0.6329
  426TMC3    C6 6355   3.979   1.182  16.962 -0.1520 -0.1991 -0.3943
  426TMC3     C 6356   3.951   1.440  17.287 -0.2088  0.0523 -0.4415
  426TMC3     O 6357   3.857   1.410  17.359  0.2252 -0.7058 -0.0623
  426TMC3     H 6358   4.055   1.495  17.040  2.7170 -0.4163 -0.9673
  426TMC3    H1 6359   3.933   1.186  17.302 -0.3162  3.2635  1.2123
  426TMC3    H2 6360   3.957   1.122  16.874 -1.5811 -1.2386  0.6721
  426TMC3    C7 6361   3.831   1.037  17.102  0.3751 -0.3105  0.2623
  426TMC3    C8 6362   3.998   1.357  16.817 -0.0396  0.1594  0.5911
  426TMC3    O1 6363   3.809   0.969  17.006  0.1633  0.0442  0.2061
  426TMC3    O2 6364   4.025   1.287  16.724 -0.2936  0.4252  0.4021
  427MPD2     C 6365   2.087   3.603  14.977  0.1253  0.8746  0.0047
  427MPD2    C1 6366   2.067   3.657  15.098 -0.5959 -0.0185  0.0025
  427MPD2    C2 6367   1.942   3.699  15.140 -0.4769 -0.5462 -0.3058
  427MPD2    C3 6368   1.829   3.676  15.066 -0.0701 -0.8340 -0.8175
  427MPD2    C4 6369   1.850   3.625  14.938 -0.4111 -0.5421  0.0399
  427MPD2    C5 6370   1.979   3.581  14.898  0.4600 -0.0624  0.0649
  427MPD2     H 6371   1.933   3.750  15.235  0.0351  0.3473 -0.7334
  427MPD2    H1 6372   1.768   3.608  14.869 -1.2310 -0.5225  1.0030
  427MPD2    H2 6373   2.183   3.574  14.937 -0.6747 -0.0722 -1.2537
  427MPD2    H3 6374   1.990   3.543  14.797 -2.1005  0.1520 -0.3012
  427MPD2     N 6375   1.705   3.729  15.106  0.9533 -0.1372 -0.0531
  427MPD2    H5 6376   1.632   3.711  15.038  2.4841 -1.0780 -1.4679
  427MPD2    N1 6377   2.170   3.667  15.191 -0.1091  0.1380  0.2427
  427MPD2    H7 6378   2.144   3.694  15.285 -1.7768  4.1900 -1.3965
  428TMC3    C1 6379   2.380   3.621  15.279 -0.2407  0.1938 -0.9299
  428TMC3    C2 6380   2.332   3.509  15.341 -0.3533  0.1033 -0.6550
  428TMC3    C3 6381   2.417   3.417  15.393  0.0630 -0.0083  0.8588
  428TMC3    C4 6382   2.514   3.646  15.278 -0.2599  0.4177  0.0435
  428TMC3    C5 6383   2.595   3.554  15.338  0.5637  0.3919  0.0367
  428TMC3    C6 6384   2.547   3.443  15.395 -0.4420 -0.9780  0.4268
  428TMC3     C 6385   2.304   3.663  15.162  0.4827 -0.1741 -0.7313
  428TMC3     O 6386   2.365   3.669  15.055 -0.3408  0.4995 -0.2994
  428TMC3     H 6387   2.225   3.494  15.349 -0.0711 -1.7020 -0.2976
  428TMC3    H1 6388   2.552   3.733  15.226 -2.3279  0.6277 -1.0989
  428TMC3    H2 6389   2.608   3.376  15.454  0.5350 -0.6884 -0.2512
  428TMC3    C7 6390   2.714   3.606  15.402  1.0404 -0.1714  0.3679
  428TMC3    C8 6391   2.368   3.308  15.478 -0.4540 -0.0537 -0.3267
  428TMC3    O1 6392   2.732   3.581  15.521 -0.0909 -0.1141 -0.3131
  428TMC3    O2 6393   2.446   3.254  15.556  0.3082  0.3682  0.2452
  429MPD2     C 6394   2.271   3.449   0.049 -0.0590 -0.1552  0.3741
  429MPD2    C1 6395   2.399   3.405   0.038  0.2542  0.2484 -0.6158
  429MPD2    C2 6396   2.495   3.495  17.671  0.7371 -0.1846 -0.1929
  429MPD2    C3 6397   2.466   3.622  17.648 -0.2634  0.1292 -0.4363
  429MPD2    C4 6398   2.336   3.665  17.672  0.3184 -0.6867  0.2882
  429MPD2    C5 6399   2.237   3.580   0.026 -0.0982  0.2166  0.1852
  429MPD2     H 6400   2.598   3.463  17.654  0.6254 -0.5698 -0.1474
  429MPD2    H1 6401   2.315   3.770  17.655 -0.3574 -1.1162 -1.5291
  429MPD2    H2 6402   2.193   3.378   0.074  0.1448 -0.8990 -1.0660
  429MPD2    H3 6403   2.136   3.617   0.041 -0.1597  0.3886 -0.6317
  429MPD2     N 6404   2.570   3.705  17.586 -0.3354  0.1296 -0.1629
  429MPD2    H5 6405   2.661   3.664  17.565 -1.0391 -1.0325 -0.9764
  429MPD2    N1 6406   2.447   3.274   0.070  0.4830  0.0101 -0.1808
  429MPD2    H7 6407   2.544   3.251   0.052  0.1354 -1.3123 -0.3603
  430TMC3    C1 6408   2.664   3.893  17.469 -0.0373 -0.3208  0.5438
  430TMC3    C2 6409   2.630   4.011  17.399  0.1571 -1.0741  0.4721
  430TMC3    C3 6410   2.738   4.087  17.355 -0.5110  0.2664  0.6473
  430TMC3    C4 6411   2.793   3.858  17.498 -0.5580 -0.1191  0.2520
  430TMC3    C5 6412   2.888   3.942  17.453  0.3145  0.2739  0.3221
  430TMC3    C6 6413   2.863   4.059  17.384  0.1973  0.0109 -0.7891
  430TMC3     C 6414   2.557   3.836  17.548 -0.3567  0.1334 -0.1988
  430TMC3     O 6415   2.452   3.897  17.545  0.1890  0.3485 -0.0152
  430TMC3     H 6416   2.530   4.028  17.362  0.4980 -1.2479 -0.5296
  430TMC3    H1 6417   2.822   3.777  17.564  1.7214  0.1171 -0.4498
  430TMC3    H2 6418   2.945   4.122  17.349  1.0570 -1.2061 -0.9675
  430TMC3    C7 6419   2.993   3.866  17.397  0.7630 -0.8051 -0.4268
  430TMC3    C8 6420   2.739   4.096  17.207 -0.6375 -0.2620  0.2718
  430TMC3    O1 6421   2.976   3.748  17.374 -0.2217 -0.4294  0.1768
  430TMC3    O2 6422   2.821   4.165  17.151 -0.0976  0.4900  0.1312
  431MPD2     C 6423   4.298   4.370  12.574 -0.0182  0.3870 -0.0024
  431MPD2    C1 6424   4.372   4.378  12.455 -0.0072 -0.5372  0.2191
  431MPD2    C2 6425   4.381   4.265  12.372 -0.1315  0.5508 -0.0088
  431MPD2    C3 6426   4.313   4.149  12.394 -0.0379  0.9351 -0.5867
  431MPD2    C4 6427   4.235   4.147  12.508  0.3487 -0.1630 -0.8587
  431MPD2    C5 6428   4.227   4.262  12.589 -0.4279  0.1606 -0.3877
  431MPD2     H 6429   4.439   4.279  12.282 -1.0470  2.2731 -0.3409
  431MPD2    H1 6430   4.173   4.068  12.549  2.4847 -1.1405  0.4595
  431MPD2    H2 6431   4.281   4.457  12.637 -0.8655 -1.0326  1.6973
  431MPD2    H3 6432   4.149   4.274  12.664 -0.2993  0.0821 -0.2422
  431MPD2     N 6433   4.330   4.029  12.319 -0.6450 -0.4422  0.3767
  431MPD2    H5 6434   4.274   3.951  12.350 -2.1226 -0.5705 -2.5817
  431MPD2    N1 6435   4.451   4.485  12.408  0.5508  0.2801  0.0767
  431MPD2    H7 6436   4.496   4.474  12.317  2.5663  0.7761  1.0283
  432TMC3    C1 6437   4.433   3.858  12.176  0.0712 -0.8322 -0.4291
  432TMC3    C2 6438   4.532   3.827  12.085  0.0425  0.0344  0.0062
  432TMC3    C3 6439   4.561   3.700  12.047 -0.4122 -0.7070 -0.6193
  432TMC3    C4 6440   4.345   3.759  12.212 -0.4179  1.2724 -0.2968
  432TMC3    C5 6441   4.371   3.627  12.170  0.3946 -0.4232  0.0559
  432TMC3    C6 6442   4.482   3.596  12.086 -0.2538  0.1646  0.3783
  432TMC3     C 6443   4.432   4.000  12.226 -0.4728 -0.3200  0.0913
  432TMC3     O 6444   4.528   4.067  12.196 -0.5153  0.8127 -0.4423
  432TMC3     H 6445   4.580   3.912  12.038 -1.4196 -0.1863 -1.9094
  432TMC3    H1 6446   4.264   3.784  12.280  1.0855 -1.1799  2.3588
  432TMC3    H2 6447   4.514   3.498  12.055 -1.2560  0.3336 -1.1893
  432TMC3    C7 6448   4.304   3.524  12.235  0.7136  0.0935  0.0568
  432TMC3    C8 6449   4.641   3.683  11.925  0.1778  0.1570  0.1137
  432TMC3    O1 6450   4.326   3.411  12.188  0.0263 -0.2351  0.3472
  432TMC3    O2 6451   4.601   3.607  11.838 -0.1842 -0.5318 -0.2226
  433MPD2     C 6452   3.755   2.872  10.505  0.5917 -0.5859 -0.1540
  433MPD2    C1 6453   3.633   2.844  10.569  0.6550  0.0853 -0.9763
  433MPD2    C2 6454   3.607   2.911  10.693 -0.2309  0.2536 -0.2573
  433MPD2    C3 6455   3.693   3.005  10.738 -0.2077 -0.0775  0.5137
  433MPD2    C4 6456   3.795   3.054  10.658 -0.1550  0.4095 -0.4467
  433MPD2    C5 6457   3.827   2.981  10.553  0.3882  0.4418 -0.5827
  433MPD2     H 6458   3.506   2.897  10.728 -1.5452  1.6884 -3.5398
  433MPD2    H1 6459   3.865   3.131  10.689  1.5847 -0.9286 -1.0792
  433MPD2    H2 6460   3.793   2.796  10.438 -0.8593 -0.9888 -0.5252
  433MPD2    H3 6461   3.924   2.994  10.508 -0.1218  1.4966 -1.3566
  433MPD2     N 6462   3.681   3.062  10.868 -0.3208  1.0179 -0.3606
  433MPD2    H5 6463   3.595   3.035  10.915 -0.0257 -0.4723 -0.6926
  433MPD2    N1 6464   3.554   2.736  10.528  0.2731  0.0422  0.1363
  433MPD2    H7 6465   3.589   2.691  10.444  0.8961 -0.2273  0.5368
  434TMC3    C1 6466   3.472   2.534  10.558 -0.5499 -0.1710 -0.2509
  434TMC3    C2 6467   3.502   2.447  10.653  0.2781 -0.0155  0.1077
  434TMC3    C3 6468   3.587   2.345  10.625 -0.0663 -0.1187 -0.3101
  434TMC3    C4 6469   3.535   2.529  10.437  0.3646  0.1826  0.2051
  434TMC3    C5 6470   3.613   2.421  10.405 -0.0313 -0.6938  0.2458
  434TMC3    C6 6471   3.637   2.326  10.500  0.1374 -0.3511 -0.3082
  434TMC3     C 6472   3.470   2.665  10.611 -0.2790 -0.8082 -0.2808
  434TMC3     O 6473   3.430   2.682  10.726  0.4032 -0.4542  0.0378
  434TMC3     H 6474   3.467   2.469  10.753  0.5310 -1.4019  0.5090
  434TMC3    H1 6475   3.486   2.582  10.355 -0.7029  0.0758  0.7739
  434TMC3    H2 6476   3.705   2.247  10.469  0.3209 -0.2031 -0.2830
  434TMC3    C7 6477   3.648   2.395  10.267  0.0984  0.2888  0.2318
  434TMC3    C8 6478   3.660   2.297  10.740 -0.1195 -0.4053  0.3399
  434TMC3    O1 6479   3.688   2.494  10.208  0.4676 -0.0614  0.1004
  434TMC3    O2 6480   3.603   2.290  10.848 -0.3085 -0.2994  0.5455
  435MPD2     C 6481   0.303   2.576  15.743 -0.3775  0.0308  0.0800
  435MPD2    C1 6482   0.280   2.592  15.883 -0.2195 -0.2988 -0.2637
  435MPD2    C2 6483   0.375   2.548  15.971  0.5427 -0.2949  0.3307
  435MPD2    C3 6484   0.487   2.487  15.925 -0.3972 -0.2348  0.5983
  435MPD2    C4 6485   0.517   2.483  15.788 -0.9116 -0.2857 -0.2771
  435MPD2    C5 6486   0.427   2.529  15.694  0.1964 -0.4626 -0.2988
  435MPD2     H 6487   0.359   2.557  16.078  2.7509  1.0376  0.5455
  435MPD2    H1 6488   0.613   2.446  15.754 -0.8758 -0.8708  0.4500
  435MPD2    H2 6489   0.224   2.593  15.671 -1.0486  0.2399  0.8648
  435MPD2    H3 6490   0.454   2.518  15.589  1.8717 -0.1441  0.0924
  435MPD2     N 6491   0.576   2.450  16.032  0.0032 -0.5054  0.0180
  435MPD2    H5 6492   0.548   2.480  16.125  0.8226  0.7525 -0.1361
  435MPD2    N1 6493   0.152   2.623  15.941  0.0739 -0.1387 -0.3478
  435MPD2    H7 6494   0.145   2.603  16.041 -1.8833 -0.6483 -0.5862
  436TMC3    C1 6495   4.532   2.718  16.143  0.6816 -0.0958 -0.6438
  436TMC3    C2 6496   4.646   2.681  16.080 -0.0709  0.3204 -0.6976
  436TMC3    C3 6497   4.644   2.672  15.943  0.6400 -0.1553 -0.0855
  436TMC3    C4 6498   4.410   2.733  16.079  0.0654 -0.1067  0.0583
  436TMC3    C5 6499   4.410   2.715  15.943 -0.3487  0.4817 -0.0499
  436TMC3    C6 6500   4.525   2.677  15.874 -0.5547  0.0674  0.1235
  436TMC3     C 6501   4.556   2.802  16.263 -0.0729  0.0585  0.0313
  436TMC3     O 6502   4.664   2.853  16.279 -1.2023  0.3508 -0.0585
  436TMC3     H 6503   0.017   2.698  16.137 -1.4388  1.1096  1.2444
  436TMC3    H1 6504   4.319   2.774  16.122  0.0287 -2.6208  2.3736
  436TMC3    H2 6505   4.513   2.674  15.766  0.5110 -1.2536  0.0409
  436TMC3    C7 6506   4.307   2.777  15.857 -0.5385  0.2206  0.9486
  436TMC3    C8 6507   0.045   2.666  15.868 -0.0896 -0.2443 -0.0888
  436TMC3    O1 6508   4.353   2.841  15.765 -0.6097 -0.5387 -0.1586
  436TMC3    O2 6509   0.040   2.691  15.748  0.0760 -0.0411  0.3000
  437TMC3    C1 6510   4.101   0.400  12.535 -1.0410  0.4197  0.3635
  437TMC3    C2 6511   4.036   0.506  12.484 -0.5459  0.0587 -0.0803
  437TMC3    C3 6512   4.071   0.548  12.356  0.2199 -0.4544  1.0889
  437TMC3    C4 6513   4.205   0.338  12.468 -0.3957  0.3362 -0.1356
  437TMC3    C5 6514   4.236   0.375  12.338  0.2558  0.4680  0.2820
  437TMC3    C6 6515   4.169   0.487  12.280  0.3523 -0.6172 -0.5353
  437TMC3     C 6516   4.054   0.335  12.661  0.3116  0.8051 -1.0707
  437TMC3     O 6517   3.943   0.366  12.695 -0.1697  0.6461  0.0245
  437TMC3     H 6518   3.953   0.547  12.541  0.0787  2.3360 -0.8161
  437TMC3    H1 6519   4.245   0.245  12.505  1.8292  0.9288 -1.0357
  437TMC3    H2 6520   4.172   0.511  12.174  0.8669  0.8478 -0.1864
  437TMC3    C7 6521   4.356   0.324  12.267  0.0824 -0.4245  0.9252
  437TMC3    C8 6522   4.037   0.680  12.299 -0.5628 -0.1988  0.4726
  437TMC3    O1 6523   4.364   0.337  12.148  0.4453  0.2408  0.2977
  437TMC3    O2 6524   4.042   0.689  12.177  0.0608  0.1642 -0.2394
  438MPD2     C 6525   0.874   0.368  16.711 -0.6880 -0.6645  0.6910
  438MPD2    C1 6526   0.969   0.467  16.730 -0.2881 -0.4692 -0.2345
  438MPD2    C2 6527   0.956   0.550  16.839  0.1260 -0.1331 -0.1613
  438MPD2    C3 6528   0.872   0.535  16.947  0.2475  1.1093 -0.8732
  438MPD2    C4 6529   0.784   0.428  16.935  0.1046  0.5240 -1.1844
  438MPD2    C5 6530   0.777   0.364  16.805 -0.3612  0.2245 -0.0743
  438MPD2     H 6531   1.040   0.619  16.837  0.2750 -0.3460 -1.1394
  438MPD2    H1 6532   0.707   0.399  17.006  0.8636  0.2460 -0.4767
  438MPD2    H2 6533   0.867   0.324  16.613  1.6986  1.6534 -0.5073
  438MPD2    H3 6534   0.708   0.280  16.796  0.0971 -0.2312  0.6825
  438MPD2     N 6535   0.867   0.622  17.058 -0.2820 -0.7549 -0.1286
  438MPD2    H5 6536   0.805   0.602  17.137 -2.4892 -2.2388 -2.2418
  438MPD2    N1 6537   1.093   0.465  16.667 -0.0606  0.8272  0.9217
  438MPD2    H7 6538   1.164   0.535  16.688  0.9372 -0.5894  2.2527
  439TMC3    C1 6539   1.252   0.390  16.518  0.5464  0.8967  0.5464
  439TMC3    C2 6540   1.273   0.332  16.398 -0.8186  0.8549 -0.2828
  439TMC3    C3 6541   1.399   0.297  16.351 -0.0549 -0.4492 -0.1879
  439TMC3    C4 6542   1.354   0.403  16.609 -0.4996  0.2680  0.0560
  439TMC3    C5 6543   1.475   0.364  16.567 -0.2840  0.5462  0.6174
  439TMC3    C6 6544   1.502   0.309  16.441  0.3480 -0.1253 -0.0972
  439TMC3     C 6545   1.122   0.382  16.562  0.5588 -0.3265  0.6599
  439TMC3     O 6546   1.054   0.292  16.510  0.1800  0.1973  0.1083
  439TMC3     H 6547   1.196   0.336  16.321 -1.4230  0.7533  0.3213
  439TMC3    H1 6548   1.336   0.440  16.710  0.7219 -1.1701  0.7896
  439TMC3    H2 6549   1.602   0.277  16.414  0.1422  2.2475 -3.7972
  439TMC3    C7 6550   1.588   0.375  16.660 -0.1875  0.4128  0.9120
  439TMC3    C8 6551   1.443   0.328  16.217  0.1763 -0.1808  0.4675
  439TMC3    O1 6552   1.674   0.290  16.645 -0.2827  0.1526 -0.1404
  439TMC3    O2 6553   1.377   0.402  16.147 -0.4606  0.1091 -0.4307
  440MPD2     C 6554   4.666   1.067  14.714  0.3054  0.4916  0.0928
  440MPD2    C1 6555   4.639   1.002  14.838 -1.3270 -0.7212 -0.2554
  440MPD2    C2 6556   0.004   0.901  14.882  0.5511  0.7528  0.4042
  440MPD2    C3 6557   0.111   0.862  14.803  0.5951  0.3384  0.1286
  440MPD2    C4 6558   0.126   0.911  14.677  0.0453  0.0043 -0.3280
  440MPD2    C5 6559   0.039   1.012  14.633  0.1155 -0.5287 -0.2511
  440MPD2     H 6560   4.708   0.855  14.979  0.1688 -1.1366 -0.5532
  440MPD2    H1 6561   0.205   0.884  14.608 -2.2841 -1.1237 -2.5469
  440MPD2    H2 6562   4.609   1.154  14.684 -0.7034 -0.3283 -0.3593
  440MPD2    H3 6563   0.045   1.044  14.529 -1.2635  3.1762  0.8078
  440MPD2     N 6564   0.211   0.769  14.858 -0.1068  0.2957  0.2450
  440MPD2    H5 6565   0.289   0.742  14.799 -0.8185 -1.2024 -0.0253
  440MPD2    N1 6566   4.541   1.057  14.920  0.2154  0.4011  0.3820
  440MPD2    H7 6567   4.525   1.014  15.010 -0.7088 -0.2888 -0.1112
  441TMC3    C1 6568   0.318   0.617  14.995  0.7348  0.6542 -0.3680
  441TMC3    C2 6569   0.387   0.580  14.883 -0.0253 -0.5708  0.3519
  441TMC3    C3 6570   0.520   0.552  14.893 -0.3204  0.3672 -0.0807
  441TMC3    C4 6571   0.372   0.621  15.122 -0.3943  0.0618 -0.0465
  441TMC3    C5 6572   0.509   0.597  15.121  0.4101 -0.3631  0.0804
  441TMC3    C6 6573   0.582   0.556  15.013 -0.2278 -0.9726 -0.8831
  441TMC3     C 6574   0.216   0.717  14.986 -0.6508 -0.3383  0.1707
  441TMC3     O 6575   0.156   0.758  15.083  0.0201  0.2697  0.1360
  441TMC3     H 6576   0.349   0.590  14.782  0.0114  0.9614  0.4960
  441TMC3    H1 6577   0.321   0.632  15.217 -1.0543  0.2624 -0.4247
  441TMC3    H2 6578   0.689   0.538  15.014  0.1253  1.2571  0.8639
  441TMC3    C7 6579   0.561   0.551  15.245 -0.0275 -0.4588 -0.8407
  441TMC3    C8 6580   0.583   0.630  14.787  1.1148  0.7802  0.0284
  441TMC3    O1 6581   0.569   0.640  15.330 -0.1428  0.2182  0.2088
  441TMC3    O2 6582   0.615   0.572  14.684 -0.4907 -0.2266 -0.0268
  442MPD2     C 6583   3.249   1.505  16.317  0.5109 -0.1553 -0.4179
  442MPD2    C1 6584   3.128   1.450  16.358  0.0727 -0.8016  0.4716
  442MPD2    C2 6585   3.067   1.359  16.278  0.2377 -0.2313 -0.2024
  442MPD2    C3 6586   3.125   1.322  16.152 -0.4396  0.8592 -0.1950
  442MPD2    C4 6587   3.243   1.374  16.114  0.4545 -0.7747  0.6022
  442MPD2    C5 6588   3.304   1.462  16.198 -0.1458 -0.0321 -0.3965
  442MPD2     H 6589   2.979   1.304  16.310 -1.6357  1.7449 -1.9030
  442MPD2    H1 6590   3.311   1.331  16.041  0.2569  2.0548 -1.2537
  442MPD2    H2 6591   3.307   1.567  16.384 -1.0436 -0.3895  1.1397
  442MPD2    H3 6592   3.408   1.486  16.183 -0.8636  2.2268 -1.7871
  442MPD2     N 6593   3.082   1.211  16.067 -0.4569  0.4220 -0.6165
  442MPD2    H5 6594   3.140   1.205  15.984 -0.6746 -1.2377 -0.6377
  442MPD2    N1 6595   3.065   1.478  16.482 -0.0347 -0.6130  0.6365
  442MPD2    H7 6596   2.971   1.443  16.499  0.4397 -2.9809 -1.6388
  443TMC3    C1 6597   3.000   1.611  16.663  0.0885 -0.1036  0.5252
  443TMC3    C2 6598   2.957   1.741  16.654  0.0770 -0.3268  0.6467
  443TMC3    C3 6599   2.840   1.779  16.715 -0.5649  0.1225 -0.3764
  443TMC3    C4 6600   2.956   1.518  16.758  0.0609 -0.7715 -0.4239
  443TMC3    C5 6601   2.860   1.574  16.842 -0.2370 -0.1464  0.0301
  443TMC3    C6 6602   2.799   1.698  16.819  0.6828  0.4507 -1.2064
  443TMC3     C 6603   3.109   1.573  16.569 -0.0178 -0.6290  0.3560
  443TMC3     O 6604   3.205   1.645  16.569 -0.4153  0.3485  0.1016
  443TMC3     H 6605   3.009   1.789  16.572  1.0441 -1.5345  0.5494
  443TMC3    H1 6606   3.001   1.420  16.769 -0.2027 -0.7153  1.1669
  443TMC3    H2 6607   2.704   1.717  16.867  1.0509 -0.8649  0.0454
  443TMC3    C7 6608   2.777   1.467  16.906  0.0430 -0.4280 -0.2370
  443TMC3    C8 6609   2.742   1.785  16.606 -0.1950  0.6082 -0.4291
  443TMC3    O1 6610   2.794   1.351  16.863  0.4336  0.4136  0.4257
  443TMC3    O2 6611   2.644   1.706  16.607 -0.4051  0.1726  0.3133
  444MPD2     C 6612   3.252   1.257  16.741 -0.3724  0.0830 -0.1927
  444MPD2    C1 6613   3.218   1.130  16.793 -0.3240  0.7567  0.2461
  444MPD2    C2 6614   3.262   1.024  16.729  0.1146 -0.6094  0.0776
  444MPD2    C3 6615   3.352   1.030  16.632  0.5670  0.2961  0.4083
  444MPD2    C4 6616   3.400   1.156  16.584 -0.9192  0.8011  0.7849
  444MPD2    C5 6617   3.343   1.263  16.642  0.6244 -0.2434 -0.0570
  444MPD2     H 6618   3.242   0.922  16.759 -1.2075 -0.2853  0.3218
  444MPD2    H1 6619   3.480   1.174  16.513  0.1256 -0.7003  1.5759
  444MPD2    H2 6620   3.198   1.344  16.777 -1.1935 -0.0125 -1.1863
  444MPD2    H3 6621   3.381   1.361  16.615  2.7092 -0.8513  0.7402
  444MPD2     N 6622   3.385   0.904  16.585  0.7621  0.7531 -0.1028
  444MPD2    H5 6623   3.326   0.826  16.614 -1.1172  1.5650 -1.6994
  444MPD2    N1 6624   3.136   1.108  16.912 -0.7221 -0.0527  0.0012
  444MPD2    H7 6625   3.107   1.012  16.923 -1.5849 -0.1552 -3.2834
  445TMC3    C1 6626   3.512   0.731  16.478  0.3989 -0.1921 -0.2067
  445TMC3    C2 6627   3.423   0.636  16.523  0.3320 -0.1068  0.4793
  445TMC3    C3 6628   3.467   0.510  16.506 -0.4107  0.0671 -0.3957
  445TMC3    C4 6629   3.632   0.696  16.419  0.3463  0.2171 -0.3073
  445TMC3    C5 6630   3.671   0.563  16.418 -0.3353  0.3509 -0.3694
  445TMC3    C6 6631   3.589   0.469  16.459  0.5519 -0.2491  0.3182
  445TMC3     C 6632   3.505   0.871  16.523  0.8604  0.3196  0.2299
  445TMC3     O 6633   3.603   0.945  16.504  0.2082  0.3199  0.2921
  445TMC3     H 6634   3.328   0.654  16.572 -0.4070  1.0460 -1.4060
  445TMC3    H1 6635   3.690   0.777  16.377 -0.1835  1.0330  0.5231
  445TMC3    H2 6636   3.614   0.369  16.425 -3.5439 -0.9146 -0.7008
  445TMC3    C7 6637   3.813   0.547  16.396 -0.7368  0.7905 -0.0120
  445TMC3    C8 6638   3.389   0.405  16.568  1.0702 -0.1819 -0.5667
  445TMC3    O1 6639   3.874   0.642  16.349  0.8664 -0.1530  0.6791
  445TMC3    O2 6640   3.456   0.304  16.604 -0.4015 -0.3609  0.1678
  446MPD2     C 6641   3.157   2.414  11.192  0.1299 -0.0489 -0.3064
  446MPD2    C1 6642   3.175   2.398  11.057  0.0309  0.1413  0.1058
  446MPD2    C2 6643   3.287   2.450  10.994  0.2759  0.4178  0.4175
  446MPD2    C3 6644   3.389   2.512  11.062  0.6033  0.3267 -0.3078
  446MPD2    C4 6645   3.369   2.520  11.193  0.5436 -0.2852  0.1366
  446MPD2    C5 6646   3.259   2.473  11.265 -0.0339  0.1111  0.3575
  446MPD2     H 6647   3.315   2.444  10.889 -0.9381  0.6019  0.0899
  446MPD2    H1 6648   3.429   2.590  11.251  0.9470 -0.8580  0.4049
  446MPD2    H2 6649   3.063   2.404  11.245  0.8101 -1.6770  0.6096
  446MPD2    H3 6650   3.244   2.505  11.368  1.6922  0.6649  0.4231
  446MPD2     N 6651   3.518   2.548  11.007  0.3821 -0.7818 -0.7179
  446MPD2    H5 6652   3.524   2.554  10.906  1.8952  0.0988 -0.5883
  446MPD2    N1 6653   3.077   2.327  10.984  0.8374  0.2134  0.1032
  446MPD2    H7 6654   3.090   2.338  10.884  0.9059  2.3885  0.3575
  447TMC3    C1 6655   3.741   2.637  11.009 -0.2690  0.7107 -0.1977
  447TMC3    C2 6656   3.760   2.630  10.874  0.3320 -0.3780 -0.3069
  447TMC3    C3 6657   3.887   2.641  10.822  0.0327  0.4831  0.5889
  447TMC3    C4 6658   3.845   2.659  11.094  0.1591  0.2799  0.7716
  447TMC3    C5 6659   3.974   2.666  11.043  0.1236  0.2509  0.4462
  447TMC3    C6 6660   3.995   2.645  10.910  0.0885 -0.2693  0.7749
  447TMC3     C 6661   3.617   2.609  11.081 -0.9401 -0.2592  0.4179
  447TMC3     O 6662   3.616   2.661  11.194  0.0983  1.2602 -0.3693
  447TMC3     H 6663   3.671   2.633  10.813  0.2651  0.5704 -0.1744
  447TMC3    H1 6664   3.833   2.640  11.200 -0.8135  0.7079  0.7351
  447TMC3    H2 6665   4.099   2.646  10.877 -0.1474  2.9121  0.1831
  447TMC3    C7 6666   4.087   2.649  11.130  0.4809  1.2068  0.3396
  447TMC3    C8 6667   3.904   2.627  10.681  0.3644 -0.1289  0.1421
  447TMC3    O1 6668   4.193   2.613  11.087  0.7089 -0.1291 -0.7946
  447TMC3    O2 6669   3.806   2.593  10.612  0.1340  0.2310  0.4333
  448TMC3    C1 6670   1.846   2.282  16.981  0.0031  0.1100 -0.2500
  448TMC3    C2 6671   1.837   2.154  16.932 -0.2233  0.2001 -0.9651
  448TMC3    C3 6672   1.764   2.061  17.006 -0.0149  0.6963  0.3926
  448TMC3    C4 6673   1.795   2.323  17.104 -0.1059 -0.3263  0.5647
  448TMC3    C5 6674   1.734   2.227  17.180 -0.0273 -0.3025  0.1650
  448TMC3    C6 6675   1.720   2.088  17.133 -0.0347 -0.3150 -0.0391
  448TMC3     C 6676   1.885   2.376  16.881 -0.9775  1.0747  0.3669
  448TMC3     O 6677   1.901   2.330  16.769 -0.4389 -0.0461  0.3071
  448TMC3     H 6678   1.875   2.116  16.838  2.2371  0.0473  0.0954
  448TMC3    H1 6679   1.790   2.426  17.138 -0.0600 -0.5367  1.2036
  448TMC3    H2 6680   1.667   2.011  17.187  0.6258 -0.8045 -0.0899
  448TMC3    C7 6681   1.667   2.269  17.298  0.3072 -0.0644 -0.6208
  448TMC3    C8 6682   1.736   1.933  16.951 -1.2606 -0.7018 -0.8421
  448TMC3    O1 6683   1.654   2.386  17.321  0.7423  0.4835 -0.7145
  448TMC3    O2 6684   1.749   1.832  17.018  1.1586  0.0399 -0.5064
  449MPD2     C 6685   3.201   0.698  14.151  0.0967 -1.0856  0.2643
  449MPD2    C1 6686   3.096   0.758  14.085 -0.4822 -0.0572  0.6444
  449MPD2    C2 6687   2.977   0.689  14.088  0.1738 -1.2497 -0.3216
  449MPD2    C3 6688   2.960   0.561  14.154  0.2804  1.1185 -0.6186
  449MPD2    C4 6689   3.064   0.508  14.223 -0.6918  0.3783 -0.7185
  449MPD2    C5 6690   3.180   0.578  14.219  0.2763  0.5269 -0.1253
  449MPD2     H 6691   2.895   0.727  14.027 -0.9311 -1.1102  1.2534
  449MPD2    H1 6692   3.066   0.407  14.261  1.0455  1.4171  1.9137
  449MPD2    H2 6693   3.301   0.740  14.155 -1.1722  1.9386 -0.0362
  449MPD2    H3 6694   3.267   0.548  14.277 -1.3888 -3.2492  0.3863
  449MPD2     N 6695   2.837   0.505  14.153  0.1222 -0.1191 -0.1696
  449MPD2    H5 6696   2.770   0.543  14.088 -0.0244 -0.0270  0.0358
  449MPD2    N1 6697   3.099   0.871  14.009  0.0410 -0.3845 -0.4826
  449MPD2    H7 6698   3.008   0.908  13.983 -0.0973  0.1683  0.7858
  450TMC3    C1 6699   3.140   1.059  13.893  0.0706 -0.2304 -0.0495
  450TMC3    C2 6700   3.176   1.056  13.760  0.6002  0.1166  0.2635
  450TMC3    C3 6701   3.084   1.089  13.663  0.3778  0.1835  0.9695
  450TMC3    C4 6702   3.019   1.103  13.939 -0.2364 -1.1488  0.6875
  450TMC3    C5 6703   2.923   1.116  13.838  0.6134 -0.9182  0.0895
  450TMC3    C6 6704   2.954   1.110  13.703  0.2483 -0.4215 -0.0571
  450TMC3     C 6705   3.202   0.945  13.966 -0.0481 -0.6497  0.1909
  450TMC3     O 6706   3.319   0.909  13.963  0.3298 -0.5619 -0.5013
  450TMC3     H 6707   3.279   1.026  13.741  0.5643  1.7396 -2.6130
  450TMC3    H1 6708   2.989   1.102  14.043 -1.7323  2.7875  0.2964
  450TMC3    H2 6709   2.879   1.114  13.626 -0.2347 -2.0746  0.3282
  450TMC3    C7 6710   2.814   1.029  13.863  0.2501 -0.5580  0.1158
  450TMC3    C8 6711   3.125   1.113  13.527  0.2019 -0.9868 -0.7639
  450TMC3    O1 6712   2.834   0.948  13.957  0.4061  0.2865  0.6346
  450TMC3    O2 6713   3.060   1.196  13.467 -0.1022 -0.0377  0.0342
  451MPD2     C 6714   3.552   3.237   1.701 -0.2958  0.2940  0.3614
  451MPD2    C1 6715   3.611   3.293   1.594 -0.0003 -0.6155 -0.2413
  451MPD2    C2 6716   3.749   3.300   1.589  0.2712 -0.0787  0.0321
  451MPD2    C3 6717   3.831   3.236   1.675 -0.0317  0.6284 -0.3115
  451MPD2    C4 6718   3.776   3.171   1.780 -0.0006 -0.3648  0.0640
  451MPD2    C5 6719   3.636   3.181   1.796  0.1484  0.5922  0.4314
  451MPD2     H 6720   3.802   3.346   1.506  0.8859  0.7571  0.8867
  451MPD2    H1 6721   3.835   3.115   1.852  1.3003  0.8667 -0.0446
  451MPD2    H2 6722   3.445   3.242   1.716 -0.0917 -0.5289  2.0876
  451MPD2    H3 6723   3.595   3.135   1.885  1.0306  1.0027  1.0552
  451MPD2     N 6724   3.972   3.230   1.679  0.0447  0.3537  0.0638
  451MPD2    H5 6725   4.004   3.173   1.756 -0.2814  0.0142 -0.0519
  451MPD2    N1 6726   3.527   3.371   1.507  0.1254 -0.0445 -0.0534
  451MPD2    H7 6727   3.427   3.360   1.522  0.4332 -1.6702  0.8887
  452TMC3    C1 6728   4.199   3.291   1.634  0.3785 -0.2500 -0.0839
  452TMC3    C2 6729   4.243   3.214   1.736  0.3710 -0.8860 -0.4870
  452TMC3    C3 6730   4.379   3.207   1.761 -0.7810  0.7290  0.4299
  452TMC3    C4 6731   4.294   3.351   1.554 -0.2962  0.2547  0.3423
  452TMC3    C5 6732   4.427   3.329   1.578  0.2177 -0.1640  0.3067
  452TMC3    C6 6733   4.477   3.261   1.680 -0.3719 -1.1638  0.3690
  452TMC3     C 6734   4.059   3.291   1.593 -0.0926  0.1946  0.0906
  452TMC3     O 6735   4.035   3.341   1.481  0.3365  0.2558  0.0758
  452TMC3     H 6736   4.178   3.160   1.803  0.6478  2.5012  2.4782
  452TMC3    H1 6737   4.261   3.407   1.468 -1.7624  0.0756  0.7956
  452TMC3    H2 6738   4.585   3.256   1.693 -0.2846  1.4004  0.7622
  452TMC3    C7 6739   4.507   3.414   1.491 -0.2027 -0.2164  0.3237
  452TMC3    C8 6740   4.422   3.122   1.872  0.3983  0.4898 -0.1945
  452TMC3    O1 6741   4.474   3.416   1.373  0.1507  0.3004 -0.6250
  452TMC3    O2 6742   4.533   3.074   1.868 -0.2153 -0.0581  0.2637
  453TMC3    C1 6743   1.015   1.338  11.634 -0.0013  0.0818  0.1620
  453TMC3    C2 6744   0.995   1.217  11.693 -0.8241 -0.1572  0.3812
  453TMC3    C3 6745   0.951   1.118  11.607  0.4420 -0.7638  0.1672
  453TMC3    C4 6746   1.009   1.368  11.497 -0.0255 -0.1537 -0.5052
  453TMC3    C5 6747   0.959   1.273  11.420 -0.0612  0.4532 -0.7224
  453TMC3    C6 6748   0.918   1.157  11.477 -0.6460  0.1731 -0.0248
  453TMC3     C 6749   1.080   1.446  11.711  0.4163  0.1859  0.7713
  453TMC3     O 6750   1.165   1.514  11.651  0.3984  0.2869 -0.6010
  453TMC3     H 6751   1.025   1.201  11.796 -0.0120  0.8832  0.3006
  453TMC3    H1 6752   1.035   1.466  11.459  1.4879 -0.5151 -0.3777
  453TMC3    H2 6753   0.879   1.075  11.416  0.9140 -0.7795  0.2611
  453TMC3    C7 6754   1.018   1.259  11.293 -0.5293  0.0360  0.5310
  453TMC3    C8 6755   0.939   0.985  11.642  0.0823 -0.3426 -0.5485
  453TMC3    O1 6756   1.077   1.153  11.271 -0.5271 -0.0073  0.0130
  453TMC3    O2 6757   0.929   0.909  11.548  0.8474  0.2121  0.2202
  454MPD2     C 6758   4.203   1.090  15.715  0.4269 -0.1864  0.0879
  454MPD2    C1 6759   4.082   1.017  15.725 -0.3363  0.7812  0.3316
  454MPD2    C2 6760   3.972   1.070  15.775  0.0604  0.0830  0.0840
  454MPD2    C3 6761   3.972   1.204  15.810 -0.1149  0.3502  0.0904
  454MPD2    C4 6762   4.088   1.279  15.805 -0.1245  0.4934 -0.3506
  454MPD2    C5 6763   4.206   1.222  15.754 -0.1147  0.1392  0.1422
  454MPD2     H 6764   3.881   1.011  15.777  1.0266 -1.4053  0.0486
  454MPD2    H1 6765   4.092   1.385  15.827  3.1891 -0.2752  2.7003
  454MPD2    H2 6766   4.299   1.048  15.686  0.5867 -0.2982  0.7832
  454MPD2    H3 6767   4.299   1.276  15.740 -0.9516  1.5365 -0.0240
  454MPD2     N 6768   3.849   1.245  15.868  0.0236  0.9457 -0.2340
  454MPD2    H5 6769   3.788   1.164  15.876 -1.0641  1.9910  2.0501
  454MPD2    N1 6770   4.075   0.880  15.686 -0.0450  0.3942 -0.1385
  454MPD2    H7 6771   3.996   0.825  15.716 -1.1364  0.1365 -3.4263
  455TMC3    C1 6772   3.691   1.366  15.999  0.5790 -0.1701  0.2912
  455TMC3    C2 6773   3.709   1.399  16.132  0.2801 -0.4630 -0.3686
  455TMC3    C3 6774   3.649   1.322  16.228 -0.4351  0.4510  0.2779
  455TMC3    C4 6775   3.610   1.260  15.967 -0.0999  0.3242  0.1365
  455TMC3    C5 6776   3.563   1.176  16.061 -0.5273 -0.2651  0.0030
  455TMC3    C6 6777   3.582   1.211  16.194 -1.0229 -0.2603  0.4158
  455TMC3     C 6778   3.821   1.368  15.923 -0.0195  0.8950  0.3222
  455TMC3     O 6779   3.898   1.459  15.943 -0.2263  0.4867  0.2489
  455TMC3     H 6780   3.768   1.484  16.164  0.1625 -0.3271 -0.5173
  455TMC3    H1 6781   3.598   1.210  15.871 -2.5009  0.1444  0.5355
  455TMC3    H2 6782   3.535   1.146  16.267 -3.1962  0.8096 -0.0387
  455TMC3    C7 6783   3.574   1.032  16.022  0.1884  0.7526 -0.2798
  455TMC3    C8 6784   3.685   1.347  16.368 -0.2453 -0.6458  0.4130
  455TMC3    O1 6785   3.658   1.001  15.937  0.0323 -0.0352  0.4576
  455TMC3    O2 6786   3.676   1.254  16.443  1.0664  0.1658  0.1720
  456MPD2     C 6787   1.529   0.648  16.256 -0.4911 -0.2654 -0.0005
  456MPD2    C1 6788   1.638   0.640  16.337  0.4446  0.2854  0.2853
  456MPD2    C2 6789   1.653   0.704  16.462  0.3171 -0.0400  0.1395
  456MPD2    C3 6790   1.552   0.790  16.503 -0.4914 -0.2298  0.5525
  456MPD2    C4 6791   1.439   0.800  16.423 -0.1551  0.1339  0.1710
  456MPD2    C5 6792   1.428   0.730  16.305  0.4543 -0.3210  0.0079
  456MPD2     H 6793   1.743   0.697  16.521  0.2554 -0.0300  0.2349
  456MPD2    H1 6794   1.359   0.869  16.444  0.8836  2.0891 -2.2957
  456MPD2    H2 6795   1.506   0.598  16.163 -1.4745  0.2253 -0.0290
  456MPD2    H3 6796   1.339   0.741  16.244 -0.7468  0.9241  1.9915
  456MPD2     N 6797   1.590   0.877  16.610 -0.3692  0.1732 -0.0388
  456MPD2    H5 6798   1.677   0.852  16.655 -0.5581 -0.2955  0.0622
  456MPD2    N1 6799   1.734   0.554  16.284  0.2081  0.0668  0.0008
  456MPD2    H7 6800   1.703   0.505  16.201 -0.3995  1.3074 -0.5111
  457TMC3    C1 6801   1.592   1.090  16.723 -0.0548 -0.5819  0.8119
  457TMC3    C2 6802   1.614   1.218  16.679 -0.1941  0.4409  0.2246
  457TMC3    C3 6803   1.674   1.297  16.773 -1.3153 -0.1359 -0.1229
  457TMC3    C4 6804   1.636   1.041  16.843  0.3062  0.3018 -0.2353
  457TMC3    C5 6805   1.707   1.123  16.921  0.3670 -0.4209 -0.1506
  457TMC3    C6 6806   1.728   1.247  16.882 -0.1971 -0.9586 -0.4241
  457TMC3     C 6807   1.519   0.997  16.633  0.4104  0.2208 -0.1102
  457TMC3     O 6808   1.426   1.043  16.572 -0.4620  0.0841  0.1923
  457TMC3     H 6809   1.565   1.254  16.589 -0.8322 -0.5909  0.1609
  457TMC3    H1 6810   1.620   0.942  16.886 -2.1326  1.2630  1.0255
  457TMC3    H2 6811   1.793   1.306  16.945 -2.1795 -0.2536  0.9254
  457TMC3    C7 6812   1.696   1.102  17.062 -0.0131 -0.0213 -0.1257
  457TMC3    C8 6813   1.689   1.441  16.766 -0.7276  0.1618 -0.2374
  457TMC3    O1 6814   1.674   0.986  17.099 -0.0296 -0.2001 -0.4374
  457TMC3    O2 6815   1.779   1.493  16.833  0.3155 -0.2121  0.2449
  458MPD2     C 6816   0.146   0.292  12.277  0.3035  0.0539 -0.1386
  458MPD2    C1 6817   0.099   0.338  12.396 -0.2211  0.4406  0.4487
  458MPD2    C2 6818   4.685   0.341  12.418  0.2295  0.3870 -1.0199
  458MPD2    C3 6819   4.592   0.294  12.323  0.0545 -0.5412  0.3165
  458MPD2    C4 6820   4.643   0.258  12.196  0.8487 -0.7367 -0.4417
  458MPD2    C5 6821   0.058   0.261  12.176  0.2783  0.3151 -0.4524
  458MPD2     H 6822   4.641   0.367  12.514  2.0240 -1.3154  0.2634
  458MPD2    H1 6823   4.577   0.235  12.113 -0.3505 -0.8520  0.5438
  458MPD2    H2 6824   0.252   0.285  12.257  0.4448  1.0714  0.2451
  458MPD2    H3 6825   0.087   0.242  12.073 -0.1625  0.6623 -0.6372
  458MPD2     N 6826   4.458   0.294  12.355  0.4336  0.1287 -0.6644
  458MPD2    H5 6827   4.428   0.303  12.451  0.7116 -1.4748 -0.4189
  458MPD2    N1 6828   0.202   0.370  12.488  0.1119 -0.3964  0.9162
  458MPD2    H7 6829   0.295   0.367  12.448 -0.5140  2.0073 -0.7275
  459TMC3    C1 6830   0.295   0.427  12.697 -0.3990 -0.2775  0.0606
  459TMC3    C2 6831   0.410   0.477  12.638  0.2686 -0.2097 -0.7354
  459TMC3    C3 6832   0.507   0.538  12.712 -0.4464 -0.0925 -0.2719
  459TMC3    C4 6833   0.283   0.430  12.833  0.4213  0.1639 -0.2663
  459TMC3    C5 6834   0.393   0.477  12.899 -1.5744  0.0559 -0.2683
  459TMC3    C6 6835   0.502   0.540  12.845 -0.1349 -0.5244  0.7332
  459TMC3     C 6836   0.170   0.394  12.619 -0.0396 -0.2088 -0.9414
  459TMC3     O 6837   0.067   0.394  12.685  0.2472 -0.3088 -0.1335
  459TMC3     H 6838   0.429   0.473  12.532  0.2746  3.9601 -0.8988
  459TMC3    H1 6839   0.188   0.404  12.879 -0.7672  1.9465 -1.6870
  459TMC3    H2 6840   0.583   0.575  12.907  2.2795 -2.6562 -1.2115
  459TMC3    C7 6841   0.374   0.477  13.039 -0.1084  0.0713 -0.5290
  459TMC3    C8 6842   0.613   0.608  12.645 -0.4980 -0.3490 -0.7500
  459TMC3    O1 6843   0.431   0.561  13.103 -0.6000 -0.9763 -0.1774
  459TMC3    O2 6844   0.695   0.660  12.718 -0.2091 -0.1223 -0.3259
  460MPD2     C 6845   4.212   2.647  10.473  0.2272 -0.3994 -0.1265
  460MPD2    C1 6846   4.082   2.629  10.499 -0.7027 -0.1089 -0.7126
  460MPD2    C2 6847   3.990   2.602  10.395 -0.0622  0.0180  0.3975
  460MPD2    C3 6848   4.031   2.594  10.264  0.1050 -0.3114 -0.1817
  460MPD2    C4 6849   4.166   2.605  10.243 -0.4011  0.4545 -0.4406
  460MPD2    C5 6850   4.254   2.633  10.350 -0.6426 -0.9877  0.4865
  460MPD2     H 6851   3.884   2.579  10.402  0.2645 -1.7204 -0.3792
  460MPD2    H1 6852   4.213   2.599  10.146  0.6706  2.2120 -0.0352
  460MPD2    H2 6853   4.275   2.672  10.558 -0.4031 -0.9570  0.5011
  460MPD2    H3 6854   4.358   2.652  10.325 -1.2356 -0.5391 -1.6666
  460MPD2     N 6855   3.942   2.574  10.157 -0.1193  0.2380  0.0578
  460MPD2    H5 6856   3.842   2.574  10.172 -0.0821 -1.9364  0.3018
  460MPD2    N1 6857   4.032   2.646  10.634 -0.0764 -0.3651  0.0037
  460MPD2    H7 6858   4.097   2.679  10.705 -0.6193  0.9922 -0.1290
  461TMC3    C1 6859   3.859   2.557   9.936 -0.6351  0.1938 -0.7005
  461TMC3    C2 6860   3.862   2.471   9.833 -0.0212 -0.4445 -0.0534
  461TMC3    C3 6861   3.796   2.504   9.717 -0.9028 -1.0412 -0.1383
  461TMC3    C4 6862   3.826   2.686   9.919 -0.4043 -0.5380 -0.4268
  461TMC3    C5 6863   3.779   2.724   9.795  0.3941  0.0559  0.4399
  461TMC3    C6 6864   3.754   2.633   9.695 -0.8770  0.4276  0.2811
  461TMC3     C 6865   3.970   2.550  10.028 -0.0213 -0.8590  0.3564
  461TMC3     O 6866   4.075   2.569   9.965 -0.4523 -0.0581  0.3863
  461TMC3     H 6867   3.900   2.373   9.859  2.2549  0.7703  1.2155
  461TMC3    H1 6868   3.858   2.762   9.990  1.2382 -0.2444 -1.4941
  461TMC3    H2 6869   3.726   2.659   9.594 -0.7080  0.6250  0.2870
  461TMC3    C7 6870   3.792   2.864   9.745  0.0818 -0.3747  0.1117
  461TMC3    C8 6871   3.774   2.398   9.616 -1.1191  0.0933 -0.2291
  461TMC3    O1 6872   3.783   2.878   9.626  0.3368 -0.0454 -0.2849
  461TMC3    O2 6873   3.845   2.298   9.627  0.0216 -0.2155 -0.1249
  462TMC3    C1 6874   2.942   3.163   0.116 -0.2622  0.4599  0.3815
  462TMC3    C2 6875   2.938   3.105  17.674 -0.2209  0.6782 -0.1182
  462TMC3    C3 6876   3.053   3.054  17.620 -0.2046 -0.5103  0.1774
  462TMC3    C4 6877   3.058   3.183   0.183 -0.1016 -0.5050 -0.5933
  462TMC3    C5 6878   3.172   3.135   0.124 -0.2235 -0.5487  0.0522
  462TMC3    C6 6879   3.169   3.072   0.003  0.0203  0.1781  0.2281
  462TMC3     C 6880   2.818   3.222   0.168  0.1845 -0.9175  0.1615
  462TMC3     O 6881   2.737   3.255   0.082 -0.7051  1.0123 -0.3151
  462TMC3     H 6882   2.843   3.089  17.625  0.2152 -0.1404 -0.7035
  462TMC3    H1 6883   3.059   3.224   0.283 -1.6627 -0.8272 -0.4456
  462TMC3    H2 6884   3.262   3.030  17.649 -0.7936  0.3589 -2.0411
  462TMC3    C7 6885   3.279   3.099   0.216  0.1875  0.4713  0.7869
  462TMC3    C8 6886   3.030   2.963  17.503 -0.0209  0.5825 -0.5934
  462TMC3    O1 6887   3.314   2.983   0.216 -0.5082  0.0012  0.1293
  462TMC3    O2 6888   2.921   2.982  17.444  0.2419  0.3206  0.0578
  463MPD2     C 6889   4.390   1.831   2.159 -0.1905 -0.6535  0.7952
  463MPD2    C1 6890   4.296   1.909   2.088 -0.1685  0.6241  0.8800
  463MPD2    C2 6891   4.335   2.031   2.033 -0.1450 -0.5335 -0.4514
  463MPD2    C3 6892   4.470   2.069   2.039 -0.2909  0.2972  0.7272
  463MPD2    C4 6893   4.560   1.990   2.112 -0.1956 -0.6117 -0.5467
  463MPD2    C5 6894   4.522   1.873   2.171 -0.0905 -0.1148 -0.1083
  463MPD2     H 6895   4.263   2.095   1.984 -1.7721 -1.7526  0.3427
  463MPD2    H1 6896   4.665   2.014   2.122 -0.1765 -0.8226 -0.2546
  463MPD2    H2 6897   4.367   1.735   2.203  0.5526 -0.0548  2.4975
  463MPD2    H3 6898   4.588   1.811   2.231 -1.5930  0.9025  2.5557
  463MPD2     N 6899   4.515   2.187   1.980 -0.0383 -0.4934  0.4152
  463MPD2    H5 6900   4.616   2.187   1.969 -0.2357  0.8968 -1.3714
  463MPD2    N1 6901   4.168   1.862   2.059  0.1605 -0.1408 -0.1930
  463MPD2    H7 6902   4.110   1.913   1.993  2.4647  0.5019 -1.7322
  464TMC3    C1 6903   3.986   1.710   2.059  0.1075  0.0758  0.3318
  464TMC3    C2 6904   3.914   1.816   2.017 -0.2921  0.5561  0.1378
  464TMC3    C3 6905   3.807   1.792   1.932 -0.1288  0.2961 -0.6312
  464TMC3    C4 6906   3.967   1.589   2.012  1.2764 -0.2511  0.3228
  464TMC3    C5 6907   3.878   1.574   1.913  0.1977 -1.4160  0.8350
  464TMC3    C6 6908   3.784   1.674   1.881 -0.8163  0.1128  0.0903
  464TMC3     C 6909   4.119   1.737   2.101  0.8177  0.5509 -0.7268
  464TMC3     O 6910   4.167   1.646   2.163  0.4279 -0.3242  0.1834
  464TMC3     H 6911   3.920   1.918   2.054 -0.2830  0.2773  0.9212
  464TMC3    H1 6912   4.045   1.513   2.012  2.8502  1.3718 -1.0049
  464TMC3    H2 6913   3.703   1.654   1.812 -1.3130  0.0157  0.6965
  464TMC3    C7 6914   3.862   1.441   1.852 -0.3851  0.2699 -0.1184
  464TMC3    C8 6915   3.722   1.910   1.908 -0.4145 -1.6463 -0.4200
  464TMC3    O1 6916   3.937   1.356   1.898  0.1136  0.3960  0.0195
  464TMC3    O2 6917   3.782   2.017   1.911  0.0224 -0.3927 -0.4650
  465MPD2     C 6918   1.048   0.727  16.435 -0.6095  0.5166 -0.9508
  465MPD2    C1 6919   1.016   0.843  16.515 -0.6364 -0.5631 -0.6868
  465MPD2    C2 6920   0.898   0.904  16.488 -0.3472 -0.1581 -0.5937
  465MPD2    C3 6921   0.813   0.862  16.396  0.0607 -0.3717  0.0026
  465MPD2    C4 6922   0.845   0.759  16.313  0.2900 -0.3432 -0.1616
  465MPD2    C5 6923   0.964   0.691  16.329 -0.1750  0.3903 -0.1055
  465MPD2     H 6924   0.861   0.982  16.554  0.6744 -0.8731  0.8354
  465MPD2    H1 6925   0.783   0.714  16.236  0.7448 -1.2959  0.0310
  465MPD2    H2 6926   1.145   0.678  16.436 -0.2333  1.2665  0.7879
  465MPD2    H3 6927   0.984   0.612  16.258  1.0136 -0.4750  1.1903
  465MPD2     N 6928   0.695   0.941  16.388  0.0205 -0.1951 -0.3124
  465MPD2    H5 6929   0.678   1.005  16.465  2.0723  1.5974 -1.3390
  465MPD2    N1 6930   1.097   0.887  16.622  0.0901 -0.3554 -0.0627
  465MPD2    H7 6931   1.059   0.961  16.680 -1.2703  1.3895 -3.2277
  466TMC3    C1 6932   0.222   0.945  16.359  0.0220  0.2811  0.5715
  466TMC3    C2 6933   0.216   1.079  16.389 -0.5090  0.3248  0.0341
  466TMC3    C3 6934   0.330   1.148  16.411 -0.6935 -0.2218  0.0277
  466TMC3    C4 6935   0.343   0.883  16.353 -0.8685 -0.0184 -0.1926
  466TMC3    C5 6936   0.450   0.961  16.358 -0.5125  0.4615 -0.2347
  466TMC3    C6 6937   0.449   1.088  16.394  0.0431 -0.4863 -0.5168
  466TMC3     C 6938   0.120   0.866  16.428 -1.2231  0.1545  0.2739
  466TMC3     O 6939   0.046   0.924  16.507  0.4773 -0.1517  0.3865
  466TMC3     H 6940   0.122   1.128  16.369 -0.8132 -0.9259 -1.6430
  466TMC3    H1 6941   0.361   0.777  16.340 -0.6354  0.0490 -0.4069
  466TMC3    H2 6942   0.537   1.151  16.393  0.5319 -1.1684 -0.5252
  466TMC3    C7 6943   0.584   0.894  16.329 -0.7103  0.1662 -0.0696
  466TMC3    C8 6944   0.332   1.292  16.389  0.1422  0.4214  0.2597
  466TMC3    O1 6945   0.572   0.809  16.243  0.2063  0.3416 -0.4282
  466TMC3    O2 6946   0.395   1.322  16.287 -0.2367 -0.0822 -0.7167
  467TMC3    C1 6947   1.513   4.592  13.948  0.3113  0.3692 -0.1987
  467TMC3    C2 6948   1.431   4.672  13.873 -0.4287  0.2412  0.2220
  467TMC3    C3 6949   1.322   4.611  13.820  0.7205 -0.1969  0.2122
  467TMC3    C4 6950   1.500   4.460  13.959  0.5960 -0.3916  0.4088
  467TMC3    C5 6951   1.377   4.404  13.912 -0.0502  0.4747  0.6142
  467TMC3    C6 6952   1.294   4.481  13.837 -0.4406  0.6712 -0.0302
  467TMC3     C 6953   1.650   4.641  13.960  0.0323 -0.6667  0.2141
  467TMC3     O 6954   1.737   4.560  13.958  0.0083  0.0961 -0.3445
  467TMC3     H 6955   1.454   0.055  13.849  0.8053 -0.4894 -1.7507
  467TMC3    H1 6956   1.569   4.398  14.015 -0.9735  0.3635  3.1871
  467TMC3    H2 6957   1.208   4.438  13.788  1.2949 -1.8198 -0.8880
  467TMC3    C7 6958   1.381   4.269  13.867 -0.1063  0.4705  0.4312
  467TMC3    C8 6959   1.262   4.678  13.704 -0.5566  0.1138  0.4118
  467TMC3    O1 6960   1.493   4.218  13.846 -0.5170  0.4673 -0.5321
  467TMC3    O2 6961   1.305   0.069  13.681 -0.4987 -0.0730  0.0396
  468MPD2     C 6962   0.507   1.798  10.422 -0.4854  0.8705 -0.1247
  468MPD2    C1 6963   0.628   1.815  10.490  0.6808 -0.0906  0.1562
  468MPD2    C2 6964   0.704   1.704  10.518  0.8002  0.5986 -0.2875
  468MPD2    C3 6965   0.676   1.574  10.481  1.0318  0.4486 -0.7553
  468MPD2    C4 6966   0.563   1.564  10.415 -0.3351  0.4752  0.1401
  468MPD2    C5 6967   0.474   1.669  10.394 -0.3652 -0.9868  0.5136
  468MPD2     H 6968   0.797   1.721  10.571  1.2109 -0.5811 -0.6187
  468MPD2    H1 6969   0.530   1.464  10.387  0.8533 -0.4305  1.9680
  468MPD2    H2 6970   0.442   1.882  10.399 -0.9723  1.1048  2.0631
  468MPD2    H3 6971   0.377   1.646  10.350  0.4058 -0.6912 -1.3416
  468MPD2     N 6972   0.743   1.462  10.519  0.5989 -0.0633 -0.3565
  468MPD2    H5 6973   0.690   1.376  10.518  0.4036  0.0582 -0.3640
  468MPD2    N1 6974   0.670   1.941  10.545 -0.5390 -0.0024  0.0141
  468MPD2    H7 6975   0.760   1.942  10.593  1.0814  1.7340 -3.0257
  469TMC3    C1 6976   0.658   2.151  10.638  0.1011 -1.0464 -0.0700
  469TMC3    C2 6977   0.792   2.157  10.644  0.2893 -0.4795 -0.6241
  469TMC3    C3 6978   0.846   2.236  10.747 -1.3680 -0.3175 -0.4908
  469TMC3    C4 6979   0.582   2.236  10.709 -0.0805 -0.4624  0.2268
  469TMC3    C5 6980   0.638   2.311  10.802  0.0025 -0.3730  0.1604
  469TMC3    C6 6981   0.770   2.319  10.818 -0.4492  0.2319 -0.0878
  469TMC3     C 6982   0.589   2.054  10.551 -0.1906  0.0306 -0.7093
  469TMC3     O 6983   0.475   2.077  10.511  0.3116 -0.1086 -0.3593
  469TMC3     H 6984   0.854   2.114  10.567  0.6973 -0.4328 -0.3191
  469TMC3    H1 6985   0.474   2.233  10.709 -0.0823 -0.4353  0.6254
  469TMC3    H2 6986   0.810   2.392  10.888 -1.5426 -0.6814  1.5108
  469TMC3    C7 6987   0.554   2.401  10.882  0.0891  0.1336  0.0451
  469TMC3    C8 6988   0.981   2.262  10.724 -0.0714  0.2518  1.0010
  469TMC3    O1 6989   0.439   2.415  10.857  0.3253 -0.2165  0.1539
  469TMC3    O2 6990   1.026   2.251  10.611  0.2087 -0.4808 -0.5919
  470TMC3    C1 6991   1.867   3.087   0.567  0.8263  0.4267  0.1660
  470TMC3    C2 6992   1.935   3.206   0.544  0.7591 -0.4492 -0.4954
  470TMC3    C3 6993   2.030   3.236   0.636  0.8380  0.4870 -0.2990
  470TMC3    C4 6994   1.881   3.013   0.679  0.1268 -0.4871 -0.0904
  470TMC3    C5 6995   1.991   3.033   0.757 -0.5058  0.0965 -0.0688
  470TMC3    C6 6996   2.063   3.146   0.737  0.3930  0.3331  0.8932
  470TMC3     C 6997   1.773   3.044   0.463  0.5618 -0.9833 -0.0513
  470TMC3     O 6998   1.728   3.130   0.385 -0.1338 -0.7039 -0.4828
  470TMC3     H 6999   1.912   3.270   0.459 -0.1203  0.2383  0.2511
  470TMC3    H1 7000   1.814   2.930   0.698  0.0275 -0.1661  0.9734
  470TMC3    H2 7001   2.148   3.169   0.801  1.6701  0.0792 -0.6875
  470TMC3    C7 7002   1.975   3.008   0.899  0.9599 -0.1273 -0.0050
  470TMC3    C8 7003   2.094   3.363   0.630  0.2201 -0.2990 -0.1887
  470TMC3    O1 7004   2.030   3.086   0.977 -0.0277 -0.2952 -0.1442
  470TMC3    O2 7005   2.171   3.383   0.721  0.1828  0.7848  0.0080
  471MPD2     C 7006   2.561   3.950  16.748  0.4981  0.1128  0.2311
  471MPD2    C1 7007   2.681   4.019  16.782 -0.4373 -0.8510  0.3885
  471MPD2    C2 7008   2.704   4.048  16.915  0.4073 -0.5604  0.0556
  471MPD2    C3 7009   2.618   4.006  17.018  0.0332 -0.3178  0.1127
  471MPD2    C4 7010   2.500   3.941  16.981 -1.0331 -0.2927 -0.3429
  471MPD2    C5 7011   2.473   3.918  16.848  0.3679 -0.8012 -0.2991
  471MPD2     H 7012   2.796   4.094  16.946  1.3251 -0.7246 -2.3888
  471MPD2    H1 7013   2.422   3.911  17.051  0.4755 -1.8351  0.6900
  471MPD2    H2 7014   2.545   3.912  16.648 -0.2867  1.8401 -0.2831
  471MPD2    H3 7015   2.379   3.869  16.824 -0.5202  0.7299  0.0370
  471MPD2     N 7016   2.649   4.010  17.155 -0.1018  0.2932 -0.3900
  471MPD2    H5 7017   2.589   3.952  17.213  0.1795  0.8769  0.4931
  471MPD2    N1 7018   2.779   4.050  16.687 -0.3222  0.3801  0.2765
  471MPD2    H7 7019   2.869   4.081  16.722 -0.5184 -0.0845  1.1817
  472TMC3    C1 7020   2.895   4.075  16.485 -0.2767 -0.3343 -0.1564
  472TMC3    C2 7021   2.853   4.123  16.362 -0.4583  0.0207  0.4007
  472TMC3    C3 7022   2.906   4.061  16.255  0.4497  0.6350 -0.4709
  472TMC3    C4 7023   2.979   3.967  16.503 -0.5990  0.2850 -0.1920
  472TMC3    C5 7024   3.018   3.901  16.393 -0.0152 -0.1254 -0.3100
  472TMC3    C6 7025   2.996   3.951  16.264 -0.1915 -0.3820 -0.1372
  472TMC3     C 7026   2.769   4.032  16.554 -0.5965 -0.0562  0.3447
  472TMC3     O 7027   2.673   4.007  16.482  0.0837  0.5347  0.2869
  472TMC3     H 7028   2.769   4.190  16.361 -1.3127 -1.0668 -0.5227
  472TMC3    H1 7029   2.981   3.924  16.603  2.0545 -2.2076 -1.3072
  472TMC3    H2 7030   3.028   3.896  16.177 -1.1680 -0.2186 -0.6037
  472TMC3    C7 7031   3.013   3.757  16.404 -0.3783  0.1337 -0.5612
  472TMC3    C8 7032   2.816   4.041  16.145  0.3014 -0.9444 -0.1323
  472TMC3    O1 7033   3.055   3.708  16.506  0.4184 -0.0984 -0.2462
  472TMC3    O2 7034   2.851   4.070  16.032  0.3413 -0.2502  0.0271
  473MPD2     C 7035   3.347   2.083  13.676 -0.7369  0.8793  0.7995
  473MPD2    C1 7036   3.418   2.197  13.650 -0.0535 -0.1160 -0.7160
  473MPD2    C2 7037   3.444   2.278  13.760  0.4012  0.1226  0.2979
  473MPD2    C3 7038   3.403   2.251  13.887  0.3270  0.2338 -0.8619
  473MPD2    C4 7039   3.330   2.140  13.914  0.1714  0.1272  0.0868
  473MPD2    C5 7040   3.305   2.053  13.805  0.5893 -0.3554 -0.2970
  473MPD2     H 7041   3.500   2.369  13.745  2.6493 -1.5100 -1.3289
  473MPD2    H1 7042   3.286   2.123  14.011 -1.1155 -0.4219 -0.5829
  473MPD2    H2 7043   3.316   2.007  13.605  0.1421 -0.1795  1.5591
  473MPD2    H3 7044   3.246   1.962  13.816  2.8707 -1.8402 -0.2929
  473MPD2     N 7045   3.432   2.332  14.004 -0.1213  0.3291  0.0456
  473MPD2    H5 7046   3.400   2.299  14.094 -0.7879 -0.0493 -0.3334
  473MPD2    N1 7047   3.445   2.246  13.526  0.4143  0.0725 -0.0972
  473MPD2    H7 7048   3.486   2.338  13.517 -2.7541  1.3704 -1.4380
  474TMC3    C1 7049   3.558   2.477  14.151 -0.2767 -0.3448  0.2266
  474TMC3    C2 7050   3.442   2.531  14.206 -0.3144 -0.1596 -0.0669
  474TMC3    C3 7051   3.457   2.588  14.326 -0.4994  0.0531 -0.1309
  474TMC3    C4 7052   3.675   2.468  14.211 -1.1596 -0.5889  0.0593
  474TMC3    C5 7053   3.687   2.523  14.332 -0.4353 -0.6233 -0.3369
  474TMC3    C6 7054   3.574   2.583  14.396  0.9731 -0.0082  0.4132
  474TMC3     C 7055   3.544   2.422  14.016  0.4728 -0.3507 -0.0632
  474TMC3     O 7056   3.644   2.443  13.945 -0.3031 -0.7382 -0.0651
  474TMC3     H 7057   3.357   2.538  14.139  0.2932  1.4117 -0.6621
  474TMC3    H1 7058   3.754   2.412  14.164 -1.3181 -1.5113  0.9021
  474TMC3    H2 7059   3.574   2.635  14.491 -0.2229 -0.8884  0.8956
  474TMC3    C7 7060   3.806   2.500  14.406 -0.5712 -0.2309  0.0530
  474TMC3    C8 7061   3.395   2.715  14.336 -0.0471 -0.4341 -0.0778
  474TMC3    O1 7062   3.904   2.437  14.369 -0.0276 -0.0579 -0.1066
  474TMC3    O2 7063   3.473   2.808  14.350  0.2278 -0.3679  0.0522
  475MPD2     C 7064   2.556   0.347  10.474 -0.0344  0.1519  0.0996
  475MPD2    C1 7065   2.493   0.321  10.352 -0.0997 -0.4437  0.4018
  475MPD2    C2 7066   2.364   0.277  10.357  0.0304  0.6739  0.6715
  475MPD2    C3 7067   2.299   0.250  10.473  0.0378 -0.1175 -0.0485
  475MPD2    C4 7068   2.366   0.265  10.593  0.1811  0.4969  0.3311
  475MPD2    C5 7069   2.492   0.312  10.594  0.1414 -0.2161  0.0294
  475MPD2     H 7070   2.305   0.275  10.266 -1.8971  0.8242  1.9164
  475MPD2    H1 7071   2.327   0.243  10.692  1.9582 -0.8300  0.7429
  475MPD2    H2 7072   2.660   0.375  10.481  0.0153 -0.1445  0.5704
  475MPD2    H3 7073   2.552   0.302  10.683 -0.2325 -0.9516  0.1951
  475MPD2     N 7074   2.167   0.196  10.469  0.3215  0.4381 -0.0186
  475MPD2    H5 7075   2.118   0.194  10.380 -2.9807  0.4421  1.7884
  475MPD2    N1 7076   2.563   0.348  10.234 -0.5047  0.4966  0.0491
  475MPD2    H7 7077   2.657   0.375  10.260 -0.8853  1.3332  0.5473
  476TMC3    C1 7078   2.640   0.313  10.016  0.3607 -0.8915 -0.2027
  476TMC3    C2 7079   2.651   0.227   9.911  0.5201  0.5736  0.1036
  476TMC3    C3 7080   2.739   0.244   9.809 -0.7385 -0.0241  0.2269
  476TMC3    C4 7081   2.719   0.422  10.020 -0.0377 -0.5694  0.4395
  476TMC3    C5 7082   2.809   0.436   9.920 -0.0411  0.0690  0.1162
  476TMC3    C6 7083   2.816   0.354   9.815  0.2856 -0.2437 -0.3089
  476TMC3     C 7084   2.530   0.303  10.109 -0.1086 -0.1408  0.0390
  476TMC3     O 7085   2.442   0.225  10.072  0.5329 -0.1322  0.0489
  476TMC3     H 7086   2.593   0.136   9.913 -1.0053  1.5917  1.6065
  476TMC3    H1 7087   2.710   0.494  10.100  0.5362 -2.2473  2.0287
  476TMC3    H2 7088   2.887   0.378   9.737  0.2422  2.2504  0.4070
  476TMC3    C7 7089   2.875   0.568   9.919 -0.5180 -0.4320 -0.1560
  476TMC3    C8 7090   2.778   0.131   9.726  0.1292 -0.0476 -0.0325
  476TMC3    O1 7091   2.909   0.608   9.806  0.6616 -0.0195  0.1294
  476TMC3    O2 7092   2.876   0.161   9.658 -0.5820  0.0197  0.1733
  477MPD2     C 7093   4.483   1.887  11.559 -0.0236  0.5125  0.0147
  477MPD2    C1 7094   4.403   1.908  11.661 -0.0381 -0.0770 -0.0662
  477MPD2    C2 7095   4.407   1.834  11.770  0.6402 -0.2068  0.4721
  477MPD2    C3 7096   4.495   1.719  11.776  0.2790 -0.1629 -0.2598
  477MPD2    C4 7097   4.568   1.690  11.665 -0.6784  0.0805 -0.3090
  477MPD2    C5 7098   4.565   1.779  11.557  0.0881 -0.6526 -0.1861
  477MPD2     H 7099   4.346   1.861  11.855 -0.5267 -0.1921 -0.3813
  477MPD2    H1 7100   4.643   1.611  11.666  0.7810  1.4548 -2.2137
  477MPD2    H2 7101   4.488   1.957  11.477 -1.6000  0.7484  0.1135
  477MPD2    H3 7102   4.637   1.771  11.476  1.7735  0.8112  1.1782
  477MPD2     N 7103   4.492   1.628  11.886  0.0067  0.3111  0.0418
  477MPD2    H5 7104   4.445   1.670  11.966  0.2580  0.6215  0.0242
  477MPD2    N1 7105   4.318   2.015  11.631  0.2758 -0.6091 -0.8655
  477MPD2    H7 7106   4.317   2.053  11.537  1.5850 -1.1713 -1.0956
  478TMC3    C1 7107   4.118   2.138  11.615  0.2090  0.4954  0.0472
  478TMC3    C2 7108   4.022   2.214  11.679 -0.1394 -0.0909 -0.5355
  478TMC3    C3 7109   3.939   2.292  11.599 -0.4160  0.1328 -0.4423
  478TMC3    C4 7110   4.132   2.136  11.479  0.7198  0.0847  0.6392
  478TMC3    C5 7111   4.045   2.214  11.407  0.4317 -0.5529  0.4142
  478TMC3    C6 7112   3.944   2.290  11.463 -0.1438 -0.5234  0.1953
  478TMC3     C 7113   4.197   2.049  11.697 -0.2870  0.6551 -0.4863
  478TMC3     O 7114   4.156   2.010  11.804 -0.0198  0.5013  0.1635
  478TMC3     H 7115   4.009   2.193  11.785  1.1734  1.3109 -0.1019
  478TMC3    H1 7116   4.197   2.068  11.426 -0.3713  0.2927 -0.9718
  478TMC3    H2 7117   3.877   2.356  11.409 -1.0000 -0.7826  0.9351
  478TMC3    C7 7118   4.077   2.233  11.266  0.6687 -0.5840 -0.6144
  478TMC3    C8 7119   3.867   2.394  11.675  0.1600 -0.2712  0.6409
  478TMC3    O1 7120   4.197   2.218  11.247  0.0817  0.7205 -0.5590
  478TMC3    O2 7121   3.879   2.384  11.795 -0.4391  0.6815 -0.0037
  479MPD2     C 7122   2.945   3.855  15.265  0.1422 -0.1449  0.1511
  479MPD2    C1 7123   2.892   3.779  15.366  0.3709 -0.2827 -0.1529
  479MPD2    C2 7124   2.931   3.798  15.494  0.4839 -0.1719  0.5416
  479MPD2    C3 7125   3.004   3.909  15.530 -0.3004  0.5192 -0.5504
  479MPD2    C4 7126   3.053   3.992  15.430 -0.1271  0.6910  0.4584
  479MPD2    C5 7127   3.024   3.960  15.298  0.1750 -0.2199  0.0047
  479MPD2     H 7128   2.899   3.724  15.567 -2.0501 -0.5354 -0.9219
  479MPD2    H1 7129   3.100   4.084  15.463 -0.8983  1.6022 -1.0354
  479MPD2    H2 7130   2.909   3.839  15.163  1.5288 -1.5171 -0.1221
  479MPD2    H3 7131   3.070   4.025  15.224 -2.3313 -1.3605 -2.5463
  479MPD2     N 7132   3.028   3.935  15.664  0.7218 -0.5853  0.1447
  479MPD2    H5 7133   3.099   4.004  15.685  0.6145 -0.6612  0.7702
  479MPD2    N1 7134   2.791   3.688  15.321  0.4528 -0.2110 -0.0222
  479MPD2    H7 7135   2.778   3.688  15.220 -0.8170 -0.8592  0.1423
  480TMC3    C1 7136   2.660   3.688  15.788  0.5149  0.2787  0.0977
  480TMC3    C2 7137   2.584   3.757  15.704 -0.8380 -0.3656 -0.1426
  480TMC3    C3 7138   2.625   3.874  15.651 -0.6065  0.1963  0.2868
  480TMC3    C4 7139   2.779   3.744  15.831  0.5293 -0.3618 -0.0051
  480TMC3    C5 7140   2.831   3.857  15.766  0.8474  0.4952  1.0760
  480TMC3    C6 7141   2.747   3.931  15.685 -0.4268 -0.3176  0.8730
  480TMC3     C 7142   2.602   3.574  15.857  0.4000  0.6418 -0.3050
  480TMC3     O 7143   2.675   3.485  15.901  0.4090  0.2647  0.5579
  480TMC3     H 7144   2.513   3.696  15.650  0.1059 -0.6377 -1.0792
  480TMC3    H1 7145   2.844   3.684  15.894 -0.3094  1.3006  2.4733
  480TMC3    H2 7146   2.771   4.029  15.647 -1.8074  0.3095  1.6222
  480TMC3    C7 7147   2.976   3.862  15.767  0.6940  0.1414  0.2284
  480TMC3    C8 7148   2.548   3.916  15.538  0.5691 -0.4887 -0.4109
  480TMC3    O1 7149   3.032   3.831  15.875 -0.0357 -0.7471  0.5971
  480TMC3    O2 7150   2.428   3.881  15.546  0.0176  0.1393 -0.5718
  481MPD2     C 7151   4.537   2.920  14.610  0.5828 -0.0070 -0.0819
  481MPD2    C1 7152   4.470   3.030  14.562  0.1206 -0.9565  0.0097
  481MPD2    C2 7153   4.431   3.122  14.654  0.0601 -0.3217 -0.2741
  481MPD2    C3 7154   4.446   3.103  14.791  0.2710  0.6455  0.1867
  481MPD2    C4 7155   4.509   2.992  14.834  0.6612 -0.3388 -0.4711
  481MPD2    C5 7156   4.551   2.902  14.743  0.5990  0.0596 -1.0764
  481MPD2     H 7157   4.384   3.209  14.610  0.9045  0.3714  0.2167
  481MPD2    H1 7158   4.512   2.972  14.941  0.8942  0.0876 -0.4000
  481MPD2    H2 7159   4.580   2.847  14.542  0.3243  0.2400 -0.5134
  481MPD2    H3 7160   4.589   2.810  14.786  0.6862 -0.5090 -2.3621
  481MPD2     N 7161   4.406   3.198  14.893  0.2317  0.8102 -0.0441
  481MPD2    H5 7162   4.402   3.168  14.990 -0.8233 -0.0344 -0.3453
  481MPD2    N1 7163   4.482   3.045  14.416 -0.2188  0.2800 -0.0024
  481MPD2    H7 7164   4.549   2.981  14.373  1.5955  1.9671  0.3347
  482TMC3    C1 7165   4.465   3.150  14.203 -0.4838  0.9783  0.3576
  482TMC3    C2 7166   4.523   3.050  14.129  0.2809  0.1218 -0.1473
  482TMC3    C3 7167   4.551   3.077  14.001  0.7117  0.3719  0.0270
  482TMC3    C4 7168   4.422   3.265  14.136  0.4156  0.2666 -0.6327
  482TMC3    C5 7169   4.438   3.285  14.004  0.9634 -0.9751 -0.7802
  482TMC3    C6 7170   4.509   3.194  13.935 -0.7397 -0.0551  0.7439
  482TMC3     C 7171   4.423   3.141  14.338  0.3351 -0.1779  0.0029
  482TMC3     O 7172   4.326   3.210  14.366 -0.2198 -0.1393  0.1041
  482TMC3     H 7173   4.546   2.956  14.178 -1.2984  0.3027  0.9402
  482TMC3    H1 7174   4.357   3.338  14.183 -0.4130  0.3586 -1.9319
  482TMC3    H2 7175   4.527   3.212  13.830 -1.3071  1.4474  0.9063
  482TMC3    C7 7176   4.431   3.418  13.949 -0.0488  0.3099  0.1469
  482TMC3    C8 7177   4.612   2.975  13.911 -0.2556  0.2702  0.7217
  482TMC3    O1 7178   4.446   3.506  14.035  0.2420 -0.0693  0.3671
  482TMC3    O2 7179   4.573   2.863  13.927  0.5183 -0.4624  0.6555
  483TMC3    C1 7180   2.260   2.742   0.900  0.7003 -0.1262 -0.5924
  483TMC3    C2 7181   2.350   2.813   0.978  0.2739 -0.2819 -0.0699
  483TMC3    C3 7182   2.394   2.753   1.094 -0.8001  0.0759  0.4510
  483TMC3    C4 7183   2.235   2.612   0.926  0.6648  0.2205 -0.6547
  483TMC3    C5 7184   2.279   2.552   1.036  0.1327  0.9917 -0.3428
  483TMC3    C6 7185   2.356   2.626   1.129 -0.4472  0.1182  0.3666
  483TMC3     C 7186   2.246   2.795   0.764 -0.0170  0.2939  0.2066
  483TMC3     O 7187   2.276   2.919   0.750  0.0105 -0.3564  0.3072
  483TMC3     H 7188   2.389   2.906   0.937  0.6435  0.0109  0.9624
  483TMC3    H1 7189   2.196   2.552   0.845 -2.3277  0.0994  0.9098
  483TMC3    H2 7190   2.391   2.572   1.216  0.0145 -0.8898 -0.4556
  483TMC3    C7 7191   2.322   2.414   1.020  0.0811 -0.4297  0.1802
  483TMC3    C8 7192   2.535   2.778   1.112  0.2380  0.2827  0.0486
  483TMC3    O1 7193   2.423   2.385   1.082 -0.9303 -0.3486  0.2596
  483TMC3    O2 7194   2.602   2.829   1.020  0.2555  0.8905  1.0772
  484MPD2     C 7195   0.651   0.741  12.314  0.5652 -0.7521  0.3925
  484MPD2    C1 7196   0.692   0.716  12.441 -0.5799 -0.0067  0.6903
  484MPD2    C2 7197   0.808   0.775  12.491 -0.2383  0.4412  0.4487
  484MPD2    C3 7198   0.876   0.872  12.414  0.6295  0.1386 -0.4464
  484MPD2    C4 7199   0.828   0.897  12.289 -0.2796 -0.0087  0.2833
  484MPD2    C5 7200   0.719   0.828  12.236  0.2598 -0.3879  0.1216
  484MPD2     H 7201   0.852   0.760  12.589  1.5877  0.9179 -0.2981
  484MPD2    H1 7202   0.872   0.975  12.227 -0.1359 -0.0125  0.3808
  484MPD2    H2 7203   0.572   0.687  12.264  1.0346 -1.5902  0.5627
  484MPD2    H3 7204   0.691   0.840  12.132  0.5963 -0.3208  0.0379
  484MPD2     N 7205   0.999   0.935  12.443  0.3383 -0.4718  0.0491
  484MPD2    H5 7206   1.032   0.975  12.356  0.3414  1.5623  0.9915
  484MPD2    N1 7207   0.611   0.627  12.509 -0.6787 -0.2389 -0.4245
  484MPD2    H7 7208   0.545   0.579  12.448 -2.4941  1.0597  0.4983
  485TMC3    C1 7209   1.206   0.981  12.543 -0.5650 -0.0198 -0.6496
  485TMC3    C2 7210   1.290   0.950  12.640 -0.2131  0.2443  0.6706
  485TMC3    C3 7211   1.422   0.936  12.607  0.8222  0.0673  0.2074
  485TMC3    C4 7212   1.248   1.025  12.425  0.0255  0.0413  0.5677
  485TMC3    C5 7213   1.385   1.036  12.399  0.0487 -0.0324 -0.1282
  485TMC3    C6 7214   1.474   0.999  12.497 -0.0498 -0.5643  0.1421
  485TMC3     C 7215   1.075   0.921  12.554  0.0219  0.6706 -0.2810
  485TMC3     O 7216   1.043   0.867  12.654 -0.0131  0.7187 -0.0844
  485TMC3     H 7217   1.250   0.919  12.736 -0.9856 -0.1639  0.2176
  485TMC3    H1 7218   1.178   1.059  12.349 -0.2621 -1.0507  0.3280
  485TMC3    H2 7219   1.580   0.996  12.472 -0.4100 -0.3108 -1.4644
  485TMC3    C7 7220   1.436   1.014  12.265  0.1189 -0.9191  0.2513
  485TMC3    C8 7221   1.456   0.794  12.596 -0.7396  0.1087 -0.3921
  485TMC3    O1 7222   1.399   1.085  12.174  0.1889  0.0603 -0.1086
  485TMC3    O2 7223   1.529   0.766  12.505 -0.5860 -0.2830 -0.1937
  486MPD2     C 7224   2.231   4.376  13.081 -0.9817  0.3192 -0.3941
  486MPD2    C1 7225   2.223   4.352  12.945  0.3977 -0.0166 -0.0332
  486MPD2    C2 7226   2.253   4.454  12.861  1.0961  0.8239 -0.1149
  486MPD2    C3 7227   2.285   4.581  12.913  0.0751 -0.5897  0.3846
  486MPD2    C4 7228   2.296   4.600  13.052  0.7805 -0.4898 -0.2376
  486MPD2    C5 7229   2.287   4.488  13.134  0.2340  0.4379  0.0256
  486MPD2     H 7230   2.240   4.451  12.754  1.4719  2.3716 -0.2007
  486MPD2    H1 7231   2.303   4.697  13.099 -4.5473 -0.8761  1.4094
  486MPD2    H2 7232   2.226   4.292  13.149 -3.4463  0.2497 -0.6460
  486MPD2    H3 7233   2.301   4.486  13.241  0.3623  2.2930  0.0502
  486MPD2     N 7234   2.317   4.675  12.814  0.0952 -0.1915  1.0332
  486MPD2    H5 7235   2.337   4.638  12.722 -1.9741 -1.2390  1.0026
  486MPD2    N1 7236   2.200   4.218  12.906 -0.8389 -0.3670  0.3278
  486MPD2    H7 7237   2.180   4.153  12.981 -0.2294  1.6220  2.2249
  487TMC3    C1 7238   2.124   4.051  12.756  0.7720 -0.2369 -0.1152
  487TMC3    C2 7239   2.008   4.034  12.684  0.7586 -0.0542  0.2161
  487TMC3    C3 7240   1.951   3.904  12.692  0.2233 -0.0737 -0.1671
  487TMC3    C4 7241   2.178   3.953  12.831 -0.2017 -0.7335  0.7627
  487TMC3    C5 7242   2.115   3.831  12.842  0.1618  0.1931  0.3578
  487TMC3    C6 7243   2.001   3.808  12.770 -0.2981 -0.1324  0.0933
  487TMC3     C 7244   2.154   4.187  12.779  0.3459  0.2648 -0.5020
  487TMC3     O 7245   2.118   4.263  12.689  0.3389 -0.1497 -0.2054
  487TMC3     H 7246   1.947   4.120  12.660  0.1691 -0.5097  0.0667
  487TMC3    H1 7247   2.275   3.965  12.877  1.0079 -1.6761 -1.6027
  487TMC3    H2 7248   1.975   3.707  12.738 -1.4010  1.0335 -2.6800
  487TMC3    C7 7249   2.118   3.780  12.974 -0.2074 -0.1113 -0.8371
  487TMC3    C8 7250   1.804   3.907  12.703  0.2254  0.0140 -0.5922
  487TMC3    O1 7251   2.212   3.805  13.052  0.2536 -0.1592  0.3066
  487TMC3    O2 7252   1.755   3.832  12.784 -0.3096  0.3998 -0.6333
  488MPD2     C 7253   2.276   0.817  16.252  0.1226  0.0206 -0.9464
  488MPD2    C1 7254   2.378   0.888  16.303 -0.7600  0.6149 -0.0676
  488MPD2    C2 7255   2.406   0.881  16.440 -0.2598 -0.7125  1.1362
  488MPD2    C3 7256   2.320   0.811  16.530 -0.7738  0.2562 -0.3768
  488MPD2    C4 7257   2.203   0.757  16.479 -0.1638 -0.0196 -0.8281
  488MPD2    C5 7258   2.189   0.754  16.341  0.8178  0.6554 -0.4632
  488MPD2     H 7259   2.485   0.943  16.481  0.7151 -0.9293 -0.4131
  488MPD2    H1 7260   2.124   0.717  16.542  1.1816 -0.1646  0.7512
  488MPD2    H2 7261   2.254   0.804  16.147  0.2510 -1.8817 -0.7540
  488MPD2    H3 7262   2.098   0.712  16.299  0.8546  0.0887  0.0263
  488MPD2     N 7263   2.346   0.817  16.666  0.2145 -0.4303 -0.0755
  488MPD2    H5 7264   2.417   0.885  16.690 -0.7380 -0.2201  2.1488
  488MPD2    N1 7265   2.458   0.975  16.229 -0.6099 -0.3211  0.1138
  488MPD2    H7 7266   2.538   1.024  16.268 -1.3726  0.6308  0.4853
  489TMC3    C1 7267   2.304   0.798  16.894 -0.0036  0.5164 -0.1632
  489TMC3    C2 7268   2.415   0.872  16.914  0.2754  0.0492  0.2669
  489TMC3    C3 7269   2.441   0.909  17.049 -0.4172  0.1884 -0.4740
  489TMC3    C4 7270   2.218   0.759  16.992  0.0315 -0.6032 -0.2839
  489TMC3    C5 7271   2.241   0.802  17.120  1.0738  0.7490  0.1234
  489TMC3    C6 7272   2.359   0.872  17.154  0.7374  0.1393  0.7694
  489TMC3     C 7273   2.270   0.753  16.760  0.5531 -0.1526  0.0539
  489TMC3     O 7274   2.181   0.675  16.752  0.2103  0.8258 -0.0339
  489TMC3     H 7275   2.479   0.901  16.832 -1.5739  0.2991 -1.1076
  489TMC3    H1 7276   2.125   0.714  16.958 -0.7379  0.8549 -0.0770
  489TMC3    H2 7277   2.391   0.893  17.255 -0.1328  1.8664  0.7042
  489TMC3    C7 7278   2.202   0.700  17.221 -0.3204 -0.6332  0.0296
  489TMC3    C8 7279   2.523   1.026  17.062 -0.0521 -0.2254 -0.2582
  489TMC3    O1 7280   2.132   0.611  17.177  0.2158  0.5334  0.4053
  489TMC3    O2 7281   2.600   1.046  16.974  0.3601 -0.6404  0.1521
  490MPD2     C 7282   3.425   0.621  16.924 -0.6078 -0.0683 -0.3711
  490MPD2    C1 7283   3.400   0.577  17.052  0.5104  0.8769  0.8135
  490MPD2    C2 7284   3.515   0.553  17.129 -0.1287 -0.0014  0.3741
  490MPD2    C3 7285   3.647   0.590  17.096  0.2651 -0.1777  0.5717
  490MPD2    C4 7286   3.668   0.636  16.973 -0.1045  0.3996  0.1931
  490MPD2    C5 7287   3.556   0.652  16.888 -0.0083  0.5398 -0.1055
  490MPD2     H 7288   3.510   0.512  17.229  0.6723  1.8370  1.1791
  490MPD2    H1 7289   3.768   0.652  16.934 -0.7190  2.0385 -0.7330
  490MPD2    H2 7290   3.350   0.649  16.852 -2.1823 -0.2236  1.2180
  490MPD2    H3 7291   3.572   0.687  16.786 -0.3948  4.3984  1.1486
  490MPD2     N 7292   3.759   0.577  17.179 -0.0974 -0.5702  0.3253
  490MPD2    H5 7293   3.842   0.620  17.139 -0.6561  0.5629  0.3676
  490MPD2    N1 7294   3.273   0.564  17.112  0.0405 -0.5517 -0.1985
  490MPD2    H7 7295   3.266   0.505  17.194 -1.5188 -0.7830 -0.5084
  491TMC3    C1 7296   3.042   0.542  17.126 -0.4436 -0.3207  0.4761
  491TMC3    C2 7297   3.059   0.521  17.259  0.6299  0.0673  0.7765
  491TMC3    C3 7298   2.964   0.444  17.321  0.5245 -0.1549  0.0314
  491TMC3    C4 7299   2.943   0.486  17.054 -1.0707  0.3850  0.5952
  491TMC3    C5 7300   2.853   0.410  17.124 -0.2422  0.8755 -0.0933
  491TMC3    C6 7301   2.863   0.384  17.255 -0.2657 -0.3914 -0.6175
  491TMC3     C 7302   3.156   0.590  17.052 -0.6042 -0.3498  0.2821
  491TMC3     O 7303   3.130   0.637  16.942  0.4005  0.3053  0.4130
  491TMC3     H 7304   3.139   0.574  17.310  0.1669  0.3155  1.2555
  491TMC3    H1 7305   2.941   0.491  16.946  0.1738 -0.5961  0.5289
  491TMC3    H2 7306   2.780   0.340  17.308 -1.1579  0.4596 -1.3068
  491TMC3    C7 7307   2.762   0.313  17.056 -0.4741 -0.1920  0.4912
  491TMC3    C8 7308   2.985   0.403  17.457  0.0883  0.7083  0.7324
  491TMC3    O1 7309   2.727   0.210  17.113 -0.0117  0.3187 -0.2673
  491TMC3    O2 7310   2.911   0.308  17.491 -0.4934 -0.4928  0.1955
  492MPD2     C 7311   4.191   0.612  11.508  0.0399  0.1335 -0.6352
  492MPD2    C1 7312   4.159   0.508  11.420 -0.1611  0.8309  0.1541
  492MPD2    C2 7313   4.105   0.391  11.475  0.7212  0.1112  0.0402
  492MPD2    C3 7314   4.084   0.374  11.612  0.0270 -0.4838 -0.0909
  492MPD2    C4 7315   4.121   0.471  11.695  0.0987  0.0975 -0.3235
  492MPD2    C5 7316   4.162   0.589  11.642  0.1703 -0.1902  0.0317
  492MPD2     H 7317   4.083   0.304  11.416  0.5994  0.4026 -0.3426
  492MPD2    H1 7318   4.095   0.476  11.800  0.3993 -0.3063 -0.2319
  492MPD2    H2 7319   4.223   0.711  11.479 -0.8289  0.9254  1.1746
  492MPD2    H3 7320   4.182   0.674  11.706  1.2256  0.4321 -1.1350
  492MPD2     N 7321   4.034   0.262  11.674  0.6604 -0.5943  0.0183
  492MPD2    H5 7322   4.013   0.269  11.773 -2.1736 -1.3519 -0.5172
  492MPD2    N1 7323   4.191   0.530  11.282 -0.3984 -0.1407  0.3253
  492MPD2    H7 7324   4.226   0.623  11.260  0.2821 -0.7515 -1.1881
  493TMC3    C1 7325   4.214   0.494  11.053  0.0133  0.4035  0.2904
  493TMC3    C2 7326   4.301   0.596  11.035 -0.0088  0.5525  0.1999
  493TMC3    C3 7327   4.358   0.609  10.908 -0.2711  0.8283  0.5525
  493TMC3    C4 7328   4.177   0.413  10.953 -0.1937  0.4713  0.4764
  493TMC3    C5 7329   4.244   0.427  10.833  0.0504 -0.6489 -0.7093
  493TMC3    C6 7330   4.322   0.529  10.803  0.1632 -0.0756 -0.2178
  493TMC3     C 7331   4.170   0.450  11.180  0.0936 -0.0275 -0.0305
  493TMC3     O 7332   4.110   0.342  11.185  0.5588  0.1139 -0.3087
  493TMC3     H 7333   4.337   0.667  11.109  0.5652 -2.9381  3.3206
  493TMC3    H1 7334   4.107   0.331  10.966 -1.7934  1.5321 -1.4038
  493TMC3    H2 7335   4.369   0.538  10.706  0.9635 -1.0174  0.0926
  493TMC3    C7 7336   4.220   0.320  10.738 -0.1639 -0.5225 -0.5074
  493TMC3    C8 7337   4.491   0.661  10.906 -0.2347  0.5251 -0.2501
  493TMC3    O1 7338   4.176   0.355  10.631  0.1184  0.3490 -0.0167
  493TMC3    O2 7339   4.548   0.673  11.014 -0.7624 -0.2024 -0.9575
  494TMC3    C1 7340   3.833   2.337   0.754 -0.5539  0.0386 -0.6249
  494TMC3    C2 7341   3.815   2.200   0.765  0.4442 -0.5669  0.1436
  494TMC3    C3 7342   3.843   2.122   0.658 -0.4477 -0.2130  0.3044
  494TMC3    C4 7343   3.861   2.395   0.636  0.3259  0.6726  0.8456
  494TMC3    C5 7344   3.868   2.310   0.525  0.0205  0.1170 -0.6093
  494TMC3    C6 7345   3.865   2.171   0.539  0.9341 -0.1476 -0.9241
  494TMC3     C 7346   3.799   2.416   0.867 -0.5013  0.5797 -0.6978
  494TMC3     O 7347   3.790   2.356   0.976 -0.5373 -0.2890  0.1222
  494TMC3     H 7348   3.800   2.153   0.861  0.7950  0.7203  0.8288
  494TMC3    H1 7349   3.894   2.498   0.633  2.9483 -0.1789 -0.2856
  494TMC3    H2 7350   3.893   2.105   0.457 -0.3360 -1.5662 -0.2148
  494TMC3    C7 7351   3.918   2.360   0.401 -0.7885 -0.1525 -0.2550
  494TMC3    C8 7352   3.862   1.976   0.689 -1.0037 -0.3171  0.1133
  494TMC3    O1 7353   3.975   2.275   0.325 -0.2607 -0.3309  0.0983
  494TMC3    O2 7354   3.865   1.933   0.805  0.1237  0.6020 -0.0397
  495TMC3    C1 7355   2.973   4.175  14.693 -0.1720  0.1320  0.9613
  495TMC3    C2 7356   2.888   4.236  14.601  0.3651 -0.2050 -0.2498
  495TMC3    C3 7357   2.787   4.313  14.655  0.3456 -0.6133  0.1850
  495TMC3    C4 7358   2.970   4.207  14.829 -0.2634  0.6433 -0.4056
  495TMC3    C5 7359   2.863   4.279  14.869 -0.4627 -0.0738 -0.5117
  495TMC3    C6 7360   2.770   4.335  14.786  0.5811 -0.4192  0.8799
  495TMC3     C 7361   2.972   4.034  14.664 -0.5695 -0.0317 -0.8697
  495TMC3     O 7362   2.866   3.991  14.626  0.2258 -0.3043  0.2807
  495TMC3     H 7363   2.899   4.213  14.496  0.6394 -1.8911  0.1478
  495TMC3    H1 7364   3.044   4.158  14.892  1.0519 -0.3860 -2.7273
  495TMC3    H2 7365   2.676   4.366  14.829  0.2859 -0.6255  0.3835
  495TMC3    C7 7366   2.815   4.219  14.996  0.1274  0.4125 -0.3297
  495TMC3    C8 7367   2.666   4.277  14.593  0.4698 -0.1600  0.6091
  495TMC3    O1 7368   2.904   4.202  15.078 -0.4617 -0.1440 -0.4807
  495TMC3    O2 7369   2.569   4.268  14.659 -0.6422  0.5675 -0.1513
  496MPD2     C 7370   0.017   3.565  15.201 -0.4710  0.1420  0.1490
  496MPD2    C1 7371   0.111   3.602  15.293  0.0012 -0.4915 -0.3782
  496MPD2    C2 7372   0.069   3.681  15.402  0.7757 -0.2435 -0.5397
  496MPD2    C3 7373   4.660   3.733  15.405  0.3378  0.2368 -1.1430
  496MPD2    C4 7374   4.579   3.713  15.299 -0.6779 -0.0685  0.1485
  496MPD2    C5 7375   4.614   3.622  15.206 -0.2569  0.1920  0.8601
  496MPD2     H 7376   0.142   3.703  15.479 -1.0759  1.4603  0.7083
  496MPD2    H1 7377   4.476   3.744  15.314  0.1827  2.3801  0.9617
  496MPD2    H2 7378   0.037   3.491  15.124 -0.2374  0.2298  0.1261
  496MPD2    H3 7379   4.536   3.586  15.139  0.4930 -0.8795  0.5523
  496MPD2     N 7380   4.620   3.813  15.508 -0.5800 -0.5665 -0.8247
  496MPD2    H5 7381   4.520   3.829  15.510 -0.2714  1.3834 -0.9111
  496MPD2    N1 7382   0.241   3.548  15.276  0.0033 -0.2465 -0.0593
  496MPD2    H7 7383   0.249   3.498  15.188  0.6598  0.2324 -0.2728
  497TMC3    C1 7384   4.609   3.941  15.710  0.3724 -0.2070  0.1570
  497TMC3    C2 7385   4.495   3.876  15.743 -0.4400  0.3010  0.5234
  497TMC3    C3 7386   4.464   3.881  15.881 -0.8644 -0.2605 -0.3427
  497TMC3    C4 7387   4.682   4.022  15.796 -0.4087  0.6076 -0.1013
  497TMC3    C5 7388   4.644   4.031  15.926  0.0826  0.5898 -0.2536
  497TMC3    C6 7389   4.529   3.967  15.968  0.2752 -0.3314 -0.2245
  497TMC3     C 7390   4.694   3.880  15.604 -0.6458 -0.4518 -0.3025
  497TMC3     O 7391   0.096   3.892  15.604  0.3689  0.0814  0.3042
  497TMC3     H 7392   4.437   3.838  15.660 -0.7191 -1.2166  1.4173
  497TMC3    H1 7393   0.058   4.061  15.766  0.3379 -1.5572 -0.4696
  497TMC3    H2 7394   4.494   3.979  16.070  1.2672  0.9911 -0.0480
  497TMC3    C7 7395   0.010   4.107  16.019 -0.2261  0.1298 -0.4533
  497TMC3    C8 7396   4.335   3.837  15.913 -0.2415 -0.1954 -0.3108
  497TMC3    O1 7397   0.065   4.203  15.966 -0.0838 -0.4234  0.2891
  497TMC3    O2 7398   4.258   3.895  15.987 -0.3983 -0.9572  0.4813
  498MPD2     C 7399   1.633   3.402   8.890  0.1785  0.0383  0.7232
  498MPD2    C1 7400   1.642   3.385   9.026  0.5712  0.1678 -0.4151
  498MPD2    C2 7401   1.522   3.392   9.093  0.1948 -0.3984 -0.5112
  498MPD2    C3 7402   1.402   3.436   9.038 -0.1366  0.6554  0.2122
  498MPD2    C4 7403   1.402   3.457   8.905  0.7026  0.3955  0.6102
  498MPD2    C5 7404   1.519   3.445   8.834 -0.0231 -0.4081  0.0084
  498MPD2     H 7405   1.529   3.381   9.201 -0.6373  1.1919 -0.2953
  498MPD2    H1 7406   1.313   3.484   8.850  0.4386 -1.9425 -0.1055
  498MPD2    H2 7407   1.716   3.381   8.825 -0.3754  0.2072 -0.0399
  498MPD2    H3 7408   1.508   3.451   8.727  1.2404 -1.6868 -0.1896
  498MPD2     N 7409   1.292   3.474   9.120 -0.0877  0.0093 -0.0863
  498MPD2    H5 7410   1.300   3.436   9.213  2.3543 -0.5113 -0.5033
  498MPD2    N1 7411   1.770   3.369   9.089 -0.2183 -0.6164  0.0505
  498MPD2    H7 7412   1.770   3.350   9.189 -0.5799  2.9338  0.7387
  499TMC3    C1 7413   2.000   3.365   9.122 -0.2125 -0.0984  0.1801
  499TMC3    C2 7414   2.018   3.247   9.184  0.1549 -1.1293 -0.0041
  499TMC3    C3 7415   2.132   3.222   9.258  0.4248 -0.4434 -0.1368
  499TMC3    C4 7416   2.102   3.452   9.119 -0.1998  0.6721  0.2171
  499TMC3    C5 7417   2.213   3.428   9.195 -0.1641 -1.0265  0.6456
  499TMC3    C6 7418   2.234   3.311   9.263  0.1246 -0.4357 -0.4650
  499TMC3     C 7419   1.895   3.372   9.027  0.0173 -0.7003 -0.0743
  499TMC3     O 7420   1.923   3.421   8.915 -0.3725  0.1609  0.2003
  499TMC3     H 7421   1.934   3.179   9.176  0.1517 -1.2316  0.9157
  499TMC3    H1 7422   2.096   3.539   9.053 -1.2533  1.4910  1.4022
  499TMC3    H2 7423   2.329   3.286   9.310 -2.0518 -0.6977  3.8383
  499TMC3    C7 7424   2.276   3.559   9.235  0.2514  0.3156  0.9481
  499TMC3    C8 7425   2.149   3.097   9.319  0.4921 -0.8898 -0.0920
  499TMC3    O1 7426   2.217   3.658   9.203 -0.5469 -0.1044 -0.3175
  499TMC3    O2 7427   2.256   3.074   9.376 -0.4175 -0.6113  0.2893
  500MPD2     C 7428   2.834   1.510   9.945  0.1105 -0.2462 -0.2363
  500MPD2    C1 7429   2.926   1.414   9.910 -0.5895 -0.2200  0.3570
  500MPD2    C2 7430   2.878   1.295   9.862 -0.1867 -0.0747  0.1896
  500MPD2    C3 7431   2.738   1.267   9.843 -0.7258  0.3937  0.0507
  500MPD2    C4 7432   2.649   1.367   9.869  0.1591 -0.0238  0.0840
  500MPD2    C5 7433   2.698   1.482   9.925 -0.3573 -0.1062  0.1048
  500MPD2     H 7434   2.951   1.216   9.848  1.1840  1.1013  0.7449
  500MPD2    H1 7435   2.547   1.342   9.843  0.3612 -0.1749 -0.5694
  500MPD2    H2 7436   2.867   1.602   9.991  2.4099 -0.0701 -2.2477
  500MPD2    H3 7437   2.629   1.560   9.956 -2.1811 -1.4347 -0.5797
  500MPD2     N 7438   2.684   1.141   9.799  0.2559 -0.6202 -0.0247
  500MPD2    H5 7439   2.590   1.123   9.833  0.8328 -0.1627  1.8424
  500MPD2    N1 7440   3.065   1.429   9.934 -0.2931  0.0113  0.6030
  500MPD2    H7 7441   3.128   1.358   9.898 -1.8128 -1.1946  0.2774
  501TMC3    C1 7442   3.264   1.554   9.970 -0.5286 -0.7180 -0.2656
  501TMC3    C2 7443   3.324   1.669   9.934 -0.6168 -0.0055 -0.0444
  501TMC3    C3 7444   3.457   1.685   9.950 -0.2940  0.7896 -0.0711
  501TMC3    C4 7445   3.339   1.453  10.033  0.3522 -0.0871 -0.6873
  501TMC3    C5 7446   3.472   1.472  10.047  0.5867 -0.8230 -0.4644
  501TMC3    C6 7447   3.532   1.585  10.003  0.2741  0.7993 -0.6803
  501TMC3     C 7448   3.123   1.553   9.957 -0.0475  0.4708  1.1643
  501TMC3     O 7449   3.068   1.661   9.972  0.5168 -0.0001  0.1131
  501TMC3     H 7450   3.263   1.742   9.881  1.4377  0.8692 -1.2081
  501TMC3    H1 7451   3.296   1.370  10.088  0.1460  0.3851 -0.1239
  501TMC3    H2 7452   3.639   1.594  10.015 -0.1803  2.8587  1.9400
  501TMC3    C7 7453   3.536   1.421  10.168 -0.2491 -0.1011  0.3101
  501TMC3    C8 7454   3.504   1.809  10.003  0.1595  0.0148 -0.7689
  501TMC3    O1 7455   3.506   1.313  10.213 -0.2146 -0.0302  0.4363
  501TMC3    O2 7456   3.559   1.804  10.108  0.5337 -0.6998  0.2671
  502TMC3    C1 7457   2.261   0.253  14.994  0.3811  0.1903 -0.4200
  502TMC3    C2 7458   2.249   0.388  15.008  0.1657  0.4123  0.5523
  502TMC3    C3 7459   2.124   0.436  15.037  0.8533  1.0943  0.0975
  502TMC3    C4 7460   2.157   0.168  15.002  0.1864  0.2539 -0.2542
  502TMC3    C5 7461   2.033   0.216  15.037  0.8658 -0.3066 -0.0082
  502TMC3    C6 7462   2.017   0.350  15.054 -0.2099 -0.2423 -0.2265
  502TMC3     C 7463   2.382   0.201  15.066  0.0019 -0.3985 -0.1669
  502TMC3     O 7464   2.483   0.252  15.038 -0.2592  0.1399 -0.0073
  502TMC3     H 7465   2.335   0.452  14.994  1.7889 -2.0530 -0.8549
  502TMC3    H1 7466   2.156   0.060  15.000 -1.2845  0.2776 -0.6207
  502TMC3    H2 7467   1.921   0.388  15.088  0.3832  1.3897 -0.3588
  502TMC3    C7 7468   1.968   0.135  15.134  0.5038 -0.3742  0.4991
  502TMC3    C8 7469   2.110   0.578  15.021 -0.5686 -0.3269  0.0232
  502TMC3    O1 7470   2.038   0.043  15.179 -0.1426 -0.4155  0.2498
  502TMC3    O2 7471   2.193   0.630  14.946  0.1592  0.0428 -0.1526
  503MPD2     C 7472   4.432   0.712  17.241  0.4118 -0.4625  0.3952
  503MPD2    C1 7473   4.494   0.764  17.350 -0.0099 -0.6685 -0.0404
  503MPD2    C2 7474   4.588   0.684  17.412  0.6320 -0.0017 -0.3950
  503MPD2    C3 7475   4.616   0.553  17.372 -0.4573  0.3713 -0.7386
  503MPD2    C4 7476   4.552   0.510  17.256  0.2979  0.0868 -0.2666
  503MPD2    C5 7477   4.461   0.584  17.196  0.2743  0.1518  0.0584
  503MPD2     H 7478   4.641   0.714  17.501  0.3213  2.2054 -0.9544
  503MPD2    H1 7479   4.577   0.415  17.210 -0.9657 -1.6414  2.6404
  503MPD2    H2 7480   4.363   0.763  17.175 -1.5320 -0.7190  2.2411
  503MPD2    H3 7481   4.416   0.541  17.107 -0.2717 -1.6242  1.1956
  503MPD2     N 7482   4.705   0.474  17.448  0.3361  0.1375  0.1970
  503MPD2    H5 7483   0.030   0.513  17.531  0.2953  2.3115 -0.7907
  503MPD2    N1 7484   4.474   0.901  17.387 -0.4374  0.1882 -0.1774
  503MPD2    H7 7485   4.527   0.928  17.469 -0.7909  4.4181 -1.3635
  504TMC3    C1 7486   0.151   0.316  17.494  0.2454  0.6554  0.4501
  504TMC3    C2 7487   0.111   0.256  17.612 -0.3783  0.3476 -0.1946
  504TMC3    C3 7488   0.164   0.145  17.662 -0.4055  0.5469 -0.3446
  504TMC3    C4 7489   0.250   0.250  17.420 -0.1356 -0.2068 -0.4662
  504TMC3    C5 7490   0.307   0.136  17.473 -0.6037 -0.3200 -0.0784
  504TMC3    C6 7491   0.254   0.076  17.584  0.4238  0.0393  0.7574
  504TMC3     C 7492   0.043   0.354  17.406 -0.2258  0.9404 -0.3929
  504TMC3     O 7493   0.023   0.293  17.299  0.7065 -0.1367 -0.4528
  504TMC3     H 7494   0.024   0.300  17.659  0.2635  1.4558 -0.0463
  504TMC3    H1 7495   0.259   0.281  17.317 -0.6466  1.2831 -0.0719
  504TMC3    H2 7496   0.276   4.692  17.603 -0.4619  0.1804  2.5888
  504TMC3    C7 7497   0.387   0.065  17.379  1.0620  0.0343 -0.2664
  504TMC3    C8 7498   0.070   0.072   0.058  0.0396  0.1721  0.5938
  504TMC3    O1 7499   0.451   0.129  17.291 -0.2063 -0.1033 -0.0957
  504TMC3    O2 7500   4.668   0.073   0.037 -0.4821 -0.4681  0.0480
  505MPD2     C 7501   0.444   2.950   9.820 -0.1253  0.0680 -0.3687
  505MPD2    C1 7502   0.409   3.077   9.874  0.5077  0.8734  0.3772
  505MPD2    C2 7503   0.329   3.163   9.798 -0.2700 -0.1548 -0.4787
  505MPD2    C3 7504   0.282   3.124   9.675 -0.4768 -0.2673 -0.6889
  505MPD2    C4 7505   0.303   2.993   9.636  0.0578  0.0711  0.4090
  505MPD2    C5 7506   0.388   2.911   9.701 -0.2170 -0.3940 -0.3452
  505MPD2     H 7507   0.318   3.265   9.832  1.6555  0.3462 -1.3586
  505MPD2    H1 7508   0.255   2.950   9.549 -2.2248  1.1820  1.0999
  505MPD2    H2 7509   0.513   2.885   9.871  0.1104  1.4880  1.0968
  505MPD2    H3 7510   0.398   2.809   9.665 -0.6567 -0.7760  0.6325
  505MPD2     N 7511   0.187   3.197   9.588 -0.0100 -0.0576 -0.2011
  505MPD2    H5 7512   0.152   3.165   9.499 -1.1526 -0.0236  0.2360
  505MPD2    N1 7513   0.460   3.116   9.998  0.9332 -0.7106  0.7149
  505MPD2    H7 7514   0.538   3.072  10.046 -0.5926 -2.7659  1.2735
  506TMC3    C1 7515   0.481   3.270  10.180 -0.2333 -0.0996  0.3048
  506TMC3    C2 7516   0.606   3.312  10.155  0.0058 -0.1295  0.0174
  506TMC3    C3 7517   0.656   3.418  10.220  0.4393 -0.5646 -0.1791
  506TMC3    C4 7518   0.400   3.344  10.263  0.2084  0.1336  0.2276
  506TMC3    C5 7519   0.443   3.461  10.309 -0.4175  0.1029 -0.3072
  506TMC3    C6 7520   0.574   3.498  10.293  0.5261  0.3421 -0.1327
  506TMC3     C 7521   0.405   3.213  10.071  0.2234  0.7168 -0.5242
  506TMC3     O 7522   0.297   3.269  10.052 -0.1306  0.5054 -0.6284
  506TMC3     H 7523   0.681   3.249  10.108  0.7954 -0.1108  1.2384
  506TMC3    H1 7524   0.298   3.313  10.281  0.7933 -0.8017  1.9136
  506TMC3    H2 7525   0.601   3.602  10.312 -3.7875  1.3204  0.5995
  506TMC3    C7 7526   0.359   3.573  10.284 -0.7496 -0.3441 -0.1358
  506TMC3    C8 7527   0.771   3.483  10.166  1.1497  0.9325 -0.5135
  506TMC3    O1 7528   0.387   3.670  10.348  0.2276  0.1047  0.2717
  506TMC3    O2 7529   0.814   3.569  10.236 -0.1610  0.0127  0.1048
  507TMC3    C1 7530   0.692   0.183  14.868  0.0869  0.0380  0.1166
  507TMC3    C2 7531   0.700   0.125  14.744 -0.6039 -0.5953 -0.2359
  507TMC3    C3 7532   0.814   0.151  14.670  0.5984 -0.4566 -0.1015
  507TMC3    C4 7533   0.797   0.262  14.927 -0.1219 -0.6614  0.9047
  507TMC3    C5 7534   0.905   0.286  14.851 -0.5036 -0.3103 -0.2972
  507TMC3    C6 7535   0.915   0.223  14.728  0.8267 -0.0060 -0.0094
  507TMC3     C 7536   0.561   0.196  14.929  0.3738  0.7821  0.3886
  507TMC3     O 7537   0.553   0.225  15.046  0.0288 -0.0404 -1.1115
  507TMC3     H 7538   0.631   0.052  14.704 -2.7730  0.5826  1.3503
  507TMC3    H1 7539   0.777   0.309  15.023  1.0115  0.4905  0.5579
  507TMC3    H2 7540   1.007   0.251  14.678  0.0919  1.1551 -0.7320
  507TMC3    C7 7541   0.944   0.424  14.831 -0.5219 -0.8762  0.7468
  507TMC3    C8 7542   0.794   0.181  14.528 -0.1569 -0.3564 -0.1166
  507TMC3    O1 7543   0.951   0.462  14.713  0.0444 -0.5223 -0.1215
  507TMC3    O2 7544   0.734   0.103  14.462 -0.0024  0.4725  0.4946
  508MPD2     C 7545   1.604   3.192  16.957  0.0893 -0.2527  0.1134
  508MPD2    C1 7546   1.729   3.195  16.895  0.1935  0.2635 -0.3244
  508MPD2    C2 7547   1.738   3.217  16.758  0.3725 -0.4320  0.4942
  508MPD2    C3 7548   1.622   3.232  16.684 -1.0838  0.0634 -0.3448
  508MPD2    C4 7549   1.499   3.215  16.745 -0.1725 -0.5376  0.0458
  508MPD2    C5 7550   1.493   3.204  16.879  0.3002 -0.1644 -0.0622
  508MPD2     H 7551   1.834   3.227  16.708 -0.4661  1.8555 -0.6255
  508MPD2    H1 7552   1.408   3.205  16.688  1.2185 -0.3709 -2.1945
  508MPD2    H2 7553   1.597   3.182  17.064 -2.3309  2.1811  0.1712
  508MPD2    H3 7554   1.394   3.198  16.923 -0.5349  3.6894 -1.4257
  508MPD2     N 7555   1.628   3.276  16.543 -0.1560  0.6195 -0.5165
  508MPD2    H5 7556   1.722   3.277  16.505 -0.6018  0.9573 -1.6056
  508MPD2    N1 7557   1.835   3.195  16.993  0.1568 -0.6756 -0.0020
  508MPD2    H7 7558   1.809   3.171  17.088 -1.3902 -1.7228 -0.6801
  509TMC3    C1 7559   1.457   3.542  16.202  0.1025  0.4225  0.3852
  509TMC3    C2 7560   1.571   3.527  16.126  0.4999  0.5516 -0.4850
  509TMC3    C3 7561   1.676   3.443  16.162 -0.6413 -1.0286  0.6766
  509TMC3    C4 7562   1.461   3.486  16.319 -0.2801 -0.2091  0.0965
  509TMC3    C5 7563   1.569   3.411  16.361 -0.2527  0.6545 -0.6990
  509TMC3    C6 7564   1.676   3.381  16.285 -0.4452 -0.7202  0.9974
  509TMC3     C 7565   1.346   3.616  16.161  0.2919 -0.3095  0.0522
  509TMC3     O 7566   1.273   3.667  16.242 -0.0814  0.3357 -0.0948
  509TMC3     H 7567   1.578   3.573  16.028  1.0220 -1.7772 -1.5503
  509TMC3    H1 7568   1.382   3.516  16.387 -2.1142  0.2842 -2.3006
  509TMC3    H2 7569   1.752   3.312  16.319  0.1047 -1.1295 -1.0782
  509TMC3    C7 7570   1.520   3.327  16.474 -0.3908  0.6346 -0.6063
  509TMC3    C8 7571   1.780   3.412  16.062  0.0323 -0.2178  0.4203
  509TMC3    O1 7572   1.400   3.331  16.511 -0.9874 -0.2260  0.2702
  509TMC3    O2 7573   1.858   3.316  16.080  0.9130 -0.6304 -0.2557
  510MPD2     C 7574   4.268   4.689  14.390  0.1428 -0.3777 -0.3529
  510MPD2    C1 7575   4.343   4.610  14.475 -0.1766  0.0132 -0.1942
  510MPD2    C2 7576   4.472   4.577  14.427 -0.8468  0.1129 -0.1001
  510MPD2    C3 7577   4.529   4.608  14.301  0.3629  0.3094 -0.1254
  510MPD2    C4 7578   4.449   4.688  14.220  0.3251  0.0501  0.6865
  510MPD2    C5 7579   4.325   0.005  14.265  0.2578 -0.1924 -0.2289
  510MPD2     H 7580   4.538   4.521  14.493  0.0777 -0.4599 -1.4984
  510MPD2    H1 7581   4.473   4.710  14.116  0.5810 -0.1359  0.7045
  510MPD2    H2 7582   4.162   4.704  14.408  0.4655  0.6247  0.7526
  510MPD2    H3 7583   4.261   0.066  14.202 -0.2038 -0.8033 -0.3468
  510MPD2     N 7584   4.663   4.563  14.277  0.5509  0.0933  0.1708
  510MPD2    H5 7585   4.710   4.497  14.338 -0.9709  1.4504  2.8587
  510MPD2    N1 7586   4.293   4.567  14.596 -0.1210 -0.1674 -0.0355
  510MPD2    H7 7587   4.195   4.587  14.611 -0.0920  1.4760 -1.9999
  511TMC3    C1 7588   4.263   4.440  14.792 -0.2186  0.9863  0.0528
  511TMC3    C2 7589   4.149   4.509  14.833  0.2827 -0.0656 -0.4124
  511TMC3    C3 7590   4.055   4.440  14.906 -0.6783 -1.0468 -0.0350
  511TMC3    C4 7591   4.279   4.304  14.834 -0.7460 -0.1401 -0.5123
  511TMC3    C5 7592   4.182   4.237  14.904  0.2106  0.2856 -0.2746
  511TMC3    C6 7593   4.064   4.305  14.941  0.8841  0.7164  0.8034
  511TMC3     C 7594   4.360   4.485  14.685 -0.6044 -0.0500 -0.3108
  511TMC3     O 7595   4.473   4.436  14.689  0.7434  0.5569  0.7719
  511TMC3     H 7596   4.129   4.615  14.823  0.1964 -0.1651 -1.2884
  511TMC3    H1 7597   4.363   4.247  14.797 -0.8974 -0.3943 -0.4670
  511TMC3    H2 7598   3.978   4.249  14.976 -0.2937  1.4959 -0.8508
  511TMC3    C7 7599   4.172   4.096  14.866  0.5773  0.7523 -0.8818
  511TMC3    C8 7600   3.940   4.512  14.978  0.2066 -0.2972  0.2923
  511TMC3    O1 7601   4.222   4.071  14.757 -0.1373  0.2004 -0.2414
  511TMC3    O2 7602   3.943   4.634  14.972  0.4207 -0.7067 -0.2172
  512TMC3    C1 7603   3.778   3.667  13.599 -0.7398  0.2775  0.1191
  512TMC3    C2 7604   3.754   3.762  13.700 -0.6451 -0.1800 -0.1471
  512TMC3    C3 7605   3.786   3.726  13.830  0.4260  0.3916 -0.2220
  512TMC3    C4 7606   3.835   3.547  13.623  0.1855 -0.1755  0.3229
  512TMC3    C5 7607   3.875   3.518  13.751  0.4222  0.0109  0.1202
  512TMC3    C6 7608   3.846   3.608  13.854  0.0703 -0.0825  0.2482
  512TMC3     C 7609   3.741   3.706  13.469  0.2495 -0.3662 -0.0319
  512TMC3     O 7610   3.761   3.818  13.431 -0.0064 -0.3972 -0.2496
  512TMC3     H 7611   3.709   3.858  13.677 -0.0436 -0.2261 -1.5017
  512TMC3    H1 7612   3.838   3.468  13.548  1.2195  0.0589  0.1309
  512TMC3    H2 7613   3.874   3.587  13.957 -0.1777  1.5280  0.6518
  512TMC3    C7 7614   3.904   3.376  13.778 -0.3613 -0.0027  0.4482
  512TMC3    C8 7615   3.719   3.798  13.933  0.0904 -0.2879 -0.4533
  512TMC3    O1 7616   3.915   3.308  13.674 -0.0880 -0.1772  0.8299
  512TMC3    O2 7617   3.688   3.739  14.035  0.2099 -0.1012  0.1246
  513MPD2     C 7618   4.512   4.355  13.158  0.0382 -0.2315 -0.0754
  513MPD2    C1 7619   4.568   4.247  13.092 -0.3630 -1.1382 -0.3419
  513MPD2    C2 7620   4.585   4.133  13.172  0.3008  0.8851  0.5321
  513MPD2    C3 7621   4.563   4.121  13.311  0.1929 -0.5665  0.0440
  513MPD2    C4 7622   4.511   4.233  13.370 -0.4919  0.3994  0.1814
  513MPD2    C5 7623   4.488   4.344  13.291 -0.2699  0.3213 -0.0326
  513MPD2     H 7624   4.636   4.052  13.121 -1.0634 -0.1204  0.7684
  513MPD2    H1 7625   4.479   4.259  13.470 -0.5353 -2.0732  0.8113
  513MPD2    H2 7626   4.494   4.451  13.111  1.6166  0.5668  0.9396
  513MPD2    H3 7627   4.438   4.427  13.339  0.2720  0.6563 -0.0432
  513MPD2     N 7628   4.596   4.002  13.377  0.2347  0.1200 -0.2260
  513MPD2    H5 7629   4.650   3.943  13.314  1.8879  2.6211 -1.2068
  513MPD2    N1 7630   4.571   4.245  12.950  0.1724 -0.0087 -0.1420
  513MPD2    H7 7631   4.565   4.334  12.901 -1.4172 -1.8315 -3.2719
  514TMC3    C1 7632   4.615   4.138  12.734 -0.5034  0.5826 -0.4136
  514TMC3    C2 7633   4.674   4.247  12.685  0.7005  0.2706 -0.1216
  514TMC3    C3 7634   0.037   4.225  12.578  0.5352  0.0836 -0.0773
  514TMC3    C4 7635   4.615   4.011  12.674  0.2912 -0.2449  0.2485
  514TMC3    C5 7636   4.720   3.992  12.587  0.7459 -0.6030  0.0153
  514TMC3    C6 7637   0.076   4.098  12.539  0.5253  0.0678 -0.6571
  514TMC3     C 7638   4.576   4.126  12.877 -0.1624  0.0600 -0.3910
  514TMC3     O 7639   4.576   4.008  12.916 -0.5232  0.0184 -0.3968
  514TMC3     H 7640   4.655   4.345  12.726  0.3918  1.2812 -2.6953
  514TMC3    H1 7641   4.548   3.933  12.709  1.4574 -0.8357  1.1257
  514TMC3    H2 7642   0.163   4.075  12.478  0.0751 -0.4359 -1.1024
  514TMC3    C7 7643   0.076   3.875  12.611 -0.4458 -0.2765  0.0824
  514TMC3    C8 7644   0.133   4.337  12.539 -0.3488 -0.1032 -0.6134
  514TMC3    O1 7645   0.172   3.852  12.538 -0.5568  0.2634 -0.5045
  514TMC3    O2 7646   0.154   4.434  12.613 -0.0955 -0.7602 -0.4321
  515MPD2     C 7647   3.394   1.044  14.502 -0.0823  0.3376 -0.3848
  515MPD2    C1 7648   3.391   0.920  14.562  0.3135 -0.9840  0.0021
  515MPD2    C2 7649   3.477   0.911  14.674  0.2709 -0.7681 -1.1812
  515MPD2    C3 7650   3.557   1.020  14.716 -0.6689 -0.2322  0.6369
  515MPD2    C4 7651   3.556   1.134  14.649  0.5300  0.4929  0.3093
  515MPD2    C5 7652   3.477   1.147  14.540  0.1653 -0.3009  0.2206
  515MPD2     H 7653   3.482   0.830  14.747 -0.4276 -0.4263 -0.7561
  515MPD2    H1 7654   3.620   1.219  14.673 -2.5258  2.4644  1.5234
  515MPD2    H2 7655   3.333   1.071  14.416  0.5892  1.3095 -0.5680
  515MPD2    H3 7656   3.491   1.234  14.477  1.5474 -2.3096 -2.2202
  515MPD2     N 7657   3.651   1.020  14.819  0.0938  0.3785 -0.1178
  515MPD2    H5 7658   3.690   1.113  14.833  0.9041  0.3512 -2.2094
  515MPD2    N1 7659   3.285   0.830  14.530  0.1666 -0.1337 -0.3442
  515MPD2    H7 7660   3.226   0.864  14.455  1.0022 -1.6532 -1.6873
  516TMC3    C1 7661   3.134   0.641  14.544 -0.4952 -0.1579 -0.0781
  516TMC3    C2 7662   3.018   0.710  14.512 -0.3478 -0.0246  0.5393
  516TMC3    C3 7663   2.907   0.635  14.490  0.3621 -0.4091 -0.6488
  516TMC3    C4 7664   3.136   0.506  14.559 -0.3158 -0.0297 -0.5548
  516TMC3    C5 7665   3.019   0.442  14.543  0.3174  0.3768  0.8380
  516TMC3    C6 7666   2.902   0.508  14.506 -0.4726  0.1048 -0.0309
  516TMC3     C 7667   3.250   0.710  14.597  0.4013  0.2497 -0.0383
  516TMC3     O 7668   3.315   0.660  14.691  0.3517 -0.4511  0.5009
  516TMC3     H 7669   3.018   0.817  14.528 -1.7604 -0.1439  1.2742
  516TMC3    H1 7670   3.225   0.456  14.593 -0.3584  0.2281 -0.0625
  516TMC3    H2 7671   2.808   0.454  14.502 -0.2474 -0.1949 -1.2062
  516TMC3    C7 7672   3.005   0.315  14.620 -0.1958  0.6496  0.3325
  516TMC3    C8 7673   2.778   0.694  14.439  0.0484  0.9399  1.2778
  516TMC3    O1 7674   3.083   0.288  14.709  0.3152 -0.4327 -0.0533
  516TMC3    O2 7675   2.676   0.633  14.469 -0.1115  0.2645 -0.7352
  517MPD2     C 7676   3.505   1.955   0.663  0.4450 -0.0706  0.4162
  517MPD2    C1 7677   3.488   2.060   0.570  0.4876  0.1401 -0.5863
  517MPD2    C2 7678   3.486   2.190   0.621  0.5827  0.6144  0.1928
  517MPD2    C3 7679   3.475   2.203   0.763 -0.7434 -0.0575  0.0851
  517MPD2    C4 7680   3.483   2.093   0.849 -0.4463 -0.4751 -0.6189
  517MPD2    C5 7681   3.510   1.971   0.800 -0.4885  0.2534  0.1615
  517MPD2     H 7682   3.481   2.278   0.559 -0.6230  1.0103  0.8590
  517MPD2    H1 7683   3.467   2.106   0.956  0.1653  0.2076 -0.6051
  517MPD2    H2 7684   3.514   1.852   0.630  2.6035  0.3922 -0.4120
  517MPD2    H3 7685   3.520   1.886   0.865 -1.7339 -1.8522 -2.3802
  517MPD2     N 7686   3.459   2.330   0.822 -0.6697  0.1277 -0.3723
  517MPD2    H5 7687   3.461   2.331   0.923 -1.3898 -0.0981 -0.3531
  517MPD2    N1 7688   3.490   2.037   0.428  0.6714  0.0746 -0.2717
  517MPD2    H7 7689   3.491   2.120   0.369 -0.9439  0.7067  0.5812
  518TMC3    C1 7690   3.456   1.921   0.222 -0.0956  0.2758  0.2165
  518TMC3    C2 7691   3.366   1.836   0.159 -1.1757  0.0074  0.3626
  518TMC3    C3 7692   3.394   1.795   0.029  0.1792  0.5688  0.2882
  518TMC3    C4 7693   3.565   1.961   0.157  0.3323 -0.3879 -0.3398
  518TMC3    C5 7694   3.588   1.914   0.023  1.0241 -0.7079  0.6879
  518TMC3    C6 7695   3.507   1.832  17.641 -0.1157  0.2458  0.1572
  518TMC3     C 7696   3.461   1.914   0.369  0.3391 -0.4393 -0.5019
  518TMC3     O 7697   3.433   1.807   0.413 -0.4741  0.4435 -0.0376
  518TMC3     H 7698   3.282   1.792   0.212 -0.5434 -1.1201  0.4284
  518TMC3    H1 7699   3.642   2.007   0.218  2.3965 -1.6887 -1.9484
  518TMC3    H2 7700   3.522   1.788  17.543 -0.7225 -0.1428  0.2412
  518TMC3    C7 7701   3.722   1.928  17.654 -0.2405  0.2232  0.8248
  518TMC3    C8 7702   3.304   1.695  17.643  0.5170  0.5033 -0.9166
  518TMC3    O1 7703   3.789   2.025   0.015 -0.4625 -0.1367  0.2276
  518TMC3    O2 7704   3.349   1.617  17.556  0.2127  0.3128 -0.7776
  519MPD2     C 7705   4.372   0.723  14.639  0.0042  0.2761 -0.0781
  519MPD2    C1 7706   4.360   0.748  14.502  0.2422 -0.6074  0.9521
  519MPD2    C2 7707   4.479   0.726  14.430  0.3770  0.3372  0.0858
  519MPD2    C3 7708   4.606   0.683  14.484  0.5506  0.0068  0.1105
  519MPD2    C4 7709   4.615   0.666  14.618  0.0970 -0.3992 -0.3460
  519MPD2    C5 7710   4.496   0.685  14.689 -0.3703  0.0530  0.5944
  519MPD2     H 7711   4.469   0.733  14.322 -1.0049 -2.0883  0.0526
  519MPD2    H1 7712   4.705   0.630  14.667  1.0449  1.4870 -0.6844
  519MPD2    H2 7713   4.291   0.738  14.709 -0.4755  0.4905 -0.6805
  519MPD2    H3 7714   4.504   0.672  14.797  1.3886 -1.1637  0.3069
  519MPD2     N 7715   4.718   0.673  14.399  0.0635 -0.6139  0.0617
  519MPD2    H5 7716   0.081   0.637  14.445 -0.2755 -1.1554  0.2471
  519MPD2    N1 7717   4.244   0.800  14.439  1.0259 -0.1805 -0.1917
  519MPD2    H7 7718   4.158   0.783  14.490  0.2049 -0.9066 -1.8452
  520TMC3    C1 7719   0.124   0.654  14.198 -0.5873  0.0977  0.0356
  520TMC3    C2 7720   0.140   0.707  14.075  0.2481  0.4854 -0.1295
  520TMC3    C3 7721   0.247   0.669  13.998  0.4124  0.2035  0.1872
  520TMC3    C4 7722   0.201   0.549  14.241  0.1047  0.0027  0.5943
  520TMC3    C5 7723   0.297   0.502  14.160 -1.5113 -0.3704 -0.0281
  520TMC3    C6 7724   0.324   0.563  14.042  1.0290 -0.2510  0.0829
  520TMC3     C 7725   0.005   0.702  14.264 -0.4253 -0.1654 -0.6011
  520TMC3     O 7726   4.643   0.767  14.200 -0.7438  0.5041 -0.3681
  520TMC3     H 7727   0.079   0.787  14.037 -2.1888 -2.2345 -1.9999
  520TMC3    H1 7728   0.173   0.495  14.330  1.3727  0.2201  1.1268
  520TMC3    H2 7729   0.414   0.540  13.985  1.2342 -0.1619  0.3674
  520TMC3    C7 7730   0.359   0.372  14.177 -0.6548  0.1926 -0.7267
  520TMC3    C8 7731   0.233   0.688  13.857 -1.0145 -0.0647  0.7735
  520TMC3    O1 7732   0.345   0.323  14.286 -0.3294  0.6180  0.3162
  520TMC3    O2 7733   0.333   0.705  13.787  0.0835  0.3139 -0.4154
  521MPD2     C 7734   0.586   3.528  17.650 -0.5058 -0.2711 -0.0988
  521MPD2    C1 7735   0.528   3.427  17.580 -0.1661  0.1765 -0.4191
  521MPD2    C2 7736   0.607   3.341  17.498  0.6505 -0.7639 -0.3823
  521MPD2    C3 7737   0.743   3.350  17.497 -0.1032 -0.5201 -0.4658
  521MPD2    C4 7738   0.806   3.452  17.578  0.2614 -0.1282 -0.7332
  521MPD2    C5 7739   0.721   3.543  17.640  0.1455  0.3991 -0.4264
  521MPD2     H 7740   0.556   3.269  17.435 -1.1622  0.1156  0.0879
  521MPD2    H1 7741   0.911   3.476  17.576 -0.1059  1.4929 -0.6970
  521MPD2    H2 7742   0.530   3.602   0.023 -0.2188  1.1001 -1.6543
  521MPD2    H3 7743   0.773   3.620   0.011  1.2429 -1.6265  1.4218
  521MPD2     N 7744   0.816   3.261  17.414  0.0313  0.2828 -0.0090
  521MPD2    H5 7745   0.760   3.195  17.361  0.9470  0.0466 -0.6916
  521MPD2    N1 7746   0.389   3.422  17.558 -0.0422 -0.1617 -0.3086
  521MPD2    H7 7747   0.337   3.500  17.596 -0.4009  0.1882 -1.5028
  522TMC3    C1 7748   0.982   3.163  17.295 -0.4647 -0.0950  0.4671
  522TMC3    C2 7749   1.084   3.080  17.327 -0.6601  0.8110 -0.5537
  522TMC3    C3 7750   1.075   2.949  17.281 -0.0459  0.0762  0.1325
  522TMC3    C4 7751   0.875   3.128  17.215 -0.0654  0.5515 -0.0181
  522TMC3    C5 7752   0.868   2.996  17.172 -0.1776  0.1329 -0.7569
  522TMC3    C6 7753   0.966   2.907  17.213 -0.9036 -0.7062  0.0850
  522TMC3     C 7754   0.949   3.259  17.398 -0.6034  0.2923 -0.1694
  522TMC3     O 7755   1.037   3.296  17.474 -0.6798  0.2955 -0.1586
  522TMC3     H 7756   1.158   3.101  17.403  0.1493  0.7136 -1.3181
  522TMC3    H1 7757   0.793   3.197  17.197  0.2602  0.4609 -1.7801
  522TMC3    H2 7758   0.946   2.805  17.183  1.1951 -0.2628 -2.8462
  522TMC3    C7 7759   0.740   2.944  17.150  0.4707  0.4353 -0.8193
  522TMC3    C8 7760   1.176   2.852  17.317 -0.6116 -0.2703 -0.2770
  522TMC3    O1 7761   0.705   2.847  17.210 -0.3132  0.0545 -0.0347
  522TMC3    O2 7762   1.141   2.735  17.327 -0.4507  0.3955 -0.2374
  523MPD2     C 7763   3.879   3.180   9.928  0.5917 -0.1262 -0.2728
  523MPD2    C1 7764   3.863   3.096   9.818  0.0277 -0.1168  0.7490
  523MPD2    C2 7765   3.886   3.145   9.688 -0.0786 -0.5430 -0.3470
  523MPD2    C3 7766   3.943   3.274   9.676  0.1031  0.9576  0.1681
  523MPD2    C4 7767   3.957   3.347   9.791 -0.2374  0.1384 -0.5632
  523MPD2    C5 7768   3.924   3.306   9.916 -0.6104  0.1408  0.4027
  523MPD2     H 7769   3.863   3.080   9.604  0.1227 -0.0388 -0.7883
  523MPD2    H1 7770   3.979   3.453   9.788 -0.8091  0.2713 -0.2025
  523MPD2    H2 7771   3.863   3.140  10.028 -0.6925  0.7664 -0.1211
  523MPD2    H3 7772   3.936   3.361  10.009 -1.3049 -2.7677  2.2475
  523MPD2     N 7773   3.982   3.327   9.548  0.1982 -0.0427  0.3399
  523MPD2    H5 7774   4.014   3.423   9.543 -0.4297  0.1927  0.8792
  523MPD2    N1 7775   3.825   2.957   9.843 -0.7854 -0.6323 -0.0564
  523MPD2    H7 7776   3.825   2.914   9.935  0.4403 -1.3499 -0.3882
  524TMC3    C1 7777   4.016   3.350   9.316  0.0487 -0.3834 -0.3121
  524TMC3    C2 7778   4.132   3.420   9.330  0.0367  0.0886  0.3736
  524TMC3    C3 7779   4.199   3.467   9.221 -0.5728  0.0053  0.2661
  524TMC3    C4 7780   3.949   3.328   9.198  0.8235 -0.5874 -0.4039
  524TMC3    C5 7781   4.015   3.375   9.089 -0.1180  0.1712  0.8027
  524TMC3    C6 7782   4.130   3.452   9.103  0.2762  0.1070  0.6366
  524TMC3     C 7783   3.966   3.272   9.425  0.5595 -0.0765  0.0743
  524TMC3     O 7784   3.901   3.177   9.397 -0.0022  0.2349 -0.0590
  524TMC3     H 7785   4.194   3.416   9.419  0.2144 -3.4900  0.1156
  524TMC3    H1 7786   3.852   3.279   9.194  0.0745  0.8310  0.2612
  524TMC3    H2 7787   4.176   3.490   9.013  1.6431  0.1694  1.3517
  524TMC3    C7 7788   3.933   3.423   8.982  0.2757  0.0836 -0.5438
  524TMC3    C8 7789   4.316   3.557   9.237 -0.0423  0.1720 -0.2609
  524TMC3    O1 7790   3.987   3.438   8.873 -0.6232  0.0055  0.1206
  524TMC3    O2 7791   4.351   3.573   9.356  0.0398  0.5719  0.3623
  525MPD2     C 7792   1.082   4.619  14.592 -1.4320  0.2873  0.5883
  525MPD2    C1 7793   1.182   4.634  14.682  0.0919 -0.6991  0.4290
  525MPD2    C2 7794   1.274   0.009  14.657  0.5035 -0.2836 -0.6462
  525MPD2    C3 7795   1.258   0.111  14.565 -0.0308  0.3920  0.1129
  525MPD2    C4 7796   1.141   0.111  14.485  0.5284 -0.4336  0.5047
  525MPD2    C5 7797   1.058   0.001  14.501  0.1189  0.2807 -0.1064
  525MPD2     H 7798   1.349   0.024  14.734  0.0075  1.0852 -0.4403
  525MPD2    H1 7799   1.123   0.194  14.418  1.0702 -2.7999 -2.5767
  525MPD2    H2 7800   1.009   4.539  14.606 -0.8916 -0.4194 -0.5897
  525MPD2    H3 7801   0.968   4.718  14.440  0.6512 -0.2736 -0.8619
  525MPD2     N 7802   1.343   0.217  14.565 -0.0618  0.3605 -0.9130
  525MPD2    H5 7803   1.412   0.224  14.639 -0.3682  2.4222 -0.8223
  525MPD2    N1 7804   1.201   4.551  14.793 -0.1993 -0.2880 -0.5942
  525MPD2    H7 7805   1.294   4.556  14.834 -0.8673 -2.3690  1.1746
  526TMC3    C1 7806   1.167   4.397  14.958  0.3259 -0.1219 -0.0474
  526TMC3    C2 7807   1.109   4.387  15.083  0.6564 -0.6387  0.1613
  526TMC3    C3 7808   1.177   4.327  15.184  0.4080  0.9458  0.1847
  526TMC3    C4 7809   1.289   4.347  14.936  0.0551 -0.0901 -0.1172
  526TMC3    C5 7810   1.357   4.294  15.037  0.3981  0.1118  0.0934
  526TMC3    C6 7811   1.305   4.280  15.163  0.7238  0.7468  0.4865
  526TMC3     C 7812   1.102   4.480  14.858 -0.2702 -0.1606  0.0857
  526TMC3     O 7813   0.981   4.486  14.840 -0.1138 -0.2890  0.1324
  526TMC3     H 7814   1.012   4.433  15.097 -0.6058 -2.7977 -1.4863
  526TMC3    H1 7815   1.339   4.348  14.839 -1.1240 -0.0056 -0.7241
  526TMC3    H2 7816   1.351   4.216  15.238 -0.0917  2.8324  2.7399
  526TMC3    C7 7817   1.480   4.232  15.005 -0.2469 -0.0233 -0.2662
  526TMC3    C8 7818   1.118   4.323  15.317  0.3171  0.2957 -0.0960
  526TMC3    O1 7819   1.503   4.211  14.886  0.2618 -0.6779  0.4274
  526TMC3    O2 7820   1.189   4.313  15.417 -0.6990 -0.4167  0.4359
  527MPD2     C 7821   3.553   2.789   1.748 -0.2588  0.5938  0.0794
  527MPD2    C1 7822   3.636   2.679   1.734  0.3802  0.6462  0.1175
  527MPD2    C2 7823   3.728   2.685   1.635 -0.4835 -0.0573  0.0601
  527MPD2    C3 7824   3.739   2.789   1.551 -0.2020 -0.0424  0.2520
  527MPD2    C4 7825   3.645   2.892   1.559 -0.4236  0.1876 -0.0933
  527MPD2    C5 7826   3.557   2.895   1.665  0.1207  0.8090  0.0970
  527MPD2     H 7827   3.795   2.599   1.627 -1.2115 -0.6050 -0.1665
  527MPD2    H1 7828   3.660   2.984   1.503 -0.9537 -1.4326 -2.8871
  527MPD2    H2 7829   3.481   2.794   1.829  0.6947 -1.1522  1.0541
  527MPD2    H3 7830   3.485   2.975   1.676 -0.4459 -0.1049  3.1188
  527MPD2     N 7831   3.839   2.776   1.445 -0.1400  0.0371 -0.1899
  527MPD2    H5 7832   3.893   2.691   1.441 -0.8995 -0.3286 -2.6691
  527MPD2    N1 7833   3.635   2.560   1.811  0.3096  0.7797  0.4695
  527MPD2    H7 7834   3.702   2.486   1.793 -1.2519 -0.3304 -0.7681
  528TMC3    C1 7835   3.573   2.403   1.975  0.5181  0.0139 -0.9506
  528TMC3    C2 7836   3.699   2.379   2.016  0.2043  0.4758  0.3790
  528TMC3    C3 7837   3.722   2.274   2.091  0.3018 -0.1934  0.2861
  528TMC3    C4 7838   3.472   2.321   2.008  0.6325 -0.1081 -0.7246
  528TMC3    C5 7839   3.492   2.222   2.102 -0.9899  0.7271 -0.1467
  528TMC3    C6 7840   3.619   2.194   2.139  0.6509 -0.2137 -0.0566
  528TMC3     C 7841   3.537   2.526   1.903 -0.2797  0.5316  0.2715
  528TMC3     O 7842   3.420   2.563   1.900 -0.4104 -1.0086  0.3397
  528TMC3     H 7843   3.781   2.439   1.978 -0.8776  1.9255  0.3674
  528TMC3    H1 7844   3.381   2.340   1.952  0.3496 -2.5215 -1.0984
  528TMC3    H2 7845   3.634   2.109   2.205 -0.7512 -0.5004 -0.1045
  528TMC3    C7 7846   3.391   2.120   2.123 -0.3619  0.3225  0.1274
  528TMC3    C8 7847   3.847   2.248   2.140 -0.3407  0.1097 -0.3294
  528TMC3    O1 7848   3.430   2.010   2.164 -0.6726 -0.4049  0.7091
  528TMC3    O2 7849   3.934   2.333   2.108  0.0386 -0.0583 -0.2351
  529MPD2     C 7850   1.237   1.192   0.866 -0.0181 -1.0726  0.1498
  529MPD2    C1 7851   1.338   1.170   0.777  0.0825  0.2544  0.4261
  529MPD2    C2 7852   1.343   1.245   0.657 -0.3222 -0.4315 -0.3388
  529MPD2    C3 7853   1.263   1.355   0.638  0.6205  0.3751 -0.4133
  529MPD2    C4 7854   1.169   1.390   0.733  0.3061 -0.0104 -0.7280
  529MPD2    C5 7855   1.148   1.302   0.838 -0.1063  0.2091  0.3341
  529MPD2     H 7856   1.416   1.226   0.579 -0.8345 -1.9459 -0.4551
  529MPD2    H1 7857   1.113   1.481   0.721 -0.7658 -0.4615  0.8862
  529MPD2    H2 7858   1.221   1.130   0.954 -1.3420 -1.3071 -0.2648
  529MPD2    H3 7859   1.071   1.327   0.911 -0.0540 -1.7369  1.0529
  529MPD2     N 7860   1.289   1.422   0.515  0.2214  0.0246  0.3042
  529MPD2    H5 7861   1.337   1.379   0.437 -0.3230 -0.0383  0.0051
  529MPD2    N1 7862   1.441   1.078   0.802  0.0491  0.0744 -0.0783
  529MPD2    H7 7863   1.522   1.074   0.741  1.1187 -0.0166  1.3295
  530TMC3    C1 7864   1.566   0.935   0.936 -0.1212  0.1110  0.2721
  530TMC3    C2 7865   1.680   1.004   0.902 -0.1520  0.4232  0.2118
  530TMC3    C3 7866   1.798   0.956   0.942  0.6073  0.0111  1.0231
  530TMC3    C4 7867   1.572   0.812   0.998  0.0266 -0.4821  0.1122
  530TMC3    C5 7868   1.696   0.758   1.019  0.1864  0.2488 -0.3208
  530TMC3    C6 7869   1.813   0.829   0.997 -0.3498 -0.0385 -0.4105
  530TMC3     C 7870   1.439   0.988   0.905  0.2157  0.3406 -0.4129
  530TMC3     O 7871   1.340   0.933   0.954 -0.4162  0.2887  0.7762
  530TMC3     H 7872   1.670   1.103   0.860  0.1038  0.4121  0.1275
  530TMC3    H1 7873   1.480   0.757   1.018 -0.8407  1.0322  0.2539
  530TMC3    H2 7874   1.914   0.800   1.024 -1.4294  0.4176  4.1382
  530TMC3    C7 7875   1.715   0.638   1.090 -0.2878 -0.6161 -0.2675
  530TMC3    C8 7876   1.874   1.064   1.009  0.1579  0.1292  0.1821
  530TMC3    O1 7877   1.820   0.578   1.079 -0.0398 -0.9949 -0.4864
  530TMC3    O2 7878   1.830   1.178   1.002 -0.0628 -0.2323  0.3604
  531MPD2     C 7879   0.303   3.620  13.002 -0.5507  0.1913 -0.0237
  531MPD2    C1 7880   0.189   3.681  13.047  0.4903 -0.5379 -0.1570
  531MPD2    C2 7881   0.106   3.746  12.960  0.0301  0.2360  0.0761
  531MPD2    C3 7882   0.147   3.762  12.825 -0.1252 -0.2669  0.2764
  531MPD2    C4 7883   0.256   3.693  12.776 -0.3704 -0.5930  0.0764
  531MPD2    C5 7884   0.333   3.618  12.866 -0.3972  0.5056  0.0503
  531MPD2     H 7885   0.013   3.793  12.993 -1.8113 -1.4533 -2.7318
  531MPD2    H1 7886   0.271   3.695  12.669  0.3650 -1.1939  0.1611
  531MPD2    H2 7887   0.363   3.556  13.065  0.3202 -0.5360 -1.5892
  531MPD2    H3 7888   0.422   3.569  12.830 -0.9832 -1.0713  0.7307
  531MPD2     N 7889   0.053   3.830  12.741  0.1157  0.7598  0.3059
  531MPD2    H5 7890   4.705   3.890  12.788  0.9533  0.3881  1.9906
  531MPD2    N1 7891   0.167   3.675  13.189 -0.7022  0.0172  0.1073
  531MPD2    H7 7892   0.230   3.620  13.246  0.0224  1.3142  0.5485
  532TMC3    C1 7893   0.086   3.772  13.387  0.6255 -0.0471 -0.4921
  532TMC3    C2 7894   4.691   3.782  13.454 -0.5126  0.1559  0.0290
  532TMC3    C3 7895   4.687   3.874  13.552 -0.4267 -0.5367 -0.5256
  532TMC3    C4 7896   0.201   3.831  13.434  0.2802  0.1687 -0.4429
  532TMC3    C5 7897   0.198   3.900  13.548 -0.0528 -0.5170  0.7717
  532TMC3    C6 7898   0.078   3.927  13.611  0.0247 -0.5321 -0.0418
  532TMC3     C 7899   0.069   3.758  13.243  0.2846 -0.5526 -0.6518
  532TMC3     O 7900   4.691   3.814  13.192 -0.0694  0.3856 -0.4575
  532TMC3     H 7901   4.594   3.743  13.425 -0.0445 -1.0423  0.0762
  532TMC3    H1 7902   0.292   3.840  13.376  0.1878 -0.5696 -0.7141
  532TMC3    H2 7903   0.064   3.993  13.695  0.0712 -0.7870  0.1666
  532TMC3    C7 7904   0.308   3.989  13.586 -0.2072  0.8354 -0.1052
  532TMC3    C8 7905   4.605   3.981  13.512 -0.4382  0.1683 -0.0187
  532TMC3    O1 7906   0.282   4.076  13.666  0.3219 -0.4270 -0.1564
  532TMC3    O2 7907   4.574   4.063  13.596  0.3213 -0.9080 -0.2747
  533TMC3    C1 7908   1.405   0.444  14.532  0.2514  0.6794  0.5815
  533TMC3    C2 7909   1.388   0.554  14.452  0.5624  0.4793 -1.0071
  533TMC3    C3 7910   1.346   0.667  14.505 -0.3929 -0.0816  0.2983
  533TMC3    C4 7911   1.394   0.455  14.670 -0.4944 -0.4469  0.3022
  533TMC3    C5 7912   1.355   0.575  14.721 -0.0390  0.6236  0.0945
  533TMC3    C6 7913   1.321   0.671  14.634 -0.0781 -0.7828 -0.1674
  533TMC3     C 7914   1.336   0.324  14.477  0.3189 -0.3822  0.2815
  533TMC3     O 7915   1.300   0.325  14.360  0.2178 -0.3646 -0.7559
  533TMC3     H 7916   1.406   0.539  14.346  2.3661 -2.2707 -0.3014
  533TMC3    H1 7917   1.430   0.380  14.740 -0.7938 -1.3636 -0.5393
  533TMC3    H2 7918   1.257   0.757  14.653 -0.6573 -1.1626 -0.3993
  533TMC3    C7 7919   1.288   0.564  14.845  0.3000 -0.1925 -0.0153
  533TMC3    C8 7920   1.402   0.791  14.456  0.5052  0.3786  0.6803
  533TMC3    O1 7921   1.258   0.450  14.881 -0.1386  0.1387  0.2043
  533TMC3    O2 7922   1.436   0.878  14.536  0.7192  0.2532  0.6597
  534MPD2     C 7923   3.849   1.208   1.678  0.3984 -0.0907  0.0727
  534MPD2    C1 7924   3.763   1.322   1.673 -0.2607 -0.2870  0.2197
  534MPD2    C2 7925   3.665   1.324   1.572 -0.6578 -0.1244  0.0404
  534MPD2    C3 7926   3.641   1.213   1.489 -0.0708 -0.0865  0.3792
  534MPD2    C4 7927   3.717   1.105   1.504  0.5310  0.2799 -0.2413
  534MPD2    C5 7928   3.820   1.106   1.594 -0.2091  0.1184 -0.7212
  534MPD2     H 7929   3.603   1.414   1.570  0.7061  0.8274  0.6969
  534MPD2    H1 7930   3.710   1.020   1.437 -0.9118  0.8188 -0.7812
  534MPD2    H2 7931   3.930   1.191   1.748  1.8292 -0.5061 -1.6937
  534MPD2    H3 7932   3.882   1.018   1.599  1.1609  0.9966 -2.2926
  534MPD2     N 7933   3.537   1.211   1.393  0.2704  0.7678 -0.2849
  534MPD2    H5 7934   3.526   1.121   1.345  0.5316  0.2109  0.7051
  534MPD2    N1 7935   3.769   1.432   1.750 -0.0421 -0.1286 -0.5527
  534MPD2    H7 7936   3.702   1.504   1.724  1.3539  1.1686 -0.5453
  535TMC3    C1 7937   3.364   1.275   1.245  0.2212 -0.2491 -0.2578
  535TMC3    C2 7938   3.236   1.320   1.233  0.1775 -0.1547 -0.5401
  535TMC3    C3 7939   3.177   1.288   1.108  0.6022  0.3653 -0.4782
  535TMC3    C4 7940   3.440   1.222   1.144  0.0786 -0.0919 -0.5642
  535TMC3    C5 7941   3.377   1.187   1.029 -0.1977 -0.6402 -0.4068
  535TMC3    C6 7942   3.243   1.218   1.012  0.6021 -0.0409 -0.5524
  535TMC3     C 7943   3.432   1.301   1.370  0.5046 -0.2681 -0.0666
  535TMC3     O 7944   3.405   1.408   1.427 -0.4756 -0.1287 -0.0606
  535TMC3     H 7945   3.178   1.343   1.322 -0.0933 -3.1739  0.0541
  535TMC3    H1 7946   3.547   1.209   1.140  0.2386  0.5047  1.5275
  535TMC3    H2 7947   3.187   1.182   0.928  0.8677 -0.2929 -0.6206
  535TMC3    C7 7948   3.468   1.167   0.912 -0.3565 -0.2151  0.7129
  535TMC3    C8 7949   3.049   1.333   1.076  0.2200  0.0553 -0.7899
  535TMC3    O1 7950   3.579   1.123   0.934  0.3112 -0.3004  0.2731
  535TMC3    O2 7951   2.997   1.275   0.979 -0.0759  0.2664 -0.2703
  536MPD2     C 7952   2.725   4.481  16.335 -0.2992  0.1874  0.3360
  536MPD2    C1 7953   2.608   4.421  16.368 -0.1686 -0.4378 -0.7644
  536MPD2    C2 7954   2.516   4.416  16.270  0.1309  0.0053 -0.0539
  536MPD2    C3 7955   2.543   4.462  16.141  0.2574 -0.3742  0.2355
  536MPD2    C4 7956   2.669   4.506  16.108 -0.5514 -1.1888 -0.1733
  536MPD2    C5 7957   2.758   4.512  16.210  0.2337  0.0268 -0.1892
  536MPD2     H 7958   2.419   4.375  16.293  1.5103 -3.3098 -0.2510
  536MPD2    H1 7959   2.693   4.536  16.007 -1.0299 -3.5234 -0.9890
  536MPD2    H2 7960   2.809   4.496  16.403  1.1825 -0.6925 -1.3072
  536MPD2    H3 7961   2.855   4.557  16.190  0.5811 -0.7672 -0.3071
  536MPD2     N 7962   2.441   4.477  16.041 -0.4294  0.0814  0.1912
  536MPD2    H5 7963   2.475   4.521  15.956 -0.5364 -0.0991  0.0546
  536MPD2    N1 7964   2.586   4.379  16.500 -0.3520 -0.0690 -0.0702
  536MPD2    H7 7965   2.665   4.391  16.563  0.5444  0.1119 -1.2353
  537TMC3    C1 7966   2.438   4.343  16.691 -0.2145 -0.1933 -0.0194
  537TMC3    C2 7967   2.480   4.456  16.751 -0.4238 -0.1428 -0.4384
  537TMC3    C3 7968   2.431   4.484  16.877 -0.2168  0.7692  0.3257
  537TMC3    C4 7969   2.348   4.264  16.744  0.2380 -0.0056  0.6881
  537TMC3    C5 7970   2.306   4.300  16.868 -0.5772 -0.2705 -0.4640
  537TMC3    C6 7971   2.348   4.403  16.944 -0.3852  0.7378  0.2921
  537TMC3     C 7972   2.463   4.329  16.547 -0.2059  0.3799 -0.1216
  537TMC3     O 7973   2.377   4.266  16.483 -0.1541  0.3413 -0.0782
  537TMC3     H 7974   2.549   4.527  16.705  0.7391 -0.2868  1.0730
  537TMC3    H1 7975   2.305   4.174  16.701 -0.9415  0.2637  1.2809
  537TMC3    H2 7976   2.317   4.426  17.045  1.0016 -0.3809  0.9794
  537TMC3    C7 7977   2.188   4.229  16.918  0.5666 -0.2673  0.0926
  537TMC3    C8 7978   2.443   4.622  16.919 -0.3691 -1.2730 -0.6672
  537TMC3    O1 7979   2.104   4.206  16.831 -0.4588 -0.3875  0.5189
  537TMC3    O2 7980   2.457   4.645  17.038 -0.4282 -0.3555 -0.1564
  538TMC3    C1 7981   4.085   3.326  10.619  0.0656 -0.5871 -0.5392
  538TMC3    C2 7982   4.163   3.221  10.643  0.9215 -0.4556 -0.4037
  538TMC3    C3 7983   4.176   3.137  10.537  0.3264  0.2308  0.3543
  538TMC3    C4 7984   4.015   3.350  10.508 -0.0156 -0.7951  0.0131
  538TMC3    C5 7985   4.029   3.265  10.403 -0.2347  0.1189 -0.2010
  538TMC3    C6 7986   4.116   3.159  10.420 -0.2731 -0.0103  0.7433
  538TMC3     C 7987   4.067   3.427  10.729  0.4381  0.5048  0.9794
  538TMC3     O 7988   4.057   3.544  10.689 -0.2584 -0.6337 -0.2639
  538TMC3     H 7989   4.229   3.210  10.728 -0.2814  1.1735  0.7385
  538TMC3    H1 7990   3.964   3.445  10.498  0.0356 -0.6239  1.3714
  538TMC3    H2 7991   4.122   3.093  10.334  2.4215 -1.6145  2.1886
  538TMC3    C7 7992   3.902   3.239  10.331 -0.5701 -0.0126  0.2486
  538TMC3    C8 7993   4.275   3.028  10.540  0.5305 -0.2253 -0.4158
  538TMC3    O1 7994   3.892   3.129  10.287 -0.3893  0.1753  0.2241
  538TMC3    O2 7995   4.317   3.002  10.655 -0.4809 -0.3357  0.7225
  539MPD2     C 7996   3.831   2.673  11.787 -0.8023  0.7092 -0.4310
  539MPD2    C1 7997   3.811   2.632  11.654  0.5680  0.4086 -0.4234
  539MPD2    C2 7998   3.779   2.734  11.563 -0.2346 -0.6266  0.1217
  539MPD2    C3 7999   3.773   2.865  11.603 -0.7441  0.6592  0.0703
  539MPD2    C4 8000   3.775   2.902  11.739 -0.1387 -0.1732  0.1575
  539MPD2    C5 8001   3.817   2.805  11.829  0.0304  0.1263 -0.8829
  539MPD2     H 8002   3.766   2.700  11.461 -1.4442  0.7592 -0.1847
  539MPD2    H1 8003   3.752   3.005  11.766  1.6386  0.1684  0.3813
  539MPD2    H2 8004   3.875   2.596  11.848  0.9630  0.2968 -2.1885
  539MPD2    H3 8005   3.834   2.849  11.927  1.7030 -0.1806 -1.0318
  539MPD2     N 8006   3.750   2.971  11.506 -0.2125 -0.1813  0.3118
  539MPD2    H5 8007   3.723   3.061  11.544 -2.5923 -0.7852  0.0775
  539MPD2    N1 8008   3.823   2.500  11.608 -0.0844 -0.0388 -0.1446
  539MPD2    H7 8009   3.797   2.493  11.510  2.4397 -1.8780 -0.6694
  540TMC3    C1 8010   3.749   3.074  11.297  0.1349  0.5306 -0.6047
  540TMC3    C2 8011   3.804   3.076  11.169  0.3292 -0.2588 -0.1934
  540TMC3    C3 8012   3.720   3.139  11.072  0.9204 -0.1507 -0.3613
  540TMC3    C4 8013   3.632   3.141  11.322  0.0796 -0.3464 -0.6707
  540TMC3    C5 8014   3.570   3.212  11.219 -0.1440  0.6454 -1.1942
  540TMC3    C6 8015   3.609   3.210  11.088  0.2402 -0.0009 -0.0796
  540TMC3     C 8016   3.788   2.959  11.374 -0.1670  0.0939 -0.3328
  540TMC3     O 8017   3.865   2.874  11.325 -0.2720  0.1450  0.0140
  540TMC3     H 8018   3.889   3.015  11.141  1.3700 -0.8351  4.2945
  540TMC3    H1 8019   3.580   3.140  11.417  1.0624  0.4250 -0.1274
  540TMC3    H2 8020   3.574   3.268  11.003 -2.1005 -1.4464 -0.1239
  540TMC3    C7 8021   3.461   3.307  11.259  0.0524  0.6635 -0.9829
  540TMC3    C8 8022   3.772   3.129  10.938 -0.4830  0.8909 -0.2111
  540TMC3    O1 8023   3.413   3.293  11.369  0.0853  0.0929  0.1373
  540TMC3    O2 8024   3.894   3.125  10.924 -0.4408  0.1558  0.2709
  541MPD2     C 8025   1.915   0.000  13.324 -0.2957  0.3024 -0.5019
  541MPD2    C1 8026   1.827   4.658  13.241  0.2522  0.8357 -0.1162
  541MPD2    C2 8027   1.852   4.667  13.103  0.1594 -0.2938 -0.5501
  541MPD2    C3 8028   1.962   0.009  13.050  0.7184  0.8881  0.0369
  541MPD2    C4 8029   2.048   0.075  13.145  0.3173 -0.4758  0.2981
  541MPD2    C5 8030   2.027   0.069  13.277 -0.0927  0.1496 -0.2272
  541MPD2     H 8031   1.793   4.626  13.022 -1.9924 -0.2254  0.9883
  541MPD2    H1 8032   2.130   0.138  13.113  1.6131 -1.3465  1.9186
  541MPD2    H2 8033   1.902   0.001  13.432  0.1227  0.5088 -0.4545
  541MPD2    H3 8034   2.094   0.116  13.348 -0.1582  1.3593 -0.9638
  541MPD2     N 8035   1.993   0.025  12.914 -0.4208  0.1114 -0.1628
  541MPD2    H5 8036   2.081   0.071  12.894 -0.1683 -1.0769 -1.7519
  541MPD2    N1 8037   1.717   4.586  13.297  0.2792 -0.0250 -0.0364
  541MPD2    H7 8038   1.709   4.579  13.398 -1.4913 -2.3029 -0.3299
  542TMC3    C1 8039   1.970   4.719  12.680 -0.4686  0.0483 -0.3883
  542TMC3    C2 8040   1.935   4.635  12.575  0.1747  0.4693  0.5081
  542TMC3    C3 8041   1.965   4.672  12.445 -0.4866 -0.4123  0.2157
  542TMC3    C4 8042   2.002   0.127  12.651 -0.7215 -0.2738 -0.2125
  542TMC3    C5 8043   2.015   0.169  12.524 -0.1764 -0.0217 -0.9719
  542TMC3    C6 8044   2.003   0.081  12.420 -0.2967  0.3815 -0.1897
  542TMC3     C 8045   1.924   4.678  12.816 -0.6977  0.5302 -0.1101
  542TMC3     O 8046   1.837   4.594  12.820 -0.9076 -0.0611  0.7484
  542TMC3     H 8047   1.900   4.534  12.593 -1.6508  1.5867  3.2906
  542TMC3    H1 8048   2.012   0.197  12.734  0.0334 -1.1888  0.4712
  542TMC3    H2 8049   2.019   0.106  12.315 -2.1347 -0.6455 -0.7164
  542TMC3    C7 8050   2.006   0.313  12.500  0.3813 -0.3417  0.8339
  542TMC3    C8 8051   1.894   4.606  12.334  0.2232  0.2488  0.4925
  542TMC3    O1 8052   1.986   0.383  12.599 -0.3886 -0.0555  0.1073
  542TMC3    O2 8053   1.947   4.610  12.224 -0.0423 -0.1223  0.2620
  543TMC3    C1 8054   0.909   0.813  17.192 -0.4052 -0.5084  0.0346
  543TMC3    C2 8055   0.808   0.784  17.274 -0.1808  0.5093 -0.2426
  543TMC3    C3 8056   0.782   0.868  17.380  0.0917  0.0765 -0.5627
  543TMC3    C4 8057   0.985   0.924  17.205  0.9997 -0.1879 -0.0905
  543TMC3    C5 8058   0.968   0.991  17.327  0.1668 -0.5474 -0.1983
  543TMC3    C6 8059   0.869   0.965  17.419  0.3924  0.8676  0.0968
  543TMC3     C 8060   0.940   0.739  17.071 -0.2589  0.4529  0.7328
  543TMC3     O 8061   1.010   0.796  16.991 -0.0679 -0.8499 -0.4160
  543TMC3     H 8062   0.727   0.721  17.239  0.0589  0.2600 -0.3479
  543TMC3    H1 8063   1.072   0.945  17.144 -0.8809 -0.2445 -2.7746
  543TMC3    H2 8064   0.847   1.030  17.503  1.7990  1.4862 -0.0279
  543TMC3    C7 8065   1.089   1.060  17.368  0.2429 -0.3383  0.5176
  543TMC3    C8 8066   0.686   0.818  17.472 -0.2152 -0.1857 -0.2409
  543TMC3    O1 8067   1.140   1.120  17.276  0.2072  0.5383 -0.1126
  543TMC3    O2 8068   0.634   0.890  17.560  0.1413  0.3464 -0.1228
  544MPD2     C 8069   0.493   0.392   0.024 -0.4697  0.9526  0.2275
  544MPD2    C1 8070   0.591   0.360  17.616 -0.1479 -0.1361 -0.3941
  544MPD2    C2 8071   0.650   0.463  17.544  0.4030  1.0387  0.3429
  544MPD2    C3 8072   0.601   0.590  17.549 -0.0547  0.0998 -0.6278
  544MPD2    C4 8073   0.494   0.624  17.623  0.5007 -0.4754  1.0472
  544MPD2    C5 8074   0.447   0.526   0.032  0.1952 -0.4593 -0.1835
  544MPD2     H 8075   0.740   0.442  17.487  0.9579 -0.7090  1.8562
  544MPD2    H1 8076   0.455   0.725  17.627  2.1537  0.1765  0.6946
  544MPD2    H2 8077   0.456   0.319   0.096  2.9271 -0.1591  0.8190
  544MPD2    H3 8078   0.376   0.538   0.113  1.8001  0.2373  1.1102
  544MPD2     N 8079   0.682   0.681  17.464  0.0298 -0.0153  0.1507
  544MPD2    H5 8080   0.758   0.637  17.413 -1.3621 -1.2099 -0.8789
  544MPD2    N1 8081   0.615   0.222  17.602 -0.5775  0.5728 -0.0763
  544MPD2    H7 8082   0.579   0.162  17.675  1.4768 -2.3534 -1.5026
  545TMC3    C1 8083   0.730   0.029  17.501 -0.6963 -0.0560  0.8857
  545TMC3    C2 8084   0.783   4.693  17.383  0.7511 -0.1337 -0.0264
  545TMC3    C3 8085   0.811   4.562  17.390 -0.3553  0.6924  0.7963
  545TMC3    C4 8086   0.715   4.674  17.614  0.1717 -0.1115  0.1251
  545TMC3    C5 8087   0.750   4.542  17.611  0.5161 -0.1146  0.4821
  545TMC3    C6 8088   0.806   4.484  17.499  0.1997  0.0420 -0.1983
  545TMC3     C 8089   0.691   0.171  17.495  0.2532 -0.6901  0.2274
  545TMC3     O 8090   0.720   0.231  17.390 -0.5231  0.2967  0.3061
  545TMC3     H 8091   0.814   0.043  17.306  0.2063 -0.0346 -0.1586
  545TMC3    H1 8092   0.670   0.002   0.017 -0.2923  1.8104 -1.1994
  545TMC3    H2 8093   0.820   4.377  17.492  1.5506  0.0948  1.6832
  545TMC3    C7 8094   0.712   4.454   0.049 -0.0288 -0.0369 -0.1697
  545TMC3    C8 8095   0.858   4.496  17.266 -0.1353  0.6229 -0.3730
  545TMC3    O1 8096   0.648   4.505   0.139 -0.2845  0.0649  0.1905
  545TMC3    O2 8097   0.845   4.376  17.259 -0.2644  0.2581  0.1535
  546MPD2     C 8098   2.590   0.511  17.487  0.4577 -0.5638  0.1962
  546MPD2    C1 8099   2.577   0.539  17.352 -0.2023  0.1239  0.4955
  546MPD2    C2 8100   2.643   0.645  17.297 -0.0714 -0.1580  0.0320
  546MPD2    C3 8101   2.732   0.724  17.378  0.2655  0.1110  0.6825
  546MPD2    C4 8102   2.745   0.697  17.513 -0.6262  0.3907 -0.6520
  546MPD2    C5 8103   2.672   0.592  17.563 -0.1079 -0.1063  0.3022
  546MPD2     H 8104   2.645   0.677  17.193  3.7919  1.5370  0.6194
  546MPD2    H1 8105   2.820   0.748  17.573 -1.2003  1.9131 -1.2179
  546MPD2    H2 8106   2.536   0.436  17.543 -2.9046  0.7169 -1.3056
  546MPD2    H3 8107   2.684   0.569  17.669 -1.3067 -1.2223  0.1896
  546MPD2     N 8108   2.800   0.835  17.333  0.5280 -0.2636 -0.4000
  546MPD2    H5 8109   2.843   0.897  17.401 -1.7058  0.2599  0.5546
  546MPD2    N1 8110   2.495   0.442  17.279  0.2929 -0.6885  0.1952
  546MPD2    H7 8111   2.467   0.357  17.326 -1.3482 -1.1010 -1.5168
  547TMC3    C1 8112   2.362   0.357  17.107  0.5384  0.1348  0.6798
  547TMC3    C2 8113   2.267   0.385  17.020  0.2771 -0.6716 -0.4789
  547TMC3    C3 8114   2.166   0.293  17.004  0.0912  0.1717 -0.0976
  547TMC3    C4 8115   2.365   0.237  17.181  0.0878  0.4806  0.2417
  547TMC3    C5 8116   2.271   0.143  17.157  0.0153 -0.1193  0.2305
  547TMC3    C6 8117   2.177   0.171  17.069  0.4875  1.2719 -0.4521
  547TMC3     C 8118   2.451   0.465  17.150  0.2716 -0.1924  0.2854
  547TMC3     O 8119   2.458   0.572  17.086 -0.3364  0.0931 -0.3017
  547TMC3     H 8120   2.263   0.481  16.969 -0.9300  0.5357  1.8638
  547TMC3    H1 8121   2.443   0.205  17.250  0.6703 -0.5388 -0.8898
  547TMC3    H2 8122   2.089   0.109  17.053  1.9905 -1.0965  0.6120
  547TMC3    C7 8123   2.259   0.029  17.248  0.1738  0.2857 -0.5324
  547TMC3    C8 8124   2.035   0.336  16.950  0.3893  0.0640  0.4058
  547TMC3    O1 8125   2.316   0.044  17.351  0.7950  0.2630  0.1445
  547TMC3    O2 8126   1.962   0.246  16.912  0.1082  0.3614  0.6739
  548MPD2     C 8127   2.558   1.160  11.776  0.2391  0.3342  0.7521
  548MPD2    C1 8128   2.552   1.125  11.914  0.0105 -0.2652  0.8650
  548MPD2    C2 8129   2.676   1.068  11.952  0.2657 -0.4427 -0.1376
  548MPD2    C3 8130   2.794   1.063  11.873  0.8898  0.2517 -0.3254
  548MPD2    C4 8131   2.792   1.099  11.741 -0.5264 -0.2882 -0.4153
  548MPD2    C5 8132   2.671   1.148  11.698  0.7297  0.1152 -0.1569
  548MPD2     H 8133   2.692   1.032  12.053  0.6416 -0.5422 -0.2352
  548MPD2    H1 8134   2.873   1.085  11.670  0.6467 -0.4281  0.9423
  548MPD2    H2 8135   2.467   1.205  11.738  1.0103  0.1574 -1.2838
  548MPD2    H3 8136   2.665   1.175  11.593  1.4378 -0.2620 -0.2975
  548MPD2     N 8137   2.917   1.019  11.939 -0.5344  0.2529  0.3155
  548MPD2    H5 8138   2.909   0.982  12.033 -2.6078  0.4031  0.1828
  548MPD2    N1 8139   2.446   1.155  11.994  0.2533  0.8183  0.0672
  548MPD2    H7 8140   2.365   1.195  11.946  0.6780  0.5392 -0.8828
  549TMC3    C1 8141   2.292   1.176  12.177  0.3958 -0.1273 -0.2104
  549TMC3    C2 8142   2.231   1.282  12.118 -0.2337 -0.3928  0.2662
  549TMC3    C3 8143   2.111   1.319  12.177 -0.3050 -0.4882  0.2684
  549TMC3    C4 8144   2.247   1.115  12.292  0.5822  0.1302  0.3780
  549TMC3    C5 8145   2.119   1.139  12.330  0.0567 -0.1081 -0.1218
  549TMC3    C6 8146   2.056   1.251  12.280 -0.3657 -0.2660 -0.0357
  549TMC3     C 8147   2.426   1.130  12.128 -0.4981 -1.0970 -0.2218
  549TMC3     O 8148   2.503   1.073  12.206  0.0739 -0.4466  0.4001
  549TMC3     H 8149   2.271   1.336  12.033  2.4158 -1.4305  0.8466
  549TMC3    H1 8150   2.312   1.042  12.337 -1.6835 -2.4234 -0.4827
  549TMC3    H2 8151   1.954   1.268  12.313 -0.3871  1.1339 -0.8182
  549TMC3    C7 8152   2.076   1.089  12.457  0.0867  0.3522 -0.8634
  549TMC3    C8 8153   2.059   1.455  12.153  0.4065 -0.3664  0.2315
  549TMC3    O1 8154   2.006   1.166  12.523 -0.2447  0.3530 -0.3388
  549TMC3    O2 8155   1.945   1.487  12.192  0.3070 -0.0646  0.4025
  550TMC3    C1 8156   0.688   3.499  12.566 -0.1328  0.5672 -0.1846
  550TMC3    C2 8157   0.705   3.573  12.680 -0.0772 -0.2307 -0.5459
  550TMC3    C3 8158   0.828   3.645  12.677  0.3907  0.2058 -0.1315
  550TMC3    C4 8159   0.790   3.481  12.477  0.5100 -0.2300 -0.7118
  550TMC3    C5 8160   0.908   3.550  12.478  0.5346  0.6907 -0.3348
  550TMC3    C6 8161   0.924   3.636  12.580 -0.8095  0.2885  0.2811
  550TMC3     C 8162   0.555   3.514  12.512 -0.1240 -0.4799  1.1014
  550TMC3     O 8163   0.453   3.517  12.579  0.4981 -0.3205 -0.2862
  550TMC3     H 8164   0.618   3.604  12.736  2.1089  2.0547  1.6106
  550TMC3    H1 8165   0.766   3.433  12.383  1.6638 -1.7278 -0.2457
  550TMC3    H2 8166   1.005   3.708  12.580  0.3880 -1.0530 -0.6333
  550TMC3    C7 8167   0.916   3.622  12.353  0.1482 -0.0172  0.2577
  550TMC3    C8 8168   0.855   3.743  12.776 -0.1897  0.3258 -0.4340
  550TMC3    O1 8169   0.811   3.660  12.294  0.1599  0.3014 -0.3217
  550TMC3    O2 8170   0.930   3.839  12.757 -0.0620 -0.2298 -0.5813
  551TMC3    C1 8171   3.742   1.508  13.079  0.1171 -0.4571  0.1294
  551TMC3    C2 8172   3.879   1.512  13.047 -0.2176 -0.2947 -0.0337
  551TMC3    C3 8173   3.972   1.593  13.110  0.3225  0.4514  0.3857
  551TMC3    C4 8174   3.702   1.596  13.178  0.5665 -0.3818  0.5661
  551TMC3    C5 8175   3.794   1.683  13.235  0.8198 -0.3739  0.8927
  551TMC3    C6 8176   3.926   1.684  13.203  0.4785  0.4229 -0.4745
  551TMC3     C 8177   3.661   1.514  12.959  0.0989 -0.4637  0.4621
  551TMC3     O 8178   3.584   1.610  12.961  0.1962 -0.2047 -0.4767
  551TMC3     H 8179   3.901   1.455  12.957  0.8606 -1.9437  1.2706
  551TMC3    H1 8180   3.599   1.601  13.212 -0.3313  0.4823 -2.3588
  551TMC3    H2 8181   4.000   1.742  13.257 -0.5314  2.2560 -1.0733
  551TMC3    C7 8182   3.763   1.738  13.366  0.1790 -0.3761 -0.2663
  551TMC3    C8 8183   4.093   1.615  13.036  0.7824  0.7817 -0.1259
  551TMC3    O1 8184   3.700   1.675  13.451  0.3285 -0.0256  0.3244
  551TMC3    O2 8185   4.115   1.531  12.950 -0.3016  0.0231 -0.4941
  552MPD2     C 8186   0.432   3.436  13.938  0.0490 -0.5122  0.3861
  552MPD2    C1 8187   0.548   3.360  13.908  0.0292  0.1827  0.1379
  552MPD2    C2 8188   0.641   3.338  14.008  0.4135  0.3645 -0.3060
  552MPD2    C3 8189   0.612   3.381  14.137  0.2928 -0.6707  0.1084
  552MPD2    C4 8190   0.489   3.430  14.170 -0.0809 -0.7697  0.2014
  552MPD2    C5 8191   0.401   3.456  14.073  0.2410  0.0817  0.3219
  552MPD2     H 8192   0.734   3.293  13.977 -1.2085 -1.0702 -3.1636
  552MPD2    H1 8193   0.465   3.445  14.275  1.1814  0.6353  0.2839
  552MPD2    H2 8194   0.350   3.447  13.868  2.2240 -2.5938 -2.4794
  552MPD2    H3 8195   0.306   3.500  14.103 -0.2329 -1.7552  1.4789
  552MPD2     N 8196   0.708   3.381  14.239 -0.2931 -0.2345  0.1211
  552MPD2    H5 8197   0.681   3.391  14.337  1.7388  0.8575  0.5601
  552MPD2    N1 8198   0.559   3.291  13.782  0.4941  0.2110 -0.1361
  552MPD2    H7 8199   0.643   3.233  13.781  1.1614  1.1947 -0.6414
  553TMC3    C1 8200   0.535   3.205  13.572  0.0672 -0.5022 -0.0564
  553TMC3    C2 8201   0.578   3.270  13.459 -0.1418  0.2710  0.3215
  553TMC3    C3 8202   0.708   3.261  13.416  1.0998  0.8249  0.0722
  553TMC3    C4 8203   0.614   3.109  13.628 -0.0353 -0.8225  0.4756
  553TMC3    C5 8204   0.739   3.084  13.569  0.4247 -0.4221 -1.3112
  553TMC3    C6 8205   0.793   3.171  13.472 -0.7303  0.1105 -0.3844
  553TMC3     C 8206   0.476   3.292  13.671  0.4342 -0.0401  0.0328
  553TMC3     O 8207   0.374   3.354  13.636  0.6948  0.1202 -0.1002
  553TMC3     H 8208   0.510   3.342  13.416 -0.6928  0.0108  0.7632
  553TMC3    H1 8209   0.575   3.056  13.714 -2.2814  0.2725  0.1444
  553TMC3    H2 8210   0.899   3.173  13.451 -0.6400 -1.0476 -0.0772
  553TMC3    C7 8211   0.836   3.028  13.658 -0.2753 -0.5677  0.0250
  553TMC3    C8 8212   0.764   3.353  13.323  0.5150  0.7220 -0.3786
  553TMC3    O1 8213   0.818   2.910  13.681  0.4366  0.2133 -0.1834
  553TMC3    O2 8214   0.701   3.457  13.299  0.7206  0.7776 -0.0131
  554TMC3    C1 8215   2.416   2.727  11.176 -0.1124  0.6415  0.4076
  554TMC3    C2 8216   2.325   2.688  11.085  0.5915  0.6496 -0.0931
  554TMC3    C3 8217   2.341   2.741  10.962  0.5005  0.2977 -0.3375
  554TMC3    C4 8218   2.521   2.813  11.147 -0.4899  0.5469  0.1602
  554TMC3    C5 8219   2.526   2.863  11.021 -0.3339 -0.7444 -0.5003
  554TMC3    C6 8220   2.436   2.830  10.928  0.6206  0.1220 -0.6159
  554TMC3     C 8221   2.385   2.697  11.315 -0.8173 -0.3030  0.7500
  554TMC3     O 8222   2.271   2.657  11.340 -0.1801  0.6239 -0.5492
  554TMC3     H 8223   2.236   2.629  11.105  1.2048  0.0847  0.9546
  554TMC3    H1 8224   2.592   2.845  11.222  1.0803  0.7895 -1.4518
  554TMC3    H2 8225   2.464   2.860  10.828  0.5743 -2.3436 -1.3572
  554TMC3    C7 8226   2.639   2.940  10.975 -0.2863  0.0958 -0.1623
  554TMC3    C8 8227   2.321   2.645  10.857  0.0944  0.3268  0.2941
  554TMC3    O1 8228   2.637   2.990  10.862  0.2950 -0.0549 -0.5082
  554TMC3    O2 8229   2.398   2.661  10.762  0.3497 -0.2378 -1.2492
  555TMC3    C1 8230   1.584   2.091  15.309  0.4250  0.3962  0.0420
  555TMC3    C2 8231   1.553   2.165  15.414 -0.4238 -0.1696 -0.2498
  555TMC3    C3 8232   1.573   2.113  15.541  0.0111  0.5161 -0.5510
  555TMC3    C4 8233   1.625   1.965  15.322 -0.9552 -0.8503  0.3281
  555TMC3    C5 8234   1.650   1.906  15.444  0.2026  0.4940 -0.7048
  555TMC3    C6 8235   1.619   1.983  15.557 -0.1711 -0.1545  0.3837
  555TMC3     C 8236   1.624   2.154  15.184 -0.6969  0.8831 -0.1675
  555TMC3     O 8237   1.735   2.125  15.138 -0.3922  0.3853 -0.0656
  555TMC3     H 8238   1.529   2.270  15.399  3.0424  1.0667  2.9299
  555TMC3    H1 8239   1.636   1.908  15.231 -0.2218 -0.2482  0.0500
  555TMC3    H2 8240   1.596   1.939  15.653 -1.9948  1.6294  0.7777
  555TMC3    C7 8241   1.661   1.763  15.451  0.4258  0.6934 -0.1857
  555TMC3    C8 8242   1.621   2.210  15.635  0.0355  0.5872 -0.3095
  555TMC3    O1 8243   1.628   1.709  15.554 -0.2317 -0.4585 -0.2970
  555TMC3    O2 8244   1.598   2.331  15.617  0.9495 -0.1499  0.1361
  556MPD2     C 8245   4.607   3.652  10.268 -0.3607 -0.5250 -0.0925
  556MPD2    C1 8246   4.704   3.569  10.321  0.6795  0.1953 -0.0111
  556MPD2    C2 8247   0.012   3.450  10.262  0.2364 -0.1378 -0.0149
  556MPD2    C3 8248   4.682   3.419  10.136  0.5988  0.2229 -0.0951
  556MPD2    C4 8249   4.584   3.501  10.083  0.5631  0.1321  0.4764
  556MPD2    C5 8250   4.560   3.616  10.146 -0.8155  0.0131  0.4595
  556MPD2     H 8251   0.088   3.385  10.303 -2.4175 -2.4939  1.1479
  556MPD2    H1 8252   4.523   3.490   9.994 -0.6765 -1.3010  1.4905
  556MPD2    H2 8253   4.570   3.747  10.304  0.5132 -0.5662  0.9160
  556MPD2    H3 8254   4.482   3.678  10.103  1.7855  1.2801 -2.4284
  556MPD2     N 8255   0.004   3.302  10.070 -0.0884 -0.1937 -0.1341
  556MPD2    H5 8256   0.099   3.273  10.090  0.1168 -0.4824 -1.5479
  556MPD2    N1 8257   0.050   3.592  10.443 -1.0464 -0.0070  0.3887
  556MPD2    H7 8258   0.098   3.513  10.483 -0.2116 -0.0805 -0.7530
  557TMC3    C1 8259   0.002   3.131   9.909 -0.9580  0.2452 -0.4561
  557TMC3    C2 8260   4.672   3.078   9.793  0.6111  0.0267 -0.2732
  557TMC3    C3 8261   4.696   2.941   9.771 -0.3991 -0.2257  0.2713
  557TMC3    C4 8262   0.083   3.059   9.995 -0.4790 -0.4262 -0.2502
  557TMC3    C5 8263   0.116   2.928   9.966  0.3412  0.0093  0.1378
  557TMC3    C6 8264   0.052   2.865   9.857  0.5532 -0.5039  0.0270
  557TMC3     C 8265   4.662   3.249   9.960  0.3646 -0.0261  0.7844
  557TMC3     O 8266   4.555   3.277   9.911 -0.0464  0.9514 -0.4912
  557TMC3     H 8267   4.614   3.129   9.717 -0.8163  0.6920  1.2780
  557TMC3    H1 8268   0.134   3.109  10.076  2.2016 -0.8014 -1.6898
  557TMC3    H2 8269   0.047   2.757   9.864  2.0783 -0.4977  0.9826
  557TMC3    C7 8270   0.088   2.845  10.074 -0.1370  0.2267 -0.9945
  557TMC3    C8 8271   4.628   2.873   9.660 -0.0759  0.2348 -0.2127
  557TMC3    O1 8272   0.179   2.817  10.148  0.4158  0.3247 -0.4662
  557TMC3    O2 8273   4.549   2.940   9.596 -0.4962  0.0456 -0.6333
  558TMC3    C1 8274   2.668   0.916   9.740 -0.5124  0.0719  0.2958
  558TMC3    C2 8275   2.593   0.879   9.848  0.2957 -0.0026  0.2065
  558TMC3    C3 8276   2.564   0.744   9.856 -0.3350  0.4835 -0.0613
  558TMC3    C4 8277   2.706   0.831   9.641  0.0139  0.3684  0.1850
  558TMC3    C5 8278   2.662   0.697   9.651 -0.6169 -0.2459 -0.0015
  558TMC3    C6 8279   2.584   0.657   9.756  0.3789 -0.5728 -0.2315
  558TMC3     C 8280   2.750   1.034   9.745  0.4462  0.0174  0.6708
  558TMC3     O 8281   2.869   1.030   9.718 -0.4850 -0.5714 -0.0479
  558TMC3     H 8282   2.583   0.949   9.930  0.2060  0.9824 -0.6495
  558TMC3    H1 8283   2.761   0.871   9.556  1.8874 -1.7233  0.4000
  558TMC3    H2 8284   2.558   0.554   9.779 -0.4043  0.7764  5.0006
  558TMC3    C7 8285   2.712   0.594   9.554  0.1276 -0.2489  0.1945
  558TMC3    C8 8286   2.523   0.700   9.987  0.9568 -0.2572  0.6771
  558TMC3    O1 8287   2.799   0.639   9.480 -0.4718  0.1185  0.3012
  558TMC3    O2 8288   2.454   0.602  10.000 -0.3377  0.3847  0.0398
  559MPD2     C 8289   2.430   2.052  10.256 -0.0082 -0.2194  0.6495
  559MPD2    C1 8290   2.382   1.987  10.366 -0.4174 -0.1055  0.1067
  559MPD2    C2 8291   2.460   1.974  10.475 -0.2291 -0.1860 -0.4494
  559MPD2    C3 8292   2.579   2.057  10.469 -0.3630  0.2848  0.6705
  559MPD2    C4 8293   2.622   2.126  10.363  0.7425 -0.2945  0.0055
  559MPD2    C5 8294   2.549   2.117  10.249  0.2005  0.1382 -0.2847
  559MPD2     H 8295   2.435   1.926  10.569  1.0283 -0.4369 -0.2417
  559MPD2    H1 8296   2.721   2.171  10.362  0.7524 -0.3219 -0.4272
  559MPD2    H2 8297   2.370   2.053  10.165  1.1474  2.8815 -0.0923
  559MPD2    H3 8298   2.581   2.162  10.156 -1.4763  0.1265 -0.8505
  559MPD2     N 8299   2.647   2.049  10.589  1.1524 -0.7652  0.3973
  559MPD2    H5 8300   2.614   1.971  10.645  1.2161  0.2848  1.9130
  559MPD2    N1 8301   2.260   1.913  10.347  0.4211 -0.6921  0.1559
  559MPD2    H7 8302   2.211   1.934  10.260  0.3767 -2.5903 -0.2683
  560TMC3    C1 8303   2.807   2.091  10.750 -0.0029  0.1090 -0.2247
  560TMC3    C2 8304   2.791   1.965  10.797 -1.2235 -0.2977 -0.9696
  560TMC3    C3 8305   2.853   1.930  10.908  0.5853 -0.0788  0.1289
  560TMC3    C4 8306   2.882   2.183  10.821  0.9256 -0.4072  0.1407
  560TMC3    C5 8307   2.929   2.147  10.937 -0.5892 -0.4951 -0.1030
  560TMC3    C6 8308   2.916   2.018  10.985 -0.7004 -0.6538  0.1839
  560TMC3     C 8309   2.747   2.134  10.621 -0.3398 -0.2465  0.6935
  560TMC3     O 8310   2.785   2.241  10.572  0.5305 -0.4673 -0.2232
  560TMC3     H 8311   2.747   1.887  10.737  2.3103 -1.8713 -1.4936
  560TMC3    H1 8312   2.884   2.287  10.789 -0.0566 -0.2143  0.7228
  560TMC3    H2 8313   2.930   1.995  11.090 -0.0684 -0.2680  0.1889
  560TMC3    C7 8314   2.976   2.244  11.031  0.1839  0.1449 -0.5225
  560TMC3    C8 8315   2.904   1.796  10.906 -0.3172 -0.3167  0.7182
  560TMC3    O1 8316   2.959   2.212  11.149 -0.0971 -0.3033 -0.0254
  560TMC3    O2 8317   2.845   1.712  10.844 -0.4187 -0.7868 -0.6286
  561TMC3    C1 8318   0.599   0.633  11.591  0.4337 -0.2974 -0.1170
  561TMC3    C2 8319   0.547   0.639  11.717  0.3518 -0.0367  0.3516
  561TMC3    C3 8320   0.495   0.764  11.761 -0.0607 -0.9047 -0.4000
  561TMC3    C4 8321   0.599   0.747  11.505 -0.6806  0.2926  0.5103
  561TMC3    C5 8322   0.553   0.869  11.561  0.2405  0.4971  0.4339
  561TMC3    C6 8323   0.502   0.880  11.688 -0.2729  0.7589 -0.0206
  561TMC3     C 8324   0.665   0.507  11.545  0.8551  0.4684  0.2287
  561TMC3     O 8325   0.611   0.416  11.609 -0.0676 -0.0975 -0.3620
  561TMC3     H 8326   0.530   0.554  11.781 -0.1216 -0.6823 -0.6234
  561TMC3    H1 8327   0.635   0.744  11.403 -2.3616  4.3668 -0.2052
  561TMC3    H2 8328   0.476   0.978  11.726  0.2709  0.8157  0.2117
  561TMC3    C7 8329   0.551   0.987  11.482 -0.3319  0.3688 -0.3627
  561TMC3    C8 8330   0.458   0.772  11.900  0.0487  0.9900 -0.5830
  561TMC3    O1 8331   0.496   1.080  11.538  0.1378  0.0043  0.1204
  561TMC3    O2 8332   0.502   0.683  11.975 -0.3944 -0.0309  0.2509
  562TMC3    C1 8333   1.154   2.579  16.238 -0.9355 -0.0793  0.1545
  562TMC3    C2 8334   1.033   2.643  16.250  0.4354 -0.4072  0.3777
  562TMC3    C3 8335   0.968   2.662  16.131  0.2470  0.2648 -0.1032
  562TMC3    C4 8336   1.206   2.530  16.121 -0.6903  0.3871 -0.0444
  562TMC3    C5 8337   1.131   2.534  16.005  0.4220  1.0474  0.1973
  562TMC3    C6 8338   1.007   2.598  16.012 -0.7432 -0.0179  0.6413
  562TMC3     C 8339   1.257   2.641  16.327  0.2743  0.5077 -0.0272
  562TMC3     O 8340   1.365   2.677  16.279  0.3399 -0.4393  0.9818
  562TMC3     H 8341   0.998   2.692  16.340 -0.4531 -1.9502  0.8660
  562TMC3    H1 8342   1.307   2.489  16.123 -0.4343  0.9413 -1.4877
  562TMC3    H2 8343   0.948   2.603  15.921 -1.2954  0.5880  1.0297
  562TMC3    C7 8344   1.154   2.441  15.898  0.4329 -0.5443  0.0927
  562TMC3    C8 8345   0.829   2.708  16.136  0.0834 -0.1044  0.2318
  562TMC3    O1 8346   1.096   2.468  15.795 -0.3774 -0.3331  0.1770
  562TMC3    O2 8347   0.777   2.725  16.247  0.7103 -0.0239 -0.6349
  563MPD2     C 8348   3.471   3.275  15.876  0.3790  0.4284  0.3476
  563MPD2    C1 8349   3.492   3.406  15.917 -0.1231 -0.9622  0.4635
  563MPD2    C2 8350   3.593   3.444  15.994 -0.1447 -0.1734 -0.7492
  563MPD2    C3 8351   3.693   3.355  16.030  0.4245 -0.1795 -0.3502
  563MPD2    C4 8352   3.679   3.223  15.987 -0.5047  0.2336 -0.3648
  563MPD2    C5 8353   3.577   3.190  15.902  0.2835  0.8326 -0.5769
  563MPD2     H 8354   3.599   3.547  16.026 -1.2806 -0.7143  1.1909
  563MPD2    H1 8355   3.761   3.153  15.978 -0.7754 -0.2447  0.8387
  563MPD2    H2 8356   3.383   3.228  15.833  0.0811  0.4647  0.9159
  563MPD2    H3 8357   3.583   3.091  15.859 -1.5380  1.3220 -1.9819
  563MPD2     N 8358   3.802   3.392  16.103  0.6643 -0.0997  0.3111
  563MPD2    H5 8359   3.780   3.479  16.150 -2.3784 -1.5263  1.5719
  563MPD2    N1 8360   3.391   3.498  15.908  0.5028  0.1856  0.8162
  563MPD2    H7 8361   3.389   3.569  15.981 -0.0672  0.3030  0.6903
  564TMC3    C1 8362   3.166   3.527  15.904  0.3505 -0.0088  0.5903
  564TMC3    C2 8363   3.054   3.470  15.863  0.9322  0.0496  0.0971
  564TMC3    C3 8364   2.991   3.395  15.957  0.2868 -0.0621  0.0607
  564TMC3    C4 8365   3.197   3.556  16.037  0.3802  0.1184 -0.2928
  564TMC3    C5 8366   3.126   3.493  16.132 -0.8434 -0.0900  1.2343
  564TMC3    C6 8367   3.016   3.416  16.095 -0.0738 -0.0311  0.1065
  564TMC3     C 8368   3.284   3.490  15.827 -0.3210  0.2856 -0.4734
  564TMC3     O 8369   3.259   3.418  15.729  0.3557  0.2518 -0.2121
  564TMC3     H 8370   3.030   3.457  15.758 -0.1607  0.0245  0.3451
  564TMC3    H1 8371   3.290   3.601  16.070  2.1870 -1.0905 -3.7438
  564TMC3    H2 8372   2.965   3.350  16.164  1.5749 -2.3617 -0.9187
  564TMC3    C7 8373   3.218   3.436  16.240 -0.6425  0.1259 -0.3836
  564TMC3    C8 8374   3.000   3.251  15.932  0.0356 -0.0321 -0.3957
  564TMC3    O1 8375   3.316   3.501  16.270 -0.0994 -0.0481  0.6496
  564TMC3    O2 8376   2.951   3.176  16.019 -0.2808 -0.9997  0.2248
  565TMC3    C1 8377   4.201   0.366   9.789 -0.5767  0.4833  0.0188
  565TMC3    C2 8378   4.267   0.277   9.867 -0.0313 -0.2699  0.0103
  565TMC3    C3 8379   4.198   0.168   9.910 -0.5272  0.5907  0.5446
  565TMC3    C4 8380   4.070   0.349   9.760  0.1045  0.0956  0.3858
  565TMC3    C5 8381   4.005   0.246   9.822  0.0840 -0.5383 -0.3003
  565TMC3    C6 8382   4.066   0.142   9.878 -0.1191 -0.1592 -0.1309
  565TMC3     C 8383   4.283   0.469   9.731  1.1406 -0.3396  1.1194
  565TMC3     O 8384   4.395   0.483   9.775 -0.5694  0.1539 -0.1207
  565TMC3     H 8385   4.369   0.301   9.896  0.3394 -0.7725 -0.8630
  565TMC3    H1 8386   4.012   0.433   9.722  0.4259 -0.5950 -1.6075
  565TMC3    H2 8387   3.999   0.086   9.942 -1.1001  0.3452 -0.7220
  565TMC3    C7 8388   3.879   0.225   9.754 -0.7278  0.4415  0.3684
  565TMC3    C8 8389   4.281   0.075   9.975 -0.8348 -0.0170 -0.0881
  565TMC3    O1 8390   3.875   0.250   9.634  0.3225 -0.3384  0.1821
  565TMC3    O2 8391   4.376   0.117  10.040 -0.4157 -0.2545  0.0776
  566MPD2     C 8392   0.980   2.164  14.543 -0.5244  0.0969  0.0663
  566MPD2    C1 8393   1.083   2.230  14.469  1.1178 -0.7617 -1.0425
  566MPD2    C2 8394   1.083   2.230  14.334 -0.0312  0.3992 -0.3510
  566MPD2    C3 8395   0.980   2.168  14.271  0.3432  0.3005  0.0039
  566MPD2    C4 8396   0.882   2.095  14.334 -0.1764  0.0234  0.1857
  566MPD2    C5 8397   0.885   2.098  14.477 -0.3649  0.4542 -0.8459
  566MPD2     H 8398   1.162   2.278  14.277  0.5456  1.6427  1.5165
  566MPD2    H1 8399   0.807   2.033  14.287 -0.8245  0.1835  0.9993
  566MPD2    H2 8400   0.967   2.171  14.650  0.4846 -0.0002  0.1964
  566MPD2    H3 8401   0.811   2.045  14.535  0.1700  3.2190  2.3785
  566MPD2     N 8402   0.994   2.147  14.129 -0.1926 -0.2520 -0.3657
  566MPD2    H5 8403   1.075   2.192  14.088  0.0856  0.6380  1.1713
  566MPD2    N1 8404   1.184   2.285  14.543  0.5170 -0.3803 -0.0342
  566MPD2    H7 8405   1.183   2.248  14.638  2.0504 -0.7337 -0.1546
  567TMC3    C1 8406   1.412   2.325  14.544  0.3095  0.3532 -0.3214
  567TMC3    C2 8407   1.514   2.401  14.493  0.0252 -0.4201  0.2673
  567TMC3    C3 8408   1.642   2.373  14.506  0.1140  0.8332  0.5259
  567TMC3    C4 8409   1.431   2.202  14.615 -0.1860 -0.1908  0.8403
  567TMC3    C5 8410   1.567   2.169  14.615  0.0824  0.0396  0.3498
  567TMC3    C6 8411   1.669   2.249  14.565 -0.0495  0.2335  0.2914
  567TMC3     C 8412   1.282   2.355  14.485  0.1680  0.1150 -0.1624
  567TMC3     O 8413   1.271   2.444  14.399 -0.3765 -0.9914  0.0575
  567TMC3     H 8414   1.476   2.498  14.461 -1.1965  0.1065  3.2246
  567TMC3    H1 8415   1.355   2.128  14.634 -1.3841  0.7027 -0.4348
  567TMC3    H2 8416   1.771   2.222  14.589 -0.1494 -1.0622 -0.7884
  567TMC3    C7 8417   1.607   2.075  14.716  0.0181 -0.3994 -0.1785
  567TMC3    C8 8418   1.749   2.429  14.434 -0.3106 -0.1550  0.0214
  567TMC3    O1 8419   1.704   2.009  14.698 -0.4098  0.1235 -0.6255
  567TMC3    O2 8420   1.862   2.380  14.445  1.0904 -0.0501 -0.2585
  568MPD2     C 8421   3.760   2.045  16.194 -0.1286 -0.1644  0.4355
  568MPD2    C1 8422   3.733   2.120  16.314  0.0917 -0.5508 -0.3268
  568MPD2    C2 8423   3.641   2.227  16.306  0.0954  0.5057  0.0000
  568MPD2    C3 8424   3.588   2.261  16.180 -0.8194 -0.4054 -0.7421
  568MPD2    C4 8425   3.622   2.188  16.068 -0.7910  0.5935 -0.5520
  568MPD2    C5 8426   3.699   2.081  16.079 -0.7816 -0.6448  0.3563
  568MPD2     H 8427   3.616   2.289  16.392 -2.6227 -0.5205 -0.0585
  568MPD2    H1 8428   3.583   2.204  15.968 -0.9851 -0.3748 -0.6373
  568MPD2    H2 8429   3.827   1.960  16.188  3.1959  2.5551 -1.1541
  568MPD2    H3 8430   3.725   2.036  15.984 -3.4270  1.3295 -1.2987
  568MPD2     N 8431   3.489   2.363  16.154 -0.8007 -0.7271 -0.7168
  568MPD2    H5 8432   3.457   2.377  16.059  0.5234 -0.6361 -1.1590
  568MPD2    N1 8433   3.793   2.069  16.436 -0.4418  0.0429  0.3821
  568MPD2    H7 8434   3.873   2.007  16.425 -1.8916 -1.7145 -0.1957
  569TMC3    C1 8435   3.303   2.508  16.194 -0.4987  0.1166 -0.3706
  569TMC3    C2 8436   3.212   2.572  16.280  0.3214 -0.4247 -0.2634
  569TMC3    C3 8437   3.100   2.625  16.230 -0.2443 -0.2937 -0.1242
  569TMC3    C4 8438   3.275   2.498  16.060 -0.4360 -0.9574  0.3346
  569TMC3    C5 8439   3.159   2.551  16.016 -0.8322 -0.3524 -0.9927
  569TMC3    C6 8440   3.065   2.612  16.105 -0.1451 -0.1453 -1.0851
  569TMC3     C 8441   3.413   2.431  16.245  0.7771  0.0716 -0.2756
  569TMC3     O 8442   3.442   2.436  16.360  0.2113 -0.4144  0.1883
  569TMC3     H 8443   3.240   2.581  16.384  0.0990  2.3178 -0.4338
  569TMC3    H1 8444   3.344   2.462  15.985  0.5395 -1.7726  1.6221
  569TMC3    H2 8445   2.964   2.633  16.072  0.0508  0.9333 -1.0008
  569TMC3    C7 8446   3.176   2.627  15.892 -0.4363  0.6813  0.1494
  569TMC3    C8 8447   3.041   2.740  16.305  0.2909  0.6389 -0.3328
  569TMC3    O1 8448   3.244   2.579  15.801 -0.0582  0.2514 -0.7970
  569TMC3    O2 8449   2.926   2.772  16.278  0.0450  0.2923 -0.2504
  570TMC3    C1 8450   2.538   1.117  16.060 -0.4863  0.2146 -0.1477
  570TMC3    C2 8451   2.603   1.118  15.935  0.1062  0.4409 -0.0617
  570TMC3    C3 8452   2.676   1.230  15.907 -0.0418 -0.3702  0.3173
  570TMC3    C4 8453   2.530   1.231  16.137 -0.6289  0.3231 -0.2346
  570TMC3    C5 8454   2.616   1.329  16.110 -0.2931 -0.2336 -0.5344
  570TMC3    C6 8455   2.696   1.323  16.000 -0.6544  0.1735  0.2915
  570TMC3     C 8456   2.454   1.001  16.092  0.5999  0.0620  0.3858
  570TMC3     O 8457   2.408   0.933  16.000 -0.4241 -0.7286 -0.9743
  570TMC3     H 8458   2.600   1.022  15.884  1.3776  0.0281  0.6437
  570TMC3    H1 8459   2.477   1.234  16.231  1.6380  0.4066  1.0184
  570TMC3    H2 8460   2.767   1.401  15.976 -1.2582  1.1773  1.7425
  570TMC3    C7 8461   2.614   1.450  16.193  1.1596 -0.1987  0.5394
  570TMC3    C8 8462   2.746   1.231  15.780 -0.3698 -0.8172  0.0310
  570TMC3    O1 8463   2.609   1.421  16.311 -0.2749 -0.5017  0.3331
  570TMC3    O2 8464   2.780   1.344  15.750 -0.5918 -0.1594  0.2524
  571MPD2     C 8465   0.722   2.780  17.569 -1.0523 -0.8480  0.3373
  571MPD2    C1 8466   0.617   2.762  17.652 -0.1356  0.0739  0.1541
  571MPD2    C2 8467   0.559   2.876   0.022  0.3150 -0.4739 -0.3642
  571MPD2    C3 8468   0.630   2.999   0.015  0.4076 -0.5798 -0.3919
  571MPD2    C4 8469   0.741   3.010  17.619 -0.3561 -0.4961 -1.0454
  571MPD2    C5 8470   0.781   2.897  17.548  0.3251 -0.1106  0.0125
  571MPD2     H 8471   0.472   2.879   0.088 -0.7364 -3.7724 -1.6330
  571MPD2    H1 8472   0.804   3.098  17.613  0.3007 -1.0696 -2.4800
  571MPD2    H2 8473   0.770   2.696  17.520 -0.5644  0.5133 -1.5250
  571MPD2    H3 8474   0.867   2.892  17.482  0.9667  1.5744  0.7235
  571MPD2     N 8475   0.596   3.113   0.083 -0.0916 -0.0293  0.4930
  571MPD2    H5 8476   0.659   3.191   0.068  1.8426 -1.8613 -0.7121
  571MPD2    N1 8477   0.574   2.629  17.677  0.2620 -0.3113 -0.2045
  571MPD2    H7 8478   0.636   2.558  17.639 -0.5668 -1.3254  0.3437
  572TMC3    C1 8479   0.469   3.272   0.205 -0.6689  0.0306  0.4395
  572TMC3    C2 8480   0.578   3.329   0.255 -0.8752 -0.4081  0.3604
  572TMC3    C3 8481   0.563   3.446   0.333  0.1551  0.0963  0.0358
  572TMC3    C4 8482   0.344   3.319   0.226 -0.2322  0.1365 -0.2097
  572TMC3    C5 8483   0.324   3.435   0.301 -0.3796  0.8200  0.4264
  572TMC3    C6 8484   0.438   3.503   0.351  0.1761  0.1406 -0.0164
  572TMC3     C 8485   0.476   3.135   0.155  0.5192 -0.3176  0.3836
  572TMC3     O 8486   0.380   3.059   0.174 -0.3187 -0.7315 -0.1599
  572TMC3     H 8487   0.671   3.275   0.271  2.2015  3.8879 -2.7820
  572TMC3    H1 8488   0.263   3.268   0.175 -1.3108  0.8977  0.7079
  572TMC3    H2 8489   0.421   3.595   0.404  0.3944  0.0251  0.2542
  572TMC3    C7 8490   0.191   3.494   0.309 -0.5326 -0.0035 -0.0268
  572TMC3    C8 8491   0.661   3.459   0.435  0.5787 -0.2258 -0.0416
  572TMC3    O1 8492   0.179   3.616   0.294  0.5308 -0.6843  0.0736
  572TMC3    O2 8493   0.781   3.448   0.412 -0.2753  0.2333 -0.0376
  573MPD2     C 8494   1.638   3.614   1.060  0.1327 -0.7513 -0.7278
  573MPD2    C1 8495   1.616   3.750   1.062 -0.1458 -0.6804  0.8420
  573MPD2    C2 8496   1.567   3.802   0.943 -0.3910 -0.1099  0.6856
  573MPD2    C3 8497   1.523   3.721   0.838  0.0757  0.0248 -1.0907
  573MPD2    C4 8498   1.536   3.581   0.841 -0.1410  0.8498 -0.1212
  573MPD2    C5 8499   1.596   3.536   0.955 -0.3152 -1.0703 -0.4015
  573MPD2     H 8500   1.547   3.908   0.946  0.5389  0.1621 -2.3323
  573MPD2    H1 8501   1.506   3.522   0.755  0.2572  0.8427 -0.2522
  573MPD2    H2 8502   1.694   3.569   1.141  1.7016  1.5958 -0.5081
  573MPD2    H3 8503   1.604   3.429   0.967  2.5140 -0.5990  1.9277
  573MPD2     N 8504   1.449   3.775   0.731  0.2459 -1.1057 -0.3384
  573MPD2    H5 8505   1.425   3.702   0.666 -0.3454 -1.3006  0.1004
  573MPD2    N1 8506   1.646   3.825   1.174  0.0075  0.1562 -0.1070
  573MPD2    H7 8507   1.691   3.771   1.247  1.8580  2.7428  0.6758
  574TMC3    C1 8508   1.411   3.924   0.564  0.5870 -0.0323 -0.2685
  574TMC3    C2 8509   1.273   3.903   0.549 -0.1645 -0.5772  0.2116
  574TMC3    C3 8510   1.217   3.966   0.443 -0.4179  0.5743  0.1886
  574TMC3    C4 8511   1.489   3.991   0.471  1.1521  0.4388  0.2176
  574TMC3    C5 8512   1.429   4.048   0.361 -0.2858 -0.4842  0.3014
  574TMC3    C6 8513   1.291   4.042   0.354  0.1506 -0.4951  0.0386
  574TMC3     C 8514   1.457   3.907   0.697  0.9051  0.1569 -0.1671
  574TMC3     O 8515   1.496   4.003   0.756  0.0624 -0.0270  0.7213
  574TMC3     H 8516   1.219   3.849   0.626  0.3319  0.9340  1.6158
  574TMC3    H1 8517   1.588   4.018   0.506  0.6978  0.6851  1.3128
  574TMC3    H2 8518   1.241   4.109   0.286  1.9642  1.1765  0.3502
  574TMC3    C7 8519   1.502   4.128   0.260 -0.3333  0.5802  0.2047
  574TMC3    C8 8520   1.069   3.986   0.455  0.3084  0.4685  0.5010
  574TMC3    O1 8521   1.609   4.169   0.298  0.2949  0.5286  0.0667
  574TMC3    O2 8522   1.015   3.983   0.567 -0.3875  0.9527 -0.3326
  575TMC3    C1 8523   0.139   4.465  10.540  0.0111 -0.2675 -0.4260
  575TMC3    C2 8524   0.109   4.357  10.614  0.3641  0.0803 -0.7716
  575TMC3    C3 8525   4.714   4.284  10.590  0.2039  0.1694  0.2907
  575TMC3    C4 8526   0.061   4.494  10.431  0.1699 -0.5980 -0.7352
  575TMC3    C5 8527   4.666   4.427  10.413 -0.1137 -0.4618 -0.3365
  575TMC3    C6 8528   4.627   4.322  10.497 -0.0975 -0.1360  0.1058
  575TMC3     C 8529   0.224   4.555  10.611 -0.1948  0.1511 -0.5012
  575TMC3     O 8530   0.203   4.551  10.733  0.1354  0.0693 -0.4646
  575TMC3     H 8531   0.173   4.337  10.699  1.8805  1.6645 -1.5430
  575TMC3    H1 8532   0.073   4.591  10.385  0.2587  0.3317  1.2481
  575TMC3    H2 8533   4.524   4.289  10.494 -0.8083  2.1468 -1.4429
  575TMC3    C7 8534   4.586   4.469  10.301  0.0345 -0.1834 -0.1441
  575TMC3    C8 8535   4.689   4.164  10.668  0.6148  0.2828 -0.5143
  575TMC3    O1 8536   4.616   4.581  10.255 -0.0767 -0.2982  0.3361
  575TMC3    O2 8537   0.036   4.149  10.767  0.4261  0.9205 -0.0718
  576MPD2     C 8538   4.076   1.433  12.471  0.4317 -0.2834 -0.0022
  576MPD2    C1 8539   4.169   1.537  12.467  0.9829 -0.8472 -0.8519
  576MPD2    C2 8540   4.141   1.652  12.537 -0.0388  0.5308 -0.2447
  576MPD2    C3 8541   4.028   1.662  12.612 -0.3869 -0.1509  0.1433
  576MPD2    C4 8542   3.946   1.553  12.615  0.2052 -0.5128 -0.1321
  576MPD2    C5 8543   3.969   1.440  12.552  0.0715  0.0717  0.2164
  576MPD2     H 8544   4.209   1.737  12.539 -1.2295  1.3985  3.2393
  576MPD2    H1 8545   3.857   1.543  12.676 -0.0232 -0.2716 -0.4220
  576MPD2    H2 8546   4.094   1.340  12.418  0.7122 -0.9896  1.3176
  576MPD2    H3 8547   3.901   1.357  12.567 -1.5750  1.4924  0.6816
  576MPD2     N 8548   4.002   1.775  12.693 -0.3520  0.4174  0.3809
  576MPD2    H5 8549   4.076   1.844  12.684 -0.5044  0.7961  2.1970
  576MPD2    N1 8550   4.286   1.548  12.387 -0.9048 -0.4480 -0.3835
  576MPD2    H7 8551   4.335   1.635  12.375  1.5552 -1.6579  0.9582
  577TMC3    C1 8552   4.468   1.475  12.258 -0.5512  0.4063 -0.1919
  577TMC3    C2 8553   4.557   1.380  12.297  0.1621 -0.0997 -0.1460
  577TMC3    C3 8554   4.662   1.349  12.212  0.1030 -0.6616  0.0935
  577TMC3    C4 8555   4.463   1.515  12.129 -0.4913  0.2727 -0.2126
  577TMC3    C5 8556   4.556   1.462  12.040 -0.5255  0.5639 -0.5430
  577TMC3    C6 8557   4.664   1.394  12.082 -0.4003 -0.3248  0.4238
  577TMC3     C 8558   4.343   1.447  12.315  0.3535  0.2187 -0.8006
  577TMC3     O 8559   4.307   1.330  12.310  0.4210 -0.2349  0.1009
  577TMC3     H 8560   4.543   1.332  12.394  0.4439  0.0785 -0.0185
  577TMC3    H1 8561   4.373   1.563  12.091 -0.7927  0.2736  0.4928
  577TMC3    H2 8562   0.032   1.378  12.021 -1.2306 -0.6737 -0.6694
  577TMC3    C7 8563   4.569   1.516  11.906 -0.3757 -0.0881  0.0126
  577TMC3    C8 8564   0.029   1.245  12.262  0.4562  0.2635  0.3837
  577TMC3    O1 8565   4.617   1.438  11.825 -0.1701 -0.3557 -0.2708
  577TMC3    O2 8566   0.005   1.189  12.366  0.9449 -0.1823 -0.0190
  578MPD2     C 8567   1.739   1.868   0.485 -0.1516 -0.3188 -0.2588
  578MPD2    C1 8568   1.873   1.885   0.440 -0.2302 -0.1527  0.2969
  578MPD2    C2 8569   1.966   1.790   0.481 -0.6240 -0.1289  0.2371
  578MPD2    C3 8570   1.941   1.686   0.569  0.6788  0.2605 -0.0110
  578MPD2    C4 8571   1.812   1.683   0.618  0.5555  0.3142  0.5892
  578MPD2    C5 8572   1.712   1.758   0.562  0.2369 -0.5572  0.1373
  578MPD2     H 8573   2.065   1.810   0.443 -0.6934  1.5218  0.9076
  578MPD2    H1 8574   1.784   1.607   0.690  0.5950 -0.8750 -0.6366
  578MPD2    H2 8575   1.659   1.932   0.450  0.2450 -0.0759 -0.7202
  578MPD2    H3 8576   1.609   1.742   0.592  0.7557  0.9039  2.6982
  578MPD2     N 8577   2.045   1.598   0.601 -0.1204  0.1176 -0.3986
  578MPD2    H5 8578   2.131   1.627   0.555  1.1333 -2.8755  0.0890
  578MPD2    N1 8579   1.912   1.997   0.355  0.1851  0.2954  0.0247
  578MPD2    H7 8580   2.008   2.000   0.322  0.4551 -0.6304  0.7364
  579TMC3    C1 8581   2.165   1.421   0.709 -0.2283 -0.8209  0.6329
  579TMC3    C2 8582   2.265   1.501   0.756 -0.0254  0.0245 -0.4213
  579TMC3    C3 8583   2.371   1.438   0.807  0.1468 -0.1582 -0.4548
  579TMC3    C4 8584   2.171   1.289   0.713 -0.3175  0.6704 -0.3123
  579TMC3    C5 8585   2.292   1.225   0.753  0.3255 -0.2630 -0.4344
  579TMC3    C6 8586   2.392   1.309   0.804 -0.3762  0.0715  0.6380
  579TMC3     C 8587   2.037   1.482   0.682  0.4086  0.1699  0.0516
  579TMC3     O 8588   1.931   1.421   0.709  0.2461  0.1247  0.1295
  579TMC3     H 8589   2.262   1.609   0.744 -0.0157 -0.1561 -2.0138
  579TMC3    H1 8590   2.089   1.222   0.691  0.5507 -1.2304  2.2079
  579TMC3    H2 8591   2.462   1.273   0.878  2.4869  0.4260 -1.8982
  579TMC3    C7 8592   2.314   1.084   0.791  0.2804 -0.0939  0.0787
  579TMC3    C8 8593   2.454   1.531   0.895 -0.7077  0.5854 -0.4135
  579TMC3    O1 8594   2.398   1.060   0.878  0.6673  0.2100  0.2998
  579TMC3    O2 8595   2.404   1.634   0.938  0.2752 -0.1603 -0.5747
  580TMC3    C1 8596   2.531   0.677  11.670 -0.5114  0.1819 -0.0839
  580TMC3    C2 8597   2.660   0.727  11.651  0.4237 -0.2104 -0.4435
  580TMC3    C3 8598   2.761   0.638  11.681  0.9540 -0.4803  0.4016
  580TMC3    C4 8599   2.508   0.564  11.740  0.9230  0.5961  0.1179
  580TMC3    C5 8600   2.616   0.480  11.772  0.0362  0.4369  0.4509
  580TMC3    C6 8601   2.740   0.513  11.739 -0.1014  0.0880  0.1442
  580TMC3     C 8602   2.410   0.743  11.618  0.6881  0.2450 -0.1516
  580TMC3     O 8603   2.297   0.701  11.648  0.3886  0.0404  0.1475
  580TMC3     H 8604   2.684   0.821  11.602  1.9108 -1.5691 -2.3287
  580TMC3    H1 8605   2.408   0.523  11.743  1.4808 -0.8001 -0.3239
  580TMC3    H2 8606   2.822   0.459  11.784  0.6009  0.0625 -1.1570
  580TMC3    C7 8607   2.594   0.386  11.881 -0.0115 -0.2387  0.3356
  580TMC3    C8 8608   2.897   0.674  11.632  0.1316 -0.0139 -0.1540
  580TMC3    O1 8609   2.492   0.412  11.944  0.2853  0.5818 -0.1038
  580TMC3    O2 8610   2.915   0.794  11.608  0.8284  0.1027 -0.1189
  581MPD2     C 8611   4.581   0.100  14.643  0.5596 -0.3266  0.2963
  581MPD2    C1 8612   4.493   0.123  14.745  0.4126  0.1561  0.1300
  581MPD2    C2 8613   4.381   0.201  14.725 -0.0453  0.4792 -0.3195
  581MPD2    C3 8614   4.360   0.259  14.608 -0.3396  0.3520  0.3107
  581MPD2    C4 8615   4.449   0.249  14.506  0.3318 -0.2723  0.0635
  581MPD2    C5 8616   4.558   0.168  14.532  0.1809  0.2706  0.1650
  581MPD2     H 8617   4.311   0.217  14.806 -0.3720 -0.3020 -0.4441
  581MPD2    H1 8618   4.443   0.300  14.410  0.1424 -1.6202 -0.6302
  581MPD2    H2 8619   4.669   0.042  14.664  1.2699 -0.2782 -2.5417
  581MPD2    H3 8620   4.623   0.160  14.446 -1.2178  1.3040 -0.9802
  581MPD2     N 8621   4.246   0.342  14.588 -0.2940 -0.4007  0.3816
  581MPD2    H5 8622   4.189   0.355  14.671 -0.3970  0.3870  0.1931
  581MPD2    N1 8623   4.531   0.077  14.878  0.4111 -0.0253  0.2133
  581MPD2    H7 8624   4.618   0.026  14.885  0.5203  0.2347  0.7141
  582TMC3    C1 8625   4.498   4.715  15.103 -0.4136  0.1014  0.3824
  582TMC3    C2 8626   4.633   4.713  15.124 -0.2622  0.1132  0.0552
  582TMC3    C3 8627   4.682   4.672  15.251  0.0692  0.2798 -0.3041
  582TMC3    C4 8628   4.410   4.687  15.205  0.0941 -0.0307 -0.2594
  582TMC3    C5 8629   4.461   4.644  15.321  0.2987 -0.3233  0.0789
  582TMC3    C6 8630   4.598   4.631  15.346 -0.3444 -0.1493 -0.4256
  582TMC3     C 8631   4.446   0.073  14.988 -0.7846  0.7649 -0.0017
  582TMC3     O 8632   4.333   0.115  15.005  0.8469 -0.2316 -0.5364
  582TMC3     H 8633   4.703   0.048  15.061 -0.2579 -1.4364 -1.2850
  582TMC3    H1 8634   4.303   4.688  15.192  0.5404 -0.7630 -4.0155
  582TMC3    H2 8635   4.634   4.565  15.424  0.1117  0.7639  0.1394
  582TMC3    C7 8636   4.396   4.692  15.442 -0.3044  0.1519 -0.4754
  582TMC3    C8 8637   0.057   0.043  15.306 -0.5215 -0.2720 -0.1645
  582TMC3    O1 8638   4.421   4.626  15.541 -0.6245  0.7535  0.3781
  582TMC3    O2 8639   0.161   0.068  15.244  0.0032 -0.0407  0.7811
  583MPD2     C 8640   4.551   1.746  17.162  0.9802  0.8373  0.2495
  583MPD2    C1 8641   4.553   1.848  17.069 -0.4081 -0.0597  0.1995
  583MPD2    C2 8642   4.517   1.973  17.117 -0.1235  0.1696  0.4789
  583MPD2    C3 8643   4.484   1.993  17.246 -0.2093 -0.0303  0.0336
  583MPD2    C4 8644   4.507   1.894  17.341  0.3536 -0.5577  0.7949
  583MPD2    C5 8645   4.532   1.767  17.292  0.2899  0.1118  0.5808
  583MPD2     H 8646   4.491   2.055  17.051  1.9922  1.3186  1.0800
  583MPD2    H1 8647   4.490   1.905  17.448  1.8140 -2.4613  1.2193
  583MPD2    H2 8648   4.561   1.645  17.126  1.5231  0.6235  1.0174
  583MPD2    H3 8649   4.539   1.686  17.364 -0.9985 -0.7641 -0.2764
  583MPD2     N 8650   4.431   2.126  17.276  1.2963 -0.2168  0.0692
  583MPD2    H5 8651   4.406   2.190  17.201 -0.2190 -0.0401  0.7153
  583MPD2    N1 8652   4.596   1.854  16.937  0.1132  0.0901 -0.5266
  583MPD2    H7 8653   4.574   1.942  16.892 -1.9904  0.8415  2.0029
  584TMC3    C1 8654   4.383   2.308  17.420 -0.5035 -0.7004  0.6466
  584TMC3    C2 8655   4.358   2.383  17.302 -0.5813  0.3526  0.0927
  584TMC3    C3 8656   4.319   2.510  17.321  0.2514 -0.9484  0.2732
  584TMC3    C4 8657   4.364   2.349  17.542 -0.4830  1.2529 -0.1919
  584TMC3    C5 8658   4.307   2.472  17.559 -0.3160  0.0780 -0.4190
  584TMC3    C6 8659   4.284   2.552  17.447  0.5564  0.5258 -0.0817
  584TMC3     C 8660   4.424   2.171  17.408  0.3154  0.0875 -0.3120
  584TMC3     O 8661   4.457   2.109  17.509 -0.1095  0.1849 -0.4121
  584TMC3     H 8662   4.379   2.357  17.199  1.1951  0.5609  0.3869
  584TMC3    H1 8663   4.368   2.283  17.628  0.7425  2.5630  0.7412
  584TMC3    H2 8664   4.272   2.658  17.470 -0.1759  0.5068 -0.3614
  584TMC3    C7 8665   4.236   2.502  17.681 -0.5275 -0.1910 -0.0076
  584TMC3    C8 8666   4.314   2.605  17.214 -0.5180 -0.0743  0.6097
  584TMC3    O1 8667   4.282   2.449   0.100  0.2419 -0.2352 -0.1243
  584TMC3    O2 8668   4.293   2.555  17.105 -0.6151  0.2908 -0.2923
  585MPD2     C 8669   4.213   0.536   0.488  0.1978  0.1135 -0.4115
  585MPD2    C1 8670   4.136   0.636   0.424  0.7082  0.8641  0.5929
  585MPD2    C2 8671   4.092   0.614   0.301 -0.3001  0.4421 -0.2408
  585MPD2    C3 8672   4.115   0.494   0.238  0.9559 -0.2694 -0.2175
  585MPD2    C4 8673   4.186   0.396   0.302 -0.2946 -0.0621 -0.1818
  585MPD2    C5 8674   4.238   0.421   0.425 -0.0684 -0.2199 -0.0699
  585MPD2     H 8675   4.050   0.700   0.251 -2.4204 -0.2937  0.2604
  585MPD2    H1 8676   4.185   0.299   0.253 -1.3914 -0.2271  0.1475
  585MPD2    H2 8677   4.235   0.547   0.593 -0.7594 -1.0301 -0.0928
  585MPD2    H3 8678   4.285   0.344   0.486  3.5442  1.5439 -0.6562
  585MPD2     N 8679   4.084   0.473   0.101  0.1867 -0.0264  0.8066
  585MPD2    H5 8680   4.107   0.383   0.061 -1.9579 -1.4620  2.8151
  585MPD2    N1 8681   4.109   0.765   0.474 -0.7828 -0.1232  0.0484
  585MPD2    H7 8682   4.038   0.822   0.429 -1.4422  0.0339  1.3103
  586TMC3    C1 8683   3.986   0.499  17.568  0.3981 -0.7106 -0.0710
  586TMC3    C2 8684   4.088   0.434  17.511 -0.0787 -0.7907 -0.1376
  586TMC3    C3 8685   4.078   0.418  17.380 -0.6041 -0.2180 -0.0951
  586TMC3    C4 8686   3.886   0.557  17.498 -0.4507  0.2399 -0.2962
  586TMC3    C5 8687   3.886   0.540  17.360 -0.4417  1.0001  0.1312
  586TMC3    C6 8688   3.977   0.462  17.294  0.1415 -0.4533 -0.5560
  586TMC3     C 8689   4.012   0.555   0.017  0.2784  0.5549  0.5926
  586TMC3     O 8690   3.967   0.663   0.046  0.6055  0.7684 -0.5836
  586TMC3     H 8691   4.169   0.390  17.568  0.7266  0.4045 -0.3497
  586TMC3    H1 8692   3.805   0.620  17.534 -0.7849 -0.9374  1.0061
  586TMC3    H2 8693   3.956   0.426  17.194 -0.9819 -0.9711 -0.1402
  586TMC3    C7 8694   3.758   0.531  17.307 -0.3309 -0.5325  0.2268
  586TMC3    C8 8695   4.157   0.313  17.322  0.3520 -0.1572  0.1537
  586TMC3    O1 8696   3.664   0.508  17.380 -0.1094 -0.0050  0.0699
  586TMC3    O2 8697   4.219   0.240  17.399  0.2099  0.1624  0.0382
  587TMC3    C1 8698   1.483   3.948  16.802 -0.3296 -0.1902  0.5458
  587TMC3    C2 8699   1.451   4.041  16.704 -0.1530 -1.0765  0.8672
  587TMC3    C3 8700   1.545   4.075  16.614  0.5639  0.1003 -0.4214
  587TMC3    C4 8701   1.605   3.894  16.812  0.2661  0.0975 -0.6272
  587TMC3    C5 8702   1.700   3.937  16.718 -0.6076  0.5091 -0.6752
  587TMC3    C6 8703   1.675   4.036  16.624 -0.3293  0.2964  0.2945
  587TMC3     C 8704   1.385   3.898  16.900 -0.5255  0.0591 -0.5982
  587TMC3     O 8705   1.426   3.836  16.999 -0.7122 -0.0755 -0.4853
  587TMC3     H 8706   1.361   4.098  16.722  0.5937  0.6794 -0.9979
  587TMC3    H1 8707   1.625   3.818  16.887 -2.9708 -0.2276 -0.0786
  587TMC3    H2 8708   1.747   4.068  16.550  1.3150  0.0690  1.7911
  587TMC3    C7 8709   1.827   3.878  16.742 -0.0249  0.2909 -0.2098
  587TMC3    C8 8710   1.523   4.189  16.525 -0.4699  0.6118 -0.1412
  587TMC3    O1 8711   1.830   3.772  16.801  1.0528 -0.0317 -0.5422
  587TMC3    O2 8712   1.611   4.267  16.493  0.5160 -0.1929 -0.1243
  588TMC3    C1 8713   4.256   2.012   9.511 -0.6534  0.7879 -0.1170
  588TMC3    C2 8714   4.225   1.880   9.535 -0.4465 -0.0635  0.6470
  588TMC3    C3 8715   4.266   1.825   9.652 -0.0823 -0.6031 -0.1521
  588TMC3    C4 8716   4.338   2.092   9.591 -0.1049 -0.2069 -0.3345
  588TMC3    C5 8717   4.384   2.024   9.698 -0.5625 -0.3382 -0.3289
  588TMC3    C6 8718   4.354   1.895   9.734  0.2038 -0.7705 -0.2657
  588TMC3     C 8719   4.171   2.095   9.425 -0.4944 -0.7982  0.8607
  588TMC3     O 8720   4.107   2.039   9.333  0.6546 -0.6107  0.4109
  588TMC3     H 8721   4.150   1.834   9.472  0.2290  1.6495 -1.4313
  588TMC3    H1 8722   4.366   2.192   9.561 -0.0376 -0.1807 -0.1841
  588TMC3    H2 8723   4.387   1.852   9.828  2.2317  2.8050  0.6807
  588TMC3    C7 8724   4.451   2.102   9.803  0.3153  0.5130  0.7048
  588TMC3    C8 8725   4.232   1.689   9.690 -0.6541 -0.0032 -0.3228
  588TMC3    O1 8726   4.559   2.060   9.848 -0.2012  0.5178  0.2239
  588TMC3    O2 8727   4.132   1.644   9.631  0.1874  0.6975  0.5044
  589TMC3    C1 8728   2.308   4.138   0.957 -0.1022 -0.0053  0.1195
  589TMC3    C2 8729   2.341   4.100   1.085 -0.0200 -0.2353  0.5447
  589TMC3    C3 8730   2.400   3.975   1.098 -0.5870 -1.0469 -1.1395
  589TMC3    C4 8731   2.319   4.053   0.850  0.4407 -0.0589  0.7631
  589TMC3    C5 8732   2.380   3.929   0.870 -0.3017 -0.1327 -0.0801
  589TMC3    C6 8733   2.429   3.895   0.993  0.3070 -0.2056 -0.0740
  589TMC3     C 8734   2.267   4.280   0.936 -0.1638 -0.9108  0.4255
  589TMC3     O 8735   2.190   4.299   0.845 -0.1938  0.4193 -0.0665
  589TMC3     H 8736   2.326   4.168   1.169  1.9009 -1.2190  1.6903
  589TMC3    H1 8737   2.300   4.080   0.747  0.6474 -1.2368  0.4175
  589TMC3    H2 8738   2.462   3.793   1.008 -3.3701 -1.2447  1.0389
  589TMC3    C7 8739   2.351   3.817   0.781 -1.0843 -0.4471  0.2503
  589TMC3    C8 8740   2.471   3.944   1.221 -0.8212 -0.4537  0.5771
  589TMC3    O1 8741   2.347   3.701   0.822 -0.0635 -0.0284  0.3656
  589TMC3    O2 8742   2.429   3.997   1.324  0.1850  0.5093  0.4056
  590MPD2     C 8743   2.306   2.608  16.921 -0.4210 -0.7798  0.3630
  590MPD2    C1 8744   2.255   2.722  16.867 -0.2639 -0.7123 -0.0581
  590MPD2    C2 8745   2.278   2.739  16.734  1.0067 -0.2704  0.4227
  590MPD2    C3 8746   2.348   2.646  16.654 -0.0572 -0.2298  0.0413
  590MPD2    C4 8747   2.384   2.524  16.708 -0.6961 -0.5090  0.0388
  590MPD2    C5 8748   2.361   2.512  16.845  0.1742 -0.4362  0.3987
  590MPD2     H 8749   2.243   2.830  16.687  0.7121 -0.6160 -0.0285
  590MPD2    H1 8750   2.443   2.458  16.647  1.9536  1.6143  0.3124
  590MPD2    H2 8751   2.320   2.596  17.028  0.0550  1.8319  0.5872
  590MPD2    H3 8752   2.402   2.424  16.893  1.4970 -0.1230 -0.1607
  590MPD2     N 8753   2.399   2.695  16.527 -0.0673 -0.5735  0.5142
  590MPD2    H5 8754   2.368   2.790  16.512  1.2939 -0.8479 -3.8844
  590MPD2    N1 8755   2.186   2.819  16.941  0.6877 -0.4431  0.1959
  590MPD2    H7 8756   2.146   2.896  16.888  1.5872 -1.9551 -2.6032
  591TMC3    C1 8757   2.489   2.725  16.309  0.3109 -0.2620  0.3494
  591TMC3    C2 8758   2.579   2.675  16.213 -0.5933  0.6269  0.1289
  591TMC3    C3 8759   2.603   2.751  16.099 -0.3202 -0.1144  0.0798
  591TMC3    C4 8760   2.419   2.841  16.292  0.6270 -0.3787 -0.0527
  591TMC3    C5 8761   2.454   2.913  16.182  0.3920 -0.0381 -0.4047
  591TMC3    C6 8762   2.545   2.876  16.090  0.3509  0.6573  0.0500
  591TMC3     C 8763   2.464   2.634  16.424 -0.3158 -0.1734  0.6643
  591TMC3     O 8764   2.521   2.526  16.430 -0.1223 -0.9529 -0.1754
  591TMC3     H 8765   2.624   2.577  16.218  0.2036  1.0556  1.2974
  591TMC3    H1 8766   2.353   2.882  16.368  1.2317  2.6943 -1.1635
  591TMC3    H2 8767   2.540   2.919  15.991 -1.9839 -0.2549 -0.2228
  591TMC3    C7 8768   2.371   3.031  16.153  0.5946 -0.2593 -0.7713
  591TMC3    C8 8769   2.688   2.699  16.001  0.0455 -0.1361 -0.1172
  591TMC3    O1 8770   2.263   3.034  16.208  0.3732  0.6278 -0.0038
  591TMC3    O2 8771   2.736   2.590  16.024  0.3360  0.4836  0.5890
  592MPD2     C 8772   3.687   0.132  11.458  0.2039  0.2075 -0.8558
  592MPD2    C1 8773   3.691   0.216  11.565  0.0131  0.4054  0.0694
  592MPD2    C2 8774   3.651   0.163  11.686 -0.9630 -0.5798  0.2209
  592MPD2    C3 8775   3.620   0.037  11.709  0.1814 -0.8306  0.3485
  592MPD2    C4 8776   3.624   4.670  11.601  0.7836  0.0655  0.4145
  592MPD2    C5 8777   3.656   4.718  11.472 -0.4209  0.2929  0.4691
  592MPD2     H 8778   3.632   0.228  11.771  1.0120  0.9348 -0.4983
  592MPD2    H1 8779   3.583   4.570  11.606  2.7645 -0.8034 -0.8287
  592MPD2    H2 8780   3.716   0.169  11.360  0.0648 -2.1056 -1.7875
  592MPD2    H3 8781   3.638   4.653  11.387 -1.6686  3.8036 -1.9652
  592MPD2     N 8782   3.557   0.007  11.832 -0.2902  0.5150 -0.1788
  592MPD2    H5 8783   3.524   0.087  11.885  1.3926  0.4323  0.9923
  592MPD2    N1 8784   3.716   0.355  11.545  0.4195 -0.3106  0.2346
  592MPD2    H7 8785   3.752   0.384  11.455  0.6381  1.7761  0.9798
  593TMC3    C1 8786   3.756   0.586  11.594  0.1559 -0.6137 -0.1757
  593TMC3    C2 8787   3.699   0.699  11.654  0.0382  0.1857  0.4582
  593TMC3    C3 8788   3.679   0.810  11.576 -0.0536  1.0672  0.3116
  593TMC3    C4 8789   3.796   0.594  11.461 -0.1899  0.2246  0.4571
  593TMC3    C5 8790   3.769   0.708  11.382 -0.3511 -0.9236  0.0047
  593TMC3    C6 8791   3.709   0.817  11.444  0.6609  0.5062 -0.0685
  593TMC3     C 8792   3.717   0.449  11.647 -0.1009  0.5216 -1.2885
  593TMC3     O 8793   3.697   0.438  11.768  0.4217  0.7959  0.0445
  593TMC3     H 8794   3.679   0.708  11.760  0.6242  0.2176  0.5679
  593TMC3    H1 8795   3.856   0.516  11.416 -1.6599 -0.8315  0.3316
  593TMC3    H2 8796   3.701   0.916  11.400  1.1610  0.1318 -0.9999
  593TMC3    C7 8797   3.834   0.733  11.265 -0.0963  0.6435 -0.5678
  593TMC3    C8 8798   3.699   0.938  11.642  0.1859 -0.2469  0.4012
  593TMC3    O1 8799   3.874   0.845  11.233 -0.2933 -0.6102  0.2051
  593TMC3    O2 8800   3.643   1.036  11.591  0.4667 -0.0247 -0.0488
  594MPD2     C 8801   1.312   3.810  14.154  1.0183  0.6583  0.1135
  594MPD2    C1 8802   1.334   3.729  14.261 -0.8801  0.8542 -0.2596
  594MPD2    C2 8803   1.464   3.724  14.310  1.1467  0.7960 -0.2358
  594MPD2    C3 8804   1.568   3.805  14.267  0.7349  0.3498 -0.1336
  594MPD2    C4 8805   1.536   3.884  14.158 -0.0236 -0.5972 -0.0065
  594MPD2    C5 8806   1.409   3.891  14.106  0.3936 -0.2906  0.2713
  594MPD2     H 8807   1.483   3.672  14.404 -3.0740 -0.0416  0.1293
  594MPD2    H1 8808   1.606   3.951  14.109  1.7203 -2.6348 -0.2836
  594MPD2    H2 8809   1.207   3.826  14.135  1.1480  2.2050  0.6406
  594MPD2    H3 8810   1.388   3.967  14.031  0.5840 -0.5427 -0.0362
  594MPD2     N 8811   1.694   3.806  14.331  0.0631  0.4271 -0.3447
  594MPD2    H5 8812   1.708   3.740  14.408  0.5957 -0.0065 -0.8113
  594MPD2    N1 8813   1.227   3.644  14.302 -0.4333 -0.0852  0.0105
  594MPD2    H7 8814   1.133   3.669  14.273 -0.3753  0.0614 -0.0567
  595TMC3    C1 8815   2.081   3.983  14.486 -0.0435  0.1585  0.0145
  595TMC3    C2 8816   2.015   3.928  14.383  0.4276 -0.1515 -0.2233
  595TMC3    C3 8817   1.898   3.863  14.407  0.6072 -0.2313 -0.1996
  595TMC3    C4 8818   2.043   3.964  14.619  0.7259 -0.3597  0.0763
  595TMC3    C5 8819   1.916   3.907  14.638 -0.5567 -0.3372  0.0947
  595TMC3    C6 8820   1.844   3.854  14.534  0.7089  0.2312  0.6610
  595TMC3     C 8821   2.204   4.052  14.475  0.6275  0.1632 -0.5835
  595TMC3     O 8822   2.269   4.045  14.579  0.2428 -0.2676  0.9512
  595TMC3     H 8823   2.057   3.935  14.283 -0.9583  0.4045 -0.7587
  595TMC3    H1 8824   2.102   4.006  14.700  0.3521 -0.0976  0.2140
  595TMC3    H2 8825   1.743   3.822  14.558  0.8949  0.8585  2.3339
  595TMC3    C7 8826   1.840   3.918  14.759 -0.7876 -0.4255  0.3221
  595TMC3    C8 8827   1.802   3.891  14.306  0.2705  0.1326  0.5085
  595TMC3    O1 8828   1.721   3.896  14.764  0.0228 -0.0237  0.5763
  595TMC3    O2 8829   1.819   3.972  14.216  0.3604  0.4276  0.0235
  596MPD2     C 8830   0.640   1.525  16.954 -0.4010  0.3483  0.6305
  596MPD2    C1 8831   0.701   1.648  16.937  0.3830 -0.4089  0.0388
  596MPD2    C2 8832   0.744   1.676  16.807 -0.0690 -0.4031  0.2734
  596MPD2    C3 8833   0.722   1.588  16.702  0.2285  0.4315  0.2902
  596MPD2    C4 8834   0.665   1.470  16.726 -0.9054 -0.2936 -0.3310
  596MPD2    C5 8835   0.625   1.433  16.846  0.7294 -0.3762 -0.1670
  596MPD2     H 8836   0.795   1.770  16.790 -0.1292 -0.3760  0.2448
  596MPD2    H1 8837   0.651   1.401  16.644  0.2274 -0.3360 -0.4840
  596MPD2    H2 8838   0.591   1.494  17.046 -1.6460  1.0325  0.2034
  596MPD2    H3 8839   0.574   1.338  16.855 -1.0595  0.6176  0.3300
  596MPD2     N 8840   0.756   1.613  16.564 -0.0293 -0.3356  0.1644
  596MPD2    H5 8841   0.730   1.536  16.504 -1.8287  1.2699 -1.1376
  596MPD2    N1 8842   0.711   1.755  17.031  0.3240  0.2156 -0.6847
  596MPD2    H7 8843   0.738   1.846  16.996  1.9324 -0.3999 -1.0306
  597TMC3    C1 8844   0.639   1.878  17.223 -0.5442 -0.9330  0.6819
  597TMC3    C2 8845   0.752   1.960  17.211  0.2770 -0.1891  0.4222
  597TMC3    C3 8846   0.749   2.072  17.284 -0.2592 -0.5820 -0.4957
  597TMC3    C4 8847   0.528   1.914  17.291  0.7697 -0.5529  0.2132
  597TMC3    C5 8848   0.535   2.033  17.362  0.3626  0.2004 -0.2449
  597TMC3    C6 8849   0.646   2.115  17.364  0.3671  0.4039 -0.9390
  597TMC3     C 8850   0.634   1.754  17.148 -0.2417 -0.0478 -0.0180
  597TMC3     O 8851   0.572   1.658  17.190  0.1358  0.5381  0.0784
  597TMC3     H 8852   0.833   1.927  17.147  0.4380 -2.4100  1.7810
  597TMC3    H1 8853   0.443   1.847  17.298  1.5874 -1.4980  1.1466
  597TMC3    H2 8854   0.644   2.207  17.421 -1.5498 -0.2057 -0.0220
  597TMC3    C7 8855   0.424   2.075  17.444 -0.5675  0.1318 -0.2723
  597TMC3    C8 8856   0.872   2.158  17.284  0.3907  0.8854 -0.2705
  597TMC3    O1 8857   0.345   1.993  17.484  0.0141 -0.1723  0.0539
  597TMC3    O2 8858   0.859   2.273  17.324 -0.5404  0.3491  0.4363
  598TMC3    C1 8859   3.604   3.607  15.419 -0.0666  0.6123 -0.1203
  598TMC3    C2 8860   3.484   3.534  15.413 -0.4923 -0.2554 -0.1521
  598TMC3    C3 8861   3.482   3.446  15.310 -0.0347 -0.1588 -0.5492
  598TMC3    C4 8862   3.705   3.596  15.324  0.0068 -0.2710 -0.0724
  598TMC3    C5 8863   3.688   3.505  15.221  0.0650 -0.1942 -0.3577
  598TMC3    C6 8864   3.571   3.434  15.210 -0.2494  0.6665 -0.0275
  598TMC3     C 8865   3.644   3.660  15.544  0.7822 -0.2185 -0.2757
  598TMC3     O 8866   3.762   3.674  15.574 -0.2494 -0.3917  0.1287
  598TMC3     H 8867   3.417   3.527  15.498  1.6242 -0.9606  1.4528
  598TMC3    H1 8868   3.801   3.642  15.342 -0.2320  1.0749 -2.3186
  598TMC3    H2 8869   3.558   3.368  15.125 -0.9012 -1.7832  1.9571
  598TMC3    C7 8870   3.749   3.537  15.096  0.1505  0.2690 -0.0027
  598TMC3    C8 8871   3.379   3.340  15.307  0.1156  0.0404 -0.6170
  598TMC3    O1 8872   3.732   3.455  15.011 -0.1627 -0.3440  0.1637
  598TMC3    O2 8873   3.409   3.234  15.251  0.3731 -0.0429 -0.3921
  599MPD2     C 8874   3.652   1.155  15.564 -0.1871 -0.2765 -1.1465
  599MPD2    C1 8875   3.633   1.020  15.585  0.1989 -0.1037 -0.1424
  599MPD2    C2 8876   3.516   0.979  15.650 -0.2299 -0.2299  0.3527
  599MPD2    C3 8877   3.416   1.069  15.675  0.0022  0.2684  0.2723
  599MPD2    C4 8878   3.435   1.204  15.645  0.8416 -0.5368  0.0926
  599MPD2    C5 8879   3.551   1.251  15.588 -0.2450  0.3092 -0.4539
  599MPD2     H 8880   3.491   0.874  15.663  1.3854 -0.4868  1.3513
  599MPD2    H1 8881   3.360   1.281  15.660  0.9628 -0.5522  0.7645
  599MPD2    H2 8882   3.750   1.184  15.526  0.7653 -1.8098  0.1352
  599MPD2    H3 8883   3.581   1.355  15.584  0.6643  0.0135 -1.2313
  599MPD2     N 8884   3.297   1.035  15.741  0.2096  0.0725  0.3810
  599MPD2    H5 8885   3.238   1.108  15.779  1.0627  0.6834  0.5355
  599MPD2    N1 8886   3.728   0.929  15.539 -0.3956 -0.2494 -0.0054
  599MPD2    H7 8887   3.814   0.963  15.498 -0.3625  1.2091  1.2924
  600TMC3    C1 8888   3.123   0.910  15.845 -0.2341  0.0130 -0.5879
  600TMC3    C2 8889   3.094   0.787  15.899 -1.3779  2.0445 -0.0768
  600TMC3    C3 8890   2.999   0.782  16.001 -0.0406 -0.0852 -0.2537
  600TMC3    C4 8891   3.060   1.023  15.884 -0.1593 -0.9352 -0.6175
  600TMC3    C5 8892   2.978   1.016  15.991 -0.0891 -0.7021 -0.2928
  600TMC3    C6 8893   2.943   0.898  16.050 -0.3840 -0.2870  0.3569
  600TMC3     C 8894   3.244   0.914  15.763 -0.2517 -0.2922 -0.3312
  600TMC3     O 8895   3.274   0.815  15.702 -0.8077 -0.1114  0.1948
  600TMC3     H 8896   3.161   0.704  15.886 -1.1810  2.0573  0.8449
  600TMC3    H1 8897   3.066   1.115  15.827 -1.6243 -0.2814  0.2970
  600TMC3    H2 8898   2.879   0.894  16.136 -0.7483 -1.8424  0.0175
  600TMC3    C7 8899   2.980   1.125  16.088  0.5152  0.1360  0.5857
  600TMC3    C8 8900   2.964   0.658  16.074  0.1152 -0.3210 -0.2538
  600TMC3    O1 8901   2.901   1.118  16.181 -0.8932 -0.6001  0.1509
  600TMC3    O2 8902   3.048   0.604  16.140  0.0695 -0.0599  0.0050
  601MPD2     C 8903   4.400   3.416   0.233  0.3596 -0.2166 -0.2751
  601MPD2    C1 8904   4.478   3.528   0.218 -0.6382 -0.4964 -0.1004
  601MPD2    C2 8905   4.615   3.521   0.246  0.3738  0.0219  0.0829
  601MPD2    C3 8906   4.678   3.408   0.298  0.5514 -1.0321 -0.4191
  601MPD2    C4 8907   4.591   3.299   0.320  0.3082  0.1172  0.7218
  601MPD2    C5 8908   4.458   3.298   0.282  0.0171  0.2239  0.0407
  601MPD2     H 8909   4.674   3.610   0.226 -0.4691  0.3991 -0.7240
  601MPD2    H1 8910   4.639   3.205   0.343 -1.1659 -0.9221 -0.4801
  601MPD2    H2 8911   4.297   3.414   0.198  0.7811 -3.1498 -1.4249
  601MPD2    H3 8912   4.401   3.207   0.273 -0.7639  0.5574  1.5911
  601MPD2     N 8913   0.098   3.396   0.317 -0.2546  0.3665  0.4327
  601MPD2    H5 8914   0.140   3.307   0.339 -0.8430 -0.4402 -1.6795
  601MPD2    N1 8915   4.428   3.646   0.161 -0.3737  0.2222 -0.2543
  601MPD2    H7 8916   4.491   3.726   0.154 -0.4465  0.2356 -0.7863
  602TMC3    C1 8917   4.327   3.768  17.674  0.3362  0.2078 -0.3953
  602TMC3    C2 8918   4.364   3.889   0.059 -0.5092  0.1248 -0.5338
  602TMC3    C3 8919   4.393   3.996  17.666 -0.2493  0.3335  0.0290
  602TMC3    C4 8920   4.325   3.757  17.533  0.0292  0.0767 -0.6831
  602TMC3    C5 8921   4.347   3.878  17.469 -0.1648 -0.3280  0.0069
  602TMC3    C6 8922   4.385   3.995  17.524  0.3426  0.6257  0.5815
  602TMC3     C 8923   4.331   3.646   0.065  0.5168  0.1960  0.4683
  602TMC3     O 8924   4.273   3.551   0.013 -0.7669 -0.2138  0.0976
  602TMC3     H 8925   4.367   3.903   0.166  3.0928 -2.2783 -0.2990
  602TMC3    H1 8926   4.304   3.668  17.476 -1.9692  0.6932 -0.9131
  602TMC3    H2 8927   4.363   4.080  17.461 -1.9624 -0.5370 -0.1866
  602TMC3    C7 8928   4.358   3.873  17.333 -0.0646 -0.4414 -0.5812
  602TMC3    C8 8929   4.412   4.129   0.046  0.0837  0.2150 -0.0060
  602TMC3    O1 8930   4.278   3.801  17.279 -0.2598  0.1678 -0.4260
  602TMC3    O2 8931   4.351   4.155   0.148 -0.2676  0.1948 -0.3421
  603TMC3    C1 8932   4.399   4.382  10.827  0.2767 -0.5932  0.5370
  603TMC3    C2 8933   4.435   4.299  10.933 -0.4025  0.1390  0.2192
  603TMC3    C3 8934   4.509   4.345  11.039  0.2895 -0.1078 -0.7785
  603TMC3    C4 8935   4.462   4.502  10.816  0.0866 -0.1982  0.1947
  603TMC3    C5 8936   4.543   4.540  10.925 -0.8431 -0.4313 -0.3692
  603TMC3    C6 8937   4.558   4.471  11.041 -0.4524 -0.2494 -0.2762
  603TMC3     C 8938   4.333   4.339  10.701  0.3172  0.1012  0.0008
  603TMC3     O 8939   4.365   4.396  10.592 -0.3060 -0.1526  0.2751
  603TMC3     H 8940   4.393   4.201  10.951 -0.3501 -0.1190 -1.0975
  603TMC3    H1 8941   4.434   4.569  10.736  0.6985  0.7192  0.7595
  603TMC3    H2 8942   4.617   4.518  11.118 -0.6589 -1.9958  0.9442
  603TMC3    C7 8943   4.594   4.676  10.923 -0.0861 -0.1574 -0.1505
  603TMC3    C8 8944   4.485   4.266  11.155 -0.2068 -0.7442 -0.9967
  603TMC3    O1 8945   4.624   0.011  11.032  0.6763  0.1775 -0.3599
  603TMC3    O2 8946   4.469   4.143  11.153  0.5272 -0.2820  0.2991
  604MPD2     C 8947   4.394   3.073  16.668  0.1437 -0.2705 -0.2764
  604MPD2    C1 8948   4.282   3.017  16.604 -0.3244  0.1879 -0.3575
  604MPD2    C2 8949   4.309   2.925  16.500 -0.2402  0.2791  0.0938
  604MPD2    C3 8950   4.438   2.898  16.453  0.1132  0.5914  0.6083
  604MPD2    C4 8951   4.543   2.963  16.512  0.1998  0.0004 -0.1463
  604MPD2    C5 8952   4.516   3.042  16.621  0.6403  0.4375  0.1319
  604MPD2     H 8953   4.227   2.868  16.458 -0.7268  2.5794 -2.0665
  604MPD2    H1 8954   4.646   2.936  16.493 -0.0267 -0.0639 -1.2800
  604MPD2    H2 8955   4.373   3.134  16.755  1.1294 -0.7731  0.3095
  604MPD2    H3 8956   4.595   3.084  16.682  0.4799 -1.2994  1.5177
  604MPD2     N 8957   4.449   2.822  16.335  0.2743  0.8109  0.3807
  604MPD2    H5 8958   4.363   2.774  16.311  1.1683  0.1167 -1.4837
  604MPD2    N1 8959   4.151   3.040  16.654  0.2091 -0.6105  0.1443
  604MPD2    H7 8960   4.150   3.100  16.737  3.5224 -0.6677  0.2271
  605TMC3    C1 8961   3.922   3.035  16.699 -0.1745 -0.0785  1.0002
  605TMC3    C2 8962   3.961   3.123  16.795  0.1667  0.6958  0.4142
  605TMC3    C3 8963   3.927   3.254  16.775  0.1624 -0.0126  0.2549
  605TMC3    C4 8964   3.828   3.068  16.608  0.2412  0.1119 -0.7253
  605TMC3    C5 8965   3.770   3.197  16.611  0.5176  0.3811  0.2390
  605TMC3    C6 8966   3.823   3.290  16.696  0.1964  0.5123  0.5688
  605TMC3     C 8967   4.031   2.979  16.622  0.5106  0.3298 -0.2027
  605TMC3     O 8968   4.013   2.888  16.546 -0.0505  0.6923 -0.4861
  605TMC3     H 8969   4.017   3.091  16.882  0.0789 -0.2927  0.1055
  605TMC3    H1 8970   3.786   2.994  16.541  0.9999 -0.2213 -0.8289
  605TMC3    H2 8971   3.804   3.395  16.678  0.6340  0.2542 -1.4528
  605TMC3    C7 8972   3.673   3.243  16.513  0.0288  0.8726  0.3940
  605TMC3    C8 8973   4.051   3.334  16.792  0.4734  0.5776 -0.4368
  605TMC3    O1 8974   3.622   3.357  16.520 -0.1750 -0.0970 -0.5234
  605TMC3    O2 8975   4.143   3.272  16.847  0.1579  0.0298  0.0676
  606TMC3    C1 8976   0.997   1.455  16.878 -0.3998  0.4454  0.7077
  606TMC3    C2 8977   0.989   1.487  17.010  1.1263  0.2389  0.8084
  606TMC3    C3 8978   0.938   1.397  17.098 -0.4229 -0.1895 -0.5686
  606TMC3    C4 8979   0.959   1.331  16.832 -0.0580 -0.5138 -0.5871
  606TMC3    C5 8980   0.905   1.240  16.925 -0.2665  0.0072 -0.1652
  606TMC3    C6 8981   0.908   1.270  17.062  0.8353  0.7823 -0.3542
  606TMC3     C 8982   1.068   1.542  16.787 -0.3682 -0.0298 -0.2743
  606TMC3     O 8983   1.077   1.661  16.823 -0.1652  0.2583  0.2475
  606TMC3     H 8984   1.045   1.570  17.051  2.0307 -1.5689  3.2656
  606TMC3    H1 8985   0.933   1.306  16.730 -0.8960  1.4484 -0.8594
  606TMC3    H2 8986   0.876   1.198  17.137 -1.4692 -0.8034 -2.8578
  606TMC3    C7 8987   0.870   1.111  16.875  0.4768  0.1865 -0.3271
  606TMC3    C8 8988   0.948   1.431  17.241  0.7134  0.2608  0.3161
  606TMC3    O1 8989   0.930   1.070  16.776 -0.2307 -0.2867  0.2630
  606TMC3    O2 8990   0.992   1.543  17.268 -0.0905 -0.2100  0.0945
  607MPD2     C 8991   3.766   4.112  11.585  0.0047  0.1723  0.3288
  607MPD2    C1 8992   3.719   4.198  11.681  0.6679 -0.3479  0.0201
  607MPD2    C2 8993   3.625   4.160  11.768  0.0611  0.5797  0.3651
  607MPD2    C3 8994   3.578   4.032  11.777  0.0265 -0.5422  0.0608
  607MPD2    C4 8995   3.622   3.943  11.683  0.6683 -0.4291  0.5502
  607MPD2    C5 8996   3.718   3.986  11.591 -0.4319 -0.2878  0.4511
  607MPD2     H 8997   3.596   4.227  11.847 -1.4971  2.0171 -1.4173
  607MPD2    H1 8998   3.585   3.841  11.673 -4.2078  1.3187  0.4330
  607MPD2    H2 8999   3.850   4.135  11.520  0.0226  1.3016  0.7586
  607MPD2    H3 9000   3.744   3.923  11.506  1.4275 -0.4350  1.1405
  607MPD2     N 9001   3.491   3.998  11.885  0.8169  0.5850  0.2184
  607MPD2    H5 9002   3.469   4.073  11.950  1.2900  1.5919 -0.7926
  607MPD2    N1 9003   3.774   4.328  11.708 -0.1939 -0.6154 -0.2413
  607MPD2    H7 9004   3.722   4.378  11.779 -0.0727 -0.0855 -0.5235
  608TMC3    C1 9005   3.893   4.527  11.704 -0.3561 -0.2698  0.2945
  608TMC3    C2 9006   3.873   4.535  11.842  0.3532 -0.0396 -0.2740
  608TMC3    C3 9007   3.905   4.654  11.905 -0.0795 -0.6899 -0.5929
  608TMC3    C4 9008   3.942   4.632  11.632 -0.5846 -0.1569 -0.2266
  608TMC3    C5 9009   3.969   0.029  11.695 -0.6780  0.1268 -0.4110
  608TMC3    C6 9010   3.950   0.046  11.832  0.0083  0.5007  0.3955
  608TMC3     C 9011   3.851   4.410  11.624  0.3127  1.0642  0.0689
  608TMC3     O 9012   3.886   4.403  11.506 -0.6235 -0.1184  0.3820
  608TMC3     H 9013   3.844   4.444  11.892 -0.2218  0.5561  0.4704
  608TMC3    H1 9014   3.974   4.616  11.530 -0.7576  0.9831 -0.4575
  608TMC3    H2 9015   3.971   0.142  11.875 -2.2069  1.8274 -1.4483
  608TMC3    C7 9016   4.025   0.139  11.614 -0.4656  0.4728 -0.2772
  608TMC3    C8 9017   3.833   4.681  12.028 -0.1120  0.4541 -0.0604
  608TMC3    O1 9018   4.053   0.104  11.500 -0.3035 -0.4543 -0.2620
  608TMC3    O2 9019   3.814   0.075  12.074  0.5270  0.1522 -0.2066
  609TMC3    C1 9020   2.578   2.094   9.002 -0.3324 -0.0697  0.2274
  609TMC3    C2 9021   2.623   2.204   8.940  0.1729 -0.8540  0.1306
  609TMC3    C3 9022   2.744   2.257   8.978 -0.3534  0.5241  0.1036
  609TMC3    C4 9023   2.651   2.036   9.104  0.4439 -0.2977  0.1316
  609TMC3    C5 9024   2.779   2.085   9.132  0.4096 -0.2861 -0.6055
  609TMC3    C6 9025   2.825   2.197   9.067 -0.6221  0.3300  0.1073
  609TMC3     C 9026   2.439   2.076   8.995 -0.0218  0.1238 -0.0038
  609TMC3     O 9027   2.374   2.178   8.966  0.3875  0.1774  0.2986
  609TMC3     H 9028   2.554   2.257   8.876  2.0490  0.1415 -1.0859
  609TMC3    H1 9029   2.606   1.963   9.170 -1.4716 -0.3460 -1.2006
  609TMC3    H2 9030   2.927   2.229   9.081 -1.2008  2.3393 -0.3467
  609TMC3    C7 9031   2.827   2.062   9.271 -0.6097  0.6054  0.5726
  609TMC3    C8 9032   2.767   2.394   8.941  0.5897 -0.1889  0.2554
  609TMC3    O1 9033   2.890   2.152   9.329  0.8396  0.6865  0.1890
  609TMC3    O2 9034   2.702   2.442   8.848  0.6870  0.1817 -0.8103
  610TMC3    C1 9035   3.722   0.028  12.807  0.5165  0.3237 -0.1376
  610TMC3    C2 9036   3.801   0.045  12.692 -0.2248 -0.2737 -0.3380
  610TMC3    C3 9037   3.881   4.660  12.652 -0.1178  0.7747 -0.4521
  610TMC3    C4 9038   3.732   4.637  12.886 -1.1267  0.2469  0.9033
  610TMC3    C5 9039   3.825   4.542  12.849 -0.2324  0.3538 -0.0103
  610TMC3    C6 9040   3.902   4.556  12.736 -0.4863 -0.4561  0.0133
  610TMC3     C 9041   3.642   0.145  12.846  0.2315 -0.7315  0.0047
  610TMC3     O 9042   3.567   0.125  12.940  0.0977  0.5032  0.0242
  610TMC3     H 9043   3.792   0.133  12.629  1.6878  0.9440  1.0688
  610TMC3    H1 9044   3.669   4.637  12.974 -2.7930  0.5645 -0.3060
  610TMC3    H2 9045   3.990   4.496  12.717  0.5634  1.5603 -1.5276
  610TMC3    C7 9046   3.851   4.417  12.922 -0.6458 -0.0725  0.2838
  610TMC3    C8 9047   3.950   4.679  12.525 -0.4198  0.0584 -0.0362
  610TMC3    O1 9048   3.929   4.334  12.876  0.6581  0.2494 -0.1334
  610TMC3    O2 9049   3.974   0.080  12.501  0.2095  0.2695  0.3694
  611MPD2     C 9050   3.967   4.424  10.360 -0.3960  0.3952  0.2813
  611MPD2    C1 9051   3.882   4.505  10.295 -1.0459  0.1658 -0.4909
  611MPD2    C2 9052   3.929   4.637  10.267 -0.2680 -0.0888 -0.2890
  611MPD2    C3 9053   4.058   4.674  10.300 -0.3342  0.2239  1.0623
  611MPD2    C4 9054   4.144   4.585  10.355  0.0403 -1.2421  0.2783
  611MPD2    C5 9055   4.096   4.465  10.393  0.3028 -0.8208  0.6415
  611MPD2     H 9056   3.861   4.708  10.223 -0.6545 -0.4980 -0.3520
  611MPD2    H1 9057   4.246   4.605  10.387 -0.1814 -0.7516  0.6774
  611MPD2    H2 9058   3.941   4.324  10.391 -1.7829 -0.3078 -3.2125
  611MPD2    H3 9059   4.145   4.399  10.464 -0.6613 -0.4539  1.6505
  611MPD2     N 9060   4.108   0.081  10.267  0.3377  0.0787 -0.4027
  611MPD2    H5 9061   4.205   0.080  10.296  0.4394 -0.5800 -0.7597
  611MPD2    N1 9062   3.747   4.456  10.291  0.1097  0.7496  0.6233
  611MPD2    H7 9063   3.722   4.374  10.345  1.7195 -0.3212 -0.2480
  612TMC3    C1 9064   4.145   0.306  10.229 -0.0969  0.2471  0.4120
  612TMC3    C2 9065   4.253   0.299  10.309 -0.2494  0.7810 -0.7968
  612TMC3    C3 9066   4.323   0.411  10.312  0.1820 -0.2661  0.7441
  612TMC3    C4 9067   4.109   0.407  10.143 -0.1692 -0.1392 -0.0457
  612TMC3    C5 9068   4.190   0.514  10.147  0.4887 -0.2521  0.1438
  612TMC3    C6 9069   4.299   0.518  10.226  0.4445  0.0748  1.1360
  612TMC3     C 9070   4.052   0.194  10.215 -0.0068 -0.0383 -0.6601
  612TMC3     O 9071   3.936   0.211  10.183 -0.3242  0.1393  0.2652
  612TMC3     H 9072   4.254   0.225  10.388  0.9199 -0.7507 -2.2552
  612TMC3    H1 9073   4.029   0.400  10.071 -0.0931  2.5038 -0.4161
  612TMC3    H2 9074   4.362   0.605  10.238  2.6214 -1.3215 -0.2779
  612TMC3    C7 9075   4.174   0.636  10.069  0.4010  0.9525  0.3858
  612TMC3    C8 9076   4.433   0.430  10.400  0.3539 -0.0470 -0.9014
  612TMC3    O1 9077   4.254   0.727  10.079  0.4103  0.3127 -0.4717
  612TMC3    O2 9078   4.454   0.546  10.433 -0.1386  0.4979 -0.0761
  613MPD2     C 9079   2.062   1.565  16.533  0.5303 -0.3451 -0.0446
  613MPD2    C1 9080   2.038   1.675  16.457  0.8352 -0.3542  0.5926
  613MPD2    C2 9081   1.931   1.676  16.376  0.1811  0.2868 -0.1603
  613MPD2    C3 9082   1.828   1.581  16.396 -0.3275 -0.4145  0.4113
  613MPD2    C4 9083   1.851   1.478  16.477 -0.1883 -0.3281  0.7035
  613MPD2    C5 9084   1.964   1.471  16.547  0.1294 -0.0361 -0.2250
  613MPD2     H 9085   1.910   1.752  16.302  0.0710 -0.3341 -0.7589
  613MPD2    H1 9086   1.778   1.398  16.481 -0.8110  0.2156  0.1553
  613MPD2    H2 9087   2.155   1.551  16.587 -0.7676 -0.7703  2.0670
  613MPD2    H3 9088   1.976   1.389  16.616 -1.3070 -1.6451 -1.8652
  613MPD2     N 9089   1.714   1.585  16.314  0.1107  0.2860  0.1872
  613MPD2    H5 9090   1.653   1.504  16.324 -0.0122  0.2018 -1.2394
  613MPD2    N1 9091   2.142   1.777  16.452  0.2956  0.1471  0.4355
  613MPD2    H7 9092   2.229   1.750  16.497  0.9622 -2.3401 -2.3515
  614TMC3    C1 9093   2.280   1.876  16.290  0.3054  0.5228  0.3973
  614TMC3    C2 9094   2.272   1.771  16.196  0.0809 -0.1462 -0.4707
  614TMC3    C3 9095   2.261   1.795  16.063  0.2670 -0.4488 -0.3035
  614TMC3    C4 9096   2.293   2.005  16.245  0.0871  0.8218 -0.0077
  614TMC3    C5 9097   2.276   2.034  16.111 -0.1955 -0.2548 -0.6445
  614TMC3    C6 9098   2.260   1.929  16.018 -0.1370  0.2131  0.1774
  614TMC3     C 9099   2.152   1.869  16.358  0.2043  0.2083  0.2674
  614TMC3     O 9100   2.063   1.942  16.315  1.1653  0.7256  0.4548
  614TMC3     H 9101   2.267   1.670  16.237 -0.1498 -0.3599 -1.0306
  614TMC3    H1 9102   2.283   2.089  16.313  1.4729  0.7720  0.2625
  614TMC3    H2 9103   2.246   1.960  15.915  0.5256 -2.4003 -0.7280
  614TMC3    C7 9104   2.186   2.152  16.089 -0.3792  0.0747  0.0267
  614TMC3    C8 9105   2.192   1.678  16.001  0.1846  0.2080  0.0609
  614TMC3    O1 9106   2.175   2.234  16.177  0.4392 -0.1605  0.0787
  614TMC3    O2 9107   2.140   1.590  16.071 -0.1606  0.1519 -0.0285
  615MPD2     C 9108   0.994   3.073  16.468 -0.2568  0.0789 -0.2272
  615MPD2    C1 9109   1.123   3.122  16.481  0.0445 -0.2819  0.2255
  615MPD2    C2 9110   1.211   3.096  16.381  0.8161  0.0380 -0.1913
  615MPD2    C3 9111   1.171   3.040  16.265 -0.2089 -0.3715 -0.0585
  615MPD2    C4 9112   1.044   2.991  16.259 -1.4369  0.2895  0.2678
  615MPD2    C5 9113   0.959   3.001  16.361  0.1334  0.1478 -0.1260
  615MPD2     H 9114   1.309   3.143  16.381 -0.4043  2.5915 -2.7845
  615MPD2    H1 9115   1.012   2.945  16.166 -1.9954  1.8010 -0.2859
  615MPD2    H2 9116   0.926   3.078  16.552  2.6269 -0.2666  2.0915
  615MPD2    H3 9117   0.858   2.960  16.358  0.6449 -1.3535  2.7820
  615MPD2     N 9118   1.257   3.022  16.151  0.0981  0.7493  0.1500
  615MPD2    H5 9119   1.222   2.978  16.066 -0.2083 -0.9476  1.1510
  615MPD2    N1 9120   1.155   3.212  16.583 -0.2741 -0.4091 -0.2099
  615MPD2    H7 9121   1.233   3.272  16.556 -0.4470  0.0281  0.2783
  616TMC3    C1 9122   1.133   3.367  16.752 -0.1766  0.0911  0.0294
  616TMC3    C2 9123   1.172   3.468  16.668 -0.2415 -0.0116 -0.4010
  616TMC3    C3 9124   1.226   3.576  16.732  0.5127  0.0068  0.0150
  616TMC3    C4 9125   1.140   3.368  16.886 -0.1174 -0.2123 -0.3100
  616TMC3    C5 9126   1.207   3.478  16.942 -0.6206  0.3658 -0.0873
  616TMC3    C6 9127   1.261   3.580  16.867  0.1808 -0.3132 -0.0486
  616TMC3     C 9128   1.084   3.244  16.694 -0.6433  1.1359  0.2867
  616TMC3     O 9129   0.997   3.185  16.755 -0.7493 -0.4380 -0.2879
  616TMC3     H 9130   1.133   3.480  16.568  0.9320 -0.2096 -0.8802
  616TMC3    H1 9131   1.101   3.287  16.947 -1.9975  1.6258  0.9157
  616TMC3    H2 9132   1.340   3.641  16.909  1.1893  0.0276 -2.4484
  616TMC3    C7 9133   1.235   3.476  17.086  0.1650 -0.1019  0.3147
  616TMC3    C8 9134   1.296   3.657  16.635 -0.4951 -0.3704  0.5502
  616TMC3    O1 9135   1.187   3.376  17.137 -0.1524 -0.0062 -0.0344
  616TMC3    O2 9136   1.224   3.709  16.552 -0.3457  0.0076 -0.3546
  617MPD2     C 9137   4.231   1.732  13.756  0.0209  0.9873 -0.0860
  617MPD2    C1 9138   4.228   1.652  13.872  0.3380  0.6680 -0.2261
  617MPD2    C2 9139   4.109   1.589  13.907  0.7551  0.5947  0.5311
  617MPD2    C3 9140   4.004   1.591  13.820  0.0271  0.8495 -0.0683
  617MPD2    C4 9141   4.013   1.651  13.697  0.2947 -0.5523 -0.1111
  617MPD2    C5 9142   4.130   1.710  13.663  0.0562 -0.3505  0.2117
  617MPD2     H 9143   4.106   1.537  14.002 -0.6350 -1.6754 -0.7858
  617MPD2    H1 9144   3.936   1.660  13.621  0.6732  0.4551 -0.3766
  617MPD2    H2 9145   4.321   1.782  13.722 -0.1342  2.1002  1.1207
  617MPD2    H3 9146   4.141   1.752  13.564 -2.1229 -0.9567 -0.3054
  617MPD2     N 9147   3.874   1.532  13.850 -0.2638  0.0066  0.0417
  617MPD2    H5 9148   3.802   1.540  13.778 -0.2706  3.5984  0.4654
  617MPD2    N1 9149   4.351   1.649  13.953 -0.2178  0.0371  0.1471
  617MPD2    H7 9150   4.440   1.682  13.918 -1.3265  1.6649 -1.1372
  618TMC3    C1 9151   4.465   1.609  14.159 -0.1647  0.4466  0.4410
  618TMC3    C2 9152   4.550   1.524  14.110  0.2137  0.2324  0.1708
  618TMC3    C3 9153   4.682   1.533  14.138  0.3205 -0.6092 -0.1442
  618TMC3    C4 9154   4.517   1.728  14.212 -0.2689 -1.1552 -1.0076
  618TMC3    C5 9155   4.654   1.739  14.230 -0.2846 -0.4013  0.5232
  618TMC3    C6 9156   0.017   1.637  14.201 -0.3006  0.3332 -0.2834
  618TMC3     C 9157   4.340   1.633  14.088 -0.0798  0.0255  0.0956
  618TMC3     O 9158   4.246   1.643  14.165 -0.2320  0.1633  0.0176
  618TMC3     H 9159   4.505   1.435  14.066  0.4459  0.3704 -0.3453
  618TMC3    H1 9160   4.451   1.810  14.240  0.1547 -0.3759 -2.3034
  618TMC3    H2 9161   0.123   1.663  14.200 -0.8707  2.7092 -0.3162
  618TMC3    C7 9162   4.700   1.870  14.285 -0.2258  0.1459 -0.0804
  618TMC3    C8 9163   0.049   1.454  14.051 -0.5355 -0.1301  0.1617
  618TMC3    O1 9164   4.637   1.911  14.383  0.0768  0.4191 -0.4195
  618TMC3    O2 9165   4.706   1.372  13.989  0.4539  0.1285  0.0698
  619MPD2     C 9166   1.540   3.658  13.532  0.4643  0.5998  0.1426
  619MPD2    C1 9167   1.420   3.640  13.463 -0.4248  0.1400 -0.8135
  619MPD2    C2 9168   1.362   3.516  13.471  0.4343  0.0395  0.2496
  619MPD2    C3 9169   1.416   3.420  13.557  0.8474  0.7356 -0.3027
  619MPD2    C4 9170   1.526   3.445  13.629 -0.7344  0.8719 -0.6700
  619MPD2    C5 9171   1.591   3.564  13.616  0.2108 -0.3925 -0.2966
  619MPD2     H 9172   1.266   3.489  13.427  0.3240  1.8882 -0.6507
  619MPD2    H1 9173   1.586   3.372  13.683 -1.6430  0.9166  0.4253
  619MPD2    H2 9174   1.596   3.751  13.527 -0.8735  1.3155 -1.5349
  619MPD2    H3 9175   1.681   3.584  13.673  0.7986 -1.4375 -0.8741
  619MPD2     N 9176   1.339   3.299  13.563 -0.1357  0.4839 -0.0452
  619MPD2    H5 9177   1.243   3.305  13.531 -0.5023 -0.4594  0.8885
  619MPD2    N1 9178   1.358   3.738  13.384 -0.4077 -0.4999 -0.3712
  619MPD2    H7 9179   1.289   3.701  13.319 -2.3967  0.7397  1.0453
  620TMC3    C1 9180   1.304   3.940  13.286  0.5320 -0.1684  0.2356
  620TMC3    C2 9181   1.236   3.870  13.191  0.3219  0.4102 -1.0423
  620TMC3    C3 9182   1.108   3.911  13.151  0.4191  0.4053 -0.3863
  620TMC3    C4 9183   1.237   4.041  13.357  0.1451  0.4120 -0.1181
  620TMC3    C5 9184   1.099   4.063  13.328  0.5035 -0.0931 -0.0640
  620TMC3    C6 9185   1.040   4.011  13.213  0.2846  0.2936 -0.3613
  620TMC3     C 9186   1.386   3.875  13.390  0.2156  0.1523  0.3668
  620TMC3     O 9187   1.439   3.938  13.479 -0.0330 -0.0462 -0.1183
  620TMC3     H 9188   1.283   3.780  13.152  2.6912  0.4245  1.7915
  620TMC3    H1 9189   1.286   4.088  13.442 -2.6462  2.0507  0.5785
  620TMC3    H2 9190   0.939   4.029  13.177  0.2924  1.9528  0.4572
  620TMC3    C7 9191   1.016   4.100  13.438  0.0693  0.0136  0.8413
  620TMC3    C8 9192   1.020   3.798  13.135 -1.3291  0.0486  0.6847
  620TMC3    O1 9193   1.076   4.150  13.531 -0.1723 -0.1556 -0.3312
  620TMC3    O2 9194   0.926   3.794  13.217 -0.2050  0.4621  0.3409
  621MPD2     C 9195   2.034   3.069   9.694 -0.1583  0.0358  0.8689
  621MPD2    C1 9196   1.968   3.081   9.815  0.1055  0.8440 -0.7160
  621MPD2    C2 9197   2.039   3.096   9.930 -0.0286  0.3160  0.8636
  621MPD2    C3 9198   2.177   3.109   9.924 -0.0169 -0.2249 -0.4477
  621MPD2    C4 9199   2.245   3.093   9.805  0.0214  0.5253  0.2612
  621MPD2    C5 9200   2.170   3.065   9.694  0.2221 -0.0846  0.0542
  621MPD2     H 9201   1.987   3.110  10.025 -1.2963 -1.3722  0.4027
  621MPD2    H1 9202   2.352   3.107   9.796  0.3125 -2.5495 -1.1718
  621MPD2    H2 9203   1.975   3.040   9.607 -1.4718 -1.4538  2.2598
  621MPD2    H3 9204   2.220   3.057   9.598  2.0668  1.3064  0.8885
  621MPD2     N 9205   2.245   3.152  10.039 -0.1631  0.3001 -0.4164
  621MPD2    H5 9206   2.191   3.163  10.124  1.7253  2.7219  0.4921
  621MPD2    N1 9207   1.828   3.069   9.820  0.2589 -0.1617  0.0006
  621MPD2    H7 9208   1.793   3.055   9.914 -0.0850 -1.4335 -0.3197
  622TMC3    C1 9209   1.608   3.027   9.752  0.2148 -0.1900  0.3085
  622TMC3    C2 9210   1.499   3.106   9.735  0.5962  0.4119 -0.7923
  622TMC3    C3 9211   1.390   3.079   9.807 -0.5274 -0.0951  0.2858
  622TMC3    C4 9212   1.608   2.921   9.838 -0.1198 -0.0321  0.2623
  622TMC3    C5 9213   1.499   2.911   9.923  0.2606  0.1373 -0.4856
  622TMC3    C6 9214   1.389   2.986   9.910  0.5165  0.2596  0.1717
  622TMC3     C 9215   1.737   3.086   9.720  0.2959  0.4206  0.1973
  622TMC3     O 9216   1.753   3.128   9.607 -0.2449 -0.4686 -0.4104
  622TMC3     H 9217   1.502   3.195   9.673  0.7648  0.4502 -0.7278
  622TMC3    H1 9218   1.700   2.867   9.856  0.9521  1.5754 -0.3344
  622TMC3    H2 9219   1.301   2.977   9.973  1.0839  2.7239  1.3450
  622TMC3    C7 9220   1.506   2.817  10.033 -0.9703 -0.5182  0.2973
  622TMC3    C8 9221   1.266   3.127   9.761  0.2649 -0.0454 -0.2736
  622TMC3    O1 9222   1.443   2.833  10.131  0.3363  0.7918 -0.7030
  622TMC3    O2 9223   1.177   3.131   9.845  0.2025 -0.3608  0.2230
  623MPD2     C 9224   4.562   3.178  15.955  0.4112 -0.0053 -0.3094
  623MPD2    C1 9225   4.533   3.290  16.031  0.2286 -0.1693  0.5662
  623MPD2    C2 9226   4.633   3.351  16.095  0.4764 -0.0057 -0.3382
  623MPD2    C3 9227   0.031   3.289  16.120 -0.4995  0.7774 -0.0282
  623MPD2    C4 9228   0.062   3.166  16.056 -0.0302 -0.3101  0.0629
  623MPD2    C5 9229   4.693   3.123  15.965  0.2645  0.6627  0.6209
  623MPD2     H 9230   4.609   3.433  16.161 -0.0625  1.7115 -2.6720
  623MPD2    H1 9231   0.153   3.109  16.069  1.2947  1.9566  0.5720
  623MPD2    H2 9232   4.490   3.145  15.882  0.1867  0.7453 -0.4314
  623MPD2    H3 9233   4.710   3.033  15.907  1.7454  2.8805 -2.3830
  623MPD2     N 9234   0.107   3.346  16.231  0.2073  0.6852 -0.7356
  623MPD2    H5 9235   0.065   3.429  16.272  1.0052  2.2298 -3.0243
  623MPD2    N1 9236   4.402   3.347  16.031 -0.2679 -0.1961 -0.1690
  623MPD2    H7 9237   4.333   3.290  15.984  1.8857 -2.0157 -1.1617
  624TMC3    C1 9238   0.187   3.229  16.674 -0.4604  0.0079 -0.1681
  624TMC3    C2 9239   0.063   3.274  16.711 -0.0593 -0.4080 -0.5118
  624TMC3    C3 9240   4.706   3.321  16.615 -0.0409 -0.6596  0.2579
  624TMC3    C4 9241   0.229   3.221  16.545  0.2420  0.3578 -0.3798
  624TMC3    C5 9242   0.148   3.274  16.451  0.6062 -0.1788 -0.2156
  624TMC3    C6 9243   0.021   3.323  16.482 -0.6043  0.4073  0.2314
  624TMC3     C 9244   0.289   3.199  16.774 -0.1606  0.1694  0.3706
  624TMC3     O 9245   0.401   3.241  16.741 -0.3694 -1.2394  0.3923
  624TMC3     H 9246   0.018   3.260  16.809 -0.4249  0.2361 -0.5886
  624TMC3    H1 9247   0.326   3.176  16.528  0.3702  0.5963 -0.2816
  624TMC3    H2 9248   4.667   3.351  16.408 -0.7419  0.0514  0.2368
  624TMC3    C7 9249   0.188   3.268  16.306  0.3592 -0.3152  0.0714
  624TMC3    C8 9250   4.571   3.360  16.657 -0.0524 -0.4353  0.0814
  624TMC3    O1 9251   0.253   3.173  16.267  0.8238 -0.6439 -0.1654
  624TMC3    O2 9252   4.528   3.323  16.764 -0.1264 -0.2330 -0.0120
  625MPD2     C 9253   0.592   0.292   1.098 -0.1259 -0.5616 -0.1412
  625MPD2    C1 9254   0.643   0.164   1.098  0.0253 -0.2940  0.1206
  625MPD2    C2 9255   0.779   0.141   1.115 -0.1228 -0.9806  0.3960
  625MPD2    C3 9256   0.866   0.246   1.124  0.0526  1.1625 -0.0975
  625MPD2    C4 9257   0.811   0.373   1.127 -0.0769 -0.0614  0.5484
  625MPD2    C5 9258   0.677   0.393   1.110  0.4709 -0.5406  0.4878
  625MPD2     H 9259   0.826   0.044   1.115  1.8457 -0.0149  1.0311
  625MPD2    H1 9260   0.883   0.453   1.135 -0.7673  0.4996  1.1301
  625MPD2    H2 9261   0.487   0.320   1.092  0.1645  0.5877  0.3049
  625MPD2    H3 9262   0.643   0.496   1.107 -0.8509 -1.0006 -0.3971
  625MPD2     N 9263   1.004   0.213   1.123  0.3618  0.0646 -0.2992
  625MPD2    H5 9264   1.025   0.115   1.107 -0.8373 -0.2790  0.3030
  625MPD2    N1 9265   0.557   0.054   1.076 -0.2569  0.2951  0.4379
  625MPD2    H7 9266   0.587   4.678   1.088 -1.7418 -0.4694 -1.9580
  626TMC3    C1 9267   0.383   4.665   0.958  0.1817 -0.0821  0.4956
  626TMC3    C2 9268   0.348   4.671   0.824 -0.0580 -0.2187 -0.0916
  626TMC3    C3 9269   0.289   4.560   0.771 -0.0114 -0.3160  0.2081
  626TMC3    C4 9270   0.370   4.548   1.036 -0.0804 -0.1883  0.5070
  626TMC3    C5 9271   0.319   4.438   0.968  0.0416 -0.1090 -1.3325
  626TMC3    C6 9272   0.274   4.443   0.839  0.1399 -0.1989  0.5423
  626TMC3     C 9273   0.439   0.069   0.999  0.8704 -0.0065 -0.4961
  626TMC3     O 9274   0.402   0.172   0.943  0.3172  0.2378 -0.3567
  626TMC3     H 9275   0.369   0.044   0.772 -0.7463  0.2097  0.3955
  626TMC3    H1 9276   0.401   4.549   1.140 -0.0373  1.5518  0.4696
  626TMC3    H2 9277   0.224   4.357   0.795 -0.5151  0.9519 -0.9438
  626TMC3    C7 9278   0.275   4.336   1.065 -0.4509 -0.1505  0.0571
  626TMC3    C8 9279   0.269   4.579   0.630  0.3624  0.3751  0.7807
  626TMC3    O1 9280   0.333   4.323   1.168  0.1250  0.4341 -0.0908
  626TMC3    O2 9281   0.349   4.655   0.574 -0.0454 -0.4087 -0.4972
  627MPD2     C 9282   3.487   0.380  14.214 -0.2728 -0.0399  0.3572
  627MPD2    C1 9283   3.496   0.372  14.349  0.2458  0.1152 -0.6794
  627MPD2    C2 9284   3.398   0.312  14.428 -0.3141  0.0519  0.3225
  627MPD2    C3 9285   3.304   0.245  14.360 -0.3240  0.1970  0.3351
  627MPD2    C4 9286   3.283   0.258  14.230 -0.1621  0.8344 -0.2923
  627MPD2    C5 9287   3.376   0.324  14.154 -0.0730  0.3586  0.5171
  627MPD2     H 9288   3.410   0.299  14.535  3.0397  0.9670  0.0390
  627MPD2    H1 9289   3.205   0.208  14.175 -0.9643  0.8901  0.7961
  627MPD2    H2 9290   3.563   0.420  14.150 -1.3297  1.6047  0.1428
  627MPD2    H3 9291   3.365   0.324  14.046 -2.8533  0.6983  0.8148
  627MPD2     N 9292   3.227   0.148  14.431 -0.1786  0.2900 -0.2527
  627MPD2    H5 9293   3.254   0.135  14.527  0.1389  0.0259 -0.3767
  627MPD2    N1 9294   3.616   0.422  14.416 -0.0269  0.1863 -0.7312
  627MPD2    H7 9295   3.612   0.435  14.517 -0.8821  2.2539 -1.0343
  628TMC3    C1 9296   3.844   0.460  14.440 -0.9336  0.1345  0.1101
  628TMC3    C2 9297   3.969   0.415  14.407 -0.3043  0.6719  0.4789
  628TMC3    C3 9298   4.068   0.454  14.494  0.1291  0.3241 -0.9624
  628TMC3    C4 9299   3.822   0.556  14.540  0.3750 -0.0309 -0.2899
  628TMC3    C5 9300   3.926   0.594  14.621  0.6023  0.4890  0.4028
  628TMC3    C6 9301   4.051   0.537  14.600  0.2377 -0.6986 -1.2748
  628TMC3     C 9302   3.736   0.431  14.349  0.3128  0.0813  0.0384
  628TMC3     O 9303   3.769   0.375  14.246 -0.3257 -0.2769  0.3449
  628TMC3     H 9304   3.994   0.340  14.332  1.5691 -2.1118  3.8799
  628TMC3    H1 9305   3.723   0.599  14.542 -0.4907 -2.0968  0.9641
  628TMC3    H2 9306   4.144   0.577  14.639 -1.5491  2.1035  0.1790
  628TMC3    C7 9307   3.936   0.743  14.650  0.0886 -0.2048  0.0790
  628TMC3    C8 9308   4.195   0.393  14.472  0.4858 -0.1879 -0.2938
  628TMC3    O1 9309   4.042   0.766  14.713 -0.6740  0.0963 -0.1282
  628TMC3    O2 9310   4.218   0.373  14.354 -0.1958 -0.0946  0.3557
  629MPD2     C 9311   1.707   3.795  16.354 -0.2921  0.1931  0.1254
  629MPD2    C1 9312   1.747   3.697  16.447 -0.0026 -0.2601  0.0788
  629MPD2    C2 9313   1.656   3.653  16.542 -1.0185  0.2779 -0.4926
  629MPD2    C3 9314   1.524   3.695  16.547  0.3171 -0.5757 -0.0927
  629MPD2    C4 9315   1.488   3.794  16.454 -1.2822 -0.5687 -1.0215
  629MPD2    C5 9316   1.582   3.844  16.361  0.1020  0.4702  0.1299
  629MPD2     H 9317   1.678   3.570  16.608  0.8163  0.9288 -0.2763
  629MPD2    H1 9318   1.397   3.852  16.459 -0.9260 -0.1597  0.5759
  629MPD2    H2 9319   1.776   3.836  16.281  1.7400 -1.1204  1.3009
  629MPD2    H3 9320   1.545   3.919  16.291  3.1532  0.5140 -1.4188
  629MPD2     N 9321   1.435   3.639  16.632  0.0321 -0.1124 -0.7725
  629MPD2    H5 9322   1.480   3.576  16.699 -2.0457 -0.1083  0.6275
  629MPD2    N1 9323   1.881   3.646  16.434 -0.1409 -0.0426  0.3606
  629MPD2    H7 9324   1.939   3.706  16.377 -0.1057 -0.3101  0.1136
  630TMC3    C1 9325   2.066   3.494  16.469 -0.6941  0.1431  0.4964
  630TMC3    C2 9326   2.116   3.549  16.356 -0.7292 -0.3340  0.9498
  630TMC3    C3 9327   2.249   3.517  16.331 -0.6447 -0.4455 -0.3012
  630TMC3    C4 9328   2.128   3.403  16.551  0.2019 -0.4218  0.2793
  630TMC3    C5 9329   2.253   3.370  16.519  0.5791 -0.5517 -0.7708
  630TMC3    C6 9330   2.315   3.419  16.405  0.8592 -0.0691  0.3666
  630TMC3     C 9331   1.930   3.537  16.508  0.0414 -0.0818  0.3657
  630TMC3     O 9332   1.870   3.454  16.576  0.3357 -0.3260  0.2761
  630TMC3     H 9333   2.058   3.610  16.289  0.5929 -1.2515 -1.0321
  630TMC3    H1 9334   2.088   3.382  16.649  1.2008  0.5237  0.8956
  630TMC3    H2 9335   2.413   3.386  16.372 -0.2253 -2.2041 -0.6621
  630TMC3    C7 9336   2.343   3.374  16.635 -0.4409  0.8313 -0.2283
  630TMC3    C8 9337   2.339   3.623  16.297  0.4692  0.4001 -0.7985
  630TMC3    O1 9338   2.294   3.341  16.743 -0.4071  0.4160 -0.1509
  630TMC3    O2 9339   2.442   3.615  16.361 -0.0296 -0.3501  0.4172
  631MPD2     C 9340   0.691   3.215  15.750 -0.5602  0.0925  0.7453
  631MPD2    C1 9341   0.777   3.243  15.645 -0.0519  0.5661 -0.4211
  631MPD2    C2 9342   0.898   3.181  15.650  0.7264 -0.0381 -0.3095
  631MPD2    C3 9343   0.947   3.118  15.757 -0.0177  0.4015  0.0582
  631MPD2    C4 9344   0.862   3.096  15.868 -0.5643  0.5287  0.0077
  631MPD2    C5 9345   0.732   3.142  15.858  0.0399 -0.4150  0.2520
  631MPD2     H 9346   0.951   3.172  15.555 -0.9954 -0.0079 -1.2765
  631MPD2    H1 9347   0.882   3.033  15.954  0.1337 -0.3666 -0.8106
  631MPD2    H2 9348   0.589   3.252  15.746 -0.8176 -0.6830  0.1662
  631MPD2    H3 9349   0.663   3.127  15.941 -0.8790  0.2672 -0.3785
  631MPD2     N 9350   1.074   3.046  15.742 -0.4077  0.7950 -0.2260
  631MPD2    H5 9351   1.128   3.073  15.661  0.9996  1.6588  0.9997
  631MPD2    N1 9352   0.723   3.322  15.541  0.0762  0.7685  0.4090
  631MPD2    H7 9353   0.629   3.361  15.545 -0.1049  0.4101 -0.3984
  632TMC3    C1 9354   0.686   3.440  15.337 -0.5458  0.0259 -0.2106
  632TMC3    C2 9355   0.559   3.470  15.386  0.1016 -0.0611  0.1785
  632TMC3    C3 9356   0.470   3.524  15.298  0.0809 -0.1890 -0.2841
  632TMC3    C4 9357   0.722   3.474  15.206 -0.3325 -0.0958  0.0007
  632TMC3    C5 9358   0.634   3.537  15.129  0.6576 -0.0430 -0.2206
  632TMC3    C6 9359   0.502   3.561  15.173 -0.2125  0.6754 -0.7080
  632TMC3     C 9360   0.776   3.359  15.418  0.1893  1.1091  0.5864
  632TMC3     O 9361   0.892   3.346  15.381  0.1011 -0.5987  0.0466
  632TMC3     H 9362   0.525   3.448  15.486  1.2666  1.2365  0.8547
  632TMC3    H1 9363   0.820   3.446  15.169 -1.3010 -3.0970 -0.3714
  632TMC3    H2 9364   0.434   3.624  15.117 -0.1140  0.4127 -1.1290
  632TMC3    C7 9365   0.663   3.575  14.991 -0.0828 -0.1268  0.8647
  632TMC3    C8 9366   0.344   3.573  15.362  0.2177  0.0976 -0.2687
  632TMC3    O1 9367   0.573   3.593  14.912 -0.0115  0.4437  0.3135
  632TMC3    O2 9368   0.355   3.587  15.483  0.9429 -0.3919  0.6350
  633MPD2     C 9369   0.123   1.421  17.565  0.3800  0.1901  1.0975
  633MPD2    C1 9370   0.098   1.411  17.431 -0.5993 -0.3298  0.0353
  633MPD2    C2 9371   0.075   1.293  17.371 -0.4699  0.2195  0.5824
  633MPD2    C3 9372   0.081   1.178  17.446 -0.0728 -0.0058 -0.4804
  633MPD2    C4 9373   0.105   1.191  17.582 -0.1123 -0.4932  0.6420
  633MPD2    C5 9374   0.131   1.312  17.641  0.0228  0.2509 -0.4030
  633MPD2     H 9375   0.078   1.287  17.263  2.9957  3.6976  0.4867
  633MPD2    H1 9376   0.111   1.106  17.648  3.1931 -1.6238 -1.1169
  633MPD2    H2 9377   0.136   1.517  17.613 -0.9178  0.9325 -0.0311
  633MPD2    H3 9378   0.148   1.310   0.066 -0.8712  1.9090 -0.2200
  633MPD2     N 9379   0.071   1.049  17.398  0.0226  0.0257  0.4887
  633MPD2    H5 9380   0.099   0.980  17.467 -0.8556 -0.0930  0.7346
  633MPD2    N1 9381   0.112   1.518  17.343  0.5045 -0.2312 -0.0968
  633MPD2    H7 9382   0.099   1.498  17.245  1.0417  0.7257 -0.3670
  634TMC3    C1 9383   0.182   1.720  17.256  0.8255 -0.5445 -0.8256
  634TMC3    C2 9384   0.249   1.649  17.163 -0.5525  0.6375  0.2337
  634TMC3    C3 9385   0.293   1.715  17.051 -0.7918 -0.0913 -0.7092
  634TMC3    C4 9386   0.167   1.854  17.255 -0.3535  0.2206 -0.0001
  634TMC3    C5 9387   0.209   1.923  17.139  0.8106  0.3924  0.8390
  634TMC3    C6 9388   0.277   1.854  17.038 -0.1279  0.6687  0.8073
  634TMC3     C 9389   0.131   1.649  17.375 -0.2195 -0.0927 -0.0563
  634TMC3     O 9390   0.105   1.715  17.476  0.8528 -0.2028  0.1320
  634TMC3     H 9391   0.287   1.549  17.175 -1.7541  0.4543  2.5092
  634TMC3    H1 9392   0.086   1.890  17.316  0.4746 -0.1194  1.3008
  634TMC3    H2 9393   0.308   1.907  16.949 -1.9480 -0.7242 -0.6516
  634TMC3    C7 9394   0.158   2.050  17.097 -0.0829  0.4667  0.3023
  634TMC3    C8 9395   0.305   1.632  16.932  0.5299 -0.0444 -0.4572
  634TMC3    O1 9396   0.186   2.071  16.977 -0.3436 -0.4845  0.0550
  634TMC3    O2 9397   0.274   1.516  16.951 -0.4595 -0.1714  0.0763
  635TMC3    C1 9398   0.463   2.451   0.098  0.5232 -0.0564  0.5941
  635TMC3    C2 9399   0.566   2.363   0.069  0.5891  0.3652 -0.1093
  635TMC3    C3 9400   0.553   2.236   0.123  0.1574  0.0915  0.4925
  635TMC3    C4 9401   0.355   2.408   0.169  0.5349  0.2119  0.2211
  635TMC3    C5 9402   0.341   2.280   0.212 -0.4832  0.6678 -0.2374
  635TMC3    C6 9403   0.446   2.192   0.186 -0.0148  0.7124  0.3462
  635TMC3     C 9404   0.473   2.594   0.080  0.3898  0.8149  0.4799
  635TMC3     O 9405   0.385   2.665   0.124  0.7716  0.1114  0.4124
  635TMC3     H 9406   0.657   2.399   0.022  0.1701  1.9396  0.2827
  635TMC3    H1 9407   0.281   2.484   0.192  0.1824 -0.3858  1.0702
  635TMC3    H2 9408   0.427   2.088   0.214  3.3893  0.0374  0.1436
  635TMC3    C7 9409   0.246   2.232   0.301  0.2643  0.2968  0.0093
  635TMC3    C8 9410   0.650   2.133   0.091  0.1990 -0.0978  0.5137
  635TMC3    O1 9411   0.202   2.123   0.270 -0.2730  0.0117  0.0248
  635TMC3    O2 9412   0.631   2.017   0.127  0.0647 -0.0408  0.1371
  636MPD2     C 9413   1.219   2.217  15.713  0.2522  0.0465 -0.2390
  636MPD2    C1 9414   1.248   2.218  15.849 -0.1832  1.0407  0.6275
  636MPD2    C2 9415   1.322   2.110  15.901  0.0572 -0.8426  0.5904
  636MPD2    C3 9416   1.335   1.992  15.829 -0.0959  0.1782  0.3126
  636MPD2    C4 9417   1.305   1.994  15.696 -0.6627  0.5103  0.3598
  636MPD2    C5 9418   1.242   2.107  15.640 -0.4763  0.2988  0.2675
  636MPD2     H 9419   1.357   2.115  16.003 -2.7692  1.8513  1.4526
  636MPD2    H1 9420   1.327   1.910  15.630  1.2979  0.1992  1.3894
  636MPD2    H2 9421   1.166   2.299  15.667 -0.6128 -0.0416  0.5947
  636MPD2    H3 9422   1.223   2.096  15.533  1.4283  0.7161 -0.1165
  636MPD2     N 9423   1.404   1.884  15.891 -0.0764  0.5981  0.0824
  636MPD2    H5 9424   1.437   1.898  15.986 -1.3922 -0.4022  0.6862
  636MPD2    N1 9425   1.220   2.324  15.935 -0.4787  0.4231 -0.4039
  636MPD2    H7 9426   1.254   2.321  16.030  0.0037  1.4248 -0.5439
  637TMC3    C1 9427   1.519   1.689  15.916  0.5167  0.4118 -0.4336
  637TMC3    C2 9428   1.522   1.713  16.053  0.1784 -0.2521  0.3623
  637TMC3    C3 9429   1.585   1.625  16.127  0.1603  0.2792 -0.2440
  637TMC3    C4 9430   1.568   1.572  15.860  0.6434  0.2417  0.5679
  637TMC3    C5 9431   1.611   1.478  15.948  0.8240 -0.2776  0.6594
  637TMC3    C6 9432   1.611   1.495  16.084 -0.0071 -0.1334 -0.1030
  637TMC3     C 9433   1.434   1.765  15.828 -0.1324  0.3299  0.5247
  637TMC3     O 9434   1.392   1.713  15.723  0.5248  0.2801 -0.0342
  637TMC3     H 9435   1.491   1.803  16.104  0.0869 -0.0750 -0.0077
  637TMC3    H1 9436   1.567   1.554  15.753  0.0692  0.7495  0.4818
  637TMC3    H2 9437   1.656   1.420  16.148 -0.9210 -1.1334 -0.6310
  637TMC3    C7 9438   1.743   1.422  15.908 -0.0101  0.5471 -0.0141
  637TMC3    C8 9439   1.675   1.676  16.225 -0.2365 -0.4365 -0.1676
  637TMC3    O1 9440   1.808   1.375  16.000 -0.2140  0.0798  0.1922
  637TMC3    O2 9441   1.703   1.793  16.211 -0.0709 -0.0308  0.4956
  638MPD2     C 9442   1.288   0.809  15.132 -0.0043  0.2719 -0.5129
  638MPD2    C1 9443   1.260   0.690  15.062 -0.3181  0.0261 -0.7859
  638MPD2    C2 9444   1.199   0.582  15.127  0.2913  0.3434  0.0743
  638MPD2    C3 9445   1.190   0.581  15.266 -0.2438  0.4187 -0.2323
  638MPD2    C4 9446   1.227   0.694  15.335 -0.8205 -0.5255  0.5273
  638MPD2    C5 9447   1.274   0.807  15.269  0.1612 -0.1021 -0.3909
  638MPD2     H 9448   1.174   0.488  15.081 -2.8073  0.7961  0.8296
  638MPD2    H1 9449   1.235   0.684  15.443 -0.0841 -0.3381  0.4938
  638MPD2    H2 9450   1.321   0.900  15.082 -1.2550  0.6880 -0.5897
  638MPD2    H3 9451   1.317   0.891  15.323 -0.9719  0.4481 -0.3478
  638MPD2     N 9452   1.132   0.477  15.344  0.0143 -0.3970  0.5831
  638MPD2    H5 9453   1.151   0.478  15.444  1.7496 -1.2318  0.2652
  638MPD2    N1 9454   1.297   0.683  14.921 -0.2346 -0.5240 -0.6509
  638MPD2    H7 9455   1.340   0.765  14.877 -0.9140  0.5241  0.6348
  639TMC3    C1 9456   1.046   0.271  15.378 -0.1419 -0.6072  0.5438
  639TMC3    C2 9457   0.960   0.178  15.334 -0.5666  1.5107 -0.0242
  639TMC3    C3 9458   0.990   0.048  15.326 -0.1072 -0.1152  0.3199
  639TMC3    C4 9459   1.172   0.231  15.422  0.5398 -0.0747  0.6282
  639TMC3    C5 9460   1.200   0.097  15.418 -0.0912 -0.0383 -0.1838
  639TMC3    C6 9461   1.114   4.717  15.371 -0.8000  1.2771  0.6833
  639TMC3     C 9462   1.059   0.377  15.293 -0.3398  0.6844  0.2025
  639TMC3     O 9463   1.002   0.371  15.184  0.1089  0.1031 -0.3652
  639TMC3     H 9464   0.870   0.208  15.282 -0.0720  0.3992 -1.5022
  639TMC3    H1 9465   1.256   0.299  15.436 -0.3357  0.9593  0.8880
  639TMC3    H2 9466   1.135   4.612  15.357 -0.3798  1.4838 -0.2269
  639TMC3    C7 9467   1.333   0.059  15.452  0.0002 -0.5234  0.5167
  639TMC3    C8 9468   0.926   4.699  15.219 -0.2275 -0.3545 -0.0895
  639TMC3    O1 9469   1.355   4.712  15.556  0.0887  0.2856  0.0575
  639TMC3    O2 9470   0.996   4.679  15.121  0.4777 -0.7386  0.9245
  640MPD2     C 9471   2.527   3.267   9.551  0.0770 -0.0078  0.6854
  640MPD2    C1 9472   2.633   3.298   9.626  0.0826 -0.4776  0.0237
  640MPD2    C2 9473   2.635   3.416   9.699 -0.3271 -0.1964 -0.2061
  640MPD2    C3 9474   2.524   3.491   9.726  0.1950 -0.6287 -0.2133
  640MPD2    C4 9475   2.406   3.438   9.674 -0.7664  0.4047  0.4758
  640MPD2    C5 9476   2.419   3.338   9.573  0.1196  0.2799  0.8055
  640MPD2     H 9477   2.732   3.452   9.732 -1.0531 -1.0616  2.8360
  640MPD2    H1 9478   2.311   3.488   9.690 -2.4286 -2.3680 -0.5231
  640MPD2    H2 9479   2.523   3.182   9.484 -4.0585  1.3368 -0.7835
  640MPD2    H3 9480   2.323   3.316   9.528  0.1026  0.1718  0.8919
  640MPD2     N 9481   2.522   3.607   9.796 -0.5776 -0.7417  1.0488
  640MPD2    H5 9482   2.434   3.656   9.805 -0.9280 -0.5645 -3.3297
  640MPD2    N1 9483   2.749   3.224   9.598  0.8449 -0.7006 -0.2868
  640MPD2    H7 9484   2.734   3.148   9.532  1.3184 -1.7774  0.8423
  641TMC3    C1 9485   2.963   3.161   9.594  0.0845 -0.8002  0.4261
  641TMC3    C2 9486   3.062   3.099   9.655 -0.4203  0.0307  0.5620
  641TMC3    C3 9487   3.138   3.009   9.577  0.0371  0.5964 -0.1835
  641TMC3    C4 9488   2.947   3.158   9.455  0.8345 -0.1421 -0.5292
  641TMC3    C5 9489   3.034   3.081   9.381 -0.3668  0.1308  0.9597
  641TMC3    C6 9490   3.126   2.997   9.442  0.5663  0.1490 -0.0057
  641TMC3     C 9491   2.863   3.230   9.673  0.0687  0.3699 -0.1640
  641TMC3     O 9492   2.884   3.268   9.788  0.0924 -0.1325 -0.2833
  641TMC3     H 9493   3.080   3.113   9.761 -0.2614 -0.8003  0.6511
  641TMC3    H1 9494   2.893   3.240   9.408  3.7431  0.2815 -3.0967
  641TMC3    H2 9495   3.201   2.942   9.387 -0.4272 -1.4430  0.2390
  641TMC3    C7 9496   3.050   3.107   9.242 -0.5437 -0.5443  0.2685
  641TMC3    C8 9497   3.199   2.893   9.635 -0.5913  1.0039 -0.3812
  641TMC3    O1 9498   3.165   3.092   9.210 -0.1529  0.2671  0.4706
  641TMC3    O2 9499   3.200   2.791   9.569 -0.8730 -0.3591  0.2868
  642TMC3    C1 9500   3.154   0.977  11.946 -0.9329 -1.3946 -0.0819
  642TMC3    C2 9501   3.240   1.075  11.989  0.0873 -0.3136  0.0242
  642TMC3    C3 9502   3.325   1.044  12.092  0.1267 -0.1430  0.0956
  642TMC3    C4 9503   3.149   0.852  12.002  0.8723  0.0020 -0.3286
  642TMC3    C5 9504   3.238   0.824  12.105 -0.5771 -0.3170  0.8139
  642TMC3    C6 9505   3.329   0.920  12.143  0.0071  1.0574 -0.4319
  642TMC3     C 9506   3.046   1.036  11.877  0.2294 -0.2243  0.2554
  642TMC3     O 9507   3.070   1.096  11.776 -0.1503  0.2946  0.3953
  642TMC3     H 9508   3.212   1.178  11.969  2.4988  0.4867  0.8238
  642TMC3    H1 9509   3.083   0.775  11.964 -0.3257 -1.1905  4.2631
  642TMC3    H2 9510   3.405   0.893  12.215  1.5731  0.9482 -2.1302
  642TMC3    C7 9511   3.259   0.680  12.138 -0.0192  0.1229 -0.3252
  642TMC3    C8 9512   3.430   1.136  12.122  0.6799 -0.0339 -0.0412
  642TMC3    O1 9513   3.201   0.601  12.060  0.0796 -0.7967  0.5969
  642TMC3    O2 9514   3.492   1.119  12.227 -0.2624 -0.2850 -0.0425
  643TMC3    C1 9515   2.030   4.597   0.371  0.2733 -0.5217 -0.0068
  643TMC3    C2 9516   1.895   4.594   0.365  0.9010 -0.0892  0.2950
  643TMC3    C3 9517   1.846   4.509   0.269 -0.3028 -0.3519 -0.1345
  643TMC3    C4 9518   2.115   4.548   0.280  0.3284 -0.1480  0.1592
  643TMC3    C5 9519   2.058   4.471   0.181 -0.0194  0.5901  0.0753
  643TMC3    C6 9520   1.926   4.436   0.183  0.1592 -0.1641  0.3902
  643TMC3     C 9521   2.084   4.709   0.435 -0.4652  0.2851 -0.4895
  643TMC3     O 9522   2.021   0.094   0.432  0.0702 -0.0297 -0.4943
  643TMC3     H 9523   1.842   4.647   0.443 -0.4662  0.3291 -0.9111
  643TMC3    H1 9524   2.221   4.574   0.279  0.1167  0.7428  0.8237
  643TMC3    H2 9525   1.872   4.382   0.107 -0.3215  3.4320 -1.8532
  643TMC3    C7 9526   2.110   4.499   0.053  0.2447 -0.2646  0.3947
  643TMC3    C8 9527   1.756   4.576   0.172  0.0646 -0.3604 -0.2033
  643TMC3    O1 9528   2.159   4.611   0.042  0.3880  0.6234  0.0073
  643TMC3    O2 9529   1.712   4.521   0.076 -0.1854  0.0638  0.1568
  644MPD2     C 9530   2.515   3.609   8.903 -0.4907 -0.0809 -0.1334
  644MPD2    C1 9531   2.572   3.507   8.987 -0.5229  0.2020  0.0279
  644MPD2    C2 9532   2.522   3.384   8.990  0.5385 -0.1330 -0.5488
  644MPD2    C3 9533   2.405   3.359   8.921  0.3253 -0.4629  0.7924
  644MPD2    C4 9534   2.345   3.467   8.854 -0.0413 -0.3962  0.0526
  644MPD2    C5 9535   2.395   3.593   8.841  0.7026  0.4286 -0.3242
  644MPD2     H 9536   2.577   3.307   9.042 -1.2979 -1.8890 -1.2225
  644MPD2    H1 9537   2.251   3.453   8.803  0.9438 -0.2341 -1.7838
  644MPD2    H2 9538   2.556   3.709   8.896 -0.4319 -0.1800 -1.1319
  644MPD2    H3 9539   2.340   3.669   8.787  1.6910  2.0719  0.9947
  644MPD2     N 9540   2.351   3.232   8.911  0.1755 -0.2233  0.6501
  644MPD2    H5 9541   2.268   3.228   8.852  1.4374  1.9837 -1.3032
  644MPD2    N1 9542   2.692   3.540   9.058 -0.1153 -0.3431  0.3838
  644MPD2    H7 9543   2.735   3.629   9.032  0.4781 -0.1235  2.1766
  645TMC3    C1 9544   2.298   3.007   8.958 -0.2171 -0.1887  0.3841
  645TMC3    C2 9545   2.171   3.026   8.930 -0.7441  0.6681 -0.7849
  645TMC3    C3 9546   2.087   2.918   8.945 -0.8412  0.6667 -0.2141
  645TMC3    C4 9547   2.350   2.890   9.014 -0.8905 -0.2956  0.0953
  645TMC3    C5 9548   2.266   2.790   9.028  0.6693 -0.5541 -0.1192
  645TMC3    C6 9549   2.134   2.797   8.995 -1.5638 -0.7971  0.2200
  645TMC3     C 9550   2.393   3.116   8.969 -0.5326 -0.6204  0.3198
  645TMC3     O 9551   2.492   3.099   9.039 -0.5416 -0.3568 -0.7916
  645TMC3     H 9552   2.135   3.122   8.893  0.3683  0.8079 -1.5282
  645TMC3    H1 9553   2.456   2.868   9.023 -0.1943  3.7277  1.8166
  645TMC3    H2 9554   2.068   2.712   9.010 -1.1244 -0.6361  3.1482
  645TMC3    C7 9555   2.321   2.666   9.077  0.1875  1.0853 -0.0060
  645TMC3    C8 9556   1.950   2.949   8.944 -0.1530  0.1061  0.2789
  645TMC3    O1 9557   2.277   2.568   9.025  0.2626  1.0702  0.3187
  645TMC3    O2 9558   1.915   3.069   8.930  0.5875  0.0284 -0.1624
  646MPD2     C 9559   1.394   3.921  14.674 -0.2734  0.2463 -0.5674
  646MPD2    C1 9560   1.308   3.958  14.777 -0.6223  0.1898 -0.2403
  646MPD2    C2 9561   1.197   4.036  14.755  0.7725  0.1047 -0.2682
  646MPD2    C3 9562   1.174   4.084  14.630 -0.0390 -0.0796  0.0453
  646MPD2    C4 9563   1.259   4.053  14.524 -0.1413 -0.1384  1.1102
  646MPD2    C5 9564   1.362   3.972  14.550  0.0530 -1.0358  0.6551
  646MPD2     H 9565   1.136   4.073  14.836 -2.4246 -1.1927 -2.0540
  646MPD2    H1 9566   1.250   4.094  14.424 -0.6556 -2.2483  0.2877
  646MPD2    H2 9567   1.482   3.859  14.685 -0.4605  0.4294  2.0168
  646MPD2    H3 9568   1.434   3.944  14.474 -0.5024 -0.7969  0.0453
  646MPD2     N 9569   1.059   4.168  14.612 -0.2293 -0.0590  0.2315
  646MPD2    H5 9570   0.996   4.162  14.691 -0.6985  1.8483 -0.0020
  646MPD2    N1 9571   1.334   3.907  14.904 -0.0102 -0.4075  0.4244
  646MPD2    H7 9572   1.411   3.840  14.910 -0.6172 -1.3095 -2.1396
  647TMC3    C1 9573   1.326   3.874  15.136 -0.5064  0.5533 -0.3015
  647TMC3    C2 9574   1.262   3.883  15.261 -0.6362  0.4868  0.1116
  647TMC3    C3 9575   1.343   3.865  15.368 -0.0869 -0.6895  0.1440
  647TMC3    C4 9576   1.460   3.848  15.133 -0.1083  0.6996 -0.6024
  647TMC3    C5 9577   1.541   3.835  15.240  0.4758  0.0849  0.1362
  647TMC3    C6 9578   1.478   3.846  15.365 -0.2084 -0.4074  0.4071
  647TMC3     C 9579   1.259   3.932  15.019 -0.2914 -0.3364 -0.4336
  647TMC3     O 9580   1.166   4.005  15.042 -0.0825 -0.5139  0.0935
  647TMC3     H 9581   1.160   3.917  15.276 -0.0193  2.1259  0.5535
  647TMC3    H1 9582   1.514   3.838  15.039 -0.1204 -3.0303 -0.2319
  647TMC3    H2 9583   1.530   3.842  15.460  0.0911 -1.8460  0.1905
  647TMC3    C7 9584   1.672   3.781  15.227 -0.2333 -0.3955  0.8672
  647TMC3    C8 9585   1.272   3.887  15.486  0.3955  0.4361 -0.2694
  647TMC3    O1 9586   1.735   3.778  15.334 -0.0627 -0.7420 -0.6642
  647TMC3    O2 9587   1.186   3.973  15.483  0.4133  0.2606 -0.3715
  648TMC3    C1 9588   0.819   1.713  16.364  0.1433  0.6259  0.1382
  648TMC3    C2 9589   0.849   1.591  16.303 -0.1008 -0.4201 -0.1673
  648TMC3    C3 9590   0.800   1.568  16.178 -0.4557 -0.3745  0.0988
  648TMC3    C4 9591   0.752   1.809  16.300  0.7185 -0.0284 -0.3114
  648TMC3    C5 9592   0.705   1.789  16.171  0.3630  0.3706  0.5851
  648TMC3    C6 9593   0.731   1.670  16.110 -0.2149  0.3511  0.1821
  648TMC3     C 9594   0.810   1.725  16.508 -0.9173 -0.8212  0.1793
  648TMC3     O 9595   0.833   1.838  16.556  0.4279 -0.6609  0.6473
  648TMC3     H 9596   0.922   1.523  16.345  0.6774  0.3920 -0.2130
  648TMC3    H1 9597   0.729   1.902  16.350  0.9260 -2.1861  3.8252
  648TMC3    H2 9598   0.710   1.659  16.004 -0.2912 -2.0461  0.4351
  648TMC3    C7 9599   0.619   1.871  16.102  0.2263  0.1006  0.5282
  648TMC3    C8 9600   0.840   1.449  16.099  0.1957 -0.0316  0.1073
  648TMC3    O1 9601   0.601   1.845  15.985  0.5890 -0.3993  0.6840
  648TMC3    O2 9602   0.949   1.398  16.126 -0.2449 -0.1893  0.1219
  649TMC3    C1 9603   0.923   2.544  12.704 -0.4824  0.2791 -0.8074
  649TMC3    C2 9604   1.044   2.597  12.755 -0.3351  0.2237  0.1711
  649TMC3    C3 9605   1.077   2.560  12.880  0.0299  0.1404  0.0480
  649TMC3    C4 9606   0.843   2.457  12.778 -1.0235 -0.1307  0.5078
  649TMC3    C5 9607   0.882   2.437  12.909  0.2319 -0.2244  1.0691
  649TMC3    C6 9608   0.993   2.493  12.960 -0.1633 -0.7088 -0.4938
  649TMC3     C 9609   0.860   2.612  12.586  0.7136 -0.0194 -0.4591
  649TMC3     O 9610   0.756   2.564  12.552 -0.3434 -0.3668 -0.7942
  649TMC3     H 9611   1.123   2.641  12.696 -0.4678  1.1336  0.6630
  649TMC3    H1 9612   0.746   2.424  12.743 -1.6708  3.7830 -1.4322
  649TMC3    H2 9613   1.015   2.468  13.063  0.8923  4.8945  0.6667
  649TMC3    C7 9614   0.786   2.366  12.998 -0.1256 -0.1269  0.9311
  649TMC3    C8 9615   1.207   2.592  12.941 -0.0424 -0.6248  0.8308
  649TMC3    O1 9616   0.798   2.402  13.117  0.6270 -0.2854  0.5946
  649TMC3    O2 9617   1.239   2.512  13.022 -0.3403  0.5416  0.7061
  650TMC3    C1 9618   2.375   0.174  12.735  0.4398 -0.1249 -0.3910
  650TMC3    C2 9619   2.335   0.305  12.725  0.0077  0.0866  0.4363
  650TMC3    C3 9620   2.385   0.380  12.621  0.6920  0.2750 -0.8126
  650TMC3    C4 9621   2.473   0.122  12.650 -0.8791 -0.7241 -0.3696
  650TMC3    C5 9622   2.507   0.196  12.541 -0.4526 -0.5823 -0.3306
  650TMC3    C6 9623   2.461   0.329  12.519  0.2699 -0.1445  0.7464
  650TMC3     C 9624   2.317   0.089  12.841  0.3702 -0.4401  0.0928
  650TMC3     O 9625   2.264   0.155  12.926 -0.2920 -0.0922  0.1567
  650TMC3     H 9626   2.251   0.339  12.786  0.2258  0.4000  0.5659
  650TMC3    H1 9627   2.502   0.019  12.666 -2.0573 -0.8014  1.2733
  650TMC3    H2 9628   2.489   0.388  12.432 -0.0685  0.1816  0.8572
  650TMC3    C7 9629   2.604   0.133  12.465  0.6437  0.0496  0.0154
  650TMC3    C8 9630   2.323   0.507  12.589  0.2069  0.4485 -0.2588
  650TMC3    O1 9631   2.672   0.042  12.509  0.3085 -0.2486  0.2685
  650TMC3    O2 9632   2.335   0.553  12.479 -0.1441  0.1709 -0.2900
  651MPD2     C 9633   1.525   1.108  10.526 -0.6675 -0.2017  0.6870
  651MPD2    C1 9634   1.455   1.224  10.543  0.1656  0.7765 -0.3067
  651MPD2    C2 9635   1.537   1.335  10.528 -1.2575 -0.2687  0.6682
  651MPD2    C3 9636   1.678   1.330  10.506  0.1135  0.0073  0.3453
  651MPD2    C4 9637   1.735   1.209  10.489 -0.2604  0.0769 -0.3508
  651MPD2    C5 9638   1.659   1.102  10.508 -0.5662 -0.0620  0.0063
  651MPD2     H 9639   1.503   1.438  10.532 -1.1797 -0.2508  0.8669
  651MPD2    H1 9640   1.839   1.205  10.457  0.0329 -0.9443  0.7221
  651MPD2    H2 9641   1.470   1.014  10.537 -1.3817  0.4571  2.8101
  651MPD2    H3 9642   1.708   1.005  10.503 -1.0494 -0.1099 -3.7576
  651MPD2     N 9643   1.758   1.451  10.485 -0.2506 -0.2985  0.0211
  651MPD2    H5 9644   1.703   1.537  10.486  1.5775  0.8727 -0.8925
  651MPD2    N1 9645   1.319   1.242  10.574  0.1222 -0.3466 -0.2843
  651MPD2    H7 9646   1.280   1.335  10.565 -1.5009 -0.9903  0.2536
  652TMC3    C1 9647   2.080   1.770  10.398 -0.7191 -0.5350 -0.3129
  652TMC3    C2 9648   2.045   1.648  10.448 -0.2707  0.5478 -0.9239
  652TMC3    C3 9649   1.917   1.605  10.436  0.0962  0.4155 -0.0391
  652TMC3    C4 9650   1.986   1.856  10.351  0.0790  0.1881 -0.4309
  652TMC3    C5 9651   1.856   1.802  10.343 -0.1166 -0.2844 -0.4659
  652TMC3    C6 9652   1.821   1.679  10.377  0.0349  0.0751  0.5294
  652TMC3     C 9653   2.210   1.826  10.434 -0.2070 -0.0160  0.3874
  652TMC3     O 9654   2.250   1.785  10.542  0.3006  0.1272  0.0937
  652TMC3     H 9655   2.117   1.588  10.501  0.9109  0.6485 -2.4309
  652TMC3    H1 9656   1.999   1.957  10.313  0.5233  0.6946  1.0440
  652TMC3    H2 9657   1.722   1.645  10.349 -0.2918  2.4791 -1.3253
  652TMC3    C7 9658   1.755   1.898  10.324  0.2279 -0.0139  0.4824
  652TMC3    C8 9659   1.895   1.462  10.460 -0.3389  0.1466  0.4438
  652TMC3    O1 9660   1.662   1.868  10.245  0.0348 -0.2607  0.2490
  652TMC3    O2 9661   1.980   1.372  10.468 -0.5372 -0.3049  0.1267
  653MPD2     C 9662   4.554   1.644   0.370  0.1652  0.2490 -0.3035
  653MPD2    C1 9663   4.523   1.724   0.259  0.7072  0.5805 -1.1394
  653MPD2    C2 9664   4.507   1.660   0.140  0.3907 -0.2271 -0.0072
  653MPD2    C3 9665   4.522   1.525   0.123  1.0210  0.4720 -0.3738
  653MPD2    C4 9666   4.560   1.447   0.231 -0.5287  0.2524 -0.8118
  653MPD2    C5 9667   4.570   1.507   0.353  0.3299 -0.8238 -0.2185
  653MPD2     H 9668   4.475   1.723   0.058  1.3916 -1.6118 -1.4602
  653MPD2    H1 9669   4.553   1.339   0.234  1.1521  0.2283  1.7810
  653MPD2    H2 9670   4.565   1.685   0.470  2.5673 -1.1771  0.0093
  653MPD2    H3 9671   4.592   1.448   0.441  1.8534  1.2377  0.7779
  653MPD2     N 9672   4.486   1.470  17.681 -0.4373  0.1943 -0.3692
  653MPD2    H5 9673   4.422   1.519  17.621  0.3219 -0.6511 -1.8646
  653MPD2    N1 9674   4.501   1.864   0.256 -0.4478  0.9803 -0.5871
  653MPD2    H7 9675   4.478   1.899   0.163 -1.0191 -0.3983 -0.9666
  654TMC3    C1 9676   4.455   1.302  17.515 -0.1875  0.5445  0.0110
  654TMC3    C2 9677   4.433   1.406  17.428  0.3589 -0.5408 -0.1949
  654TMC3    C3 9678   4.419   1.362  17.291 -0.0507  0.5022 -0.2286
  654TMC3    C4 9679   4.453   1.166  17.485  0.1970 -0.9607 -0.3528
  654TMC3    C5 9680   4.442   1.135  17.356 -0.2307  1.0431  0.3684
  654TMC3    C6 9681   4.425   1.229  17.257  0.4364 -0.1127 -0.0112
  654TMC3     C 9682   4.513   1.341  17.640 -0.1104  0.0062 -0.0586
  654TMC3     O 9683   4.552   1.238   0.018  0.9040  0.7195  0.0321
  654TMC3     H 9684   4.426   1.512  17.448 -1.5872 -0.3737 -1.7966
  654TMC3    H1 9685   4.453   1.094  17.566  0.9434  1.1070  1.4882
  654TMC3    H2 9686   4.416   1.198  17.153  2.0422  1.5279 -0.6429
  654TMC3    C7 9687   4.404   0.998  17.313 -0.1783  0.1833 -1.0341
  654TMC3    C8 9688   4.375   1.446  17.183 -1.0655 -0.2618 -0.3867
  654TMC3    O1 9689   4.348   0.977  17.205 -0.1774 -0.1224  0.4565
  654TMC3    O2 9690   4.285   1.527  17.200  0.2867  0.4461 -0.0411
  655MPD2     C 9691   1.077   1.851  16.032  0.4499 -1.1089  0.3110
  655MPD2    C1 9692   1.014   1.953  15.968 -0.1064  0.2574 -0.8312
  655MPD2    C2 9693   0.990   1.943  15.833 -0.5951 -0.1904 -0.2331
  655MPD2    C3 9694   0.994   1.817  15.763  0.3500  0.4376 -0.5066
  655MPD2    C4 9695   1.040   1.711  15.842 -0.0104 -0.3050 -0.3625
  655MPD2    C5 9696   1.077   1.731  15.968  0.2642 -0.6137  0.9669
  655MPD2     H 9697   0.952   2.025  15.773 -0.2637  0.3151  0.2432
  655MPD2    H1 9698   1.049   1.611  15.801 -1.4402 -0.3707 -0.5323
  655MPD2    H2 9699   1.116   1.861  16.133  0.1543  1.3789  0.1796
  655MPD2    H3 9700   1.124   1.656  16.030  0.8993  1.2608  2.7385
  655MPD2     N 9701   0.976   1.823  15.621  0.3312 -0.6688  0.6431
  655MPD2    H5 9702   0.954   1.914  15.582 -2.8402 -1.4978  0.4794
  655MPD2    N1 9703   0.987   2.069  16.035  0.0366 -0.0067  0.2370
  655MPD2    H7 9704   0.946   2.143  15.980  0.3072  0.2677  0.4080
  656TMC3    C1 9705   0.938   2.208  16.213 -0.2751  0.5220 -0.2476
  656TMC3    C2 9706   0.871   2.209  16.327 -0.3292 -0.0419  0.4247
  656TMC3    C3 9707   0.769   2.298  16.353 -0.4747  0.4109 -0.0171
  656TMC3    C4 9708   0.893   2.296  16.116  0.4116  0.1052  0.0590
  656TMC3    C5 9709   0.773   2.357  16.138  0.3691 -0.4224  0.7295
  656TMC3    C6 9710   0.708   2.362  16.255 -0.1514  0.8544  0.7308
  656TMC3     C 9711   0.997   2.085  16.172 -0.0988  0.3624 -0.0753
  656TMC3     O 9712   1.025   2.014  16.267 -0.0387  0.1459 -0.0941
  656TMC3     H 9713   0.919   2.172  16.417 -2.6744  1.0501  2.1446
  656TMC3    H1 9714   0.942   2.299  16.020 -2.7103 -0.6837 -1.5719
  656TMC3    H2 9715   0.602   2.385  16.264 -0.5137 -0.5185 -0.0292
  656TMC3    C7 9716   0.691   2.388  16.015 -0.0267 -0.1553 -0.1327
  656TMC3    C8 9717   0.670   2.245  16.446  0.0845  0.1583  0.2206
  656TMC3    O1 9718   0.745   2.350  15.914 -0.2334  0.0433 -0.1205
  656TMC3    O2 9719   0.648   2.123  16.442 -0.5780  0.2573 -0.3097
  657TMC3    C1 9720   4.390   1.231  14.985 -0.1079 -0.2501  0.6264
  657TMC3    C2 9721   4.428   1.218  15.118  0.8341 -0.3380 -0.8722
  657TMC3    C3 9722   4.381   1.301  15.217  0.3518  0.1755  0.2368
  657TMC3    C4 9723   4.296   1.327  14.960  0.1949 -0.5962 -0.1718
  657TMC3    C5 9724   4.249   1.407  15.062  0.1949 -0.2201 -0.2685
  657TMC3    C6 9725   4.289   1.396  15.192  1.0422 -0.0408 -0.1052
  657TMC3     C 9726   4.443   1.144  14.876 -0.1219 -0.0962  0.1587
  657TMC3     O 9727   4.402   1.166  14.764 -0.0599  0.1716 -0.3742
  657TMC3     H 9728   4.512   1.152  15.139  0.8320  0.3381  1.2360
  657TMC3    H1 9729   4.261   1.328  14.857  0.6820 -0.7007 -0.3389
  657TMC3    H2 9730   4.246   1.460  15.268  1.7847  0.1429  0.1557
  657TMC3    C7 9731   4.120   1.466  15.037 -0.4361  0.2687  0.3052
  657TMC3    C8 9732   4.442   1.280  15.347 -0.4108 -0.8745  0.5412
  657TMC3    O1 9733   4.047   1.417  14.952  0.7543 -0.6660 -0.0974
  657TMC3    O2 9734   4.381   1.330  15.440  0.8255 -0.1553  0.2015
  658MPD2     C 9735   1.462   1.759  15.099  0.2816  0.0114  1.1252
  658MPD2    C1 9736   1.379   1.868  15.093  0.2154 -0.2376  0.0065
  658MPD2    C2 9737   1.403   1.967  14.995  0.3442  0.0247 -0.2243
  658MPD2    C3 9738   1.509   1.962  14.907 -0.4788 -0.1277  0.0457
  658MPD2    C4 9739   1.582   1.847  14.903  0.0309  0.5243 -0.3405
  658MPD2    C5 9740   1.562   1.756  15.004 -0.4650 -0.1886 -0.3764
  658MPD2     H 9741   1.348   2.058  15.013  0.4350  0.1051 -0.3565
  658MPD2    H1 9742   1.670   1.841  14.840  0.2346  0.1752 -0.0219
  658MPD2    H2 9743   1.437   1.673  15.160  0.8317 -0.9778 -0.0703
  658MPD2    H3 9744   1.623   1.666  15.011  1.1131  0.7581 -1.9067
  658MPD2     N 9745   1.518   2.068  14.816 -0.3325  0.8333  0.4208
  658MPD2    H5 9746   1.438   2.130  14.808  0.1646  1.6143  1.5183
  658MPD2    N1 9747   1.266   1.865  15.176  0.3559 -1.1344  0.8333
  658MPD2    H7 9748   1.252   1.785  15.236 -0.6405 -1.2491  0.4585
  659TMC3    C1 9749   1.054   1.900  15.257  0.5489  0.1463 -0.2740
  659TMC3    C2 9750   1.070   1.818  15.368  0.2684  0.2608 -0.0346
  659TMC3    C3 9751   0.964   1.737  15.409 -0.1217  0.6602  0.0004
  659TMC3    C4 9752   0.930   1.907  15.192 -0.1643 -0.2933  0.0489
  659TMC3    C5 9753   0.831   1.824  15.242  0.1235 -0.4431  0.5674
  659TMC3    C6 9754   0.846   1.743  15.350 -0.2772 -0.3958  0.6517
  659TMC3     C 9755   1.169   1.955  15.184 -0.8051  0.2953  0.6230
  659TMC3     O 9756   1.163   2.062  15.131  0.1932 -0.4690  0.4228
  659TMC3     H 9757   1.161   1.833  15.426  0.7019  2.4466 -1.2442
  659TMC3    H1 9758   0.934   1.945  15.090  2.6194 -0.1153  0.2316
  659TMC3    H2 9759   0.764   1.674  15.370 -2.7542  2.1242 -0.8703
  659TMC3    C7 9760   0.725   1.791  15.150 -0.2590  0.3036  0.0140
  659TMC3    C8 9761   0.966   1.706  15.548  0.2783 -1.2810 -0.2334
  659TMC3    O1 9762   0.701   1.674  15.135  0.0705 -0.2311 -0.0791
  659TMC3    O2 9763   0.991   1.585  15.565  0.1780  0.5817  0.1338
  660MPD2     C 9764   4.494   0.600  12.595  0.4987 -0.3617  0.0753
  660MPD2    C1 9765   4.398   0.694  12.560  0.0716  0.0383 -0.4056
  660MPD2    C2 9766   4.284   0.713  12.642  0.8500 -0.0038 -0.0930
  660MPD2    C3 9767   4.254   0.627  12.751  0.0983 -0.4166  0.7290
  660MPD2    C4 9768   4.352   0.532  12.779  1.2191  0.9281  0.4547
  660MPD2    C5 9769   4.473   0.523  12.704 -0.3074  0.1681  0.2994
  660MPD2     H 9770   4.205   0.779  12.608  0.5797 -0.2573  0.0393
  660MPD2    H1 9771   4.337   0.460  12.858  1.4626 -1.2340 -1.4543
  660MPD2    H2 9772   4.575   0.579  12.527 -0.5782  0.5347 -1.4873
  660MPD2    H3 9773   4.547   0.452  12.737  0.9748  1.8636  1.0787
  660MPD2     N 9774   4.137   0.636  12.830 -0.4412 -0.9420 -0.2094
  660MPD2    H5 9775   4.135   0.591  12.922 -2.3717 -0.4303 -0.0136
  660MPD2    N1 9776   4.418   0.768  12.436  0.7371 -0.5435  0.1926
  660MPD2    H7 9777   4.494   0.743  12.375  0.0809 -0.2891 -0.7318
  661TMC3    C1 9778   4.409   0.949  12.272 -0.0926 -0.1281  0.0962
  661TMC3    C2 9779   4.534   0.918  12.224 -0.2720 -0.4070 -0.3216
  661TMC3    C3 9780   4.574   0.955  12.101 -0.0535 -0.4515  0.0702
  661TMC3    C4 9781   4.332   1.042  12.207  0.1926 -0.1462  0.0175
  661TMC3    C5 9782   4.386   1.094  12.094 -0.2749 -0.8219 -0.5953
  661TMC3    C6 9783   4.507   1.060  12.041 -0.5250 -0.2732  0.8512
  661TMC3     C 9784   4.363   0.892  12.407 -0.3280  0.3291 -0.3466
  661TMC3     O 9785   4.267   0.944  12.460  1.0006 -0.3442 -0.1392
  661TMC3     H 9786   4.603   0.854  12.278 -1.4835 -1.2479  0.2393
  661TMC3    H1 9787   4.235   1.076  12.240 -0.0785 -1.1903  0.2739
  661TMC3    H2 9788   4.534   1.101  11.944  1.5371 -0.6674  1.2442
  661TMC3    C7 9789   4.300   1.162  11.989  0.3342 -0.6908  0.8597
  661TMC3    C8 9790   4.681   0.882  12.037  0.1821  0.2241 -0.2812
  661TMC3    O1 9791   4.351   1.261  11.934  0.3532  0.6481  0.5143
  661TMC3    O2 9792   0.005   0.786  12.092  0.1714  0.4650 -0.3754
  662MPD2     C 9793   4.244   4.707  16.938  0.0229  0.4497 -0.8550
  662MPD2    C1 9794   4.212   4.686  17.071 -0.2574 -0.9218 -0.5188
  662MPD2    C2 9795   4.199   0.075  17.161  0.1840 -0.3817 -0.5195
  662MPD2    C3 9796   4.207   0.203  17.107  0.2119  0.1765 -0.0313
  662MPD2    C4 9797   4.245   0.224  16.985 -0.2680 -0.1261  0.0948
  662MPD2    C5 9798   4.268   0.118  16.898  0.2083 -0.5808  0.1723
  662MPD2     H 9799   4.160   0.049  17.259  3.5130  0.7188  1.0849
  662MPD2    H1 9800   4.272   0.322  16.948  0.4731 -0.6574 -0.7673
  662MPD2    H2 9801   4.259   4.623  16.870 -1.7432  0.0554 -0.7420
  662MPD2    H3 9802   4.305   0.134  16.797  0.3639  0.8569  0.4595
  662MPD2     N 9803   4.180   0.317  17.189 -0.6131 -0.0279  0.2674
  662MPD2    H5 9804   4.180   0.404  17.138  1.4750 -1.3324 -1.9471
  662MPD2    N1 9805   4.206   4.562  17.138  0.6418  0.6321  0.2296
  662MPD2    H7 9806   4.175   4.562  17.234  1.8801 -0.2118  0.6275
  663TMC3    C1 9807   4.240   4.339  17.198  0.4842 -0.5512 -0.0119
  663TMC3    C2 9808   4.255   4.373  17.329 -0.4195 -0.3937 -0.0334
  663TMC3    C3 9809   4.165   4.324  17.421  0.0565  0.4356  0.3377
  663TMC3    C4 9810   4.159   4.232  17.165 -0.4658  0.5235  0.5304
  663TMC3    C5 9811   4.079   4.179  17.256 -0.1951 -0.2345 -0.0413
  663TMC3    C6 9812   4.079   4.226  17.384 -0.0083 -0.6389 -0.1416
  663TMC3     C 9813   4.243   4.439  17.092 -0.0484  0.0655 -0.1064
  663TMC3     O 9814   4.264   4.410  16.978 -0.5309 -0.2303  0.0504
  663TMC3     H 9815   4.308   4.467  17.345  0.2183 -0.7578  0.0002
  663TMC3    H1 9816   4.149   4.201  17.062 -0.4255  0.8052  0.4413
  663TMC3    H2 9817   4.013   4.178  17.455 -0.0118  0.3358  0.5118
  663TMC3    C7 9818   4.032   4.043  17.231  0.6383  0.4733  0.8391
  663TMC3    C8 9819   4.090   4.442  17.465 -0.2721  0.6713  0.2908
  663TMC3    O1 9820   4.074   3.999  17.123 -0.4895 -0.0750  0.2366
  663TMC3    O2 9821   4.115   4.551  17.408  0.4514  0.0917 -0.2315
  664MPD2     C 9822   2.027   3.120  17.589  0.3007 -1.0302  0.4572
  664MPD2    C1 9823   2.010   3.257  17.554  0.0462 -0.1431 -0.2354
  664MPD2    C2 9824   1.892   3.308  17.599  0.2688  0.2633 -1.1015
  664MPD2    C3 9825   1.802   3.238  17.662 -0.2346 -0.1694 -0.7819
  664MPD2    C4 9826   1.811   3.104   0.009 -0.0711 -0.4987  1.0098
  664MPD2    C5 9827   1.929   3.048  17.654  0.1427 -0.6228  0.6363
  664MPD2     H 9828   1.868   3.412  17.581  3.3252  1.1007 -0.3157
  664MPD2    H1 9829   1.725   3.048   0.044 -1.0794  1.3793  1.5493
  664MPD2    H2 9830   2.123   3.076  17.566  0.6952  2.0652 -3.9740
  664MPD2    H3 9831   1.947   2.946   0.002  0.2060 -0.7923  0.0250
  664MPD2     N 9832   1.696   3.325   0.014  0.1365 -0.3771 -0.2547
  664MPD2    H5 9833   1.718   3.424   0.001  0.2039 -0.2980  0.4577
  664MPD2    N1 9834   2.104   3.331  17.469  0.5603  0.3274  0.3121
  664MPD2    H7 9835   2.068   3.425  17.450  0.2768  0.3738  1.1126
  665TMC3    C1 9836   1.498   3.400   0.121  0.3487  0.3851 -0.0617
  665TMC3    C2 9837   1.420   3.367   0.234  0.0230 -0.3664 -0.0427
  665TMC3    C3 9838   1.370   3.469   0.305 -0.5209 -0.5033 -0.0201
  665TMC3    C4 9839   1.526   3.530   0.085 -0.2278 -0.0138  0.3277
  665TMC3    C5 9840   1.480   3.632   0.164  0.6874 -0.0202  0.1736
  665TMC3    C6 9841   1.405   3.602   0.276  0.4369 -0.4004 -0.0053
  665TMC3     C 9842   1.573   3.287   0.070  0.2260  0.6094 -0.7052
  665TMC3     O 9843   1.540   3.180   0.115 -0.3947  0.5398 -0.3758
  665TMC3     H 9844   1.391   3.266   0.258  0.9923 -0.9009 -1.1098
  665TMC3    H1 9845   1.585   3.562  17.682  0.8435 -1.5472  0.4840
  665TMC3    H2 9846   1.375   3.680   0.345  1.0947 -0.1096 -0.0546
  665TMC3    C7 9847   1.584   3.725   0.201 -1.0280 -0.2901 -0.3487
  665TMC3    C8 9848   1.324   3.456   0.443  0.0245 -0.7422  0.5961
  665TMC3    O1 9849   1.629   3.794   0.112  0.1018 -0.1709  0.4871
  665TMC3    O2 9850   1.329   3.560   0.514 -0.1046 -0.0870 -0.1380
  666TMC3    C1 9851   2.420   3.178  10.191 -0.1038  0.2016  0.3971
  666TMC3    C2 9852   2.346   3.120  10.288  0.0175 -0.4879 -0.2565
  666TMC3    C3 9853   2.371   3.163  10.413  0.5467  0.0077 -0.2118
  666TMC3    C4 9854   2.518   3.267  10.209 -0.7632  0.4262  0.9409
  666TMC3    C5 9855   2.542   3.314  10.334 -0.0869 -0.5196  0.3533
  666TMC3    C6 9856   2.473   3.258  10.443 -0.5623 -0.1334  0.4630
  666TMC3     C 9857   2.381   3.171  10.054 -0.2005  0.2097  0.2075
  666TMC3     O 9858   2.463   3.209   9.973 -0.3535 -0.3360  0.0222
  666TMC3     H 9859   2.267   3.049  10.268  0.6713 -1.5174  0.8046
  666TMC3    H1 9860   2.569   3.319  10.128 -1.1503  0.8571  0.9755
  666TMC3    H2 9861   2.477   3.307  10.540 -1.9269  1.4166 -0.2632
  666TMC3    C7 9862   2.525   3.459  10.333 -0.4084  0.4677 -0.2582
  666TMC3    C8 9863   2.282   3.118  10.514  0.0883  0.0797  0.2813
  666TMC3    O1 9864   2.436   3.495  10.408  0.1498  0.3359  0.2549
  666TMC3    O2 9865   2.184   3.057  10.474 -0.0414 -0.3478 -0.5858
  667MPD2     C 9866   3.218   2.936  14.729  0.1116  0.0081  0.5559
  667MPD2    C1 9867   3.132   2.951  14.837  0.2221 -0.4734 -0.5201
  667MPD2    C2 9868   3.055   2.843  14.876  0.7218 -0.0350  0.1660
  667MPD2    C3 9869   3.071   2.717  14.823 -0.2848  0.3483  0.1910
  667MPD2    C4 9870   3.153   2.701  14.713  0.1943  0.0249 -0.1241
  667MPD2    C5 9871   3.225   2.813  14.667 -0.4793 -0.1229 -0.6636
  667MPD2     H 9872   2.992   2.870  14.961 -1.2350  1.7800 -1.8728
  667MPD2    H1 9873   3.170   2.606  14.665 -2.9306 -0.1577 -0.8552
  667MPD2    H2 9874   3.254   3.019  14.670 -2.5030 -0.9979 -2.4785
  667MPD2    H3 9875   3.287   2.805  14.578 -0.9206  0.8010 -1.0553
  667MPD2     N 9876   3.015   2.599  14.874 -0.5813 -0.7467 -0.4841
  667MPD2    H5 9877   3.042   2.514  14.826 -0.3913 -0.9267 -0.0608
  667MPD2    N1 9878   3.091   3.076  14.896  0.5635  1.0607  0.1912
  667MPD2    H7 9879   3.017   3.077  14.965  0.1160  1.2461 -0.2911
  668TMC3    C1 9880   3.124   3.306  14.959  0.0782 -0.4516 -0.3979
  668TMC3    C2 9881   3.212   3.414  14.980 -0.2824 -0.2772 -0.1032
  668TMC3    C3 9882   3.155   3.528  15.023 -0.1862 -0.8308 -0.5647
  668TMC3    C4 9883   2.992   3.311  14.995  0.3271 -0.1977  0.4355
  668TMC3    C5 9884   2.940   3.419  15.056  0.0211  0.0328 -0.3586
  668TMC3    C6 9885   3.022   3.526  15.060 -0.9595 -0.5874 -0.0813
  668TMC3     C 9886   3.178   3.181  14.899 -0.1508  0.3034 -0.2063
  668TMC3     O 9887   3.295   3.177  14.870 -0.9149 -0.1066  1.0061
  668TMC3     H 9888   3.316   3.421  14.951 -0.4575 -0.0159 -0.6699
  668TMC3    H1 9889   2.925   3.231  14.967  0.3442 -0.4980  1.2374
  668TMC3    H2 9890   2.987   3.608  15.120  0.7922  0.4941 -0.5355
  668TMC3    C7 9891   2.796   3.427  15.078  0.4099  0.5026 -0.9747
  668TMC3    C8 9892   3.243   3.620  15.099  0.4443  0.3282 -0.0868
  668TMC3    O1 9893   2.739   3.533  15.054  0.7394  0.1439  0.3530
  668TMC3    O2 9894   3.198   3.657  15.207  0.2830 -0.4227 -0.1604
  669TMC3    C1 9895   0.942   3.375  14.547  0.8021 -0.3107  0.6721
  669TMC3    C2 9896   0.865   3.347  14.440  0.5353  0.0967 -0.4459
  669TMC3    C3 9897   0.919   3.378  14.320  0.0286  0.4524 -0.0860
  669TMC3    C4 9898   1.070   3.432  14.545 -1.0271  0.0472  0.2900
  669TMC3    C5 9899   1.105   3.480  14.423 -0.6275 -0.0337 -0.5857
  669TMC3    C6 9900   1.034   3.451  14.304 -0.0762 -0.6340  0.1944
  669TMC3     C 9901   0.897   3.325  14.672 -0.0762 -0.9102 -0.0277
  669TMC3     O 9902   0.776   3.309  14.688 -0.0544 -0.3287  0.2231
  669TMC3     H 9903   0.786   3.273  14.452  1.0338 -0.1156  1.4917
  669TMC3    H1 9904   1.120   3.465  14.636 -0.1686  0.5314 -0.3627
  669TMC3    H2 9905   1.071   3.477  14.206 -0.2715  1.7214  0.7495
  669TMC3    C7 9906   1.231   3.560  14.408 -0.3924 -0.1802 -0.4277
  669TMC3    C8 9907   0.836   3.358  14.203 -0.1113 -0.1065  0.1820
  669TMC3    O1 9908   1.315   3.551  14.496  0.1964  0.4164  0.3000
  669TMC3    O2 9909   0.896   3.373  14.097  0.6237  0.0704  0.0488
  670MPD2     C 9910   4.081   1.333  13.589 -0.5187 -0.7733 -0.2364
  670MPD2    C1 9911   4.177   1.342  13.687 -0.5951 -0.1456  0.4078
  670MPD2    C2 9912   4.158   1.285  13.813 -0.0122 -0.0217  0.1659
  670MPD2    C3 9913   4.048   1.205  13.831 -0.6296 -0.4030 -0.1833
  670MPD2    C4 9914   3.954   1.200  13.733 -0.1671  0.0139  0.1183
  670MPD2    C5 9915   3.968   1.263  13.608 -0.0788 -0.1689 -0.5455
  670MPD2     H 9916   4.233   1.301  13.890  1.6714 -2.2133 -0.9961
  670MPD2    H1 9917   3.865   1.139  13.736 -1.0571  1.2515 -0.9237
  670MPD2    H2 9918   4.089   1.373  13.489 -0.9305 -2.4211 -0.9250
  670MPD2    H3 9919   3.894   1.248  13.530  0.4286  0.0406 -1.0717
  670MPD2     N 9920   4.034   1.136  13.961  0.1189 -0.4878 -0.4330
  670MPD2    H5 9921   4.106   1.163  14.028 -0.5571  0.0454  0.0758
  670MPD2    N1 9922   4.303   1.399  13.664 -0.2746  0.4089  0.5220
  670MPD2    H7 9923   4.375   1.381  13.733 -0.6033 -2.1878  0.1751
  671TMC3    C1 9924   3.955   0.978  14.119  0.1350 -0.2794  0.4916
  671TMC3    C2 9925   4.085   0.974  14.172 -0.2752 -0.0777  0.1199
  671TMC3    C3 9926   4.102   0.868  14.260  0.2149  0.2714 -0.0509
  671TMC3    C4 9927   3.875   0.873  14.136  0.0047 -0.4772  0.0145
  671TMC3    C5 9928   3.907   0.760  14.203  0.5851 -0.3247 -0.4435
  671TMC3    C6 9929   4.027   0.758  14.273 -0.0794 -0.1152  0.1668
  671TMC3     C 9930   3.931   1.052  13.997  0.4185  0.1470  0.2967
  671TMC3     O 9931   3.862   0.998  13.916  0.0160  0.3296  0.1134
  671TMC3     H 9932   4.150   1.060  14.166  0.7571 -0.8454  0.2478
  671TMC3    H1 9933   3.780   0.876  14.084 -0.6799 -1.4612  1.1939
  671TMC3    H2 9934   4.079   0.667  14.302 -0.2754 -1.0047 -2.2858
  671TMC3    C7 9935   3.885   0.641  14.124 -0.1686 -0.0172 -0.4294
  671TMC3    C8 9936   4.238   0.859  14.318 -1.5471 -0.4368 -0.6356
  671TMC3    O1 9937   3.986   0.586  14.091  0.9653  0.4832  0.9794
  671TMC3    O2 9938   4.326   0.927  14.272  0.1339 -0.4349  0.1054
  672MPD2     C 9939   3.767   1.701   1.486  0.1374  0.4068  0.1427
  672MPD2    C1 9940   3.881   1.626   1.477  0.6145 -0.8638  0.1949
  672MPD2    C2 9941   3.995   1.660   1.548  0.7982  0.2336 -0.0331
  672MPD2    C3 9942   3.997   1.780   1.617 -0.1001 -0.0564 -0.5273
  672MPD2    C4 9943   3.885   1.859   1.618  0.0842  0.0788 -0.1156
  672MPD2    C5 9944   3.777   1.820   1.551 -0.1446 -0.0821  0.9449
  672MPD2     H 9945   4.085   1.604   1.525  0.4564 -1.1233  1.9791
  672MPD2    H1 9946   3.880   1.956   1.667  0.6935 -0.8764  1.8038
  672MPD2    H2 9947   3.670   1.675   1.443  0.3127 -3.1450  1.9546
  672MPD2    H3 9948   3.691   1.886   1.554 -1.3075 -1.5771  0.7410
  672MPD2     N 9949   4.106   1.823   1.690  0.8697  0.0276  0.5472
  672MPD2    H5 9950   4.099   1.909   1.742  0.0716  1.1394 -1.4273
  672MPD2    N1 9951   3.888   1.509   1.397  0.0283  0.0537 -0.1468
  672MPD2    H7 9952   3.972   1.453   1.403  0.8329  1.1754 -0.8318
  673TMC3    C1 9953   3.851   1.383   1.203 -0.3353  0.0804  0.2258
  673TMC3    C2 9954   3.931   1.280   1.251 -0.5975  0.1495 -0.1127
  673TMC3    C3 9955   3.962   1.182   1.162  0.2750 -0.0430  0.4041
  673TMC3    C4 9956   3.818   1.405   1.075 -0.4273  0.0080 -0.8813
  673TMC3    C5 9957   3.870   1.309   0.988  0.1112  0.2686 -0.4991
  673TMC3    C6 9958   3.940   1.193   1.028  0.3289  0.4554 -0.3122
  673TMC3     C 9959   3.799   1.475   1.301  0.2689 -0.0407 -0.4691
  673TMC3     O 9960   3.699   1.531   1.265  0.2445 -0.1642  0.1377
  673TMC3     H 9961   3.936   1.258   1.357  1.3835  0.8234 -0.0749
  673TMC3    H1 9962   3.756   1.487   1.041 -2.4850 -0.5734  1.4115
  673TMC3    H2 9963   3.985   1.119   0.962  2.5654 -0.5775  2.3929
  673TMC3    C7 9964   3.884   1.337   0.849 -0.3788 -0.4644 -0.6371
  673TMC3    C8 9965   3.985   1.051   1.222  0.1578  0.5617 -0.6951
  673TMC3    O1 9966   3.911   1.246   0.773 -0.5137  0.3480  0.4416
  673TMC3    O2 9967   3.946   0.958   1.150 -1.0870 -0.3364  0.4832
  674MPD2     C 9968   4.389   0.582  17.665 -0.4694  0.7301 -0.0933
  674MPD2    C1 9969   4.463   0.586   0.100 -0.4601 -0.4595 -0.1068
  674MPD2    C2 9970   4.440   0.703   0.179  0.2367  0.2245  0.1020
  674MPD2    C3 9971   4.366   0.810   0.135  0.4138  0.3630  0.1287
  674MPD2    C4 9972   4.303   0.804   0.012 -0.6170  0.1678  0.5642
  674MPD2    C5 9973   4.316   0.688  17.619 -0.2001 -0.6058  0.5395
  674MPD2     H 9974   4.492   0.710   0.274 -1.5533 -1.1346  1.1908
  674MPD2    H1 9975   4.249   0.890  17.657  0.3012  0.1416 -0.8239
  674MPD2    H2 9976   4.397   0.501  17.592 -0.7776  1.2433 -0.7000
  674MPD2    H3 9977   4.276   0.687  17.519 -2.0154 -1.1789  1.2769
  674MPD2     N 9978   4.343   0.920   0.227  0.4580  0.5199  1.3161
  674MPD2    H5 9979   4.363   0.893   0.323  2.5752 -1.7085  0.2523
  674MPD2    N1 9980   4.509   0.461   0.145  0.0120  0.0348 -0.1634
  674MPD2    H7 9981   4.494   0.376   0.091  0.7659 -1.5726  2.1767
  675TMC3    C1 9982   4.594   0.314   0.309 -0.3087 -0.2494 -0.6534
  675TMC3    C2 9983   4.500   0.221   0.275 -0.1202 -0.2876 -0.7560
  675TMC3    C3 9984   4.473   0.119   0.365 -0.5040  0.6026 -0.1345
  675TMC3    C4 9985   4.681   0.299   0.415 -0.0563 -0.5005 -0.2251
  675TMC3    C5 9986   4.661   0.183   0.489 -0.6299  0.1457  0.1133
  675TMC3    C6 9987   4.551   0.095   0.471 -0.0636  0.0357 -0.3777
  675TMC3     C 9988   4.580   0.446   0.265  0.4351  0.8470 -0.9406
  675TMC3     O 9989   4.613   0.534   0.343 -0.2305 -0.2639 -0.4922
  675TMC3     H 9990   4.422   0.242   0.203 -2.6631  0.6395  2.2822
  675TMC3    H1 9991   0.024   0.378   0.453  1.7244 -2.1091  0.1389
  675TMC3    H2 9992   4.542   4.717   0.517  1.7694  0.2409  0.4324
  675TMC3    C7 9993   0.015   0.177   0.617  1.1063 -0.8566 -0.2231
  675TMC3    C8 9994   4.353   0.044   0.334 -0.0087  0.7791  0.0804
  675TMC3    O1 9995   0.096   0.264   0.638 -0.2450  0.5160 -0.5670
  675TMC3    O2 9996   4.293   0.059   0.226  0.2486  0.7506 -0.0973
  676MPD2     C 9997   2.802   4.481  11.037  0.1350 -0.2673  0.1872
  676MPD2    C1 9998   2.699   4.410  11.102  1.1931  0.2109  0.4727
  676MPD2    C2 9999   2.672   4.271  11.073  0.1693  0.7984 -0.2407
  676MPD2    C310000   2.746   4.207  10.977  0.0399 -0.6302 -0.6340
  676MPD2    C410001   2.840   4.280  10.906  0.0154 -0.0755  0.1228
  676MPD2    C510002   2.883   4.404  10.946 -0.0351 -0.0455 -0.3929
  676MPD2     H10003   2.582   4.227  11.113  0.1566  0.1197 -1.0109
  676MPD2    H110004   2.892   4.236  10.822 -0.3646 -2.0926  0.9446
  676MPD2    H210005   2.827   4.587  11.045  1.1768 -0.5191  0.2477
  676MPD2    H310006   2.964   4.454  10.894  1.5711 -1.8597  0.3555
  676MPD2     N10007   2.713   4.078  10.917  0.1688  0.1072 -0.5091
  676MPD2    H510008   2.763   4.055  10.832  2.8152  2.4472  0.4120
  676MPD2    N110009   2.614   4.473  11.199  0.1784  0.2814  0.2886
  676MPD2    H710010   2.555   4.413  11.256 -0.3619  0.7909  0.2645
  677TMC3    C110011   2.550   4.661  11.332 -0.4787  0.2941 -0.1138
  677TMC3    C210012   2.576   4.606  11.449  0.1589  0.1051  0.2817
  677TMC3    C310013   2.605   4.701  11.542 -0.3834  0.1923 -0.5288
  677TMC3    C410014   2.523   0.075  11.313 -0.4100  0.0998 -0.2938
  677TMC3    C510015   2.536   0.161  11.416 -0.1044  0.3497  0.4767
  677TMC3    C610016   2.576   0.116  11.533  0.4943  0.0125  0.1082
  677TMC3     C10017   2.612   4.608  11.213  0.2523  0.0559  0.0499
  677TMC3     O10018   2.664   4.698  11.147  0.4234  0.4246  0.4319
  677TMC3     H10019   2.608   4.503  11.459 -0.3248 -0.0286  0.4697
  677TMC3    H110020   2.490   0.113  11.217 -1.7009  1.3462  0.6491
  677TMC3    H210021   2.618   0.186  11.605 -0.4839 -0.2220  0.9042
  677TMC3    C710022   2.555   0.298  11.386 -0.3866 -0.5072  0.1062
  677TMC3    C810023   2.683   4.661  11.658 -0.6765  0.3217  0.0091
  677TMC3    O110024   2.522   0.379  11.471  0.1355  0.5819 -0.2679
  677TMC3    O210025   2.774   0.015  11.698  0.2144  0.3705 -0.1235
  678MPD2     C10026   2.854   3.741   1.486  0.4694  0.5017  0.5669
  678MPD2    C110027   2.891   3.761   1.357  0.6589 -0.3293  0.4871
  678MPD2    C210028   2.815   3.813   1.261  0.3151 -0.2673 -0.2947
  678MPD2    C310029   2.683   3.846   1.295 -0.7052 -0.8055 -0.1215
  678MPD2    C410030   2.637   3.823   1.422 -0.5907  0.1333  0.0527
  678MPD2    C510031   2.720   3.768   1.519 -0.2209 -0.2637  0.1355
  678MPD2     H10032   2.861   3.818   1.163 -0.3697 -2.7099 -0.7271
  678MPD2    H110033   2.539   3.853   1.456 -0.6228 -0.9041  0.8859
  678MPD2    H210034   2.913   3.699   1.567 -0.0983 -2.7425 -0.6607
  678MPD2    H310035   2.682   3.738   1.617  1.2762  0.3134  0.8855
  678MPD2     N10036   2.595   3.896   1.194  0.4735 -0.4424 -0.7469
  678MPD2    H510037   2.635   3.896   1.101  1.8891  0.0519 -0.1310
  678MPD2    N110038   3.027   3.732   1.312  0.0189 -0.9349  0.3259
  678MPD2    H710039   3.043   3.736   1.212 -1.0929  0.0491  0.1920
  679TMC3    C110040   3.464   3.529   1.335  0.8013 -0.3059  0.1025
  679TMC3    C210041   3.342   3.559   1.389  0.1044 -0.2765  0.6541
  679TMC3    C310042   3.263   3.648   1.325  0.3353  0.8214 -0.5362
  679TMC3    C410043   3.501   3.583   1.213 -0.4226 -0.2647  0.5633
  679TMC3    C510044   3.415   3.670   1.148 -0.5621 -0.0003  0.0487
  679TMC3    C610045   3.292   3.701   1.203  0.1682  0.3266  0.7377
  679TMC3     C10046   3.572   3.455   1.409 -0.5039 -0.7140  0.7673
  679TMC3     O10047   3.682   3.473   1.361  1.1011  0.1688  0.2556
  679TMC3     H10048   3.319   3.526   1.490 -2.0658 -0.0590  0.2315
  679TMC3    H110049   3.590   3.549   1.161 -0.9579 -1.1651  0.2386
  679TMC3    H210050   3.234   3.774   1.148  0.5611 -0.4109 -0.6592
  679TMC3    C710051   3.443   3.740   1.022 -0.2546  0.6316 -0.0969
  679TMC3    C810052   3.129   3.674   1.388  0.3975  0.2924  0.5037
  679TMC3    O110053   3.359   3.805   0.974 -0.0228  0.0685 -0.9253
  679TMC3    O210054   3.128   3.653   1.511 -0.0130  1.0475 -0.5009
  680MPD2     C10055   0.196   2.831  13.519 -0.3183 -0.4225 -0.0030
  680MPD2    C110056   0.122   2.756  13.608 -0.3859  0.2338 -0.4991
  680MPD2    C210057   0.051   2.819  13.712 -0.1261  0.3471 -0.2578
  680MPD2    C310058   0.065   2.957  13.734 -0.5411 -0.0459 -0.2938
  680MPD2    C410059   0.147   3.020  13.649  0.1773  0.3530  0.4143
  680MPD2    C510060   0.211   2.961  13.546 -0.0157  0.3661  0.1442
  680MPD2     H10061   4.703   2.756  13.768 -0.4020  0.4993 -0.4217
  680MPD2    H110062   0.166   3.127  13.653 -0.0120  0.4053 -0.0946
  680MPD2    H210063   0.240   2.792  13.428  1.3743 -1.2306  1.1537
  680MPD2    H310064   0.273   3.030  13.491 -0.6518  2.1991  1.7273
  680MPD2     N10065   4.710   3.033  13.833  0.3806  0.4701 -0.3135
  680MPD2    H510066   0.013   3.131  13.843  2.8245 -0.2139  0.6846
  680MPD2    N110067   0.097   2.620  13.591  0.1130 -0.4119 -0.1252
  680MPD2    H710068   0.051   2.565  13.663 -2.9112  1.0212 -0.9522
  681TMC3    C110069   0.140   2.396  13.511 -0.5906 -0.4769  0.3039
  681TMC3    C210070   0.026   2.348  13.568 -1.2513  0.6352  0.0537
  681TMC3    C310071   0.021   2.211  13.573  0.3615  0.1709 -0.6751
  681TMC3    C410072   0.247   2.314  13.469  0.2320 -0.3037 -1.0501
  681TMC3    C510073   0.234   2.184  13.478 -0.0084 -0.2921  0.0057
  681TMC3    C610074   0.119   2.126  13.528  0.8543 -0.4684 -1.0096
  681TMC3     C10075   0.149   2.538  13.489  0.3198 -0.7617 -0.5256
  681TMC3     O10076   0.228   2.579  13.405 -0.0284  0.1827 -0.1715
  681TMC3     H10077   4.665   2.417  13.590 -1.3879  0.6050 -0.3638
  681TMC3    H110078   0.334   2.364  13.429 -0.0052 -0.6563 -1.9928
  681TMC3    H210079   0.103   2.019  13.533  0.0481 -0.3239 -0.4527
  681TMC3    C710080   0.300   2.110  13.374 -0.0980  0.2935 -0.9846
  681TMC3    C810081   4.624   2.145  13.632 -0.0628 -0.0566 -0.1709
  681TMC3    O110082   0.258   1.998  13.351  0.1519  0.4799 -0.1917
  681TMC3    O210083   4.609   2.023  13.613  0.4253  0.4209 -0.1689
  682MPD2     C10084   2.036   4.570  10.800  0.4271  0.8976  0.9501
  682MPD2    C110085   1.982   4.444  10.783 -0.7553 -0.0158  0.6972
  682MPD2    C210086   1.880   4.398  10.867 -0.8002 -0.2241 -0.4552
  682MPD2    C310087   1.842   4.472  10.973 -0.2706 -0.2253  0.4729
  682MPD2    C410088   1.898   4.594  10.997 -0.0226 -0.0555 -1.0404
  682MPD2    C510089   1.993   4.645  10.909  0.2744  0.0438  0.1089
  682MPD2     H10090   1.838   4.301  10.844  1.9891 -1.0619 -2.0304
  682MPD2    H110091   1.862   4.649  11.083 -1.5490  1.4506 -2.6364
  682MPD2    H210092   2.098   4.631  10.736 -1.3951  0.1301 -1.5064
  682MPD2    H310093   2.034   0.025  10.919 -0.1249  0.3028 -0.8506
  682MPD2     N10094   1.755   4.423  11.070 -0.2857 -0.0029  0.0042
  682MPD2    H510095   1.727   4.493  11.137  0.3937 -0.0919  0.3812
  682MPD2    N110096   2.023   4.363  10.680 -0.7817 -0.2195  0.0232
  682MPD2    H710097   1.976   4.273  10.680 -0.2784 -0.4859  0.1842
  683TMC3    C110098   1.492   4.347  11.386 -0.3656  0.1691  0.3221
  683TMC3    C210099   1.377   4.291  11.348  0.3912 -0.8854  0.3751
  683TMC3    C310100   1.368   4.234  11.221  0.5729  0.5729 -0.0699
  683TMC3    C410101   1.592   4.360  11.294 -0.3939 -0.6524  0.0778
  683TMC3    C510102   1.583   4.300  11.168 -0.5491 -0.0112  0.3587
  683TMC3    C610103   1.473   4.229  11.136 -0.0745 -0.3342  0.2438
  683TMC3     C10104   1.496   4.409  11.520  0.0269 -0.5481  0.4762
  683TMC3     O10105   1.588   4.483  11.543  0.2964 -0.0792  0.0054
  683TMC3     H10106   1.286   4.306  11.405  0.0890  0.2084 -0.3934
  683TMC3    H110107   1.689   4.398  11.324 -1.1538 -0.1733  1.9574
  683TMC3    H210108   1.465   4.181  11.039 -0.2818 -0.3544  0.2693
  683TMC3    C710109   1.695   4.296  11.075  0.8052 -0.1352  0.5799
  683TMC3    C810110   1.240   4.190  11.171 -0.3470  0.2809 -0.0633
  683TMC3    O110111   1.717   4.195  11.004 -0.9169 -0.1291  0.0735
  683TMC3    O210112   1.234   4.170  11.052  0.1603 -0.1579  0.1561
  684MPD2     C10113   3.989   4.031  16.374  0.5760  0.0728  0.1126
  684MPD2    C110114   4.095   3.998  16.287  0.0713  0.1132  0.2775
  684MPD2    C210115   4.183   4.098  16.249  0.1320  0.0849  0.1951
  684MPD2    C310116   4.169   4.231  16.281 -0.7549 -0.0791  0.4449
  684MPD2    C410117   4.065   4.264  16.367  0.5190  0.3497  0.3955
  684MPD2    C510118   3.981   4.165  16.404 -0.1828  0.0471  0.3967
  684MPD2     H10119   4.261   4.077  16.177  0.2610 -0.4524  0.4998
  684MPD2    H110120   4.064   4.365  16.405 -0.4577  0.4776  0.0271
  684MPD2    H210121   3.915   3.967  16.420  0.4254  0.1091 -0.0792
  684MPD2    H310122   3.906   4.188  16.478 -0.8706  1.4505 -0.7350
  684MPD2     N10123   4.250   4.330  16.231 -0.0781  0.2499  0.0204
  684MPD2    H510124   4.230   4.423  16.264  1.4308  0.1003  1.3552
  684MPD2    N110125   4.111   3.861  16.233  0.2006  0.3250  0.0693
  684MPD2    H710126   4.196   3.851  16.177 -0.0255  0.2608 -0.2604
  685TMC3    C110127   4.069   3.624  16.216 -0.9381  0.0663  0.0190
  685TMC3    C210128   3.985   3.517  16.239  0.1405 -0.0452 -0.7455
  685TMC3    C310129   4.025   3.394  16.192  0.2296 -0.3470  0.5432
  685TMC3    C410130   4.188   3.605  16.156  0.1074 -0.0896  0.8066
  685TMC3    C510131   4.230   3.479  16.122  0.1800 -0.0438 -0.2304
  685TMC3    C610132   4.154   3.367  16.146 -0.1223 -0.1517 -0.2259
  685TMC3     C10133   4.024   3.753  16.261  0.0771 -0.2264 -0.4786
  685TMC3     O10134   3.915   3.760  16.310 -0.3170  0.3131 -0.1166
  685TMC3     H10135   3.897   3.530  16.302  1.3295  2.1919  0.4872
  685TMC3    H110136   4.255   3.687  16.134 -0.7750  0.4488  0.1741
  685TMC3    H210137   4.185   3.265  16.125  1.4732  0.7790 -2.3645
  685TMC3    C710138   4.369   3.467  16.086 -0.1152  0.4291 -0.4152
  685TMC3    C810139   3.924   3.322  16.126  0.0329 -0.1734  0.4844
  685TMC3    O110140   4.435   3.561  16.133 -0.3400  0.3218 -0.2411
  685TMC3    O210141   3.960   3.221  16.065  0.3881  0.0526 -0.4797
  686MPD2     C10142   0.998   3.549  15.670  0.0349  0.6527  0.4810
  686MPD2    C110143   1.012   3.484  15.791 -0.5622  0.6300 -0.2019
  686MPD2    C210144   1.143   3.433  15.812  0.5313 -0.3654 -0.3694
  686MPD2    C310145   1.243   3.435  15.707 -0.2056  0.0988 -0.1690
  686MPD2    C410146   1.214   3.490  15.584 -0.7623 -0.5066  0.1438
  686MPD2    C510147   1.099   3.559  15.574 -0.1786 -0.4245  0.0287
  686MPD2     H10148   1.164   3.386  15.907  0.4988  3.0567  1.3086
  686MPD2    H110149   1.290   3.493  15.507 -3.5197 -2.6738 -2.6298
  686MPD2    H210150   0.903   3.596  15.646  1.0628  2.6658  0.3297
  686MPD2    H310151   1.074   3.610  15.482 -1.7117  1.4070  1.4547
  686MPD2     N10152   1.360   3.357  15.715 -0.3352 -0.1162  0.2996
  686MPD2    H510153   1.412   3.334  15.631  0.8774 -0.9756  1.2874
  686MPD2    N110154   0.907   3.467  15.867 -0.3734  0.3148  0.6513
  686MPD2    H710155   0.823   3.501  15.821  0.1705 -1.3207 -1.5297
  687TMC3    C110156   1.432   3.164  15.832 -0.5689 -0.7582  0.7458
  687TMC3    C210157   1.332   3.092  15.772  0.0554 -0.3093 -0.6483
  687TMC3    C310158   1.283   2.984  15.838  0.1825  0.4097 -1.2827
  687TMC3    C410159   1.491   3.130  15.948  0.0406 -0.0271 -0.0469
  687TMC3    C510160   1.439   3.023  16.012 -0.6126  0.0593  1.1846
  687TMC3    C610161   1.341   2.947  15.954  0.5601  0.3732  0.1297
  687TMC3     C10162   1.398   3.306  15.834 -0.2465 -0.3960 -0.1146
  687TMC3     O10163   1.401   3.365  15.941  0.8898 -0.6117 -0.0651
  687TMC3     H10164   1.287   3.122  15.679  0.1286  1.4502 -0.1178
  687TMC3    H110165   1.549   3.199  16.008  0.9627 -0.3980 -0.5233
  687TMC3    H210166   1.327   2.850  16.001 -1.1002  0.7074  0.2918
  687TMC3    C710167   1.391   3.051  16.144 -0.0499  0.3036  0.5519
  687TMC3    C810168   1.134   2.963  15.838  0.1377 -0.8732 -0.2224
  687TMC3    O110169   1.464   3.112  16.221  0.1893  0.2441 -0.2236
  687TMC3    O210170   1.087   2.898  15.929  0.5047 -0.1473  0.1132
  688MPD2     C10171   0.099   2.454  17.584  0.1297  0.1097 -0.4020
  688MPD2    C110172   0.094   2.322  17.620  0.2395 -0.0627  0.1426
  688MPD2    C210173   0.192   2.239  17.568  1.5656  0.0388 -0.7656
  688MPD2    C310174   0.292   2.284  17.479  0.8917 -0.3363  0.4688
  688MPD2    C410175   0.294   2.419  17.447  0.1930 -0.2303  0.2522
  688MPD2    C510176   0.190   2.498  17.496  0.0194 -0.2045 -0.7060
  688MPD2     H10177   0.189   2.135  17.600  0.9521  0.4062  0.3669
  688MPD2    H110178   0.369   2.464  17.383 -0.7367  0.2758 -0.4795
  688MPD2    H210179   0.022   2.513  17.632  0.0864 -0.2434 -0.0262
  688MPD2    H310180   0.183   2.604  17.477 -0.1494 -0.2154 -0.7070
  688MPD2     N10181   0.403   2.207  17.429  0.5087  0.7012 -0.0502
  688MPD2    H510182   0.461   2.249  17.357  0.6965 -0.0804 -0.3551
  688MPD2    N110183   0.011   2.269   0.036 -0.2086 -0.0944  0.1858
  688MPD2    H710184   0.013   2.169   0.053 -0.9671 -0.0475  0.5473
  689TMC3    C110185   4.565   2.271   0.209 -0.5064  0.6525 -0.1534
  689TMC3    C210186   4.478   2.345   0.282 -0.1805 -0.1316  0.3094
  689TMC3    C310187   4.411   2.289   0.386  0.0301  0.5180 -0.1786
  689TMC3    C410188   4.569   2.135   0.228  1.0356 -0.0589 -0.0330
  689TMC3    C510189   4.495   2.087   0.333 -0.2797 -0.1711 -0.3068
  689TMC3    C610190   4.411   2.155   0.414 -0.8380  0.3697 -0.2008
  689TMC3     C10191   4.648   2.342   0.119  0.8846 -0.3809  0.4428
  689TMC3     O10192   4.636   2.463   0.135  0.0653 -0.7599  0.0389
  689TMC3     H10193   4.455   2.447   0.252  0.5483  0.9960  3.5487
  689TMC3    H110194   4.652   2.075   0.190 -0.5911 -1.8767 -0.6943
  689TMC3    H210195   4.374   2.115   0.508  2.0218  0.6499  1.0507
  689TMC3    C710196   4.503   1.948   0.362 -0.1446  0.0074 -0.5458
  689TMC3    C810197   4.349   2.367   0.491 -0.2844 -0.5517  0.0798
  689TMC3    O110198   4.517   1.917   0.478  0.3305  0.0097  0.1641
  689TMC3    O210199   4.338   2.323   0.602  0.0045 -0.1844 -0.2599
  690MPD2     C10200   2.462   4.245  15.768  0.0059  0.3883 -0.4074
  690MPD2    C110201   2.412   4.246  15.636  0.0589 -1.0838 -0.4172
  690MPD2    C210202   2.500   4.284  15.534  0.0699  0.0829 -0.4043
  690MPD2    C310203   2.630   4.320  15.566 -0.3695 -0.1327  0.5297
  690MPD2    C410204   2.678   4.309  15.698 -0.1956 -0.5042 -0.2570
  690MPD2    C510205   2.592   4.279  15.795  0.1579 -0.6130 -0.1445
  690MPD2     H10206   2.459   4.294  15.435  0.0978 -1.5280 -0.5769
  690MPD2    H110207   2.783   4.317  15.725  0.3515  1.0849 -2.8199
  690MPD2    H210208   2.403   4.225  15.857 -0.2101  2.1455 -0.1434
  690MPD2    H310209   2.625   4.271  15.898 -1.7959 -1.0815  0.4604
  690MPD2     N10210   2.717   4.365  15.458 -0.4331  0.0938  0.5910
  690MPD2    H510211   2.674   4.396  15.372 -2.5191 -0.3320  1.4707
  690MPD2    N110212   2.281   4.213  15.597 -0.7792 -0.0312  0.2076
  690MPD2    H710213   2.263   4.224  15.498  1.8578  0.1001 -0.2665
  691TMC3    C110214   2.064   4.147  15.623 -0.5527  0.0826  0.4893
  691TMC3    C210215   1.947   4.162  15.695  0.4090  0.1507 -0.2907
  691TMC3    C310216   1.836   4.097  15.648  0.5610  0.5860  0.0579
  691TMC3    C410217   2.075   4.051  15.527 -1.1113 -0.2841 -0.1686
  691TMC3    C510218   1.966   3.971  15.495  0.3422  0.8286 -0.7828
  691TMC3    C610219   1.844   4.005  15.550  0.3759 -0.0326 -0.4636
  691TMC3     C10220   2.182   4.193  15.690  0.5508 -0.4993 -0.4205
  691TMC3     O10221   2.178   4.222  15.810 -0.2290  0.3168 -0.1301
  691TMC3     H10222   1.936   4.247  15.762 -1.0168  0.0654 -0.4250
  691TMC3    H110223   2.175   4.027  15.493  0.1078 -1.9602  4.5064
  691TMC3    H210224   1.764   3.938  15.520  0.8149  0.2375 -2.1886
  691TMC3    C710225   1.996   3.828  15.501  0.0879 -0.4418  0.4279
  691TMC3    C810226   1.741   4.068  15.752 -0.4178  0.3225 -0.5419
  691TMC3    O110227   2.075   3.775  15.424  0.3478 -0.3866  0.7551
  691TMC3    O210228   1.750   3.951  15.794 -0.1089  0.2646  0.4607
  692TMC3    C110229   3.834   0.722  15.483 -0.2583  0.0678  0.1587
  692TMC3    C210230   3.956   0.786  15.489 -0.6927  0.1301 -0.0768
  692TMC3    C310231   4.079   0.718  15.518 -0.2544 -0.2909  0.4182
  692TMC3    C410232   3.834   0.591  15.528  0.1913 -0.1188 -0.3773
  692TMC3    C510233   3.941   0.537  15.589 -0.2874 -0.1502 -0.6212
  692TMC3    C610234   4.063   0.599  15.581  0.1600 -0.3700 -0.7465
  692TMC3     C10235   3.716   0.792  15.530 -0.7339 -0.5034 -0.0088
  692TMC3     O10236   3.620   0.719  15.559 -0.6863  0.3072 -0.0878
  692TMC3     H10237   3.972   0.879  15.435 -1.4134  0.5783  0.4784
  692TMC3    H110238   3.741   0.536  15.535 -0.7711  1.6054  0.3923
  692TMC3    H210239   4.155   0.554  15.618  0.8084  0.9204 -0.7932
  692TMC3    C710240   3.945   0.393  15.566 -0.1352  0.4958 -0.0268
  692TMC3    C810241   4.157   0.823  15.592  0.5778  0.4865 -0.7713
  692TMC3    O110242   3.883   0.362  15.465  0.2096 -0.6293  0.2969
  692TMC3    O210243   4.245   0.877  15.525  0.3191 -0.1341 -0.5880
  693MPD2     C10244   3.427   3.357  10.207 -0.4843 -0.1896 -0.6070
  693MPD2    C110245   3.476   3.240  10.253 -0.8240 -0.1717  0.0194
  693MPD2    C210246   3.611   3.233  10.289  0.6487 -0.1839 -0.8974
  693MPD2    C310247   3.692   3.348  10.272 -0.8684  0.6256 -0.3819
  693MPD2    C410248   3.636   3.468  10.236  0.4829 -0.4574  0.3047
  693MPD2    C510249   3.506   3.472  10.206 -0.2279  0.4369 -0.3789
  693MPD2     H10250   3.660   3.143  10.325 -0.2825 -0.1211  0.5335
  693MPD2    H110251   3.697   3.557  10.228  0.2258 -0.1115  2.1724
  693MPD2    H210252   3.321   3.369  10.193 -0.8777 -1.6645  1.0694
  693MPD2    H310253   3.466   3.570  10.183 -2.0519 -0.2563 -0.1481
  693MPD2     N10254   3.830   3.349  10.307  0.1029  0.1322  0.0618
  693MPD2    H510255   3.873   3.441  10.311  0.0163  0.2342 -1.6732
  693MPD2    N110256   3.392   3.125  10.266 -0.5215  0.7613  0.2772
  693MPD2    H710257   3.293   3.144  10.269 -0.8294 -0.6470 -0.8818
  694TMC3    C110258   3.317   2.940  10.349  0.4149  0.5354 -0.7989
  694TMC3    C210259   3.233   2.850  10.289 -0.2357 -0.8673  0.3530
  694TMC3    C310260   3.115   2.833  10.355 -0.8074 -0.5314 -0.1507
  694TMC3    C410261   3.300   2.998  10.469  0.1494  0.3148  0.8671
  694TMC3    C510262   3.192   2.947  10.536  0.1796 -0.4767 -0.3384
  694TMC3    C610263   3.092   2.879  10.484 -0.6108 -0.0953  0.2702
  694TMC3     C10264   3.426   2.994  10.283  0.7376  0.0142 -0.0640
  694TMC3     O10265   3.533   2.938  10.286  0.1334  0.0027 -0.0562
  694TMC3     H10266   3.256   2.812  10.190 -0.4042  0.0441 -0.0379
  694TMC3    H110267   3.382   3.053  10.512 -0.8532  1.7029  1.0132
  694TMC3    H210268   2.995   2.866  10.530 -1.9016 -0.0477 -2.4658
  694TMC3    C710269   3.177   3.014  10.665  0.1377  1.2996 -0.0702
  694TMC3    C810270   3.002   2.778  10.282  0.1830 -0.2659  0.1734
  694TMC3    O110271   3.243   3.115  10.693 -0.7554 -0.2268 -0.0301
  694TMC3    O210272   2.918   2.713  10.347  0.0456  1.1674 -0.1261
  695MPD2     C10273   0.130   0.678  13.569 -0.3851  0.0708  0.8489
  695MPD2    C110274   0.045   0.674  13.679 -0.3390  0.1862  0.2404
  695MPD2    C210275   4.626   0.653  13.655 -0.3884  0.5788 -0.1980
  695MPD2    C310276   4.572   0.663  13.529  0.4472 -0.4812 -0.2156
  695MPD2    C410277   4.654   0.691  13.426  0.7634 -0.0677 -0.0534
  695MPD2    C510278   0.068   0.702  13.446  0.2361  0.5108  0.5842
  695MPD2     H10279   4.560   0.663  13.741  0.0701 -0.6693  0.3063
  695MPD2    H110280   4.608   0.721  13.333 -0.5440  0.2429  0.6965
  695MPD2    H210281   0.238   0.665  13.573 -0.3404 -1.0718 -3.8489
  695MPD2    H310282   0.120   0.711  13.352 -0.2530 -0.8862  0.1745
  695MPD2     N10283   4.426   0.647  13.515  0.1606 -0.1813 -0.3251
  695MPD2    H510284   4.368   0.642  13.598 -0.0220  1.0015 -0.3807
  695MPD2    N110285   0.098   0.680  13.817  0.0429 -0.2518 -0.1294
  695MPD2    H710286   0.026   0.682  13.889 -0.2491  0.1040 -0.4283
  696TMC3    C110287   4.214   0.675  13.429  0.1167  0.0686  0.0480
  696TMC3    C210288   4.162   0.579  13.504 -0.2513  0.1912  0.1158
  696TMC3    C310289   4.026   0.577  13.521  0.2051  1.0198  0.0509
  696TMC3    C410290   4.141   0.761  13.356  0.3196 -0.1307  0.4685
  696TMC3    C510291   4.007   0.766  13.379 -0.6218 -0.7460  0.3833
  696TMC3    C610292   3.948   0.679  13.473 -0.3831  0.2383  0.5319
  696TMC3     C10293   4.355   0.675  13.403  0.2141  0.0574 -0.3326
  696TMC3     O10294   4.385   0.699  13.286  0.0290  0.1302  0.2462
  696TMC3     H10295   4.216   0.501  13.557 -0.5711  0.6832  1.1728
  696TMC3    H110296   4.193   0.836  13.297 -1.3573 -1.5502 -2.8090
  696TMC3    H210297   3.840   0.680  13.482 -0.5627 -2.0665 -1.4143
  696TMC3    C710298   3.940   0.886  13.334  0.2150 -0.2633  0.1772
  696TMC3    C810299   3.960   0.493  13.625  0.2207  1.0133 -0.2313
  696TMC3    O110300   3.970   0.937  13.226 -0.1750  0.3481 -0.0184
  696TMC3    O210301   4.038   0.463  13.714 -0.1125  0.4445 -0.1255
  697MPD2     C10302   3.606   1.910  15.603  0.5018 -0.6277 -0.3672
  697MPD2    C110303   3.553   1.902  15.476  0.5292 -0.0357 -0.0892
  697MPD2    C210304   3.549   2.022  15.398 -0.8808 -0.6383 -0.6607
  697MPD2    C310305   3.597   2.140  15.460 -0.2943  0.1004  0.5450
  697MPD2    C410306   3.660   2.135  15.580  0.0649 -0.4571 -0.7800
  697MPD2    C510307   3.671   2.020  15.651 -0.8388 -0.6464 -0.3282
  697MPD2     H10308   3.514   2.017  15.296 -0.7470 -4.3764 -0.5333
  697MPD2    H110309   3.700   2.219  15.635  1.4363 -0.7152 -1.3894
  697MPD2    H210310   3.615   1.820  15.662 -1.5149 -0.2870  0.4834
  697MPD2    H310311   3.731   2.019  15.741 -0.1892  0.7037 -0.7469
  697MPD2     N10312   3.579   2.263  15.387 -0.1625  0.3229 -0.4468
  697MPD2    H510313   3.553   2.261  15.289  1.6267 -1.4865 -0.8941
  697MPD2    N110314   3.493   1.788  15.424  0.7946 -0.3344 -0.1707
  697MPD2    H710315   3.438   1.791  15.338  0.4581  0.4584  0.0649
  698TMC3    C110316   3.556   2.503  15.367  0.8255  0.4470  0.5398
  698TMC3    C210317   3.548   2.621  15.439 -0.4187 -0.5248 -0.5659
  698TMC3    C310318   3.565   2.736  15.361  0.3293  0.6110 -0.1000
  698TMC3    C410319   3.584   2.493  15.234  0.2245 -0.6904  0.0199
  698TMC3    C510320   3.613   2.606  15.172  0.3680  0.0673 -0.6522
  698TMC3    C610321   3.599   2.730  15.229  0.1429 -0.1152  0.5990
  698TMC3     C10322   3.574   2.384  15.450  0.2002  0.5642  0.1337
  698TMC3     O10323   3.578   2.395  15.571  0.2790 -0.7400 -0.9945
  698TMC3     H10324   3.538   2.616  15.547  1.4172 -0.1279 -0.3944
  698TMC3    H110325   3.591   2.393  15.191  0.2225 -0.2416 -1.0309
  698TMC3    H210326   3.596   2.823  15.173  0.1532 -0.4004  0.1296
  698TMC3    C710327   3.673   2.609  15.040 -0.0529 -0.0976 -0.2999
  698TMC3    C810328   3.575   2.854  15.436  0.3126 -0.5826  0.3162
  698TMC3    O110329   3.666   2.714  14.980  0.2639 -0.2576  0.4830
  698TMC3    O210330   3.538   2.848  15.555 -0.5556 -0.2652 -0.5111
  699TMC3    C110331   3.913   0.683  12.891  0.2627 -0.4591 -0.5518
  699TMC3    C210332   3.918   0.585  12.985  0.2954  0.4913  0.4692
  699TMC3    C310333   3.818   0.580  13.084  0.2715 -0.1882  0.3610
  699TMC3    C410334   3.838   0.791  12.913 -0.0970 -0.4505  0.1519
  699TMC3    C510335   3.749   0.790  13.022 -0.2744  0.0069  0.0573
  699TMC3    C610336   3.731   0.683  13.105 -0.2442 -0.4726  0.1441
  699TMC3     C10337   4.021   0.705  12.795  0.3345 -0.6546 -0.0970
  699TMC3     O10338   3.984   0.744  12.684  0.2439  0.3021 -0.3804
  699TMC3     H10339   3.993   0.508  12.973  1.6299  1.5336  2.0714
  699TMC3    H110340   3.855   0.869  12.840 -0.4219  0.0848  0.6398
  699TMC3    H210341   3.648   0.685  13.175 -2.2266  1.1270 -2.2366
  699TMC3    C710342   3.652   0.900  13.041 -0.3072 -0.0962 -0.0351
  699TMC3    C810343   3.832   0.489  13.197 -0.2540 -0.7751  0.5616
  699TMC3    O110344   3.663   0.984  12.952 -0.4122  0.3819 -0.0328
  699TMC3    O210345   3.735   0.485  13.274  0.4224 -0.7040  0.0725
  700TMC3    C110346   2.876   2.213  17.216  0.8319  0.3083  0.1853
  700TMC3    C210347   3.005   2.162  17.198 -0.6393  0.8299  0.3356
  700TMC3    C310348   3.109   2.216  17.274  0.6991  0.0178  0.6909
  700TMC3    C410349   2.852   2.314  17.303 -0.4726 -0.3813 -0.0834
  700TMC3    C510350   2.960   2.371  17.364 -0.8176 -0.2174 -0.6441
  700TMC3    C610351   3.087   2.332  17.346  0.1036 -0.3266  0.0596
  700TMC3     C10352   2.793   2.210  17.096  0.8660  0.0185 -0.0118
  700TMC3     O10353   2.804   2.112  17.024  0.2609  0.1693  0.0477
  700TMC3     H10354   3.032   2.083  17.129  1.4725  0.7699  1.2418
  700TMC3    H110355   2.754   2.355  17.320  0.2849  1.6349 -0.6081
  700TMC3    H210356   3.178   2.373  17.387  0.4923  0.8677 -1.9944
  700TMC3    C710357   2.942   2.482  17.451 -0.3983 -0.0675 -0.3685
  700TMC3    C810358   3.240   2.189  17.216  0.1613 -0.3841 -0.0827
  700TMC3    O110359   2.827   2.525  17.465 -0.3065 -0.1107 -0.2325
  700TMC3    O210360   3.248   2.153  17.102  0.2557 -0.0640  0.0168
  701TMC3    C110361   2.648   1.275  15.320 -0.8404 -0.7579 -0.0196
  701TMC3    C210362   2.693   1.240  15.191 -1.3706 -0.0230  0.1069
  701TMC3    C310363   2.809   1.303  15.149  0.2357  0.7395  0.5048
  701TMC3    C410364   2.712   1.369  15.397 -0.1636 -0.1649  0.3524
  701TMC3    C510365   2.818   1.441  15.341 -0.7247 -0.8271  0.0928
  701TMC3    C610366   2.874   1.399  15.220 -0.4627  0.1879  0.2152
  701TMC3     C10367   2.508   1.259  15.358 -0.3297 -0.1694  0.5536
  701TMC3     O10368   2.487   1.260  15.476  0.2733 -0.0646  0.5487
  701TMC3     H10369   2.651   1.156  15.138 -2.6446  1.7199 -1.6661
  701TMC3    H110370   2.656   1.408  15.481 -0.3071 -0.8409  0.5651
  701TMC3    H210371   2.957   1.455  15.180 -0.6235  0.1012 -0.2457
  701TMC3    C710372   2.892   1.539  15.410 -0.3172 -0.2876  0.4282
  701TMC3    C810373   2.841   1.290  15.011 -0.0296  0.5765 -0.1806
  701TMC3    O110374   2.969   1.604  15.339  0.2231  0.1965  0.2769
  701TMC3    O210375   2.945   1.340  14.964 -0.7161  0.2770  0.2272
  702MPD2     C10376   3.116   3.729  10.525  0.0210 -0.3474  0.6348
  702MPD2    C110377   3.018   3.829  10.516  0.9633 -0.3127 -0.2580
  702MPD2    C210378   3.061   3.949  10.455 -0.0771  0.7311  0.5616
  702MPD2    C310379   3.198   3.961  10.416  0.7760  0.0114  0.0034
  702MPD2    C410380   3.281   3.851  10.411 -0.5950  0.1958 -0.5727
  702MPD2    C510381   3.238   3.736  10.466 -0.0875  0.3774  0.0608
  702MPD2     H10382   2.988   4.029  10.451 -1.5888 -0.6708 -0.0055
  702MPD2    H110383   3.384   3.856  10.379 -0.2762 -0.2475  0.3874
  702MPD2    H210384   3.094   3.643  10.587  1.5706 -1.1483  0.0664
  702MPD2    H310385   3.295   3.644  10.480  1.1421  0.7022 -2.7206
  702MPD2     N10386   3.236   4.087  10.361  0.2715  0.5847  0.1027
  702MPD2    H510387   3.157   4.150  10.360 -1.5189 -1.6062  1.7168
  702MPD2    N110388   2.893   3.817  10.572  0.1518  0.0784 -0.5697
  702MPD2    H710389   2.846   3.906  10.585 -0.1570 -0.3675  1.4092
  703TMC3    C110390   3.366   4.288  10.315  0.0500 -0.3759  0.4474
  703TMC3    C210391   3.258   4.370  10.298 -0.1700 -0.3659 -0.3344
  703TMC3    C310392   3.276   4.499  10.253  0.2049  1.2748  0.1374
  703TMC3    C410393   3.496   4.337  10.297 -0.9498 -0.4240  0.2614
  703TMC3    C510394   3.508   4.465  10.254  0.0922  1.0307 -0.1480
  703TMC3    C610395   3.402   4.551  10.231 -0.3433 -0.2977  0.5699
  703TMC3     C10396   3.359   4.140  10.329 -0.1642 -0.1685  0.3022
  703TMC3     O10397   3.460   4.073  10.313 -0.1410 -0.6007  0.2220
  703TMC3     H10398   3.157   4.330  10.293  0.3123 -1.8992  2.2127
  703TMC3    H110399   3.585   4.276  10.305  0.4358  1.3270 -2.0612
  703TMC3    H210400   3.419   4.657  10.220  3.1009 -0.7189  1.9320
  703TMC3    C710401   3.639   4.524  10.236 -0.8069  0.0638 -0.1094
  703TMC3    C810402   3.168   4.603  10.282  0.2830  0.6148 -0.5117
  703TMC3    O110403   3.645   4.621  10.161 -0.2341 -0.5861  0.1349
  703TMC3    O210404   3.193   0.000  10.248 -0.3017 -0.2980 -0.2986
  704TMC3    C110405   4.717   2.040  12.169 -0.5957 -0.5337  0.3159
  704TMC3    C210406   0.099   2.119  12.128 -0.2983  0.5366  0.4524
  704TMC3    C310407   0.199   2.156  12.221 -0.2861 -0.0003 -0.3139
  704TMC3    C410408   4.704   2.002  12.299  0.3303 -0.1466  0.8854
  704TMC3    C510409   0.084   2.032  12.384 -0.4219  0.3253  0.6694
  704TMC3    C610410   0.187   2.114  12.355  0.0356 -0.3145  0.2816
  704TMC3     C10411   4.689   1.931  12.075 -0.0016  0.1535 -0.1254
  704TMC3     O10412   4.622   1.845  12.129  0.2627 -0.0480  0.3429
  704TMC3     H10413   0.110   2.163  12.029  0.1284  0.0143  0.2670
  704TMC3    H110414   4.621   1.942  12.335  1.5031 -2.2461  0.1067
  704TMC3    H210415   0.274   2.123  12.419 -0.4411 -1.3644  1.0744
  704TMC3    C710416   0.129   1.913  12.456  0.5892 -0.3596 -0.1440
  704TMC3    C810417   0.325   2.192  12.162  0.1793  0.3834  0.0820
  704TMC3    O110418   0.247   1.885  12.469 -0.4196 -0.0198  0.2653
  704TMC3    O210419   0.332   2.181  12.040  0.8909  0.1258 -0.9272
  705MPD2     C10420   4.229   0.262  16.344  0.2047 -0.0477  0.8667
  705MPD2    C110421   4.194   0.384  16.294  0.7205  0.0693  0.5290
  705MPD2    C210422   4.075   0.440  16.320 -0.0566 -0.2398 -0.6831
  705MPD2    C310423   3.991   0.377  16.409  0.2623  0.0990 -0.3844
  705MPD2    C410424   4.019   0.252  16.460  0.1150  0.2312 -0.1189
  705MPD2    C510425   4.132   0.193  16.416 -0.3010 -0.2890 -0.5914
  705MPD2     H10426   4.057   0.536  16.273 -0.7125  0.5911  1.2882
  705MPD2    H110427   3.965   0.195  16.534 -1.2595  1.4863 -0.1656
  705MPD2    H210428   4.321   0.207  16.323 -0.9310 -1.3106 -0.7615
  705MPD2    H310429   4.149   0.094  16.456  2.1145  1.0354  1.5900
  705MPD2     N10430   3.857   0.422  16.432 -0.4023 -0.1438 -0.6260
  705MPD2    H510431   3.802   0.364  16.494 -1.6298  2.1335  0.4328
  705MPD2    N110432   4.291   0.459  16.222  0.5543  0.2070  0.2240
  705MPD2    H710433   4.258   0.546  16.182 -0.0226  0.3861  1.0899
  706TMC3    C110434   4.697   0.545  15.982 -0.1482  0.2405 -0.3496
  706TMC3    C210435   4.700   0.683  16.018 -0.1595 -0.4175 -0.3317
  706TMC3    C310436   4.607   0.724  16.103 -0.4493 -0.0193  1.2670
  706TMC3    C410437   4.594   0.466  16.027  0.1945  0.3034  0.4763
  706TMC3    C510438   4.491   0.520  16.097  0.8757  0.2646  0.0222
  706TMC3    C610439   4.498   0.650  16.140 -0.3250 -0.1630 -0.0560
  706TMC3     C10440   0.072   0.505  15.877  0.4270  0.4394 -0.5179
  706TMC3     O10441   0.175   0.569  15.871 -0.4687 -0.0098 -0.2667
  706TMC3     H10442   0.052   0.752  15.977  1.1210  0.1138  2.8929
  706TMC3    H110443   4.584   0.362  15.997 -2.3677 -0.0970  2.7571
  706TMC3    H210444   4.417   0.684  16.204 -1.6057 -0.6541 -1.4172
  706TMC3    C710445   4.423   0.424  16.180  0.3825  0.2358 -0.0073
  706TMC3    C810446   4.594   0.865  16.086 -0.1726 -0.5290  0.4134
  706TMC3    O110447   4.493   0.324  16.199 -0.3512 -0.3889 -0.0472
  706TMC3    O210448   4.640   0.933  15.995  0.1320  0.3509  0.0526
  707TMC3    C110449   0.901   4.692   1.549 -0.1165  0.3887 -0.0616
  707TMC3    C210450   0.882   4.597   1.444 -0.4950  0.5414 -0.0363
  707TMC3    C310451   0.766   4.600   1.373  0.1147  0.3749 -0.3634
  707TMC3    C410452   0.805   0.068   1.574  0.9249 -0.1334 -0.2263
  707TMC3    C510453   0.691   0.072   1.492  0.3239  0.4179  0.1541
  707TMC3    C610454   0.677   4.705   1.382 -0.1654 -0.3915 -0.0781
  707TMC3     C10455   0.985   4.659   1.665 -0.5407 -0.2093  0.1295
  707TMC3     O10456   0.977   0.008   1.768  1.0640  0.2615  0.3070
  707TMC3     H10457   0.949   4.514   1.434 -0.0369  1.1081 -1.5699
  707TMC3    H110458   0.821   0.132   1.659 -0.4247  1.4815 -1.1876
  707TMC3    H210459   0.583   4.709   1.328  0.6590 -0.8484 -1.5134
  707TMC3    C710460   0.621   0.202   1.492  0.1455 -0.2809 -0.1763
  707TMC3    C810461   0.743   4.503   1.263  0.3724 -0.4026  0.5640
  707TMC3    O110462   0.665   0.296   1.557  0.3929 -0.1102 -0.3766
  707TMC3    O210463   0.648   4.531   1.192  0.2893 -0.2312  0.3841
  708MPD2     C10464   2.761   3.665  13.888  1.5627 -0.9025 -0.7217
  708MPD2    C110465   2.642   3.635  13.955  0.3755  0.2244  0.0824
  708MPD2    C210466   2.645   3.552  14.061 -0.0534  0.4923  0.8603
  708MPD2    C310467   2.763   3.496  14.105  0.5892 -0.3943 -0.4805
  708MPD2    C410468   2.886   3.547  14.049  0.1641  0.5294  0.2804
  708MPD2    C510469   2.879   3.638  13.946 -0.2417  0.1557 -0.0678
  708MPD2     H10470   2.550   3.524  14.105  0.7836 -1.0393  1.6573
  708MPD2    H110471   2.980   3.512  14.091 -0.6869 -1.6185  0.4065
  708MPD2    H210472   2.771   3.731  13.802 -0.5286  0.3737  0.0188
  708MPD2    H310473   2.967   3.656  13.886 -0.4164  0.5490 -0.2064
  708MPD2     N10474   2.769   3.414  14.215 -0.0317  0.5085 -0.0945
  708MPD2    H510475   2.864   3.395  14.244 -0.1238 -1.0223 -0.8255
  708MPD2    N110476   2.515   3.677  13.911  0.4397 -0.0859 -0.1926
  708MPD2    H710477   2.442   3.654  13.977 -0.2390  0.7387 -0.6716
  709TMC3    C110478   2.342   3.740  13.779 -0.4597  0.0580  0.6581
  709TMC3    C210479   2.272   3.665  13.690  0.3947  0.5706 -0.1387
  709TMC3    C310480   2.146   3.622  13.724 -0.0769 -0.1858  0.3952
  709TMC3    C410481   2.282   3.761  13.902 -0.5320  0.2168  0.6476
  709TMC3    C510482   2.179   3.692  13.939 -0.1374  0.0198  0.7187
  709TMC3    C610483   2.104   3.618  13.853 -0.2579 -0.4387  0.5379
  709TMC3     C10484   2.485   3.723  13.789 -0.0740  0.5662  0.1390
  709TMC3     O10485   2.552   3.754  13.693  0.3710  0.0084  0.3326
  709TMC3     H10486   2.310   3.644  13.591 -1.1303  0.4771 -0.7042
  709TMC3    H110487   2.325   3.819  13.983  2.7714  0.2726 -1.1874
  709TMC3    H210488   2.006   3.579  13.879 -0.7232  0.5552  0.2773
  709TMC3    C710489   2.185   3.659  14.081 -0.3759 -0.0270  0.0881
  709TMC3    C810490   2.051   3.600  13.625 -0.1691  0.2950  0.0257
  709TMC3    O110491   2.296   3.669  14.132 -0.0360 -0.5967  0.4209
  709TMC3    O210492   1.951   3.537  13.660 -0.2012  0.4911 -0.4697
  710TMC3    C110493   3.392   4.418   0.519 -0.5753 -0.0096 -0.0105
  710TMC3    C210494   3.491   4.448   0.431  0.6006  0.5765  0.8691
  710TMC3    C310495   3.555   4.342   0.372 -0.1270  0.6712  0.6182
  710TMC3    C410496   3.371   4.294   0.570 -0.3734 -0.5897  0.6520
  710TMC3    C510497   3.443   4.194   0.515 -0.2120  0.7739 -0.1646
  710TMC3    C610498   3.540   4.214   0.418 -0.4813  0.2979  0.4712
  710TMC3     C10499   3.335   4.522   0.599 -0.2415 -0.1494 -0.8313
  710TMC3     O10500   3.405   4.596   0.678  0.7642 -0.1348  0.6220
  710TMC3     H10501   3.503   4.549   0.393  2.9538 -0.5615 -1.3797
  710TMC3    H110502   3.299   4.270   0.647  0.2250 -0.7140  1.1711
  710TMC3    H210503   3.581   4.133   0.360 -3.6206 -1.1324  0.2222
  710TMC3    C710504   3.465   4.083   0.609  0.3186 -0.5807  0.1254
  710TMC3    C810505   3.651   4.354   0.269 -0.2541 -0.1736 -0.0389
  710TMC3    O110506   3.367   4.048   0.677  0.2167  0.4951  0.0346
  710TMC3    O210507   3.722   4.256   0.242  0.1577 -0.0755 -0.2640
  711TMC3    C110508   3.791   0.958  14.992  0.0777 -0.0964 -0.2290
  711TMC3    C210509   3.764   1.078  15.047  0.2873  0.1865 -0.1512
  711TMC3    C310510   3.868   1.151  15.107  0.2688 -0.5114  0.4900
  711TMC3    C410511   3.915   0.903  14.976 -0.9120  0.0825  0.1518
  711TMC3    C510512   4.011   0.986  15.020 -0.1504  0.5942  0.3513
  711TMC3    C610513   3.993   1.105  15.088  0.1509 -0.3186 -0.1825
  711TMC3     C10514   3.691   0.918  14.893 -0.0604 -0.9644 -0.0596
  711TMC3     O10515   3.673   0.799  14.878 -0.2562 -0.3398  0.4014
  711TMC3     H10516   3.666   1.123  15.053  1.3339  2.2670  1.4501
  711TMC3    H110517   3.926   0.803  14.936 -1.7274 -0.7935  2.1644
  711TMC3    H210518   4.077   1.169  15.112  1.6972 -1.3803 -2.8170
  711TMC3    C710519   4.149   0.934  15.031 -0.8421  0.0021 -0.9860
  711TMC3    C810520   3.834   1.242  15.211  0.9233  0.1091  0.0143
  711TMC3    O110521   4.222   1.010  15.091 -0.2245 -0.2582 -0.1258
  711TMC3    O210522   3.724   1.295  15.205 -0.1457 -0.5095 -0.1981
  712MPD2     C10523   0.914   2.476  14.084 -0.2529 -0.5204  0.4884
  712MPD2    C110524   0.841   2.483  13.966 -0.2042 -0.1488 -0.0542
  712MPD2    C210525   0.887   2.570  13.865  0.8805  0.2787  1.3609
  712MPD2    C310526   1.014   2.619  13.879  0.1455  0.2810 -0.1038
  712MPD2    C410527   1.086   2.610  13.997 -0.1463  0.4770  0.0361
  712MPD2    C510528   1.037   2.534  14.099 -0.2325 -0.2342 -0.3820
  712MPD2     H10529   0.844   2.575  13.766 -0.4324  1.7627  2.0081
  712MPD2    H110530   1.179   2.662  14.017 -0.1834  0.7315 -0.4541
  712MPD2    H210531   0.888   2.412  14.167 -0.5447 -0.6696  0.2849
  712MPD2    H310532   1.098   2.526  14.188  2.9712  0.2534 -2.5329
  712MPD2     N10533   1.062   2.711  13.785 -0.3840 -0.2574  0.1077
  712MPD2    H510534   1.001   2.739  13.710  0.5043  1.8165  0.1642
  712MPD2    N110535   0.735   2.399  13.928  0.3149 -0.5991  0.2927
  712MPD2    H710536   0.696   2.426  13.838  1.7612  3.9832  1.0406
  713TMC3    C110537   1.202   2.868  13.674  0.1176  0.4365  0.1257
  713TMC3    C210538   1.290   2.976  13.691  0.2246  0.1650 -1.1851
  713TMC3    C310539   1.287   3.078  13.604  0.3521  0.0487  0.3218
  713TMC3    C410540   1.119   2.857  13.569 -0.3242  0.2271 -0.2728
  713TMC3    C510541   1.122   2.955  13.475 -0.6671  0.3394  0.0317
  713TMC3    C610542   1.191   3.073  13.494  0.8088  0.3392  0.1922
  713TMC3     C10543   1.189   2.772  13.782  0.2316 -1.0314  0.1459
  713TMC3     O10544   1.293   2.746  13.844 -1.1673 -0.4069  0.3414
  713TMC3     H10545   1.353   2.984  13.779 -0.5996 -2.2983 -0.3650
  713TMC3    H110546   1.087   2.756  13.546  0.2791 -0.0518  0.1159
  713TMC3    H210547   1.214   3.138  13.410  1.3578  0.7604  0.6638
  713TMC3    C710548   1.058   2.939  13.341  0.0788  0.2887  0.4950
  713TMC3    C810549   1.374   3.190  13.633 -0.1339  0.3328  0.6316
  713TMC3    O110550   1.100   3.015  13.254 -0.2869 -0.1217 -0.0153
  713TMC3    O210551   1.471   3.180  13.711  0.0168  0.3317  0.2158
  714MPD2     C10552   2.316   1.230   1.183  0.3300  0.4743  0.7571
  714MPD2    C110553   2.314   1.094   1.192  0.6857  0.6281  0.1967
  714MPD2    C210554   2.206   1.025   1.143 -0.2057  0.4037  0.0316
  714MPD2    C310555   2.098   1.095   1.101  0.3577 -0.2819 -0.0257
  714MPD2    C410556   2.100   1.232   1.095  0.2502  0.4173  0.0183
  714MPD2    C510557   2.208   1.303   1.138  0.5054 -0.4440  0.5629
  714MPD2     H10558   2.216   0.918   1.130 -0.7173  0.4070 -0.3605
  714MPD2    H110559   2.020   1.291   1.051 -0.1103 -0.0697  0.0121
  714MPD2    H210560   2.404   1.286   1.212  0.9318 -0.1451  0.1382
  714MPD2    H310561   2.221   1.410   1.143  0.8862 -0.4359 -0.5968
  714MPD2     N10562   1.995   1.016   1.060 -0.1329 -0.2477 -0.5312
  714MPD2    H510563   2.011   0.915   1.059  1.0426 -0.0621 -0.2158
  714MPD2    N110564   2.435   1.030   1.241  0.8174  0.2324  0.8360
  714MPD2    H710565   2.524   1.080   1.235  0.7568  0.1003 -0.9399
  715TMC3    C110566   2.574   0.842   1.297 -1.1995  0.3877  0.3465
  715TMC3    C210567   2.594   0.710   1.297  0.6711 -0.0030  0.2111
  715TMC3    C310568   2.727   0.668   1.302 -0.6286 -1.2558 -0.0942
  715TMC3    C410569   2.674   0.936   1.313  0.4958 -0.3628  0.3827
  715TMC3    C510570   2.805   0.891   1.309  0.5213  1.2335 -0.7710
  715TMC3    C610571   2.834   0.759   1.296  0.0302  0.6298 -0.2585
  715TMC3     C10572   2.446   0.890   1.260  0.9581 -0.8589 -0.4691
  715TMC3     O10573   2.360   0.803   1.259  0.0476  0.6975  0.4609
  715TMC3     H10574   2.520   0.633   1.280  1.0025 -0.2999  0.1228
  715TMC3    H110575   2.656   1.033   1.358  1.1800  0.0803 -0.3001
  715TMC3    H210576   2.938   0.729   1.287 -0.1965 -0.6064  1.1856
  715TMC3    C710577   2.906   0.976   1.372  0.0143 -0.7917  0.5755
  715TMC3    C810578   2.751   0.526   1.254 -0.0178 -0.5871 -0.2503
  715TMC3    O110579   3.006   0.922   1.410  0.3029  0.5987 -0.5244
  715TMC3    O210580   2.677   0.455   1.185  0.2558 -0.3205  0.0428
  716MPD2     C10581   3.422   2.856   9.909 -0.5928 -0.6115  1.2816
  716MPD2    C110582   3.325   2.817   9.827 -0.3188 -0.5143 -0.6738
  716MPD2    C210583   3.275   2.689   9.830  1.0056 -0.5125 -0.2363
  716MPD2    C310584   3.308   2.602   9.932  0.4944  0.1218 -0.2395
  716MPD2    C410585   3.408   2.639  10.014  0.4466 -0.1202  0.8837
  716MPD2    C510586   3.472   2.761   9.994  0.5440 -0.4546  0.1744
  716MPD2     H10587   3.207   2.643   9.759  0.9137 -0.2484 -0.3218
  716MPD2    H110588   3.447   2.576  10.093  2.6931  0.1689  0.0124
  716MPD2    H210589   3.472   2.951   9.893 -0.0961 -0.8370  1.4956
  716MPD2    H310590   3.552   2.783  10.064  1.6990  0.9609 -1.5876
  716MPD2     N10591   3.250   2.477   9.948 -0.4675  0.5435  0.4949
  716MPD2    H510592   3.196   2.449   9.867  1.8259 -3.0131  0.2231
  716MPD2    N110593   3.268   2.917   9.746 -0.6263  0.1048 -0.8249
  716MPD2    H710594   3.284   3.013   9.776  0.8876 -0.0737 -1.0472
  717TMC3    C110595   3.192   2.257  10.045  1.1996  0.5082  0.1288
  717TMC3    C210596   3.131   2.216   9.932 -0.6369 -0.0190 -0.1908
  717TMC3    C310597   3.113   2.082   9.906  0.8070  0.2517  0.0899
  717TMC3    C410598   3.222   2.167  10.142  1.1497 -0.0413  0.6883
  717TMC3    C510599   3.201   2.034  10.119 -0.2661  0.6753  0.4047
  717TMC3    C610600   3.149   1.987   9.999  0.5087 -0.6228  0.1882
  717TMC3     C10601   3.256   2.393  10.058  0.0059 -0.3877 -0.2263
  717TMC3     O10602   3.288   2.414  10.174 -0.1100  0.4662 -0.5056
  717TMC3     H10603   3.121   2.282   9.847 -1.1894 -0.1587 -0.2375
  717TMC3    H110604   3.261   2.197  10.238 -0.0689 -0.2050  1.2263
  717TMC3    H210605   3.133   1.881   9.982  1.9330 -0.8710  0.3675
  717TMC3    C710606   3.216   1.952  10.233 -0.0087 -0.4300  0.5390
  717TMC3    C810607   3.043   2.048   9.786  0.2868 -0.4665  0.8594
  717TMC3    O110608   3.271   2.002  10.329  0.1513 -0.3674 -0.1815
  717TMC3    O210609   3.032   2.142   9.706  0.0044  0.1826 -0.0403
  718MPD2     C10610   2.596   3.174  13.025  0.6284 -0.4688 -0.0869
  718MPD2    C110611   2.569   3.121  12.897 -0.3072  0.1935  0.2171
  718MPD2    C210612   2.441   3.068  12.873 -0.1912  0.4652 -0.4025
  718MPD2    C310613   2.344   3.047  12.965 -0.1631  0.6136  0.0182
  718MPD2    C410614   2.375   3.097  13.092  0.3091  0.2390 -0.0131
  718MPD2    C510615   2.499   3.161  13.120  0.3026  0.7647 -1.0775
  718MPD2     H10616   2.431   3.031  12.772  1.9067 -1.5548  0.1254
  718MPD2    H110617   2.302   3.093  13.171 -1.3181 -1.6986 -1.6278
  718MPD2    H210618   2.686   3.230  13.047 -0.4974  1.0583  0.7207
  718MPD2    H310619   2.513   3.206  13.217 -0.0925  0.3448 -0.8266
  718MPD2     N10620   2.235   2.965  12.927 -0.4573  0.3076 -0.1604
  718MPD2    H510621   2.237   2.905  12.846 -0.1108  0.2562 -0.1126
  718MPD2    N110622   2.678   3.111  12.803  0.1678  0.3724 -0.0362
  718MPD2    H710623   2.773   3.135  12.830  0.1119  0.4141  0.1249
  719TMC3    C110624   2.775   3.017  12.608 -0.4770 -0.5859 -0.2565
  719TMC3    C210625   2.744   2.898  12.538 -0.5459  0.0599  0.0026
  719TMC3    C310626   2.773   2.885  12.407  0.4383 -0.3311  0.7956
  719TMC3    C410627   2.836   3.117  12.543 -0.2327 -0.1947  0.0672
  719TMC3    C510628   2.856   3.102  12.409 -0.0073  0.3483 -0.5217
  719TMC3    C610629   2.828   2.988  12.338  0.7323  0.4331  0.2288
  719TMC3     C10630   2.658   3.061  12.676 -0.1685 -0.2458 -0.7024
  719TMC3     O10631   2.562   3.037  12.604 -0.0280  0.2612  0.3478
  719TMC3     H10632   2.710   2.812  12.594  1.7339  0.3421  1.8691
  719TMC3    H110633   2.845   3.212  12.593 -4.0659 -1.2833  2.8495
  719TMC3    H210634   2.846   2.981  12.232 -1.7754 -0.6278 -0.1346
  719TMC3    C710635   2.864   3.213  12.330 -0.2314 -0.4460  0.2966
  719TMC3    C810636   2.661   2.820  12.338  0.3471  1.1661 -0.0991
  719TMC3    O110637   2.826   3.192  12.215 -0.2587 -0.8150  0.2002
  719TMC3    O210638   2.688   2.766  12.230  0.1337  0.3566  0.0472
  720MPD2     C10639   0.045   4.207  14.043  0.1970 -0.3673  0.2029
  720MPD2    C110640   0.133   4.182  13.939  0.0686 -0.3796 -0.1495
  720MPD2    C210641   0.247   4.109  13.967  0.4966 -0.1070 -1.5215
  720MPD2    C310642   0.268   4.054  14.087 -0.3708 -0.1155  0.3756
  720MPD2    C410643   0.169   4.053  14.183  0.0729  0.0261  0.0387
  720MPD2    C510644   0.062   4.140  14.158 -0.0391  0.6828 -0.2199
  720MPD2     H10645   0.315   4.087  13.886  0.4152  0.1563 -1.6607
  720MPD2    H110646   0.171   4.007  14.281  0.2619  1.7160  0.8272
  720MPD2    H210647   4.670   4.259  14.036  0.2107 -0.6887 -2.2266
  720MPD2    H310648   4.696   4.133  14.225 -0.0008 -2.5298 -0.5029
  720MPD2     N10649   0.389   3.983  14.098  0.3952 -0.1605  0.0822
  720MPD2    H510650   0.458   3.995  14.024  0.6570  1.1948  0.5445
  720MPD2    N110651   0.116   4.228  13.810  0.1321  0.0673  0.0106
  720MPD2    H710652   0.193   4.209  13.746 -0.5769  1.0059 -1.1398
  721TMC3    C110653   0.560   3.838  14.169  0.0807 -1.3476 -0.4941
  721TMC3    C210654   0.617   3.768  14.275 -0.5920 -0.4288  0.0064
  721TMC3    C310655   0.743   3.716  14.260  0.1083 -0.5619  0.0622
  721TMC3    C410656   0.636   3.852  14.058 -0.1658 -0.4507  0.4474
  721TMC3    C510657   0.762   3.801  14.044 -0.0674 -0.5475 -0.1161
  721TMC3    C610658   0.817   3.721  14.141  0.2084 -0.3150  0.2914
  721TMC3     C10659   0.428   3.900  14.198 -0.6161  0.6093 -0.9101
  721TMC3     O10660   0.363   3.858  14.295 -0.0763  0.2696  0.4955
  721TMC3     H10661   0.569   3.755  14.371  3.4460  1.7041  2.2870
  721TMC3    H110662   0.611   3.924  13.980  1.2104 -1.8327 -1.2696
  721TMC3    H210663   0.901   3.656  14.122  1.0940  1.3852 -1.6188
  721TMC3    C710664   0.855   3.902  14.002 -0.4488  0.7061 -0.1686
  721TMC3    C810665   0.839   3.720  14.371  0.1475 -0.6070  0.6038
  721TMC3    O110666   0.840   4.016  14.039  0.0646 -0.1478  0.0498
  721TMC3    O210667   0.954   3.733  14.331 -0.6080 -0.3498 -0.1534
  722MPD2     C10668   4.617   2.240  13.227 -0.5399  0.1665 -0.0440
  722MPD2    C110669   4.613   2.380  13.232  0.2736 -0.4320 -0.3297
  722MPD2    C210670   4.515   2.436  13.313  0.0073  0.1206  0.4113
  722MPD2    C310671   4.424   2.365  13.379  0.7106 -0.3523 -0.0089
  722MPD2    C410672   4.422   2.226  13.362  0.0152  0.2461  0.9570
  722MPD2    C510673   4.520   2.168  13.286  0.8116 -0.2178  0.2551
  722MPD2     H10674   4.505   2.544  13.315 -0.5415  0.0404  1.8835
  722MPD2    H110675   4.352   2.160  13.411 -0.0279  0.0268  0.6004
  722MPD2    H210676   4.698   2.184  13.181  1.3876  1.4732  1.7131
  722MPD2    H310677   4.526   2.060  13.280  0.7079 -0.1575 -0.9479
  722MPD2     N10678   4.328   2.436  13.461  0.0092  0.3606  0.0650
  722MPD2    H510679   4.337   2.535  13.481 -1.4842  0.2371  1.3267
  722MPD2    N110680   4.713   2.470  13.182  0.2528 -0.2398 -0.3113
  722MPD2    H710681   4.691   2.569  13.186  1.3482 -0.0252  0.4459
  723TMC3    C110682   4.121   2.514  13.503  1.0354  1.0923 -0.1053
  723TMC3    C210683   4.010   2.542  13.427  0.0870 -0.1971  0.2756
  723TMC3    C310684   3.933   2.654  13.453  0.5150  0.4802 -0.6248
  723TMC3    C410685   4.152   2.591  13.607 -0.0360  0.8352  0.3764
  723TMC3    C510686   4.069   2.701  13.632 -0.1853 -0.1110 -0.4899
  723TMC3    C610687   3.963   2.734  13.552  0.3846 -0.2513  0.4610
  723TMC3     C10688   4.202   2.397  13.481 -0.1586 -0.7187 -0.5083
  723TMC3     O10689   4.150   2.292  13.446  0.5660  0.1138  0.3019
  723TMC3     H10690   3.973   2.475  13.349 -1.1221  0.5038  0.2440
  723TMC3    H110691   4.234   2.566  13.674 -1.8258  0.0630  2.2626
  723TMC3    H210692   3.912   2.828  13.563  2.5479  1.2698 -2.3672
  723TMC3    C710693   4.101   2.779  13.752  0.2253 -0.5438  0.4251
  723TMC3    C810694   3.827   2.701  13.364  0.8476 -0.4197  0.4209
  723TMC3    O110695   4.194   2.736  13.820  0.6901 -0.3207  0.6306
  723TMC3    O210696   3.764   2.797  13.410  0.2562 -0.2295 -0.0414
  724TMC3    C110697   0.039   2.184   8.456  0.0856  0.3358 -0.3660
  724TMC3    C210698   4.642   2.118   8.456  0.2714 -0.4402  0.4299
  724TMC3    C310699   4.643   1.990   8.504  0.1822  0.0053 -0.2329
  724TMC3    C410700   0.156   2.120   8.488  0.4708 -0.1678  0.0130
  724TMC3    C510701   0.154   1.987   8.508  0.3339 -0.2741 -0.5965
  724TMC3    C610702   0.034   1.919   8.526  0.6391 -0.1559 -0.0904
  724TMC3     C10703   0.023   2.323   8.427 -0.4618 -0.7016  0.3153
  724TMC3     O10704   4.641   2.351   8.364 -0.0642 -0.0367 -0.0825
  724TMC3     H10705   4.553   2.178   8.468 -0.1293 -0.7064 -1.1837
  724TMC3    H110706   0.251   2.165   8.512  1.6548 -1.3531 -2.4610
  724TMC3    H210707   0.038   1.811   8.533  0.2769  0.0483  3.2143
  724TMC3    C710708   0.277   1.933   8.560  0.3900  0.1661  0.3801
  724TMC3    C810709   4.519   1.941   8.555  0.2062 -0.2651 -0.3233
  724TMC3    O110710   0.260   1.861   8.661  0.5550  0.5228  0.0110
  724TMC3    O210711   4.412   1.979   8.504 -0.7818  1.0279 -0.3551
  725TMC3    C110712   0.884   4.627  13.062 -0.2585  0.1555  0.8047
  725TMC3    C210713   0.872   4.647  12.927  0.3560  0.3002  0.1341
  725TMC3    C310714   0.807   4.553  12.852 -0.6493  0.8273 -0.0339
  725TMC3    C410715   0.826   4.522  13.126  0.4538 -0.0484  0.0183
  725TMC3    C510716   0.756   4.435  13.052  0.6341 -0.2846 -1.3554
  725TMC3    C610717   0.734   4.454  12.915 -0.2751 -0.6624  0.4516
  725TMC3     C10718   0.934   0.013  13.149 -0.5927 -0.4371  0.2480
  725TMC3     O10719   0.976   0.113  13.094  0.0085 -0.1430 -0.1474
  725TMC3     H10720   0.923   0.016  12.889  0.1528 -1.4654 -4.2495
  725TMC3    H110721   0.833   4.496  13.232  0.1927  0.0808  0.0685
  725TMC3    H210722   0.682   4.380  12.855  0.4338 -1.9177  1.3923
  725TMC3    C710723   0.731   4.300  13.105 -0.0590  0.4853 -0.4231
  725TMC3    C810724   0.823   4.550  12.710  0.7868  0.0852  0.6063
  725TMC3    O110725   0.697   4.283  13.222  0.3197  0.7461 -0.1214
  725TMC3    O210726   0.747   4.475  12.647  0.0083 -0.2539  0.2865
  726MPD2     C10727   4.300   1.265  10.306 -0.4673  0.7956 -0.2016
  726MPD2    C110728   4.194   1.333  10.256 -0.3783 -0.5818  0.3423
  726MPD2    C210729   4.084   1.259  10.209 -0.8485 -0.3386 -0.2478
  726MPD2    C310730   4.078   1.118  10.221  1.1524  0.0118 -0.1088
  726MPD2    C410731   4.184   1.054  10.279 -0.3413  0.2151 -0.5774
  726MPD2    C510732   4.293   1.126  10.321 -0.5771  0.6336 -0.2293
  726MPD2     H10733   3.999   1.313  10.167 -1.0754 -1.8970 -1.7896
  726MPD2    H110734   4.185   0.946  10.288 -0.8210  0.3717  1.2164
  726MPD2    H210735   4.390   1.316  10.337  0.0440  1.5664 -2.9992
  726MPD2    H310736   4.376   1.068  10.359 -1.3216 -0.4386 -0.2383
  726MPD2     N10737   3.959   1.041  10.203  0.6290 -0.2606 -0.1244
  726MPD2    H510738   3.971   0.947  10.240  0.2260 -0.4360 -0.4408
  726MPD2    N110739   4.190   1.473  10.234  0.4530  0.5295  0.1015
  726MPD2    H710740   4.115   1.509  10.176  0.5871  1.8844  0.7682
  727TMC3    C110741   4.291   1.695  10.211  0.3135 -0.5436  0.1473
  727TMC3    C210742   4.374   1.788  10.268 -0.2966 -0.1863  0.1734
  727TMC3    C310743   4.360   1.916  10.223 -0.3143 -0.0126 -0.0512
  727TMC3    C410744   4.200   1.728  10.117  0.4563  0.3795 -0.2814
  727TMC3    C510745   4.190   1.858  10.080 -0.3962 -0.3901 -0.1026
  727TMC3    C610746   4.271   1.954  10.130 -0.0477 -0.1886  0.0922
  727TMC3     C10747   4.286   1.561  10.275 -0.1179  0.2870 -1.1321
  727TMC3     O10748   4.372   1.548  10.365 -0.3645 -0.2102  0.4270
  727TMC3     H10749   4.448   1.758  10.340 -1.8976 -1.8214  1.1294
  727TMC3    H110750   4.129   1.657  10.076 -1.6500 -0.3315  4.5753
  727TMC3    H210751   4.255   2.056  10.094  0.2493  0.0192  0.5468
  727TMC3    C710752   4.088   1.898   9.981 -0.4119  0.1776  0.6035
  727TMC3    C810753   4.476   2.004  10.251 -0.0078  0.4926  0.2553
  727TMC3    O110754   4.086   2.019   9.950 -0.2089  0.2933  0.8250
  727TMC3    O210755   4.575   1.951  10.295  0.2450  0.6213 -0.0045
  728TMC3    C110756   2.877   4.488  15.361  0.8654 -0.2437 -0.4555
  728TMC3    C210757   2.945   4.598  15.400 -0.3366  0.7225 -0.4063
  728TMC3    C310758   2.941   4.710  15.326 -0.4946  0.4330 -0.4202
  728TMC3    C410759   2.810   4.490  15.241  0.4891 -0.1245  0.0458
  728TMC3    C510760   2.805   4.611  15.172 -0.1023 -0.0913  0.1915
  728TMC3    C610761   2.872   0.002  15.212  0.4625  0.2503  0.3360
  728TMC3     C10762   2.843   4.407  15.472  0.4213 -0.0093  0.0113
  728TMC3     O10763   2.918   4.404  15.570  0.5246  0.5372  0.3246
  728TMC3     H10764   3.010   4.589  15.486 -1.0265 -0.7346 -0.0352
  728TMC3    H110765   2.771   4.398  15.201  0.0361 -0.5482  1.4758
  728TMC3    H210766   2.859   0.095  15.158 -1.0623 -0.8928 -1.2526
  728TMC3    C710767   2.754   4.604  15.037 -1.0861 -0.0417  0.0626
  728TMC3    C810768   2.991   0.109  15.397  0.0167  0.0546  0.3916
  728TMC3    O110769   2.669   4.519  15.011  0.1087  0.0623 -0.6674
  728TMC3    O210770   3.026   0.087  15.514  0.3866 -0.0183  0.3747
  729MPD2     C10771   0.149   0.499  16.460  0.2829  0.2305  0.0257
  729MPD2    C110772   0.128   0.627  16.497 -0.2005 -0.5976 -0.7300
  729MPD2    C210773   0.098   0.658  16.631  0.0254 -0.6186  0.6415
  729MPD2    C310774   0.099   0.556  16.725 -1.0944  0.1820  0.0405
  729MPD2    C410775   0.120   0.427  16.686 -0.5113  0.2469  0.4648
  729MPD2    C510776   0.134   0.397  16.549 -0.3908 -0.4971 -0.3038
  729MPD2     H10777   0.102   0.760  16.667 -0.5501 -0.0029 -1.0775
  729MPD2    H110778   0.091   0.349  16.756 -1.2955 -0.0856 -0.2329
  729MPD2    H210779   0.163   0.469  16.357 -1.7985 -0.4122 -0.0696
  729MPD2    H310780   0.144   0.297  16.510 -1.4457 -0.5919 -0.3153
  729MPD2     N10781   0.086   0.577  16.864  0.3465 -0.1132  0.7587
  729MPD2    H510782   0.093   0.494  16.921  1.7044  0.9372  2.1409
  729MPD2    N110783   0.138   0.734  16.395 -0.0205 -0.4180  0.1537
  729MPD2    H710784   0.181   0.702  16.309  0.0767 -1.4539  0.5847
  730TMC3    C110785   0.056   0.706  17.068  0.0056  0.0608  0.0937
  730TMC3    C210786   0.174   0.658  17.119 -0.8437  0.2505 -0.1337
  730TMC3    C310787   0.241   0.725  17.220 -0.1330  0.2963 -0.0529
  730TMC3    C410788   0.012   0.825  17.121  0.3095 -0.1652 -1.3465
  730TMC3    C510789   0.069   0.880  17.235  0.1013  0.3938 -0.0262
  730TMC3    C610790   0.175   0.819  17.291 -0.2231  0.4110 -0.2244
  730TMC3     C10791   0.040   0.692  16.921 -0.7420 -0.9903 -0.4279
  730TMC3     O10792   4.715   0.790  16.864 -0.0636 -0.6476  0.5688
  730TMC3     H10793   0.214   0.564  17.082  0.0309  0.2974  0.6851
  730TMC3    H110794   4.648   0.877  17.075 -0.2252 -0.7655 -1.0593
  730TMC3    H210795   0.234   0.871  17.365  0.7626  0.3292 -0.9488
  730TMC3    C710796   0.046   1.016  17.266 -0.4622  0.0557 -0.4385
  730TMC3    C810797   0.377   0.771  17.189 -0.0363 -0.1388  0.3729
  730TMC3    O110798   0.008   1.084  17.171  0.5276 -0.5111  0.5510
  730TMC3    O210799   0.430   0.856  17.260 -0.3182  0.2816 -0.4479
  731MPD2     C10800   0.557   4.465  12.279  0.0544  0.3556 -0.6402
  731MPD2    C110801   0.506   4.348  12.230 -0.6977 -0.5896  0.5888
  731MPD2    C210802   0.393   4.299  12.286 -0.6012 -0.1377 -0.5068
  731MPD2    C310803   0.330   4.359  12.385 -0.5508  0.0184 -1.3987
  731MPD2    C410804   0.389   4.470  12.442 -0.1168  0.1062 -0.5451
  731MPD2    C510805   0.499   4.524  12.386 -0.1064  0.3547  0.6950
  731MPD2     H10806   0.354   4.204  12.251  1.3570 -0.2203 -2.5062
  731MPD2    H110807   0.353   4.530  12.525 -1.8505 -1.2812 -0.2839
  731MPD2    H210808   0.645   4.511  12.236 -0.2953  0.3011 -1.4181
  731MPD2    H310809   0.546   4.603  12.443  1.1869  1.0543 -1.3347
  731MPD2     N10810   0.203   4.301  12.430 -0.5762 -0.1878  0.0931
  731MPD2    H510811   0.163   4.234  12.366  1.6987 -1.4613 -0.0189
  731MPD2    N110812   0.572   4.272  12.128  0.2925  0.3372  0.0816
  731MPD2    H710813   0.527   4.187  12.095  1.9850 -1.1411  1.6033
  732TMC3    C110814   0.721   4.203  11.971 -0.1661  0.7728  0.0599
  732TMC3    C210815   0.616   4.133  11.909 -0.2197 -0.2480  0.6789
  732TMC3    C310816   0.657   4.059  11.806  0.2665  0.1744 -0.3095
  732TMC3    C410817   0.852   4.191  11.935 -0.4982 -0.4084 -0.0445
  732TMC3    C510818   0.879   4.123  11.822 -0.2393 -0.4223 -0.2398
  732TMC3    C610819   0.780   4.056  11.755 -0.4682  0.0074 -0.4656
  732TMC3     C10820   0.694   4.294  12.076  0.3151  0.1772 -1.0599
  732TMC3     O10821   0.784   4.363  12.121 -0.5173 -0.1922 -0.0185
  732TMC3     H10822   0.513   4.159  11.931 -0.0281 -0.2651  1.6061
  732TMC3    H110823   0.936   4.247  11.975  0.2403 -0.2341 -1.8003
  732TMC3    H210824   0.810   3.984  11.680 -1.1310  0.6770 -1.3669
  732TMC3    C710825   0.989   4.034  11.844 -0.1772 -0.3514  0.3125
  732TMC3    C810826   0.551   4.006  11.729  0.3643  0.2920 -0.1504
  732TMC3    O110827   1.077   4.039  11.759 -0.1998 -0.5419  0.0180
  732TMC3    O210828   0.572   3.997  11.610  0.2357 -0.6517 -0.1098
  733TMC3    C110829   1.974   2.608  12.927 -0.2555  0.3900 -0.0104
  733TMC3    C210830   2.017   2.719  13.002  1.0252  0.0278 -0.0865
  733TMC3    C310831   2.031   2.840  12.945  0.0878  0.1864 -0.2846
  733TMC3    C410832   1.943   2.615  12.792 -0.4832 -0.5625  0.2011
  733TMC3    C510833   1.961   2.738  12.738 -0.1302  0.0420 -0.1814
  733TMC3    C610834   1.997   2.850  12.810 -0.3788  0.1249  0.3256
  733TMC3     C10835   1.865   2.537  12.999  0.2208 -0.3498  0.3529
  733TMC3     O10836   1.772   2.484  12.935  1.2260 -0.3424  0.1822
  733TMC3     H10837   2.036   2.707  13.108  1.1140  0.1416 -0.0909
  733TMC3    H110838   1.907   2.532  12.732 -0.7391  1.9126 -3.0552
  733TMC3    H210839   2.014   2.940  12.753 -2.7489  0.4981  0.1926
  733TMC3    C710840   1.995   2.731  12.590  0.0972 -0.5111  0.1861
  733TMC3    C810841   2.123   2.934  13.006 -0.5618 -0.1614  0.0619
  733TMC3    O110842   1.944   2.637  12.526 -0.2335 -0.2225  0.0925
  733TMC3    O210843   2.100   2.965  13.120 -0.3679  0.2370  0.3384
  734MPD2     C10844   3.550   4.469  12.396  0.1093 -0.0264 -0.3179
  734MPD2    C110845   3.570   4.377  12.294 -0.6712  0.4092 -0.0786
  734MPD2    C210846   3.654   4.409  12.198 -0.1658 -0.9151  0.4361
  734MPD2    C310847   3.711   4.531  12.194  1.6530 -0.1055 -0.1503
  734MPD2    C410848   3.687   4.625  12.284 -0.0099 -0.0530 -0.2972
  734MPD2    C510849   3.610   4.594  12.392 -0.3367 -0.3338 -0.1964
  734MPD2     H10850   3.670   4.337  12.120  1.5152 -1.0997  0.9517
  734MPD2    H110851   3.725   0.007  12.279 -0.4173  0.1383  0.5028
  734MPD2    H210852   3.480   4.459  12.477 -1.0808 -0.1260 -1.3607
  734MPD2    H310853   3.594   4.667  12.470 -2.7219 -0.8814 -0.1891
  734MPD2     N10854   3.792   4.558  12.080 -0.6382 -0.0729 -0.2065
  734MPD2    H510855   3.816   4.476  12.026  0.1652 -1.6745  2.5523
  734MPD2    N110856   3.507   4.254  12.298  0.6223  0.1861 -0.1396
  734MPD2    H710857   3.460   4.223  12.382 -1.4739 -1.2369 -1.8288
  735TMC3    C110858   3.443   4.046  12.213 -0.1833 -0.6805  0.0637
  735TMC3    C210859   3.374   4.002  12.094  0.3294  0.2871 -0.1432
  735TMC3    C310860   3.407   3.877  12.055 -0.1939  0.0009  0.3855
  735TMC3    C410861   3.532   3.968  12.285 -0.3675 -0.2267  0.3536
  735TMC3    C510862   3.548   3.836  12.246  0.1833  0.0512 -0.4162
  735TMC3    C610863   3.490   3.793  12.127 -0.2532  0.6442  0.0232
  735TMC3     C10864   3.486   4.177  12.185 -0.7861 -0.3918 -0.5504
  735TMC3     O10865   3.488   4.207  12.067 -0.3027  0.2064 -0.2485
  735TMC3     H10866   3.309   4.067  12.037 -0.8302 -0.4704  0.3069
  735TMC3    H110867   3.605   3.995  12.360  0.8925  1.1886 -1.3865
  735TMC3    H210868   3.527   3.697  12.092  2.0788  1.1576  1.1202
  735TMC3    C710869   3.681   3.786  12.265 -0.6781 -0.3433  0.4838
  735TMC3    C810870   3.455   3.873  11.920 -1.1236 -0.2626 -0.2868
  735TMC3    O110871   3.770   3.867  12.241  0.2382  0.2426 -0.1119
  735TMC3    O210872   3.496   3.765  11.879  0.2067  0.2480  0.2879
  736MPD2     C10873   3.790   3.430  12.249  0.1968  0.1436 -0.2815
  736MPD2    C110874   3.790   3.565  12.223  0.4172  0.9108 -0.3181
  736MPD2    C210875   3.889   3.608  12.132  0.3949 -0.2009 -0.1380
  736MPD2    C310876   3.984   3.523  12.074 -0.2024  0.0932 -0.5715
  736MPD2    C410877   3.980   3.390  12.106  0.3934 -0.0658 -0.2169
  736MPD2    C510878   3.882   3.348  12.194 -0.4099 -0.4335  0.3047
  736MPD2     H10879   3.899   3.713  12.109  0.2482 -0.3781 -1.0301
  736MPD2    H110880   4.049   3.316  12.066 -0.4890 -1.2009  0.3593
  736MPD2    H210881   3.714   3.390  12.314 -1.2480  1.7188 -1.0023
  736MPD2    H310882   3.886   3.241  12.207  0.8111 -0.6381 -1.6351
  736MPD2     N10883   4.078   3.563  11.980 -0.0803  0.5591 -0.0728
  736MPD2    H510884   4.143   3.491  11.951  0.3693  0.8579  0.1737
  736MPD2    N110885   3.684   3.648  12.268  0.1940  0.1990 -0.2306
  736MPD2    H710886   3.606   3.604  12.317  2.0770 -2.8488  0.0216
  737TMC3    C110887   4.226   3.689  11.850  0.0336  0.3406  0.6511
  737TMC3    C210888   4.294   3.812  11.846  0.4591  0.1813 -0.6778
  737TMC3    C310889   4.369   3.836  11.735 -0.3380 -0.4222 -0.6892
  737TMC3    C410890   4.240   3.593  11.756  0.2293  0.3260  0.0594
  737TMC3    C510891   4.326   3.624  11.655  0.1131  0.1722 -0.0326
  737TMC3    C610892   4.391   3.745  11.643  0.8517 -0.0111  0.3454
  737TMC3     C10893   4.109   3.690  11.935 -0.4712  0.1653  0.4539
  737TMC3     O10894   4.077   3.800  11.982 -0.0775  0.1619 -0.2845
  737TMC3     H10895   4.267   3.889  11.917  0.3144 -0.8281  0.3616
  737TMC3    H110896   4.182   3.502  11.749 -1.2257  0.9868  3.4268
  737TMC3    H210897   4.466   3.753  11.565  0.9678  0.8651  0.5442
  737TMC3    C710898   4.328   3.526  11.542  0.3130  0.5165 -0.6067
  737TMC3    C810899   4.420   3.970  11.735 -0.0614  1.1251  0.9079
  737TMC3    O110900   4.271   3.426  11.577  0.6411  0.2577  0.6529
  737TMC3    O210901   4.436   4.014  11.844 -0.7221 -0.7920  0.3791
  738MPD2     C10902   3.637   3.137  15.520 -0.0261  0.7325  0.1446
  738MPD2    C110903   3.697   3.072  15.413 -0.0534 -0.2187  0.3107
  738MPD2    C210904   3.810   3.128  15.349  0.1248  0.5522  0.0008
  738MPD2    C310905   3.857   3.257  15.380 -0.3502 -0.1633  0.8213
  738MPD2    C410906   3.793   3.316  15.491  0.1057 -0.0696  0.8998
  738MPD2    C510907   3.692   3.252  15.563 -0.1551 -0.1463  0.5376
  738MPD2     H10908   3.866   3.068  15.279 -0.3332  1.2826 -0.9909
  738MPD2    H110909   3.838   3.400  15.542  1.6324  0.1363 -0.7820
  738MPD2    H210910   3.563   3.090  15.584 -0.4606  0.8241 -0.2907
  738MPD2    H310911   3.664   3.293  15.659 -1.0681  0.4178  0.0306
  738MPD2     N10912   3.957   3.326  15.310 -0.0424 -0.1182 -0.1934
  738MPD2    H510913   3.990   3.416  15.344  0.8355 -1.3260  2.0873
  738MPD2    N110914   3.654   2.942  15.368  0.1211  0.2138 -0.0347
  738MPD2    H710915   3.703   2.907  15.287 -0.5952 -1.9859  0.4929
  739TMC3    C110916   4.130   3.363  15.145 -0.4441 -0.4251 -0.2291
  739TMC3    C210917   4.210   3.302  15.055  0.0202 -0.4064  0.4305
  739TMC3    C310918   4.282   3.384  14.973  0.3919  0.2866  0.8989
  739TMC3    C410919   4.123   3.500  15.160  1.0150 -0.6003  0.0558
  739TMC3    C510920   4.201   3.575  15.083 -0.2481 -0.4586  0.0103
  739TMC3    C610921   4.276   3.526  14.980 -0.0993  0.2969 -0.1903
  739TMC3     C10922   4.015   3.279  15.193 -0.2215 -0.1815  0.2060
  739TMC3     O10923   3.987   3.179  15.132 -0.2322 -0.6841 -0.2528
  739TMC3     H10924   4.204   3.195  15.039 -2.2308 -0.1599 -0.3357
  739TMC3    H110925   4.044   3.542  15.221  1.3739  0.1977 -0.0142
  739TMC3    H210926   4.339   3.587  14.916  2.7068 -2.0926  0.2536
  739TMC3    C710927   4.244   3.708  15.131 -0.5606 -0.0203 -0.3007
  739TMC3    C810928   4.353   3.323  14.865 -0.5788  0.0569  0.5694
  739TMC3    O110929   4.338   3.760  15.074 -0.6152 -0.4676 -0.2244
  739TMC3    O210930   4.353   3.385  14.760 -0.2733 -0.6526 -0.1955
  740TMC3    C110931   0.147   4.551  14.154 -0.4137 -0.4252  0.5092
  740TMC3    C210932   0.196   4.474  14.260 -0.4779 -0.7701  0.1206
  740TMC3    C310933   0.320   4.420  14.248 -0.4177 -0.3400 -0.4704
  740TMC3    C410934   0.214   4.557  14.033 -0.1624  0.7387  0.0738
  740TMC3    C510935   0.337   4.500  14.028  0.5180 -0.1880  0.1661
  740TMC3    C610936   0.395   4.429  14.132 -0.1967 -0.1992 -0.4170
  740TMC3     C10937   0.009   4.589  14.158 -0.2010  0.3253 -0.2950
  740TMC3     O10938   4.691   4.640  14.057 -0.3758  0.0873 -0.1987
  740TMC3     H10939   0.138   4.459  14.350 -0.3113  0.6239  0.4682
  740TMC3    H110940   0.169   4.592  13.941 -0.6968 -1.4595 -0.5010
  740TMC3    H210941   0.497   4.392  14.129 -0.1029  0.0403 -0.2183
  740TMC3    C710942   0.384   4.463  13.893  0.2856 -0.3914 -0.4050
  740TMC3    C810943   0.369   4.318  14.352  0.4594 -0.6478 -0.4623
  740TMC3    O110944   0.459   4.367  13.894  0.0164  0.4661 -0.3818
  740TMC3    O210945   0.297   4.301  14.449 -0.0237  0.0382 -0.5219
  741TMC3    C110946   4.546   3.591  14.388 -0.5532  0.0331  0.1165
  741TMC3    C210947   4.423   3.545  14.439  0.1480 -0.3780  0.4957
  741TMC3    C310948   4.306   3.615  14.413  0.6917  0.0962  0.2003
  741TMC3    C410949   4.556   3.699  14.299  0.4053 -0.5578  0.8099
  741TMC3    C510950   4.436   3.762  14.275  0.1307 -0.0993 -0.2091
  741TMC3    C610951   4.317   3.724  14.331 -0.2138 -1.0328  0.5694
  741TMC3     C10952   4.639   3.487  14.376 -0.5201 -0.4312 -0.3730
  741TMC3     O10953   4.694   3.434  14.471 -0.5053  0.0180  0.3010
  741TMC3     H10954   4.430   3.452  14.494 -0.5005 -0.1391  0.9731
  741TMC3    H110955   4.653   3.724  14.257 -0.0308 -0.1915  0.0368
  741TMC3    H210956   4.229   3.775  14.293 -0.4629 -1.2629  0.8427
  741TMC3    C710957   4.434   3.888  14.211  0.1523 -0.3275  0.0363
  741TMC3    C810958   4.185   3.542  14.414 -0.2821  0.4634 -0.4468
  741TMC3    O110959   4.507   3.903  14.113  0.2415 -0.2757 -0.0876
  741TMC3    O210960   4.109   3.559  14.320 -0.1393  0.8801  0.0963
  742TMC3    C110961   3.961   2.153  15.173 -0.4989  0.2819 -0.0943
  742TMC3    C210962   3.860   2.142  15.085  0.4800  0.2760 -0.0746
  742TMC3    C310963   3.872   2.055  14.982  0.6502 -0.0240  0.1832
  742TMC3    C410964   4.075   2.079  15.177  0.1387  0.8215  0.4117
  742TMC3    C510965   4.077   1.987  15.078  0.5112  0.2035 -0.0867
  742TMC3    C610966   3.989   1.979  14.978  0.2168  0.1712 -0.0877
  742TMC3     C10967   3.930   2.249  15.272  0.7052  0.5739  0.8561
  742TMC3     O10968   3.868   2.341  15.226 -0.3952 -0.1335 -0.2782
  742TMC3     H10969   3.766   2.190  15.108  0.4636  0.2782 -0.1463
  742TMC3    H110970   4.157   2.096  15.246  1.3677 -1.8538 -0.4266
  742TMC3    H210971   4.001   1.903  14.903  2.3414 -0.2884  0.7180
  742TMC3    C710972   4.196   1.893  15.075 -0.1585  0.4274  0.1681
  742TMC3    C810973   3.826   2.098  14.855  0.3852  0.1291  0.6796
  742TMC3    O110974   4.206   1.833  14.974 -0.6884 -0.3164 -0.6455
  742TMC3    O210975   3.883   2.052  14.758  0.0291  0.4594 -0.1044
  743MPD2     C10976   1.524   3.745   1.676  0.0797 -0.2973  0.5180
  743MPD2    C110977   1.519   3.664   1.570  0.3506  0.2164  0.2487
  743MPD2    C210978   1.600   3.552   1.570 -0.1481 -0.0519  0.6930
  743MPD2    C310979   1.683   3.522   1.678  0.1247 -0.1299  0.2375
  743MPD2    C410980   1.687   3.612   1.785 -0.3033 -0.3784 -0.2657
  743MPD2    C510981   1.611   3.723   1.774 -0.3742 -1.5391 -0.0483
  743MPD2     H10982   1.610   3.491   1.481  0.1681 -0.1875  0.8251
  743MPD2    H110983   1.749   3.595   1.873  1.5773  1.2630 -1.2650
  743MPD2    H210984   1.467   3.837   1.676  0.8728  0.1923 -1.7414
  743MPD2    H310985   1.626   3.804   1.845  0.0648 -0.7407 -1.0541
  743MPD2     N10986   1.762   3.405   1.669  0.2308 -0.2043  0.0831
  743MPD2    H510987   1.754   3.351   1.583 -2.7688 -1.4347  1.1474
  743MPD2    N110988   1.424   3.686   1.474 -0.1879 -0.0576 -0.2342
  743MPD2    H710989   1.387   3.780   1.479  2.9222  1.2051 -1.0237
  744TMC3    C110990   1.307   3.652   1.268 -0.0271 -0.5780  0.3048
  744TMC3    C210991   1.223   3.757   1.303 -0.0742  0.9167 -0.3829
  744TMC3    C310992   1.138   3.807   1.205  0.1669  0.0536 -0.0892
  744TMC3    C410993   1.307   3.591   1.145  0.1402 -0.7036 -0.0145
  744TMC3    C510994   1.217   3.647   1.058  0.3562 -0.3164 -0.4235
  744TMC3    C610995   1.135   3.751   1.081 -0.0589  0.2981  0.4525
  744TMC3     C10996   1.394   3.598   1.372  0.3874  0.6187 -0.1340
  744TMC3     O10997   1.425   3.481   1.347  0.2028 -0.1553  0.0602
  744TMC3     H10998   1.211   3.797   1.404  1.3139  0.2703  0.0366
  744TMC3    H110999   1.381   3.517   1.118 -1.0531 -2.6585  1.9985
  744TMC3    H211000   1.083   3.791   0.996  0.1218 -1.6094 -0.5625
  744TMC3    C711001   1.197   3.581   0.930  0.0877 -0.0141 -0.2699
  744TMC3    C811002   1.043   3.909   1.245 -0.3540  1.1370  0.1451
  744TMC3    O111003   1.168   3.653   0.840  0.0626 -0.2782  0.7399
  744TMC3    O211004   1.058   3.959   1.357  0.1187  0.1424  0.0157
  745TMC3    C111005   0.549   2.259  13.938  0.4765  1.0246  1.2015
  745TMC3    C211006   0.427   2.243  14.002  0.1751  0.7693 -0.2857
  745TMC3    C311007   0.325   2.183  13.934 -0.4818  0.3267  0.2463
  745TMC3    C411008   0.575   2.212  13.813 -0.4965 -0.2830  0.0546
  745TMC3    C511009   0.475   2.139  13.753 -0.9173  0.1139 -0.0985
  745TMC3    C611010   0.351   2.124  13.811 -0.1488 -0.0509  0.9248
  745TMC3     C11011   0.664   2.311  14.008 -0.4056  0.5292  0.1874
  745TMC3     O11012   0.678   2.272  14.122  0.1184  0.0119  0.4928
  745TMC3     H11013   0.404   2.302  14.090  0.8458 -1.2850  1.2844
  745TMC3    H111014   0.678   2.208  13.782 -0.8138  0.2380 -1.0686
  745TMC3    H211015   0.266   2.066  13.777 -0.1618  0.1633  0.5976
  745TMC3    C711016   0.503   2.034  13.659  0.8856  0.0214 -0.7877
  745TMC3    C811017   0.183   2.202  13.968  0.7641 -0.2733 -0.4273
  745TMC3    O111018   0.430   1.937  13.660 -0.6120 -0.2016  0.5162
  745TMC3    O211019   0.109   2.203  13.873 -0.3178 -0.1405  0.1487
  746TMC3    C111020   2.605   3.881  10.856  0.4473  0.8144  0.3068
  746TMC3    C211021   2.708   3.854  10.772 -0.6427 -0.1070 -0.0977
  746TMC3    C311022   2.713   3.733  10.697  0.1199  0.2295  0.0764
  746TMC3    C411023   2.507   3.781  10.876  0.1511  0.1197 -0.1107
  746TMC3    C511024   2.521   3.660  10.812 -1.4785  0.1422  0.1598
  746TMC3    C611025   2.626   3.632  10.720 -0.7808  0.5477 -0.7116
  746TMC3     C11026   2.613   3.988  10.950 -0.0606  0.1607  0.3003
  746TMC3     O11027   2.533   4.000  11.042 -0.0527 -0.4398 -0.3262
  746TMC3     H11028   2.794   3.920  10.764 -0.9843  0.2945 -0.4079
  746TMC3    H111029   2.420   3.805  10.936  0.3083  0.7088 -0.1168
  746TMC3    H211030   2.645   3.537  10.672  1.2408 -1.0739  3.2629
  746TMC3    C711031   2.412   3.559  10.807 -0.9357  0.5603  0.0868
  746TMC3    C811032   2.833   3.705  10.622  0.1548 -0.1010 -0.2760
  746TMC3    O111033   2.408   3.498  10.701 -0.4468  0.5438  0.0375
  746TMC3    O211034   2.861   3.586  10.606  0.5430 -0.3982 -0.2341
  747TMC3    C111035   0.088   3.702  10.640  0.2446  0.3514 -0.3933
  747TMC3    C211036   0.030   3.599  10.715 -0.6644  0.0040 -0.1166
  747TMC3    C311037   0.082   3.573  10.842 -0.6061  0.6111  0.6161
  747TMC3    C411038   0.163   3.791  10.704 -0.0409 -0.1664  0.3812
  747TMC3    C511039   0.195   3.766  10.828  0.6433 -0.1411  0.2587
  747TMC3    C611040   0.158   3.662  10.909 -1.1980  1.0805 -0.2147
  747TMC3     C11041   0.051   3.716  10.504  0.4805  0.0087  0.3627
  747TMC3     O11042   0.049   3.828  10.454  0.1253  0.2442  0.3878
  747TMC3     H11043   4.674   3.538  10.668 -0.7996 -0.3093  0.5103
  747TMC3    H111044   0.207   3.867  10.640 -0.4649  0.4496  0.8175
  747TMC3    H211045   0.181   3.639  11.012 -1.4297  2.1180  0.0611
  747TMC3    C711046   0.290   3.860  10.897 -0.3807 -0.4346 -0.8255
  747TMC3    C811047   4.710   3.485  10.916 -0.5847  0.3915  0.7749
  747TMC3    O111048   0.325   3.827  11.012  0.6639 -0.9069  0.5687
  747TMC3    O211049   4.669   3.389  10.856  0.1954 -0.7371  0.0608
  748MPD2     C11050   1.649   0.093   2.076 -0.3506 -0.0852 -0.1015
  748MPD2    C111051   1.667   4.690   2.021 -0.2496 -0.2247  0.2597
  748MPD2    C211052   1.726   4.683   1.902  0.5585  0.6805 -0.0378
  748MPD2    C311053   1.769   0.082   1.837 -0.5558 -1.2920 -0.8362
  748MPD2    C411054   1.752   0.213   1.892 -0.5693  0.2884 -0.1138
  748MPD2    C511055   1.690   0.213   2.013 -0.2078  0.2122  0.1496
  748MPD2     H11056   1.745   4.592   1.846 -1.0220  0.8239 -0.8015
  748MPD2    H111057   1.792   0.304   1.850 -1.2146  0.9349  0.6846
  748MPD2    H211058   1.607   0.096   2.176  1.0988  2.7747  0.4110
  748MPD2    H311059   1.671   0.305   2.066 -0.4414  1.0917 -1.4652
  748MPD2     N11060   1.845   0.065   1.716  0.7374 -0.0562 -0.1060
  748MPD2    H511061   1.862   4.688   1.692 -1.9443 -0.3389 -0.8781
  748MPD2    N111062   1.643   4.577   2.104 -0.6666  0.3962 -0.3227
  748MPD2    H711063   1.601   4.592   2.195  0.6336  0.2956  0.2948
  749TMC3    C111064   1.966   0.103   1.517  0.1482 -0.1726  0.4440
  749TMC3    C211065   2.036   4.704   1.536  0.5806 -0.5432 -0.4235
  749TMC3    C311066   2.056   4.618   1.434 -0.8147  0.3781  0.5603
  749TMC3    C411067   1.930   0.135   1.387 -0.2453 -0.3110 -0.7516
  749TMC3    C511068   1.955   0.045   1.287  0.2722 -0.1859  0.4408
  749TMC3    C611069   2.016   4.644   1.309 -0.5220 -0.3595 -0.2013
  749TMC3     C11070   1.894   0.159   1.623  0.1987 -0.4507 -0.8422
  749TMC3     O11071   1.878   0.277   1.625 -0.2358 -0.0100 -0.3861
  749TMC3     H11072   2.051   4.678   1.640  0.3302 -0.3317 -0.3353
  749TMC3    H111073   1.881   0.229   1.367 -0.9579 -0.1759  1.7383
  749TMC3    H211074   2.049   4.578   1.229 -0.0413 -0.8030  0.3666
  749TMC3    C711075   1.904   0.081   1.155 -0.2890  0.4379 -0.0579
  749TMC3    C811076   2.127   4.500   1.473  0.2681  0.2286 -0.3665
  749TMC3    O111077   1.913   0.201   1.127  0.4197  0.2596 -0.0252
  749TMC3    O211078   2.200   4.504   1.573  0.0893 -0.5356 -0.0088
  750MPD2     C11079   3.087   1.271  11.168  0.3860  0.4001  0.1452
  750MPD2    C111080   2.949   1.263  11.171  0.3747 -0.4109  0.0138
  750MPD2    C211081   2.887   1.142  11.142 -0.3379 -0.3267  0.2442
  750MPD2    C311082   2.965   1.030  11.115 -0.2932  1.1002  1.1823
  750MPD2    C411083   3.102   1.037  11.127  0.5545  0.9628 -0.6657
  750MPD2    C511084   3.160   1.155  11.155  0.0216 -0.7507 -0.6657
  750MPD2     H11085   2.779   1.138  11.142 -0.3875  1.1757  0.4585
  750MPD2    H111086   3.166   0.950  11.115 -0.8624 -0.2069  0.3728
  750MPD2    H211087   3.137   1.366  11.187 -0.1515  0.3368  1.8663
  750MPD2    H311088   3.268   1.159  11.161  0.0903 -2.5633 -0.7743
  750MPD2     N11089   2.910   0.905  11.069  0.1622  0.6559 -0.8284
  750MPD2    H511090   2.974   0.830  11.047 -2.1078 -1.8179  0.9989
  750MPD2    N111091   2.876   1.382  11.201 -0.4165 -0.5475  0.0432
  750MPD2    H711092   2.934   1.462  11.226 -0.1367 -0.3459 -1.2543
  751TMC3    C111093   2.753   0.725  11.014  0.1141  0.1233 -0.9261
  751TMC3    C211094   2.635   0.673  11.043 -0.2710  0.2814 -0.0750
  751TMC3    C311095   2.605   0.553  10.984 -0.4878 -0.0582  0.2934
  751TMC3    C411096   2.841   0.667  10.929  0.4781  0.1277 -0.3262
  751TMC3    C511097   2.803   0.554  10.861  0.6807  0.3283 -0.6499
  751TMC3    C611098   2.687   0.488  10.891  0.4068 -0.1766 -0.6433
  751TMC3     C11099   2.777   0.868  11.069  0.0488 -1.0706  0.3327
  751TMC3     O11100   2.687   0.923  11.131  0.1712  0.0766  0.1258
  751TMC3     H11101   2.555   0.719  11.099  0.8510  2.0861  0.0281
  751TMC3    H111102   2.935   0.718  10.910  0.1879  0.3685 -1.1216
  751TMC3    H211103   2.647   0.410  10.827 -1.2140  2.1084 -2.3948
  751TMC3    C711104   2.909   0.469  10.807  0.2487 -0.3238  0.3449
  751TMC3    C811105   2.467   0.509  10.980 -0.9128 -0.4242 -0.1053
  751TMC3    O111106   3.011   0.527  10.764  0.1742 -0.2782 -0.3999
  751TMC3    O211107   2.438   0.461  10.873  0.6294 -0.0724 -0.0375
  752TMC3    C111108   1.234   0.871  16.800 -0.7556 -0.6594 -0.2520
  752TMC3    C211109   1.287   0.789  16.893 -0.2373  0.5822 -0.7920
  752TMC3    C311110   1.332   0.846  17.009  0.5216 -0.0164  0.5283
  752TMC3    C411111   1.216   1.007  16.822 -0.5721  0.5010 -0.7537
  752TMC3    C511112   1.271   1.068  16.928 -0.8190  0.5127 -0.5174
  752TMC3    C611113   1.328   0.985  17.027 -0.2760 -0.0997  0.4250
  752TMC3     C11114   1.192   0.812  16.683 -0.4287  0.3514 -0.1004
  752TMC3     O11115   1.242   0.701  16.653  0.0186 -0.3968 -0.5837
  752TMC3     H11116   1.294   0.680  16.891  0.5076  0.6208 -0.5700
  752TMC3    H111117   1.188   1.075  16.743 -0.2579  1.1820 -0.2787
  752TMC3    H211118   1.371   1.022  17.119 -0.8644 -0.5238  0.8763
  752TMC3    C711119   1.293   1.213  16.926  0.0323  0.3712 -0.7659
  752TMC3    C811120   1.343   0.748  17.119 -1.2611  0.2414  0.2338
  752TMC3    O111121   1.285   1.265  16.819 -0.2647  0.3797  0.1949
  752TMC3    O211122   1.282   0.643  17.107 -0.7030 -0.1398 -0.4693
  753TMC3    C111123   3.245   2.443  13.224  0.0304  0.4073 -0.1785
  753TMC3    C211124   3.334   2.391  13.321 -0.5888  0.2220  0.3052
  753TMC3    C311125   3.399   2.275  13.294  0.0732 -0.4392  0.1430
  753TMC3    C411126   3.231   2.388  13.098 -0.3242  0.2418 -0.3321
  753TMC3    C511127   3.281   2.263  13.084 -0.3115 -0.3224  0.1739
  753TMC3    C611128   3.372   2.208  13.175 -0.1527  0.4495 -1.1207
  753TMC3     C11129   3.199   2.587  13.231 -0.2070  0.0814 -0.4211
  753TMC3     O11130   3.176   2.641  13.126 -0.7840  0.0659  0.3514
  753TMC3     H11131   3.361   2.457  13.403 -2.1212  1.5047 -0.2234
  753TMC3    H111132   3.154   2.428  13.032  0.1346 -0.6161 -1.3756
  753TMC3    H211133   3.402   2.106  13.153  1.2670  0.9700 -1.6273
  753TMC3    C711134   3.222   2.170  12.999  0.1622 -0.0649 -0.1028
  753TMC3    C811135   3.401   2.188  13.410  0.0514  0.0671 -0.8065
  753TMC3    O111136   3.302   2.088  12.949  0.0986 -0.5475  0.2565
  753TMC3    O211137   3.368   2.072  13.389 -0.2288  0.4321  0.3575
  754MPD2     C11138   1.789   0.649  12.780  0.4276  0.0308 -0.4096
  754MPD2    C111139   1.718   0.542  12.815 -0.5105  0.2339 -0.4724
  754MPD2    C211140   1.611   0.555  12.910  0.7340 -0.8798 -0.1750
  754MPD2    C311141   1.588   0.679  12.963 -0.6365  0.1894  0.6545
  754MPD2    C411142   1.659   0.789  12.923 -0.1855 -0.3161  0.3579
  754MPD2    C511143   1.755   0.771  12.824 -0.1437 -0.5051 -0.3760
  754MPD2     H11144   1.558   0.471  12.954 -1.9382 -0.8587 -3.3473
  754MPD2    H111145   1.649   0.890  12.959  0.8793 -0.2153  0.3547
  754MPD2    H211146   1.872   0.634  12.712 -0.7300 -0.4356 -1.7253
  754MPD2    H311147   1.814   0.854  12.787 -0.6912  0.7261  1.4598
  754MPD2     N11148   1.518   0.695  13.084  0.3944  0.7201  0.4921
  754MPD2    H511149   1.539   0.778  13.138  1.6880  0.8256 -0.1789
  754MPD2    N111150   1.762   0.415  12.759 -0.0379 -0.2214  0.6611
  754MPD2    H711151   1.825   0.418  12.680 -1.6658  0.8654 -0.5996
  755MPD2     C11152   1.114   1.382  13.385 -0.0769  0.5930 -0.0454
  755MPD2    C111153   1.153   1.330  13.500 -0.0919  0.3472 -0.5868
  755MPD2    C211154   1.218   1.207  13.499 -0.5433  0.1660  0.8795
  755MPD2    C311155   1.240   1.130  13.386  0.3758 -0.6468  0.7689
  755MPD2    C411156   1.209   1.186  13.269 -0.5251 -0.1955  0.4419
  755MPD2    C511157   1.137   1.305  13.268  0.2401 -0.4673  0.0041
  755MPD2     H11158   1.257   1.171  13.593  1.8362  2.0390  0.5959
  755MPD2    H111159   1.219   1.128  13.178  2.3002  0.9655  0.0374
  755MPD2    H211160   1.069   1.481  13.374  2.7929  1.9496  0.5376
  755MPD2    H311161   1.115   1.355  13.174 -0.6435  1.2792  1.1455
  755MPD2     N11162   1.291   0.997  13.382  0.0678 -0.2242 -0.0706
  755MPD2    H511163   1.283   0.942  13.298 -2.0213 -0.1805  0.1074
  755MPD2    N111164   1.145   1.396  13.623  0.0881  0.2651 -0.1223
  755MPD2    H711165   1.186   1.349  13.704  0.2288 -0.2192 -0.4755
  756MPD2     C11166   2.754   0.368   9.369  0.6117 -0.9448 -0.1473
  756MPD2    C111167   2.661   0.371   9.467  0.3530  0.7284 -0.8192
  756MPD2    C211168   2.582   0.250   9.481  0.5136  0.4161 -0.1974
  756MPD2    C311169   2.597   0.134   9.400 -0.9078  0.1151 -0.1237
  756MPD2    C411170   2.699   0.149   9.306 -0.2702 -0.9372 -0.9149
  756MPD2    C511171   2.782   0.257   9.298 -1.0695  0.1145 -0.6167
  756MPD2     H11172   2.511   0.253   9.562  1.7765  0.9655  0.8935
  756MPD2    H111173   2.719   0.074   9.231 -0.4239 -0.8598 -1.0328
  756MPD2    H211174   2.813   0.457   9.346 -1.7027  1.1591  2.0222
  756MPD2    H311175   2.854   0.261   9.218 -0.5107  2.4680  0.0204
  756MPD2     N11176   2.523   0.012   9.424 -0.0956 -0.3179  0.2219
  756MPD2    H511177   2.465   0.020   9.507  0.8317 -0.0618  0.8396
  756MPD2    N111178   2.638   0.475   9.558 -0.0254 -0.2351  0.4288
  756MPD2    H711179   2.565   0.472   9.629 -1.4199 -2.5671 -1.1015
  757MPD2     C11180   2.583   3.632   9.420  0.2939  0.1091 -0.3103
  757MPD2    C111181   2.459   3.659   9.365  0.3750 -0.1838  0.6344
  757MPD2    C211182   2.422   3.790   9.366 -0.4456 -0.0282 -0.5029
  757MPD2    C311183   2.499   3.894   9.405 -0.6260  0.0166  0.7260
  757MPD2    C411184   2.626   3.865   9.453 -0.9440  0.9645 -0.4347
  757MPD2    C511185   2.666   3.735   9.461 -0.2932  0.1580  0.1382
  757MPD2     H11186   2.323   3.810   9.327 -0.9219 -3.0690 -0.8815
  757MPD2    H111187   2.693   3.943   9.489  0.6930 -1.6903  2.3251
  757MPD2    H211188   2.617   3.530   9.432  0.4665  0.2305  0.2360
  757MPD2    H311189   2.764   3.705   9.494 -0.1968 -1.5116 -1.6431
  757MPD2     N11190   2.447   4.026   9.401 -0.5848 -0.2819  0.2466
  757MPD2    H511191   2.347   4.037   9.401 -0.7213 -1.5005  1.3648
  757MPD2    N111192   2.385   3.551   9.311  0.9634 -0.2729  0.2295
  757MPD2    H711193   2.420   3.457   9.323  1.1907  0.0463  2.0903
  758MPD2     C11194   1.800   0.265  15.844 -0.1769  0.2792  0.2498
  758MPD2    C111195   1.808   0.159  15.933 -0.0503  0.1447 -0.4559
  758MPD2    C211196   1.715   0.161  16.042 -0.0515 -0.1621 -0.9933
  758MPD2    C311197   1.619   0.259  16.057  0.0210  0.2123  0.2257
  758MPD2    C411198   1.620   0.366  15.973 -0.2910 -0.5003  0.3463
  758MPD2    C511199   1.709   0.366  15.861 -0.0368  0.3610  0.0561
  758MPD2     H11200   1.713   0.080  16.114  0.6731 -0.6944 -1.5710
  758MPD2    H111201   1.551   0.449  15.986 -0.0853 -0.5143  1.4807
  758MPD2    H211202   1.867   0.271  15.759  0.6250 -0.4809  0.8215
  758MPD2    H311203   1.709   0.444  15.785  0.8214  0.4317  0.1309
  758MPD2     N11204   1.549   0.246  16.178  0.3058  0.5105  0.2639
  758MPD2    H511205   1.576   0.172  16.242 -0.6669  1.3140  1.5999
  758MPD2    N111206   1.891   0.050  15.907  0.4894 -0.2887 -0.4385
  758MPD2    H711207   1.954   0.063  15.828  0.3449 -1.6433 -0.7810
  759MPD2     C11208   1.553   2.857   8.601 -0.4828  0.1920 -0.0027
  759MPD2    C111209   1.452   2.792   8.672  0.2939 -0.0648 -0.2167
  759MPD2    C211210   1.458   2.654   8.690 -0.6679  1.0602  0.0707
  759MPD2    C311211   1.568   2.580   8.659 -0.3336  0.0661 -0.4488
  759MPD2    C411212   1.667   2.649   8.594 -0.1125 -0.4464  0.2481
  759MPD2    C511213   1.658   2.782   8.571 -0.4365  0.3298 -0.1780
  759MPD2     H11214   1.382   2.612   8.755 -0.1932  1.1128  0.6597
  759MPD2    H111215   1.761   2.604   8.566 -1.5585 -1.3179 -3.1909
  759MPD2    H211216   1.544   2.962   8.575  0.2227  0.1913 -0.2545
  759MPD2    H311217   1.730   2.834   8.508 -1.1838 -1.2575 -2.3769
  759MPD2     N11218   1.569   2.438   8.687  0.0950 -0.0490 -0.6655
  759MPD2    H511219   1.483   2.393   8.718  0.7864 -0.3687  0.8276
  759MPD2    N111220   1.330   2.853   8.722 -0.1033 -0.4170 -0.2475
  759MPD2    H711221   1.262   2.800   8.776 -1.2575 -0.4236 -1.7184
  760MPD2     C11222   0.874   0.721  11.767  0.2407 -0.2481 -0.0560
  760MPD2    C111223   0.929   0.832  11.842  0.5496  0.1268 -1.0316
  760MPD2    C211224   0.982   0.814  11.965 -0.6212 -0.4433  0.3471
  760MPD2    C311225   0.972   0.689  12.028 -0.4603  0.9204  0.3268
  760MPD2    C411226   0.920   0.586  11.954  0.3832  0.5824 -0.4856
  760MPD2    C511227   0.866   0.606  11.829  0.7358  0.0203  0.1687
  760MPD2     H11228   1.018   0.905  12.012 -0.8688 -0.2064  0.0734
  760MPD2    H111229   0.935   0.485  11.992  0.3804  0.1298 -1.6810
  760MPD2    H211230   0.846   0.721  11.662  2.2683  0.0351 -0.6007
  760MPD2    H311231   0.828   0.516  11.783 -0.8261  0.8635 -0.1969
  760MPD2     N11232   1.031   0.667  12.154 -0.0732 -0.9912  0.3008
  760MPD2    H511233   1.011   0.577  12.197 -0.7689 -1.0684 -0.1782
  760MPD2    N111234   0.949   0.964  11.780  0.0052  0.1863 -0.2813
  760MPD2    H711235   0.978   1.046  11.832  2.5784 -0.6149 -0.4628
  761MPD2     C11236   2.198   0.144  11.194 -0.7782  0.2188  0.2407
  761MPD2    C111237   2.278   0.153  11.084  0.3058 -0.0583 -0.0724
  761MPD2    C211238   2.343   0.271  11.053  0.0436  0.1632  0.3666
  761MPD2    C311239   2.320   0.379  11.127  0.4499 -0.7086 -0.3251
  761MPD2    C411240   2.238   0.369  11.236 -0.1351  0.3939 -0.4033
  761MPD2    C511241   2.172   0.253  11.266  0.1944 -0.9380 -0.7370
  761MPD2     H11242   2.413   0.264  10.970 -0.3023 -0.4692  0.1269
  761MPD2    H111243   2.219   0.444  11.312 -4.1649 -0.2445 -0.8026
  761MPD2    H211244   2.147   0.056  11.229  2.1974 -1.7514 -0.4324
  761MPD2    H311245   2.100   0.242  11.346 -1.2436 -0.3184 -1.9443
  761MPD2     N11246   2.401   0.495  11.102  0.1147 -0.3051  0.6676
  761MPD2    H511247   2.411   0.566  11.174  0.4890 -1.7349  2.0215
  761MPD2    N111248   2.305   0.021  11.030 -0.0232 -0.2046  0.0199
  761MPD2    H711249   2.265   4.660  11.077 -3.8746  1.9319  0.4352
  762MPD2     C11250   2.738   0.046  10.497  0.3089 -0.1024  0.0890
  762MPD2    C111251   2.744   4.632  10.516  0.3447 -0.2828  0.4042
  762MPD2    C211252   2.850   4.563  10.462 -0.7384 -0.1937  0.6835
  762MPD2    C311253   2.951   4.629  10.388  0.2044  0.4353 -0.0128
  762MPD2    C411254   2.933   0.039  10.364  0.4698  0.0431  0.1703
  762MPD2    C511255   2.833   0.112  10.425  0.0196  0.3669  0.1352
  762MPD2     H11256   2.848   4.455  10.470 -1.8831 -0.2498 -0.4461
  762MPD2    H111257   3.009   0.092  10.307  0.8166 -0.7290 -0.0902
  762MPD2    H211258   2.662   0.109  10.542 -0.1944 -1.3324  0.9600
  762MPD2    H311259   2.819   0.219  10.416  0.3310  0.4540  0.6812
  762MPD2     N11260   3.061   4.555  10.344 -0.4272  0.1041 -0.5976
  762MPD2    H511261   3.060   4.461  10.382 -0.4092  0.6242  0.6657
  762MPD2    N111262   2.645   4.585  10.601 -0.1576 -0.0956 -0.0699
  762MPD2    H711263   2.575   4.655  10.624  0.2130  0.1449  0.3229
  763MPD2     C11264   3.404   0.535  16.041 -0.7542 -0.1111 -0.0473
  763MPD2    C111265   3.470   0.604  15.939 -0.6608 -0.2859  0.4462
  763MPD2    C211266   3.504   0.742  15.953  0.0691  0.1943 -0.3588
  763MPD2    C311267   3.463   0.809  16.066  0.7687 -0.0502 -0.9285
  763MPD2    C411268   3.398   0.736  16.163 -0.0128 -0.5718  0.0196
  763MPD2    C511269   3.352   0.611  16.140 -0.5843 -0.2854 -0.2076
  763MPD2     H11270   3.547   0.792  15.867  0.7662 -1.1200 -0.7764
  763MPD2    H111271   3.348   0.787  16.245 -0.9453 -1.7114  0.1645
  763MPD2    H211272   3.372   0.432  16.028  2.1383 -0.8458 -1.5303
  763MPD2    H311273   3.305   0.549  16.215  2.3612 -2.2188  0.0484
  763MPD2     N11274   3.488   0.946  16.097  0.3067 -0.0860 -0.6053
  763MPD2    H511275   3.430   0.982  16.173 -2.5031 -0.8574 -2.3745
  763MPD2    N111276   3.508   0.539  15.816 -0.0815  0.5008 -0.6346
  763MPD2    H711277   3.541   0.601  15.742 -1.4316  0.3607 -1.3516
  764MPD2     C11278   1.586   2.282  17.583  1.0888 -0.3165 -0.4041
  764MPD2    C111279   1.595   2.168  17.510 -0.2560 -0.2198  1.0507
  764MPD2    C211280   1.558   2.050  17.571 -0.1492 -0.4089  0.5442
  764MPD2    C311281   1.497   2.048   0.017 -0.6151 -0.6064 -0.6612
  764MPD2    C411282   1.485   2.170   0.086  0.1620  0.4189 -0.5199
  764MPD2    C511283   1.532   2.288   0.026  0.2709  0.2359 -0.3285
  764MPD2     H11284   1.563   1.955  17.519 -2.4998  0.2021 -0.7800
  764MPD2    H111285   1.431   2.176   0.181 -2.1131  0.5668 -1.8183
  764MPD2    H211286   1.624   2.372  17.536 -0.4242 -0.1539 -1.3068
  764MPD2    H311287   1.518   2.379   0.085  1.3013 -1.4392  2.4878
  764MPD2     N11288   1.470   1.914   0.071  0.4803 -0.1363 -0.1139
  764MPD2    H511289   1.498   1.837   0.012  1.8988 -0.8583  1.4903
  764MPD2    N111290   1.638   2.156  17.377  0.2198 -0.0975 -0.1354
  764MPD2    H711291   1.648   2.061  17.341 -3.3719 -1.1878  1.7704
  765MPD2     C11292   1.394   4.209  16.119 -0.3038  0.8120 -0.3951
  765MPD2    C111293   1.417   4.322  16.043 -0.2584 -0.1901  0.5533
  765MPD2    C211294   1.499   4.315  15.926  0.0875  0.8057  0.2563
  765MPD2    C311295   1.563   4.194  15.891  0.0004  0.2933  0.5868
  765MPD2    C411296   1.529   4.083  15.965 -0.5524  0.4206 -0.1488
  765MPD2    C511297   1.445   4.093  16.069 -0.8750  0.5755 -0.6380
  765MPD2     H11298   1.522   4.401  15.865 -1.8050  2.2342  1.5749
  765MPD2    H111299   1.573   3.985  15.945 -1.8080 -0.4073  1.2298
  765MPD2    H211300   1.331   4.215  16.207 -0.2705  0.6131 -0.3574
  765MPD2    H311301   1.429   4.002  16.125  1.2783  1.4260  1.3497
  765MPD2     N11302   1.660   4.183  15.780 -0.8719  0.2156 -0.5042
  765MPD2    H511303   1.659   4.259  15.712 -1.9686  0.8785  0.2708
  765MPD2    N111304   1.350   4.440  16.071  0.5794  0.0081  0.6289
  765MPD2    H711305   1.261   4.427  16.117 -0.4846 -1.2255 -1.8091
  766MPD2     C11306   0.765   4.536  15.633 -0.3510 -0.3377 -0.4515
  766MPD2    C111307   0.898   4.521  15.647  0.5820 -0.3789 -0.1362
  766MPD2    C211308   0.971   4.447  15.558 -0.0585 -0.5211 -0.1485
  766MPD2    C311309   0.915   4.399  15.441 -0.0315  0.0155  0.2152
  766MPD2    C411310   0.777   4.412  15.423 -0.3226  0.2706 -0.4787
  766MPD2    C511311   0.707   4.477  15.523  0.0064  0.1317  0.4581
  766MPD2     H11312   1.078   4.452  15.569 -0.6961  0.8636  5.5467
  766MPD2    H111313   0.725   4.388  15.331  0.0880  1.7354 -1.0856
  766MPD2    H211314   0.710   4.593  15.706  1.3762 -1.2657  1.5541
  766MPD2    H311315   0.600   4.492  15.524 -0.1385 -0.8007 -1.3907
  766MPD2     N11316   0.982   4.352  15.325  0.5425  0.4865 -0.0948
  766MPD2    H511317   0.927   4.343  15.241  0.7700 -0.1593 -0.1686
  766MPD2    N111318   0.977   4.565  15.752 -0.5530  0.4409 -0.3721
  766MPD2    H711319   1.075   4.541  15.742 -0.2063  2.4217 -1.7164
  767MPD2     C11320   0.576   4.624  15.185 -0.6490  1.1394 -0.1831
  767MPD2    C111321   0.703   4.635  15.148 -0.5444 -0.4511 -0.4924
  767MPD2    C211322   0.740   4.590  15.020  0.2291  0.2662 -0.2672
  767MPD2    C311323   0.657   4.531  14.933 -0.7528 -0.3736 -0.5193
  767MPD2    C411324   0.523   4.523  14.975  0.0053  0.1495 -0.5357
  767MPD2    C511325   0.481   4.568  15.099 -0.5632  0.1608  0.4673
  767MPD2     H11326   0.845   4.590  14.991 -0.3651 -1.2319 -2.4057
  767MPD2    H111327   0.456   4.474  14.906  1.8006 -3.3152  0.1611
  767MPD2    H211328   0.535   4.660  15.278  0.4292  0.9039  0.3781
  767MPD2    H311329   0.380   4.577  15.137  0.3660  0.5911  2.7665
  767MPD2     N11330   0.710   4.479  14.812  0.2750 -0.3857  0.2262
  767MPD2    H511331   0.811   4.470  14.810  0.4695  1.0697  3.1214
  767MPD2    N111332   0.791   4.690  15.242 -0.6135 -0.2304 -0.2186
  767MPD2    H711333   0.753   0.006  15.329 -1.5290  0.3253 -0.8473
  768MPD2     C11334   1.376   3.297  11.029  0.2544  1.1415 -0.3351
  768MPD2    C111335   1.507   3.256  11.011 -0.7186  0.4293 -0.4916
  768MPD2    C211336   1.583   3.239  11.121 -0.0259  0.5389  0.1997
  768MPD2    C311337   1.529   3.254  11.250  0.4031 -0.1983 -0.0386
  768MPD2    C411338   1.398   3.287  11.269  0.4305 -0.5740 -0.6205
  768MPD2    C511339   1.323   3.305  11.161  0.3096 -0.0821  0.1873
  768MPD2     H11340   1.690   3.226  11.112 -0.3249 -1.6036 -0.3413
  768MPD2    H111341   1.347   3.299  11.364  0.0295  1.3296 -1.0877
  768MPD2    H211342   1.304   3.318  10.951 -4.0039 -2.2417  2.6808
  768MPD2    H311343   1.216   3.320  11.175  0.4342 -0.8465  1.9913
  768MPD2     N11344   1.616   3.229  11.361 -0.8861 -0.0220  0.5466
  768MPD2    H511345   1.585   3.268  11.450 -2.2643  0.9148 -0.3434
  768MPD2    N111346   1.564   3.226  10.882 -0.0412  0.1603 -0.0813
  768MPD2    H711347   1.660   3.196  10.868 -0.5988 -1.7580  0.2223
  769MPD2     C11348   2.654   1.250  14.522  0.2426 -0.3565 -0.3732
  769MPD2    C111349   2.559   1.220  14.614 -0.2865 -0.1116  0.1182
  769MPD2    C211350   2.589   1.231  14.753 -0.2625 -0.3368  0.1667
  769MPD2    C311351   2.716   1.256  14.801  0.0609  0.3069  0.0004
  769MPD2    C411352   2.815   1.271  14.708  0.0073  0.5120  0.4677
  769MPD2    C511353   2.781   1.256  14.570 -0.0439  0.1171  0.2490
  769MPD2     H11354   2.519   1.196  14.828  0.3947 -0.0376  0.9325
  769MPD2    H111355   2.920   1.287  14.727  0.8763 -1.7064 -2.4035
  769MPD2    H211356   2.644   1.253  14.414 -0.4539 -0.0302 -0.3019
  769MPD2    H311357   2.859   1.274  14.496 -0.9306  0.2545 -0.6543
  769MPD2     N11358   2.728   1.261  14.940 -0.6281  0.1594 -0.0630
  769MPD2    H511359   2.640   1.246  14.988 -1.3462  1.9216 -0.8139
  769MPD2    N111360   2.424   1.196  14.565  0.1501 -0.5625  0.3770
  769MPD2    H711361   2.409   1.220  14.467 -0.3485  0.1822  0.6302
  770MPD2     C11362   1.802   0.773  15.097 -0.3474  0.0269 -0.2754
  770MPD2    C111363   1.923   0.740  15.037  0.5896 -0.1624 -0.4985
  770MPD2    C211364   1.978   0.828  14.945 -0.1621 -0.3403 -0.1209
  770MPD2    C311365   1.909   0.943  14.919 -0.0177  0.1174  1.4344
  770MPD2    C411366   1.791   0.976  14.983 -0.8765 -0.0013  0.2988
  770MPD2    C511367   1.743   0.892  15.072  0.7210 -0.4435 -0.1672
  770MPD2     H11368   2.067   0.805  14.888 -0.0348 -1.2418  0.4364
  770MPD2    H111369   1.728   1.062  14.963 -1.1730 -0.2466  0.1984
  770MPD2    H211370   1.749   0.703  15.162 -0.2457 -1.3075 -1.6136
  770MPD2    H311371   1.641   0.910  15.103  1.0980  1.2485  0.0557
  770MPD2     N11372   1.953   1.040  14.820  0.4217  0.3313 -0.0707
  770MPD2    H511373   2.044   1.021  14.779  0.8044 -2.7981  2.2038
  770MPD2    N111374   1.984   0.618  15.065  0.4779 -0.0121 -0.1350
  770MPD2    H711375   1.932   0.556  15.127 -2.3307 -0.9810 -3.4757
  771MPD2     C11376   3.526   4.241  14.115  0.2294  0.4484  0.1547
  771MPD2    C111377   3.595   4.261  13.996  1.1556  0.2583  0.3780
  771MPD2    C211378   3.647   4.154  13.926  0.0484  0.3810  0.0113
  771MPD2    C311379   3.632   4.028  13.977 -1.0932 -0.0179  0.2852
  771MPD2    C411380   3.561   4.003  14.094  0.1575 -0.1898 -0.1582
  771MPD2    C511381   3.511   4.116  14.159 -0.3753 -0.0162 -0.9246
  771MPD2     H11382   3.699   4.177  13.834 -0.6007  1.1191 -0.1723
  771MPD2    H111383   3.549   3.904  14.135 -1.0969 -0.2437 -0.6534
  771MPD2    H211384   3.481   4.325  14.165 -0.3262  0.3793 -0.2369
  771MPD2    H311385   3.466   4.096  14.255  0.4290 -1.5828 -0.8758
  771MPD2     N11386   3.693   3.931  13.898 -0.2139 -0.0614 -0.0219
  771MPD2    H511387   3.742   3.960  13.815 -1.0615 -1.0262 -0.8545
  771MPD2    N111388   3.615   4.392  13.942  0.3288  0.2163  0.2708
  771MPD2    H711389   3.672   4.389  13.858  0.5601 -0.5561  0.4580
  772MPD2     C11390   3.106   0.342  13.766 -0.0454 -0.1123  0.0823
  772MPD2    C111391   3.110   0.204  13.791 -0.1962  0.4599 -0.2192
  772MPD2    C211392   2.988   0.143  13.807  0.1559  0.5395 -0.2317
  772MPD2    C311393   2.868   0.210  13.793 -0.1292 -0.0658  0.1839
  772MPD2    C411394   2.869   0.346  13.746  0.6712 -0.4998  0.1353
  772MPD2    C511395   2.990   0.411  13.741 -0.3913  0.9422  0.3081
  772MPD2     H11396   2.997   0.039  13.838 -0.2129  0.3045 -0.9094
  772MPD2    H111397   2.783   0.410  13.736 -0.5414 -2.0813  0.5594
  772MPD2    H211398   3.189   0.410  13.780  0.2128  0.0083 -2.0820
  772MPD2    H311399   2.987   0.519  13.733  1.8353  0.9854  0.1533
  772MPD2     N11400   2.750   0.148  13.803  0.0674  0.1266  0.4908
  772MPD2    H511401   2.667   0.206  13.787 -0.6183 -1.4619 -1.7711
  772MPD2    N111402   3.230   0.135  13.813 -0.2214 -0.8892 -0.6768
  772MPD2    H711403   3.223   0.039  13.843  1.3944 -0.9353 -0.4537
  773MPD2     C11404   2.345   0.711   0.522 -0.1570  0.3145  0.3147
  773MPD2    C111405   2.298   0.618   0.428  0.0595 -0.1904 -0.1598
  773MPD2    C211406   2.365   0.499   0.411  0.5957  0.1717  0.2724
  773MPD2    C311407   2.465   0.467   0.503  0.1836  0.9321 -0.0299
  773MPD2    C411408   2.505   0.551   0.603  0.2188 -0.0230 -0.3096
  773MPD2    C511409   2.441   0.677   0.614  0.5230 -0.2008 -0.6081
  773MPD2     H11410   2.336   0.427   0.335 -1.7876 -1.2882  2.5576
  773MPD2    H111411   2.585   0.523   0.670 -2.0432 -1.0760  1.9287
  773MPD2    H211412   2.294   0.806   0.533  1.0698  1.1827 -1.5295
  773MPD2    H311413   2.477   0.746   0.690  2.3207 -0.3311 -1.3278
  773MPD2     N11414   2.525   0.338   0.484  0.3192  0.2164  0.2174
  773MPD2    H511415   2.481   0.280   0.413  1.0324 -0.3722  0.2469
  773MPD2    N111416   2.194   0.647   0.332 -0.1795  0.3043 -0.3244
  773MPD2    H711417   2.153   0.566   0.287  0.3133 -0.6866  1.0343
  774MPD2     C11418   1.140   4.483  13.410  0.5776  0.9999  0.4686
  774MPD2    C111419   1.197   4.593  13.474 -0.1496  0.6640 -0.2041
  774MPD2    C211420   1.263   4.693  13.403  0.1842  0.4145 -0.1690
  774MPD2    C311421   1.287   4.679  13.267 -0.0848  0.3446  0.2344
  774MPD2    C411422   1.229   4.573  13.202 -0.5736 -0.2921  0.3413
  774MPD2    C511423   1.151   4.483  13.272 -0.0064  0.0965  0.1346
  774MPD2     H11424   1.302   0.062  13.450  1.6496  0.3289 -1.1825
  774MPD2    H111425   1.237   4.562  13.095 -1.3523 -1.0621  0.3596
  774MPD2    H211426   1.086   4.398  13.449 -0.0787  0.8083 -0.8874
  774MPD2    H311427   1.109   4.397  13.221  1.8753  0.0205 -1.2991
  774MPD2     N11428   1.379   0.056  13.210 -0.4913 -0.3812 -0.1400
  774MPD2    H511429   1.417   0.123  13.276 -3.5556  1.2050  0.0524
  774MPD2    N111430   1.196   4.585  13.618 -0.2472  0.2038  0.0223
  774MPD2    H711431   1.152   4.503  13.658  3.0388 -1.8549 -0.5899
  775MPD2     C11432   2.830   0.941  15.566  0.3264 -0.3229  0.0221
  775MPD2    C111433   2.835   1.076  15.605  0.8387  0.4242 -0.2097
  775MPD2    C211434   2.927   1.164  15.552  0.1027 -0.0780 -0.5859
  775MPD2    C311435   3.023   1.116  15.460 -0.1554  0.4484 -0.8111
  775MPD2    C411436   3.016   0.988  15.415 -0.2186 -0.1038  0.5142
  775MPD2    C511437   2.917   0.903  15.467  0.3008 -0.2548  0.0997
  775MPD2     H11438   2.934   1.268  15.584 -0.0109 -0.7827  1.7345
  775MPD2    H111439   3.069   0.948  15.330 -0.3011  0.9738 -0.0463
  775MPD2    H211440   2.755   0.865  15.585  0.8344 -1.3672 -2.1903
  775MPD2    H311441   2.909   0.803  15.425  2.5282 -0.4334  0.1212
  775MPD2     N11442   3.121   1.197  15.408 -0.3824 -0.3468  0.2279
  775MPD2    H511443   3.173   1.150  15.335  0.3227 -1.6745  1.5992
  775MPD2    N111444   2.753   1.109  15.714  0.2036  0.5345 -0.5700
  775MPD2    H711445   2.700   1.029  15.748  2.9208  0.1494  2.7325
  776MPD2     C11446   2.337   1.944  10.874  0.4365 -0.8168  0.6320
  776MPD2    C111447   2.432   1.941  10.970 -0.6715  0.8298  0.0474
  776MPD2    C211448   2.500   2.056  10.989  0.2418 -0.0275  0.3144
  776MPD2    C311449   2.464   2.176  10.919 -0.5112 -0.0421 -0.2134
  776MPD2    C411450   2.359   2.176  10.835 -0.0840 -0.6318 -0.4429
  776MPD2    C511451   2.296   2.058  10.811  0.3755 -0.6638  0.2519
  776MPD2     H11452   2.581   2.057  11.062  2.1295 -2.7345 -1.7593
  776MPD2    H111453   2.322   2.272  10.801  0.9925  0.8637  2.6781
  776MPD2    H211454   2.286   1.854  10.842 -1.0448  0.0962  0.4293
  776MPD2    H311455   2.215   2.056  10.739  0.5935  1.6633 -0.0836
  776MPD2     N11456   2.550   2.285  10.910 -0.3381 -0.4144 -0.1650
  776MPD2    H511457   2.531   2.357  10.840 -1.7646 -0.1115  0.5218
  776MPD2    N111458   2.461   1.820  11.031 -0.3478 -0.1818 -0.0863
  776MPD2    H711459   2.395   1.743  11.023 -0.4149 -0.2707  1.2084
  777MPD2     C11460   1.904   3.926   0.556  0.7561 -0.1195  0.3037
  777MPD2    C111461   1.861   3.810   0.603  0.1248  0.3198  0.0746
  777MPD2    C211462   1.761   3.743   0.530  0.2597  0.8688 -0.1923
  777MPD2    C311463   1.719   3.787   0.410 -0.3686  0.8927 -0.4837
  777MPD2    C411464   1.771   3.901   0.352  0.8849 -0.2760 -0.2321
  777MPD2    C511465   1.868   3.968   0.428 -0.2462  1.0346  0.5059
  777MPD2     H11466   1.715   3.653   0.571  3.4661 -0.7807 -0.2486
  777MPD2    H111467   1.756   3.933   0.250  0.2927 -0.6919 -0.2750
  777MPD2    H211468   1.967   3.994   0.613 -0.0531  0.4648  0.4989
  777MPD2    H311469   1.915   4.052   0.379  2.3989 -0.9127 -0.3330
  777MPD2     N11470   1.626   3.706   0.337 -1.0033 -0.5678  0.6046
  777MPD2    H511471   1.599   3.627   0.396  1.9867 -0.9823  1.3788
  777MPD2    N111472   1.881   3.784   0.732  0.3146  0.6131  0.6376
  777MPD2    H711473   1.926   3.857   0.786 -2.3014  0.4068  3.1210
  778MPD2     C11474   3.420   3.849  15.167  0.3377  0.2973 -0.5391
  778MPD2    C111475   3.421   3.779  15.050  0.1328 -0.1209 -0.7940
  778MPD2    C211476   3.515   3.813  14.955 -0.3771 -0.2912 -0.0827
  778MPD2    C311477   3.581   3.934  14.964 -0.1553 -0.1401  0.2956
  778MPD2    C411478   3.582   4.002  15.081  0.5062  0.0108  0.2120
  778MPD2    C511479   3.505   3.957  15.189  0.0623 -0.0554 -0.0434
  778MPD2     H11480   3.529   3.759  14.862  0.1873  1.4811 -1.0181
  778MPD2    H111481   3.640   4.091  15.104  0.8691 -0.5734  1.5163
  778MPD2    H211482   3.346   3.833  15.244 -0.8000  2.0468 -1.2689
  778MPD2    H311483   3.502   4.008  15.284 -0.8307 -1.1733  0.5352
  778MPD2     N11484   3.666   3.977  14.857  0.1373 -0.3864  0.0650
  778MPD2    H511485   3.656   3.930  14.768 -0.4957 -0.1711  0.0216
  778MPD2    N111486   3.349   3.662  15.024 -0.1334  0.3296  0.4585
  778MPD2    H711487   3.354   3.623  14.930  0.8850  0.4627  0.4612
  779MPD2     C11488   3.040   2.811  14.355  0.1218  0.2768  0.4564
  779MPD2    C111489   3.178   2.825  14.327  0.2305  0.6247 -0.5321
  779MPD2    C211490   3.230   2.954  14.309  0.6247 -0.1929  0.7674
  779MPD2    C311491   3.145   3.062  14.325 -0.0746  0.2090 -0.6149
  779MPD2    C411492   3.013   3.053  14.347  0.7123  0.1829 -0.4690
  779MPD2    C511493   2.956   2.924  14.364 -0.3958 -0.1304 -0.4105
  779MPD2     H11494   3.333   2.976  14.287  0.0820 -0.4857 -2.0827
  779MPD2    H111495   2.946   3.137  14.360 -1.4578 -1.5339 -0.4615
  779MPD2    H211496   3.013   2.711  14.386 -0.0042  0.2136  0.1333
  779MPD2    H311497   2.855   2.921  14.401 -0.7470 -1.0905 -1.4848
  779MPD2     N11498   3.212   3.188  14.316  0.5272 -0.3702  0.6848
  779MPD2    H511499   3.313   3.193  14.317  0.4302  1.2705  2.1150
  779MPD2    N111500   3.261   2.709  14.321  0.2343  0.0124  0.0959
  779MPD2    H711501   3.219   2.618  14.334 -0.5268  0.6779  2.2116
  780MPD2     C11502   2.717   2.621   1.395  0.3208 -0.0410  0.0479
  780MPD2    C111503   2.710   2.682   1.268 -0.9744 -0.3013  1.0444
  780MPD2    C211504   2.822   2.690   1.185  0.2900  0.5842  0.0796
  780MPD2    C311505   2.946   2.648   1.242 -0.3383  0.6249 -0.0220
  780MPD2    C411506   2.956   2.595   1.371  0.0276  0.2747 -0.0986
  780MPD2    C511507   2.842   2.578   1.445 -0.2184 -0.5077  0.2125
  780MPD2     H11508   2.811   2.727   1.083 -0.5279 -0.6622 -0.2840
  780MPD2    H111509   3.050   2.562   1.415  0.5657  1.1364 -0.5943
  780MPD2    H211510   2.629   2.610   1.458 -0.3786 -1.9257 -1.2921
  780MPD2    H311511   2.847   2.540   1.546 -0.3019 -2.7453 -0.6150
  780MPD2     N11512   3.058   2.656   1.148 -0.4899  0.0298  0.7467
  780MPD2    H511513   3.048   2.710   1.063 -1.5950 -0.5032  0.5414
  780MPD2    N111514   2.575   2.717   1.231  0.1923 -0.3875 -0.2894
  780MPD2    H711515   2.500   2.691   1.294  1.3545 -1.9209  0.4849
  781MPD2     C11516   0.074   4.245  11.969  0.2198  0.2813 -0.0189
  781MPD2    C111517   0.158   4.355  11.995 -0.1932 -0.4384  0.4681
  781MPD2    C211518   0.269   4.356  11.908 -0.0519  0.2960  0.0697
  781MPD2    C311519   0.279   4.269  11.801 -0.2453  0.5905  0.1359
  781MPD2    C411520   0.187   4.166  11.781 -0.0505 -0.0288 -0.3439
  781MPD2    C511521   0.088   4.152  11.869 -0.1052  0.6729 -0.6144
  781MPD2     H11522   0.343   4.431  11.930  1.5045 -1.1233 -0.3579
  781MPD2    H111523   0.200   4.093  11.703  1.1009 -0.8515  0.6200
  781MPD2    H211524   4.702   4.230  12.024  0.7983  1.3153  1.2285
  781MPD2    H311525   0.026   4.063  11.867  0.8873 -0.0167 -1.4336
  781MPD2     N11526   0.380   4.286  11.702 -0.8383 -0.2105 -0.1620
  781MPD2    H511527   0.376   4.222  11.623  0.8233 -1.5831  0.8566
  781MPD2    N111528   0.126   4.463  12.076 -0.3588 -0.4122  0.8452
  781MPD2    H711529   0.183   4.545  12.057 -1.2905 -0.5072 -2.2836
  782MPD2     C11530   3.278   0.427   9.966  0.0161  0.4781  0.3152
  782MPD2    C111531   3.361   0.442  10.079 -0.1534 -0.4466  0.1239
  782MPD2    C211532   3.400   0.566  10.111  0.0051  0.0132  0.0039
  782MPD2    C311533   3.357   0.682  10.042  0.0981  0.1954 -0.5740
  782MPD2    C411534   3.279   0.666   9.930 -0.6554  0.1940 -0.3141
  782MPD2    C511535   3.243   0.540   9.897  0.0237  0.3439 -0.9856
  782MPD2     H11536   3.474   0.586  10.188 -1.7949 -0.9910  1.9629
  782MPD2    H111537   3.249   0.751   9.870  2.2432  0.9513 -0.7331
  782MPD2    H211538   3.240   0.334   9.925 -1.7656  0.3574  2.2348
  782MPD2    H311539   3.167   0.534   9.820 -0.3151 -2.1028 -0.4695
  782MPD2     N11540   3.414   0.797  10.093  0.1300  0.1177 -0.0812
  782MPD2    H511541   3.463   0.793  10.182  0.3227  0.1517 -0.1854
  782MPD2    N111542   3.384   0.328  10.158 -0.1446 -0.2152 -0.3428
  782MPD2    H711543   3.326   0.245  10.145  0.9355 -1.2072  1.1219
  783MPD2     C11544   2.889   0.101  10.817  0.2432 -0.1600  0.3031
  783MPD2    C111545   2.945   0.220  10.793 -0.2474  0.8632  0.4937
  783MPD2    C211546   3.068   0.223  10.731  0.1387  0.1778 -0.4744
  783MPD2    C311547   3.133   0.106  10.692 -0.2762 -0.0173 -0.4228
  783MPD2    C411548   3.069   4.704  10.701  0.0113  0.4811 -0.1980
  783MPD2    C511549   2.949   4.707  10.774 -0.3776 -0.5944 -0.6197
  783MPD2     H11550   3.116   0.319  10.720  1.2445 -0.4854 -1.5450
  783MPD2    H111551   3.111   4.613  10.660 -2.5185 -0.8395  0.1574
  783MPD2    H211552   2.789   0.088  10.858  0.6693  1.2712  1.8059
  783MPD2    H311553   2.896   4.614  10.790  0.1086 -0.8947 -0.7650
  783MPD2     N11554   3.261   0.123  10.629  0.1815  0.6127 -0.6009
  783MPD2    H511555   3.289   0.217  10.606  0.2289  0.2825 -1.8979
  783MPD2    N111556   2.870   0.334  10.830 -0.0868 -0.0653  0.1267
  783MPD2    H711557   2.780   0.313  10.873 -0.1715 -1.3819 -0.6727
  784MPD2     C11558   4.209   0.740   1.554  0.0898  1.0136  0.6329
  784MPD2    C111559   4.268   0.863   1.565  0.1053  0.0876 -0.7194
  784MPD2    C211560   4.220   0.962   1.484 -0.8858 -0.0230 -0.4222
  784MPD2    C311561   4.119   0.939   1.399  0.2394 -0.7009  0.2161
  784MPD2    C411562   4.066   0.810   1.386  0.0349 -0.5620  0.2571
  784MPD2    C511563   4.105   0.715   1.474  0.3377  0.2234  0.1794
  784MPD2     H11564   4.260   1.063   1.488  1.8849 -1.2595  3.5129
  784MPD2    H111565   3.990   0.789   1.311 -0.0116 -1.8280  0.6443
  784MPD2    H211566   4.239   0.661   1.622  1.3246  1.1105  0.1842
  784MPD2    H311567   4.061   0.618   1.453  1.0998 -0.6498  2.6260
  784MPD2     N11568   4.075   1.052   1.320  0.1606 -0.0845  0.1559
  784MPD2    H511569   4.110   1.144   1.344 -0.4440  0.6926 -1.9212
  784MPD2    N111570   4.380   0.889   1.649  0.9115 -0.3299  0.2597
  784MPD2    H711571   4.409   0.986   1.646 -2.9335  0.7786 -1.0048
  785MPD2     C11572   0.070   3.819   9.938  0.0784 -0.5655 -0.1624
  785MPD2    C111573   0.105   3.693   9.889  1.1715 -0.4505  0.1787
  785MPD2    C211574   0.184   3.617   9.970  0.2116 -0.0436 -1.4046
  785MPD2    C311575   0.235   3.660  10.089  0.1398  0.3704 -0.2924
  785MPD2    C411576   0.204   3.783  10.136  0.0560  0.3052  0.5078
  785MPD2    C511577   0.128   3.861  10.062  1.2439  0.3729  0.0652
  785MPD2     H11578   0.219   3.524   9.926  0.0794 -0.2456 -1.0806
  785MPD2    H111579   0.232   3.825  10.232 -1.8067 -0.3963  1.3474
  785MPD2    H211580   4.715   3.881   9.891 -0.7174 -0.5203  1.1681
  785MPD2    H311581   0.098   3.949  10.118  0.3880 -1.8259  3.0588
  785MPD2     N11582   0.303   3.561  10.158 -0.8279 -0.3864 -0.4266
  785MPD2    H511583   0.313   3.470  10.116  1.1489 -0.0192 -0.7495
  785MPD2    N111584   0.069   3.637   9.767  0.1738  0.0490 -0.0746
  785MPD2    H711585   0.103   3.543   9.746 -1.5005 -0.1017 -2.0459
  786MPD2     C11586   3.480   2.301  14.543 -0.2929 -0.0614 -0.1319
  786MPD2    C111587   3.592   2.219  14.526 -0.3785  0.1347  0.2677
  786MPD2    C211588   3.673   2.190  14.632  0.0316  0.1499 -0.5760
  786MPD2    C311589   3.653   2.239  14.755 -0.3133  0.0656  0.4168
  786MPD2    C411590   3.564   2.340  14.774 -0.1353  0.5590 -0.6091
  786MPD2    C511591   3.479   2.363  14.668 -0.0989 -1.1365  0.0345
  786MPD2     H11592   3.751   2.118  14.606 -1.5145 -2.1903  1.3144
  786MPD2    H111593   3.558   2.397  14.866  0.3281  2.1884 -1.5889
  786MPD2    H211594   3.409   2.334  14.468 -1.0644 -1.3849  0.0189
  786MPD2    H311595   3.402   2.436  14.690 -0.2383 -0.3719 -2.9390
  786MPD2     N11596   3.728   2.195  14.864 -0.4147 -0.1823 -0.2889
  786MPD2    H511597   3.701   2.230  14.956  0.2352 -2.4546  0.7438
  786MPD2    N111598   3.620   2.147  14.413  0.2618  0.2178  0.7533
  786MPD2    H711599   3.710   2.102  14.411  0.3776  0.4085  1.9789
  787MPD2     C11600   3.982   1.717  14.635  0.6137 -0.2003 -0.3735
  787MPD2    C111601   3.981   1.694  14.504  0.1826 -0.1435 -0.0500
  787MPD2    C211602   4.066   1.598  14.446 -0.0472 -1.0900  0.2249
  787MPD2    C311603   4.165   1.541  14.526 -0.0966  0.3531 -0.5744
  787MPD2    C411604   4.160   1.563  14.663  0.1094  0.3874 -0.6699
  787MPD2    C511605   4.064   1.640  14.714  0.4488 -0.6099  0.3943
  787MPD2     H11606   4.067   1.577  14.340  0.6782 -3.6240  0.7239
  787MPD2    H111607   4.221   1.511  14.736  2.3757 -0.2690 -2.9997
  787MPD2    H211608   3.908   1.776  14.688  2.1855  0.1325  1.4570
  787MPD2    H311609   4.070   1.647  14.822 -1.8332 -0.1389  0.5128
  787MPD2     N11610   4.258   1.459  14.467  1.1182 -0.3500  0.4383
  787MPD2    H511611   4.246   1.436  14.369  3.4282 -1.4340  0.3938
  787MPD2    N111612   3.880   1.754  14.424 -0.2402 -0.4306  0.5865
  787MPD2    H711613   3.807   1.792  14.484  0.3754  0.0823  1.0044
  788MPD2     C11614   1.488   0.684   0.700 -0.5968  0.8475 -0.0400
  788MPD2    C111615   1.369   0.620   0.725 -0.1562  0.3796 -0.3241
  788MPD2    C211616   1.254   0.658   0.665  0.1101 -0.0593  0.3488
  788MPD2    C311617   1.256   0.758   0.570 -0.3013  0.5808 -0.6436
  788MPD2    C411618   1.367   0.828   0.553 -0.0933 -0.1086  0.6514
  788MPD2    C511619   1.483   0.795   0.620  0.8708  0.1628 -0.6007
  788MPD2     H11620   1.171   0.593   0.688 -0.2190 -0.1270 -1.0632
  788MPD2    H111621   1.360   0.916   0.489 -1.6673  0.5394  1.7020
  788MPD2    H211622   1.583   0.656   0.743  0.0342  1.3509 -1.0840
  788MPD2    H311623   1.576   0.848   0.601  0.4315  0.6475 -1.3677
  788MPD2     N11624   1.141   0.799   0.496  0.3308 -0.4560  0.1828
  788MPD2    H511625   1.142   0.872   0.426 -1.8947 -0.5178  0.0671
  788MPD2    N111626   1.360   0.514   0.811  0.1119  0.3260  0.0425
  788MPD2    H711627   1.271   0.468   0.829 -0.1729  1.3063  1.1406
  789MPD2     C11628   1.380   4.435  16.400 -0.1978 -0.0858  0.9845
  789MPD2    C111629   1.322   4.324  16.455 -0.2616  0.4236  0.5993
  789MPD2    C211630   1.183   4.328  16.465 -0.3380 -0.5272  0.2987
  789MPD2    C311631   1.113   4.436  16.428 -0.2317 -0.6718  0.3069
  789MPD2    C411632   1.178   4.550  16.378 -0.4705 -0.3868 -0.9011
  789MPD2    C511633   1.313   4.547  16.363  0.5932 -0.5499 -0.0757
  789MPD2     H11634   1.127   4.258  16.526 -0.7447 -0.6753 -0.2379
  789MPD2    H111635   1.138   4.644  16.344  0.2219  0.5021  0.7631
  789MPD2    H211636   1.487   4.435  16.381 -0.3238  2.7418  0.2715
  789MPD2    H311637   1.370   4.626  16.314 -1.8669  0.8893 -0.6504
  789MPD2     N11638   0.973   4.459  16.449 -0.0776 -0.1486 -0.2363
  789MPD2    H511639   0.935   4.538  16.398  2.7358  0.1916 -1.8050
  789MPD2    N111640   1.388   4.213  16.514  0.2838  0.0487  0.1788
  789MPD2    H711641   1.326   4.142  16.551  0.9921 -0.6243  0.0784
  790MPD2     C11642   2.447   2.459  13.354  0.7780 -0.1913 -0.9453
  790MPD2    C111643   2.494   2.338  13.316  0.1109  0.7540  0.0171
  790MPD2    C211644   2.506   2.310  13.180 -0.4357 -0.1350  0.4340
  790MPD2    C311645   2.462   2.403  13.088 -0.6843 -0.3249  0.5307
  790MPD2    C411646   2.418   2.528  13.128 -0.0141 -0.0652 -0.0907
  790MPD2    C511647   2.426   2.551  13.259  0.1379 -0.2616 -0.2444
  790MPD2     H11648   2.547   2.216  13.146  0.4755  0.8552 -1.1931
  790MPD2    H111649   2.410   2.607  13.056 -0.6170  0.8644  0.9952
  790MPD2    H211650   2.445   2.487  13.459  0.6416 -0.5220 -0.8592
  790MPD2    H311651   2.413   2.651  13.300  2.6598  0.3267 -0.8459
  790MPD2     N11652   2.462   2.356  12.961  0.1371  0.0452  0.1924
  790MPD2    H511653   2.509   2.268  12.940 -0.6922 -1.1411  3.4031
  790MPD2    N111654   2.532   2.249  13.419  0.3168 -0.6783 -0.0843
  790MPD2    H711655   2.506   2.276  13.514 -0.9590 -2.4804  0.0689
  791MPD2     C11656   1.756   2.288  12.594 -0.0380  0.2360 -0.0916
  791MPD2    C111657   1.843   2.184  12.621 -0.8424 -0.5109  0.1035
  791MPD2    C211658   1.793   2.056  12.635 -0.4880  0.4685 -0.4043
  791MPD2    C311659   1.661   2.036  12.627  0.2336  0.0612 -0.6304
  791MPD2    C411660   1.575   2.147  12.602 -0.2683 -0.6719 -0.6498
  791MPD2    C511661   1.621   2.273  12.584  0.0947  0.6116 -0.5527
  791MPD2     H11662   1.861   1.975  12.662 -1.1476 -0.1525 -0.5997
  791MPD2    H111663   1.469   2.125  12.601 -0.0664 -1.6861  0.2990
  791MPD2    H211664   1.786   2.391  12.575  2.1283 -0.6540 -1.5611
  791MPD2    H311665   1.552   2.350  12.552 -1.9998 -0.3166  1.6860
  791MPD2     N11666   1.619   1.898  12.637  0.2144 -0.1436 -0.2661
  791MPD2    H511667   1.691   1.828  12.655 -0.7114 -1.4827 -1.8184
  791MPD2    N111668   1.978   2.209  12.609 -0.0324  0.5598 -0.1761
  791MPD2    H711669   2.003   2.305  12.588 -1.0009  1.1770  1.4867
  792MPD2     C11670   3.219   1.670  11.046  0.7086 -0.2436  0.7928
  792MPD2    C111671   3.106   1.666  10.975 -0.5363 -0.0794  0.1634
  792MPD2    C211672   3.090   1.559  10.883  0.0978 -0.2940 -0.4332
  792MPD2    C311673   3.169   1.447  10.888 -0.0105 -0.4142 -0.4473
  792MPD2    C411674   3.278   1.450  10.972  0.5149 -0.0824  0.2270
  792MPD2    C511675   3.295   1.561  11.046  0.0657  0.0536 -0.0933
  792MPD2     H11676   3.011   1.560  10.809  1.8871  2.6979 -2.2692
  792MPD2    H111677   3.352   1.371  10.976  1.6830  1.0027 -0.1441
  792MPD2    H211678   3.243   1.745  11.121  1.1740  0.6323 -0.2268
  792MPD2    H311679   3.384   1.580  11.105 -0.8176  2.2063  0.5426
  792MPD2     N11680   3.136   1.328  10.821  0.2208  0.3711  0.0854
  792MPD2    H511681   3.202   1.252  10.830 -0.3768  0.1513  2.4964
  792MPD2    N111682   3.027   1.785  10.968 -0.0193 -1.0001  0.2759
  792MPD2    H711683   3.055   1.870  11.015  0.0887  0.0964 -1.7867
  793MPD2     C11684   2.493   0.658  10.282 -0.1739 -0.7138  0.4124
  793MPD2    C111685   2.590   0.742  10.224  0.2405  0.6048 -0.6167
  793MPD2    C211686   2.676   0.809  10.306 -0.1063 -0.2028 -0.4518
  793MPD2    C311687   2.677   0.792  10.440  0.2709 -0.3780  0.8952
  793MPD2    C411688   2.579   0.717  10.502 -0.2697  0.1017 -0.4046
  793MPD2    C511689   2.496   0.643  10.420 -0.0730  0.0591  0.3887
  793MPD2     H11690   2.746   0.881  10.265  1.5851 -2.5310 -1.7204
  793MPD2    H111691   2.583   0.688  10.606 -2.1356  0.7890 -0.1347
  793MPD2    H211692   2.414   0.608  10.228 -0.4672  1.7500 -1.3902
  793MPD2    H311693   2.426   0.579  10.471 -1.4514  0.7596 -0.5964
  793MPD2     N11694   2.767   0.871  10.512  0.3940  0.4157  0.1068
  793MPD2    H511695   2.835   0.927  10.462  0.1482  0.3495 -0.2983
  793MPD2    N111696   2.589   0.769  10.087  0.2998  0.4987  0.1492
  793MPD2    H711697   2.657   0.837  10.055  2.0370 -1.9709 -1.4378
  794MPD2     C11698   1.752   1.267  17.541 -0.6554 -0.4609  0.5331
  794MPD2    C111699   1.760   1.141  17.491  0.9104 -0.1145  0.2000
  794MPD2    C211700   1.733   1.129  17.355  0.4664  0.5892 -0.3351
  794MPD2    C311701   1.695   1.233  17.274 -0.1158 -0.1999 -0.1247
  794MPD2    C411702   1.692   1.358  17.328  0.0576 -0.0822 -0.4781
  794MPD2    C511703   1.726   1.374  17.461 -0.4526  0.0764 -0.4359
  794MPD2     H11704   1.751   1.033  17.308 -1.3264  0.2748 -0.3729
  794MPD2    H111705   1.666   1.438  17.260 -1.5007 -0.8470 -0.7700
  794MPD2    H211706   1.773   1.284  17.646 -0.4557 -0.8300  0.5544
  794MPD2    H311707   1.716   1.471  17.507  2.8286 -0.1191  0.6790
  794MPD2     N11708   1.671   1.216  17.132 -0.7954 -0.1793 -0.0656
  794MPD2    H511709   1.670   1.308  17.089  1.8574 -0.3772 -0.5903
  794MPD2    N111710   1.796   1.022  17.566  0.1692 -0.0848  0.0219
  794MPD2    H711711   1.791   0.934  17.515  0.3617 -0.2178  0.2310
  795MPD2     C11712   0.766   2.767  12.964  0.3200 -0.3833  0.1644
  795MPD2    C111713   0.717   2.712  13.080  0.0004 -0.2960  1.0335
  795MPD2    C211714   0.776   2.747  13.203  0.8156  0.1048  0.2991
  795MPD2    C311715   0.891   2.825  13.209 -0.2241 -0.4327  0.6333
  795MPD2    C411716   0.941   2.874  13.084  0.3433  0.1294 -0.3623
  795MPD2    C511717   0.874   2.840  12.962  0.5546  0.5135  0.2245
  795MPD2     H11718   0.725   2.703  13.287 -2.0859  0.4843 -1.2470
  795MPD2    H111719   1.037   2.922  13.074  0.7391 -1.0681 -2.2209
  795MPD2    H211720   0.725   2.760  12.864  1.1375  0.1945 -0.2043
  795MPD2    H311721   0.922   2.870  12.870 -2.3185  1.6778 -0.8871
  795MPD2     N11722   0.960   2.846  13.328 -0.3551 -0.2256 -0.7764
  795MPD2    H511723   0.923   2.814  13.418  1.7483  3.4136  1.3818
  795MPD2    N111724   0.591   2.643  13.085  0.5108 -0.9165  0.0167
  795MPD2    H711725   0.558   2.616  13.176 -0.9609  0.2812 -0.1672
  796MPD2     C11726   3.989   4.644  15.747  0.3259 -0.4892  0.5904
  796MPD2    C111727   4.060   0.012  15.830 -0.0798 -0.6454  0.7304
  796MPD2    C211728   4.072   0.144  15.794 -0.2116 -0.4548 -0.2489
  796MPD2    C311729   4.016   0.193  15.685 -0.3582 -0.2450  0.1009
  796MPD2    C411730   3.947   0.106  15.601 -0.8156  0.0815  0.7458
  796MPD2    C511731   3.933   4.693  15.635 -0.4995 -0.1833 -0.1328
  796MPD2     H11732   4.124   0.216  15.857 -3.7218  1.4325  0.5351
  796MPD2    H111733   3.896   0.139  15.512  0.1182  1.0890  0.5769
  796MPD2    H211734   3.977   4.540  15.776  0.5154 -0.5202  0.5623
  796MPD2    H311735   3.877   4.627  15.569  2.3601 -3.8062  1.1073
  796MPD2     N11736   4.014   0.331  15.662  0.4104 -0.9609  0.2445
  796MPD2    H511737   4.064   0.384  15.732  0.0229  0.7386 -0.7694
  796MPD2    N111738   4.140   4.678  15.930  0.2505  0.3511  0.3009
  796MPD2    H711739   4.154   4.578  15.929  2.6503  0.6855  0.6709
  797MPD2     C11740   4.376   3.992  17.063  0.3206  0.2986 -0.1666
  797MPD2    C111741   4.467   4.014  17.162 -0.9052  0.3418 -0.6865
  797MPD2    C211742   4.559   4.118  17.142  0.1937  0.2247  0.7006
  797MPD2    C311743   4.566   4.185  17.019  0.7328  0.2560  0.6290
  797MPD2    C411744   4.489   4.152  16.913 -0.2628  0.4819  0.2786
  797MPD2    C511745   4.390   4.059  16.942 -0.5220  0.9512  0.0003
  797MPD2     H11746   4.615   4.144  17.231  0.5287 -0.3225  0.6523
  797MPD2    H111747   4.496   4.206  16.819  1.2111  0.7026  0.5236
  797MPD2    H211748   4.295   3.922  17.078  0.2595 -0.0043 -1.9214
  797MPD2    H311749   4.320   4.055  16.860  1.5855 -1.7920 -1.6917
  797MPD2     N11750   4.638   4.310  17.003  0.1609 -0.7978  0.4964
  797MPD2    H511751   4.616   4.372  16.925  0.7329 -2.2345 -0.8012
  797MPD2    N111752   4.457   3.959  17.291  0.2560 -0.4747 -0.0240
  797MPD2    H711753   4.526   3.995  17.356  1.3265 -0.3478 -1.2324
  798MPD2     C11754   4.405   4.630  17.619  0.1129  0.0531  0.2593
  798MPD2    C111755   4.514   4.575  17.556  0.6684  0.5138  0.2761
  798MPD2    C211756   4.527   4.433  17.567  0.2387  0.1125  0.3890
  798MPD2    C311757   4.451   4.356  17.650 -0.4060 -0.2129 -0.3414
  798MPD2    C411758   4.346   4.417   0.037  0.5102  0.1397 -0.1893
  798MPD2    C511759   4.334   4.554   0.027  0.4791  0.0346  0.1318
  798MPD2     H11760   4.613   4.385  17.520  0.8937  0.3593  1.3265
  798MPD2    H111761   4.273   4.366   0.099 -1.8267  1.7028 -1.6357
  798MPD2    H211762   4.381   0.014  17.603 -1.4127  0.0450  2.5986
  798MPD2    H311763   4.255   4.594   0.089 -0.4363 -1.2108 -0.2223
  798MPD2     N11764   4.477   4.218  17.650 -0.0565 -0.2088 -0.2501
  798MPD2    H511765   4.544   4.187  17.580  0.1699  0.2353 -0.2284
  798MPD2    N111766   4.583   4.654  17.462  0.5044 -0.1065 -0.5698
  798MPD2    H711767   4.535   0.018  17.430  0.2501 -0.1147 -0.2105
  799MPD2     C11768   3.980   1.041  14.594 -0.3841  0.3282 -0.7198
  799MPD2    C111769   3.879   0.962  14.533 -0.1329 -0.0192  0.9125
  799MPD2    C211770   3.804   1.030  14.440  0.9949 -0.3391 -0.3823
  799MPD2    C311771   3.828   1.162  14.402  0.4129 -0.0050  0.1479
  799MPD2    C411772   3.922   1.235  14.466  0.5654  0.0769  0.4782
  799MPD2    C511773   3.998   1.175  14.566 -0.4343  0.3266 -0.0262
  799MPD2     H11774   3.729   0.974  14.386 -0.0736  0.6308  0.1084
  799MPD2    H111775   3.947   1.338  14.441  0.0620  0.0034 -0.3128
  799MPD2    H211776   4.060   1.002  14.655 -1.1709 -1.9057 -1.1137
  799MPD2    H311777   4.077   1.235  14.609  0.8440 -0.9683 -0.5872
  799MPD2     N11778   3.746   1.230  14.306 -0.3313 -0.2405  0.3154
  799MPD2    H511779   3.763   1.328  14.289  0.5069 -0.0752  2.1875
  799MPD2    N111780   3.862   0.823  14.561 -0.4464 -0.7448  0.2014
  799MPD2    H711781   3.796   0.769  14.505 -0.6276 -0.0033 -0.2939
  800MPD2     C11782   4.526   2.262  14.296  0.0195  0.5072 -0.0137
  800MPD2    C111783   4.639   2.265  14.369 -0.0738  0.5059 -0.1278
  800MPD2    C211784   0.037   2.247  14.302 -0.1163  0.0783 -0.3105
  800MPD2    C311785   0.035   2.230  14.168 -0.0038  1.2169  0.6981
  800MPD2    C411786   4.642   2.212  14.092  0.6887  0.7719 -0.0568
  800MPD2    C511787   4.528   2.231  14.156  0.2381  0.4892  0.6579
  800MPD2     H11788   0.135   2.246  14.348 -0.2617 -2.3664 -0.0380
  800MPD2    H111789   4.641   2.182  13.988 -2.2465 -0.4757  0.3282
  800MPD2    H211790   4.426   2.269  14.337  0.5770 -1.6649  1.7082
  800MPD2    H311791   4.443   2.200  14.097  1.6452 -1.8225 -0.1699
  800MPD2     N11792   0.158   2.222  14.107 -0.0915  0.3024  0.1155
  800MPD2    H511793   0.240   2.208  14.166  0.9316  0.0335 -1.3601
  800MPD2    N111794   4.626   2.283  14.508  0.0320  0.0082 -0.6668
  800MPD2    H711795   4.533   2.301  14.544  1.1001  1.9015  1.1448
  801MPD2     C11796   4.259   2.750  14.868  0.0360 -0.5708 -0.1553
  801MPD2    C111797   4.317   2.670  14.768  0.7566 -0.6892 -0.0585
  801MPD2    C211798   4.273   2.683  14.638 -0.4867 -0.0931  0.2748
  801MPD2    C311799   4.164   2.762  14.606  0.7437  1.0300  0.4342
  801MPD2    C411800   4.110   2.837  14.709  0.2729 -0.5446 -0.4294
  801MPD2    C511801   4.158   2.831  14.833 -0.2256 -0.0266  0.1430
  801MPD2     H11802   4.318   2.617  14.565 -1.8849  2.0705 -2.5408
  801MPD2    H111803   4.014   2.886  14.704 -0.0537 -0.9796  1.4383
  801MPD2    H211804   4.281   2.743  14.974  4.0063 -0.8515 -0.9972
  801MPD2    H311805   4.097   2.885  14.904  1.3884  0.7676  0.9462
  801MPD2     N11806   4.103   2.765  14.480  0.8313 -0.3376 -0.6437
  801MPD2    H511807   4.014   2.814  14.474  1.8771  1.7048  0.4222
  801MPD2    N111808   4.420   2.576  14.788 -0.0481  0.2436 -0.0920
  801MPD2    H711809   4.458   2.538  14.703 -2.8580 -0.4750 -1.0410
  802MPD2     C11810   3.060   2.749  17.292  0.6977  0.1430  0.2867
  802MPD2    C111811   3.157   2.785  17.385 -0.3883 -0.8747 -0.6417
  802MPD2    C211812   3.280   2.725  17.365  0.7108 -0.1142 -0.1682
  802MPD2    C311813   3.313   2.636  17.267 -0.6441 -0.2315 -0.1368
  802MPD2    C411814   3.220   2.612  17.174  0.3075 -0.5008  0.2543
  802MPD2    C511815   3.097   2.674  17.191  0.0267  0.4165 -0.5267
  802MPD2     H11816   3.365   2.744  17.429  0.5151 -0.4627  0.1940
  802MPD2    H111817   3.237   2.550  17.086  0.8104 -0.7958  0.5565
  802MPD2    H211818   2.966   2.802  17.282  1.3021  0.5871 -3.1103
  802MPD2    H311819   3.030   2.662  17.107  2.5831 -0.4708 -2.4628
  802MPD2     N11820   3.448   2.596  17.259  0.3211  0.5597  0.0702
  802MPD2    H511821   3.505   2.620  17.339  0.8052 -2.1116  0.5078
  802MPD2    N111822   3.141   2.885  17.484 -0.0340  0.3084  0.4503
  802MPD2    H711823   3.221   2.899  17.545  0.9797 -2.0790 -0.3562
  803MPD2     C11824   0.649   1.417  11.742 -0.5119 -0.8160  0.8368
  803MPD2    C111825   0.656   1.527  11.823 -0.2377 -0.6632  0.0349
  803MPD2    C211826   0.612   1.505  11.952  0.3584  0.0924  0.0972
  803MPD2    C311827   0.586   1.378  12.010 -0.1714 -0.7675 -0.6106
  803MPD2    C411828   0.593   1.270  11.918  0.1677  0.4991  0.1002
  803MPD2    C511829   0.624   1.293  11.786 -0.1029 -0.2015 -0.0148
  803MPD2     H11830   0.627   1.594  12.011  0.1587 -0.8411  1.5781
  803MPD2    H111831   0.580   1.169  11.954  0.2579  0.8986  1.2606
  803MPD2    H211832   0.679   1.422  11.638 -1.7273 -1.3873  0.4612
  803MPD2    H311833   0.626   1.214  11.711  0.9535 -0.6133  0.4470
  803MPD2     N11834   0.566   1.351  12.150 -0.4691 -0.0566 -0.1742
  803MPD2    H511835   0.534   1.423  12.215  0.2531  2.0070 -2.1101
  803MPD2    N111836   0.709   1.649  11.785  0.5837 -0.5452  0.5802
  803MPD2    H711837   0.718   1.717  11.860 -2.6244 -0.2803  0.7301
  804MPD2     C11838   4.310   2.851  17.056  0.2248  0.3767 -0.3112
  804MPD2    C111839   4.371   2.847  17.181 -0.3894  0.6836 -0.6485
  804MPD2    C211840   4.442   2.952  17.237  0.1488 -0.2344  0.7200
  804MPD2    C311841   4.461   3.064  17.164  0.1535 -0.7705  0.3758
  804MPD2    C411842   4.394   3.074  17.048 -0.0006  0.2640  0.2109
  804MPD2    C511843   4.318   2.973  16.993 -0.2534 -0.1850 -0.2265
  804MPD2     H11844   4.484   2.944  17.337  0.4758 -0.7728  0.5387
  804MPD2    H111845   4.394   3.159  16.981 -1.1233 -1.7382 -2.3387
  804MPD2    H211846   4.239   2.775  17.024  1.3237 -0.4388 -0.7845
  804MPD2    H311847   4.256   2.992  16.907 -0.2341  0.3159 -0.1311
  804MPD2     N11848   4.558   3.163  17.204  0.3763 -0.1985 -0.3473
  804MPD2    H511849   4.558   3.248  17.148 -0.3167 -1.5103 -2.3542
  804MPD2    N111850   4.351   2.729  17.257  0.2851  0.2921 -0.4261
  804MPD2    H711851   4.394   2.734  17.349  0.5011 -0.6008 -0.4713
  805MPD2     C11852   3.825   1.445  15.449 -0.1351 -0.2680 -0.0641
  805MPD2    C111853   3.932   1.373  15.401  0.0945  0.7204 -0.9499
  805MPD2    C211854   4.063   1.397  15.455  0.1486 -0.3826 -0.8880
  805MPD2    C311855   4.078   1.506  15.540  0.8155 -0.0939 -0.4118
  805MPD2    C411856   3.972   1.580  15.578  0.2290 -0.8527  0.1874
  805MPD2    C511857   3.851   1.546  15.532 -0.4836  0.2000 -1.1057
  805MPD2     H11858   4.145   1.328  15.442  0.2477 -0.3130 -0.6421
  805MPD2    H111859   3.966   1.651  15.660 -0.1115 -0.9367  0.2320
  805MPD2    H211860   3.726   1.430  15.407 -0.6800  2.2470  0.3785
  805MPD2    H311861   3.768   1.607  15.568  0.0336 -0.0463  0.4894
  805MPD2     N11862   4.207   1.539  15.589 -0.1182  0.1784 -0.0217
  805MPD2    H511863   4.281   1.471  15.576 -0.9394 -0.7393  0.0907
  805MPD2    N111864   3.930   1.261  15.309  0.1966  0.0150  0.5811
  805MPD2    H711865   4.011   1.201  15.307  0.1915  0.0442 -0.3524
  806MPD2     C11866   3.966   4.466   0.458  0.3165 -0.0930 -0.9349
  806MPD2    C111867   4.071   4.428   0.543  0.0203 -0.3512 -0.2990
  806MPD2    C211868   4.183   4.508   0.530  0.0233 -0.1175  0.3450
  806MPD2    C311869   4.198   4.607   0.440  0.5077  0.6613  0.0883
  806MPD2    C411870   4.089   4.644   0.364 -0.4609 -0.1542 -0.1454
  806MPD2    C511871   3.972   4.575   0.373  0.2463  0.5815 -0.0286
  806MPD2     H11872   4.271   4.496   0.593  0.0200 -0.6686  0.2488
  806MPD2    H111873   4.094   0.007   0.294 -0.1773  1.3037  1.6048
  806MPD2    H211874   3.867   4.421   0.452 -0.3630  1.1299  1.0105
  806MPD2    H311875   3.890   4.610   0.312 -1.9222 -0.8786  2.0718
  806MPD2     N11876   4.318   4.674   0.436 -0.2856  0.5503 -0.7541
  806MPD2    H511877   4.370   4.675   0.523  0.5806 -1.5979 -1.2305
  806MPD2    N111878   4.060   4.315   0.627  0.1329 -0.3733  0.5742
  806MPD2    H711879   3.974   4.264   0.615  0.2763 -0.6955  0.9023
  807MPD2     C11880   3.625   4.029   1.200  0.0814  0.5476 -0.3150
  807MPD2    C111881   3.743   3.954   1.207 -0.4733 -0.3640 -0.1466
  807MPD2    C211882   3.755   3.857   1.303 -0.2379  0.1040  0.0376
  807MPD2    C311883   3.657   3.826   1.391  0.6943 -0.4295  0.8673
  807MPD2    C411884   3.536   3.897   1.381  0.2845  0.7094 -0.2185
  807MPD2    C511885   3.519   3.996   1.285 -0.1854 -0.3670 -0.8371
  807MPD2     H11886   3.849   3.804   1.313  1.4601  3.0188 -0.5858
  807MPD2    H111887   3.461   3.900   1.459  0.6677  0.3592  0.1683
  807MPD2    H211888   3.602   4.102   1.124 -1.4560  0.0964 -0.2848
  807MPD2    H311889   3.422   4.042   1.272  1.6186  2.4546 -4.2952
  807MPD2     N11890   3.684   3.742   1.500 -0.5383  0.0851 -0.5901
  807MPD2    H511891   3.777   3.702   1.511  0.3661  1.6408 -2.7716
  807MPD2    N111892   3.849   3.968   1.110 -0.0031  0.5659 -0.5405
  807MPD2    H711893   3.926   3.902   1.119 -0.7957 -0.6070 -2.3645
  808MPD2     C11894   0.528   1.535   9.545 -1.0992 -0.0568  0.0987
  808MPD2    C111895   0.489   1.574   9.426  0.3964 -0.0048 -0.1919
  808MPD2    C211896   0.571   1.665   9.357  0.4542  0.0783 -0.0613
  808MPD2    C311897   0.700   1.694   9.400  0.0271  0.8398 -0.1440
  808MPD2    C411898   0.738   1.637   9.518  0.4139 -0.3171  0.1085
  808MPD2    C511899   0.651   1.556   9.595  0.7897 -0.1328 -0.2605
  808MPD2     H11900   0.533   1.711   9.266  2.3167  0.7486 -0.5095
  808MPD2    H111901   0.836   1.660   9.558 -0.0151  0.7644  0.5459
  808MPD2    H211902   0.468   1.475   9.611 -0.1135  0.2369  1.2681
  808MPD2    H311903   0.677   1.532   9.698 -1.3261  0.0097  0.3035
  808MPD2     N11904   0.793   1.774   9.328 -0.4664 -0.2488  0.0816
  808MPD2    H511905   0.888   1.766   9.362 -0.6244  0.0004  0.5758
  808MPD2    N111906   0.357   1.537   9.376 -0.4543  0.0213  0.3606
  808MPD2    H711907   0.334   1.568   9.282 -0.5314  1.2946  0.8050
  809MPD2     C11908   1.583   1.669   9.533 -0.0537  0.0680 -0.4280
  809MPD2    C111909   1.541   1.797   9.574 -0.1839 -0.2166  0.1023
  809MPD2    C211910   1.433   1.858   9.511  0.0319  0.1834  0.4855
  809MPD2    C311911   1.367   1.791   9.411 -0.2860  0.5463  0.0073
  809MPD2    C411912   1.405   1.666   9.378  0.6547 -0.1907 -0.2115
  809MPD2    C511913   1.509   1.607   9.433  0.2062 -0.7327 -0.2704
  809MPD2     H11914   1.396   1.956   9.540 -0.1216 -0.0576  1.0871
  809MPD2    H111915   1.348   1.617   9.300 -0.7137  0.0344  0.6487
  809MPD2    H211916   1.668   1.620   9.578 -0.5628 -0.9108 -0.5526
  809MPD2    H311917   1.532   1.502   9.420 -2.2463 -1.4176  0.9880
  809MPD2     N11918   1.263   1.846   9.330 -0.2217 -0.0099 -0.2277
  809MPD2    H511919   1.222   1.783   9.263 -0.2575  2.4027 -2.4761
  809MPD2    N111920   1.607   1.864   9.679  0.2872 -0.0272 -0.0630
  809MPD2    H711921   1.579   1.960   9.697  0.1452 -0.2501  0.9158
  810MPD2     C11922   0.596   1.386  10.086 -0.0426  0.5074 -1.2386
  810MPD2    C111923   0.472   1.448  10.094 -0.5818  0.3455  0.7391
  810MPD2    C211924   0.457   1.583  10.082  0.2248  0.3001  0.0992
  810MPD2    C311925   0.573   1.661  10.070  0.2566 -0.0197 -0.5863
  810MPD2    C411926   0.694   1.599  10.052  0.0044 -0.3300  0.3006
  810MPD2    C511927   0.707   1.462  10.068  0.5787 -0.4925  0.6280
  810MPD2     H11928   0.361   1.630  10.098  0.4989  1.7717 -2.5659
  810MPD2    H111929   0.783   1.657  10.029  1.3669 -2.0170  1.2971
  810MPD2    H211930   0.612   1.279  10.096 -0.7096  0.2077 -3.4476
  810MPD2    H311931   0.805   1.416  10.067 -0.7179 -3.2901 -0.0258
  810MPD2     N11932   0.579   1.806  10.070  0.2304 -0.3070  0.6245
  810MPD2    H511933   0.672   1.844  10.059  0.6896 -1.3717  0.8268
  810MPD2    N111934   0.356   1.365  10.119  0.4417 -0.2474 -0.0310
  810MPD2    H711935   0.263   1.404  10.123 -0.7790 -3.0096 -1.9229
  811MPD2     C11936   4.271   1.245   9.945 -0.0788  0.1300  0.8770
  811MPD2    C111937   4.385   1.313   9.961  0.2395 -0.2525  0.3255
  811MPD2    C211938   4.400   1.442   9.908 -0.0164  0.3647 -0.9698
  811MPD2    C311939   4.293   1.502   9.837  0.5997 -0.7196  0.6178
  811MPD2    C411940   4.176   1.438   9.830  0.3059 -0.9656 -0.4067
  811MPD2    C511941   4.165   1.309   9.878 -0.2611 -0.4422 -0.4589
  811MPD2     H11942   4.498   1.488   9.902  0.7686 -1.2184 -0.3455
  811MPD2    H111943   4.089   1.481   9.782  1.3360  0.0659 -1.3557
  811MPD2    H211944   4.254   1.149   9.992  1.7839 -1.1685 -1.0787
  811MPD2    H311945   4.077   1.246   9.870 -1.6037  1.3658  0.1349
  811MPD2     N11946   4.312   1.628   9.785  0.2235  0.2806  0.5713
  811MPD2    H511947   4.403   1.666   9.808 -1.0857  2.5710  1.8901
  811MPD2    N111948   4.500   1.241  10.018 -0.5510  0.4272  0.2733
  811MPD2    H711949   4.478   1.145  10.044 -1.3711  0.7384  0.7407
  812MPD2     C11950   3.596   2.399  12.050 -0.2248 -0.3574 -0.4504
  812MPD2    C111951   3.460   2.379  12.045 -0.4757  0.1119 -0.5145
  812MPD2    C211952   3.406   2.258  12.090  0.1617 -0.2687  0.2407
  812MPD2    C311953   3.482   2.159  12.146  0.9053 -0.1052 -0.0456
  812MPD2    C411954   3.623   2.179  12.143  0.2766  0.4357 -0.3425
  812MPD2    C511955   3.677   2.298  12.086 -0.1490 -0.3974 -0.6211
  812MPD2     H11956   3.303   2.232  12.067  0.0631 -1.1117  1.5913
  812MPD2    H111957   3.690   2.100  12.174  0.4000 -0.2216 -2.3228
  812MPD2    H211958   3.635   2.491  12.008 -1.6342  1.3334  1.9336
  812MPD2    H311959   3.784   2.306  12.075 -0.0175 -0.8235  0.3110
  812MPD2     N11960   3.419   2.028  12.171 -0.3256 -0.3173 -0.6848
  812MPD2    H511961   3.319   2.014  12.168 -0.3718 -0.2116  0.5344
  812MPD2    N111962   3.373   2.477  11.989  0.3132  0.8562  0.4785
  812MPD2    H711963   3.410   2.552  11.932 -2.7219  1.9642 -0.0433
  813MPD2     C11964   1.548   4.149  12.572  0.2797 -0.0991 -0.0111
  813MPD2    C111965   1.623   4.076  12.672 -0.7555 -0.7093 -0.0279
  813MPD2    C211966   1.597   4.087  12.809  0.6717 -0.1434  0.1893
  813MPD2    C311967   1.480   4.145  12.847  0.3952  0.3873  0.1411
  813MPD2    C411968   1.397   4.194  12.749  0.5658 -0.2125  0.0422
  813MPD2    C511969   1.426   4.199  12.615 -0.5396 -0.3332  0.8952
  813MPD2     H11970   1.671   4.058  12.882  0.3445 -1.9683 -0.2007
  813MPD2    H111971   1.296   4.225  12.769  0.5697  0.8337 -1.5289
  813MPD2    H211972   1.580   4.144  12.469 -1.6980 -2.3718 -0.5124
  813MPD2    H311973   1.351   4.234  12.545 -1.9010 -3.1571  0.9371
  813MPD2     N11974   1.446   4.182  12.984  0.5574 -0.3081 -0.2505
  813MPD2    H511975   1.361   4.236  12.999  0.7380 -0.5774  1.8116
  813MPD2    N111976   1.748   4.014  12.637  0.3853 -0.1069 -0.4849
  813MPD2    H711977   1.800   4.059  12.563  3.0134 -3.0763 -0.4555
  814MPD2     C11978   3.386   0.299  12.456  0.0182  0.4413 -0.3416
  814MPD2    C111979   3.349   0.295  12.323 -0.6210 -0.0085  0.3067
  814MPD2    C211980   3.324   0.415  12.263  0.2397  0.7658 -0.0549
  814MPD2    C311981   3.339   0.540  12.325 -0.4620  0.4215 -0.1826
  814MPD2    C411982   3.370   0.539  12.456 -0.8412  0.4069 -0.0644
  814MPD2    C511983   3.394   0.421  12.518  0.3573  0.0999  0.3003
  814MPD2     H11984   3.301   0.404  12.158 -0.8979  0.1947  0.2533
  814MPD2    H111985   3.383   0.632  12.509 -1.3450  1.0050 -0.9950
  814MPD2    H211986   3.415   0.213  12.514 -2.5131 -0.7832 -0.8640
  814MPD2    H311987   3.412   0.414  12.624  1.0210  1.1557  0.2551
  814MPD2     N11988   3.321   0.665  12.258 -0.6393 -0.4351  0.6310
  814MPD2    H511989   3.335   0.752  12.308 -0.4037 -0.3183  0.3649
  814MPD2    N111990   3.356   0.178  12.241 -0.0833 -0.1028  0.5439
  814MPD2    H711991   3.360   0.186  12.140  0.2899 -1.7243  0.4406
  815MPD2     C11992   3.357   3.627  11.119  0.1075 -0.4673  0.2254
  815MPD2    C111993   3.340   3.512  11.188 -0.3891  0.5335 -0.5564
  815MPD2    C211994   3.224   3.502  11.272  0.7007  0.1465  0.7174
  815MPD2    C311995   3.147   3.616  11.302 -0.5539 -0.2115  0.3184
  815MPD2    C411996   3.174   3.730  11.229  0.1745 -0.0843  0.1030
  815MPD2    C511997   3.272   3.732  11.132 -0.4149  0.3441 -0.1488
  815MPD2     H11998   3.205   3.415  11.334 -1.3578  0.1884  0.1605
  815MPD2    H111999   3.107   3.813  11.244  1.1852  0.2317  2.9932
  815MPD2    H212000   3.441   3.640  11.051 -0.2064 -0.3642 -0.1470
  815MPD2    H312001   3.291   3.823  11.075 -0.1288 -1.8587 -3.6191
  815MPD2     N12002   3.056   3.605  11.410 -0.3793  0.0858 -0.3423
  815MPD2    H512003   3.063   3.515  11.457  1.8578 -0.1322 -1.1160
  815MPD2    N112004   3.436   3.405  11.167  0.1735  0.1866 -0.8711
  815MPD2    H712005   3.512   3.424  11.103  1.7965  2.1281  1.6611
  816MPD2     C12006   3.559   2.201  17.413  0.4649 -0.3134  0.4184
  816MPD2    C112007   3.472   2.174  17.303  0.5027  0.6848 -0.0428
  816MPD2    C212008   3.527   2.127  17.190 -0.0562 -0.1052  0.7511
  816MPD2    C312009   3.664   2.088  17.182 -0.2288 -0.5427  0.0543
  816MPD2    C412010   3.745   2.105  17.297 -0.5492  0.0964 -0.3140
  816MPD2    C512011   3.693   2.168  17.406 -0.4745  0.2851 -0.0900
  816MPD2     H12012   3.461   2.102  17.108  0.7670 -0.4485  0.1961
  816MPD2    H112013   3.850   2.081  17.293 -0.0519  1.9894  1.4837
  816MPD2    H212014   3.514   2.240  17.503 -2.4145  0.8662 -1.5556
  816MPD2    H312015   3.762   2.187  17.487 -0.5954 -2.4388  0.6582
  816MPD2     N12016   3.711   2.041  17.059  0.3377 -0.1710  0.5531
  816MPD2    H512017   3.649   2.037  16.979  0.4421 -1.2329  0.5227
  816MPD2    N112018   3.335   2.200  17.317 -0.0611  0.4145  0.1032
  816MPD2    H712019   3.297   2.236  17.404  2.0442  1.5285  0.5756
  817MPD2     C12020   3.697   3.543   8.826 -0.3088  0.4161 -0.7042
  817MPD2    C112021   3.690   3.482   8.944 -0.7431 -0.1793 -0.1614
  817MPD2    C212022   3.569   3.467   9.010  0.1302  0.1530 -0.5943
  817MPD2    C312023   3.452   3.523   8.959  0.3997  0.1836 -0.3541
  817MPD2    C412024   3.463   3.587   8.836 -0.2581  0.5573  0.3489
  817MPD2    C512025   3.584   3.601   8.772  0.0763 -0.2922 -0.0379
  817MPD2     H12026   3.574   3.416   9.105  1.2024  1.2920 -0.0370
  817MPD2    H112027   3.377   3.619   8.779 -1.6629 -2.3220  0.8420
  817MPD2    H212028   3.790   3.542   8.772  1.0534 -1.3399  1.6943
  817MPD2    H312029   3.596   3.654   8.678  1.9245  1.0897  0.9775
  817MPD2     N12030   3.339   3.532   9.046  0.0194 -0.2119 -0.5508
  817MPD2    H512031   3.348   3.484   9.135 -1.0360 -0.2968 -0.4830
  817MPD2    N112032   3.804   3.423   9.012 -0.0916  0.3420 -0.4094
  817MPD2    H712033   3.788   3.390   9.107 -0.5207 -2.4995 -1.4672
  818MPD2     C12034   2.644   3.941  10.249  0.7056 -0.2078 -0.5186
  818MPD2    C112035   2.522   3.886  10.279  0.0148  0.1747  0.1633
  818MPD2    C212036   2.525   3.748  10.293 -0.9988  0.3644  0.6549
  818MPD2    C312037   2.633   3.669  10.267 -0.5024  0.0510 -0.2861
  818MPD2    C412038   2.740   3.720  10.205 -0.1300 -0.0627 -0.5784
  818MPD2    C512039   2.748   3.859  10.216 -0.4468  0.0754 -0.0530
  818MPD2     H12040   2.434   3.701  10.328 -1.1172  0.8703  1.0279
  818MPD2    H112041   2.817   3.664  10.153 -0.6659 -0.2362 -1.1832
  818MPD2    H212042   2.658   4.047  10.230 -2.7104  0.0305 -1.7066
  818MPD2    H312043   2.837   3.907  10.179  0.0482 -2.2274 -1.8741
  818MPD2     N12044   2.622   3.527  10.262 -1.0743 -0.8942  0.7228
  818MPD2    H512045   2.698   3.474  10.221  0.7731 -0.0771  3.1552
  818MPD2    N112046   2.404   3.958  10.318 -0.5225 -0.6162 -0.2522
  818MPD2    H712047   2.317   3.906  10.314 -1.4294  1.0614 -2.1370
  819MPD2     C12048   0.203   1.078  15.969 -0.0223 -0.5487 -0.6956
  819MPD2    C112049   0.231   0.992  15.865 -0.1529  0.2527  0.6530
  819MPD2    C212050   0.348   0.925  15.855  0.0570  0.7969 -0.0370
  819MPD2    C312051   0.443   0.945  15.954  0.1762 -0.2768  0.3544
  819MPD2    C412052   0.425   1.047  16.043 -0.0057  0.3825 -0.3086
  819MPD2    C512053   0.304   1.112  16.051  0.0601 -0.1218  0.4492
  819MPD2     H12054   0.353   0.848  15.778 -1.4573 -0.2201  0.8800
  819MPD2    H112055   0.498   1.064  16.122  0.2694 -2.9992  0.1699
  819MPD2    H212056   0.106   1.117  15.998 -0.7255 -1.5738 -1.6356
  819MPD2    H312057   0.289   1.189  16.126  2.7574  0.0807  0.7837
  819MPD2     N12058   0.558   0.861  15.957 -0.2493  0.1755  0.5705
  819MPD2    H512059   0.608   0.862  16.046 -1.7257 -0.0630  1.4067
  819MPD2    N112060   0.125   0.976  15.772  0.0055  0.4342  0.3667
  819MPD2    H712061   0.031   1.001  15.801  0.2674 -0.9730  2.3758
  820MPD2     C12062   4.269   0.603  14.942 -0.3155  0.2971 -0.4666
  820MPD2    C112063   4.272   0.732  14.995  0.1284  0.4988 -0.2492
  820MPD2    C212064   4.384   0.773  15.071  0.0233 -0.0154  0.1441
  820MPD2    C312065   4.487   0.686  15.101  0.0919 -0.6758  0.1070
  820MPD2    C412066   4.483   0.563  15.048 -0.3568  0.4243  0.3045
  820MPD2    C512067   4.381   0.523  14.963  0.4477 -0.0556  0.0516
  820MPD2     H12068   4.392   0.872  15.115 -0.6673 -1.0700  2.6547
  820MPD2    H112069   4.567   0.495  15.056 -0.6627  0.3457  2.7990
  820MPD2    H212070   4.193   0.567  14.874 -1.3617 -1.5345  1.6956
  820MPD2    H312071   4.392   0.429  14.909  1.2987  0.0592  0.0223
  820MPD2     N12072   4.604   0.719  15.180 -0.2003  0.5097 -0.2077
  820MPD2    H512073   4.664   0.644  15.212  0.4038 -0.5952 -3.8647
  820MPD2    N112074   4.166   0.815  14.973  0.4738 -0.0442 -0.0206
  820MPD2    H712075   4.094   0.784  14.909 -0.2716  1.4785  0.0758
  821MPD2     C12076   0.596   1.878  13.428  0.7101  0.2330 -0.6735
  821MPD2    C112077   0.649   2.000  13.458  0.2277  0.0850 -0.1000
  821MPD2    C212078   0.744   2.060  13.381 -0.0950 -0.0480  0.4348
  821MPD2    C312079   0.789   1.989  13.270 -0.3513  0.1116 -0.1298
  821MPD2    C412080   0.723   1.873  13.235  0.3399  0.2957 -0.5855
  821MPD2    C512081   0.635   1.815  13.315 -0.0731 -0.1104 -0.2072
  821MPD2     H12082   0.785   2.155  13.414  0.7344 -0.6223  1.0749
  821MPD2    H112083   0.746   1.821  13.144  1.5543 -0.5987  0.2366
  821MPD2    H212084   0.527   1.827  13.494  0.0710 -0.7301 -2.0942
  821MPD2    H312085   0.585   1.721  13.297  1.8160 -0.8160 -1.6119
  821MPD2     N12086   0.894   2.039  13.189  0.0637  0.0243 -0.5363
  821MPD2    H512087   0.904   1.989  13.101  1.4828  0.4611 -0.6242
  821MPD2    N112088   0.602   2.070  13.571 -0.0352  0.4424  0.1241
  821MPD2    H712089   0.650   2.156  13.596 -2.2896  1.2795  1.5197
  822MPD2     C12090   0.413   2.085  16.015  0.1463  0.2325  0.1024
  822MPD2    C112091   0.447   2.055  16.147 -0.6877 -0.4199  0.7936
  822MPD2    C212092   0.384   2.131  16.244  0.1125 -1.0426  0.0586
  822MPD2    C312093   0.297   2.237  16.216  0.9337  0.1086 -0.4276
  822MPD2    C412094   0.260   2.243  16.078  0.0679 -0.2074  0.7559
  822MPD2    C512095   0.318   2.174  15.977  0.6654  0.6885 -0.3424
  822MPD2     H12096   0.411   2.107  16.346  0.2237  0.1202  0.3044
  822MPD2    H112097   0.187   2.320  16.053  0.2621 -0.3947 -0.4040
  822MPD2    H212098   0.450   2.039  15.924 -0.1364  0.0585  0.0751
  822MPD2    H312099   0.293   2.194  15.873 -1.3678  0.0570  0.0115
  822MPD2     N12100   0.237   2.317  16.319 -0.0456  1.0546  0.3378
  822MPD2    H512101   0.240   2.281  16.414 -1.5213 -0.7288 -0.2876
  822MPD2    N112102   0.551   1.962  16.186 -0.1691 -0.1444 -0.0046
  822MPD2    H712103   0.567   1.955  16.286 -1.1478  0.8028  0.2338
  823MPD2     C12104   4.644   2.493  17.088  0.3765  0.4378  1.2141
  823MPD2    C112105   4.674   2.409  16.987 -0.4059  0.1598  0.4268
  823MPD2    C212106   0.007   2.281  17.019  0.4161 -0.0195  1.0444
  823MPD2    C312107   0.033   2.248  17.151  0.3975 -0.0953 -0.1522
  823MPD2    C412108   4.713   2.336  17.250 -0.4769  0.8086  0.1999
  823MPD2    C512109   4.659   2.458  17.218  0.0919  0.0221 -0.0259
  823MPD2     H12110   0.034   2.222  16.933  1.2670  1.3683  0.3568
  823MPD2    H112111   4.715   2.307  17.354 -1.2256 -2.0845 -0.5889
  823MPD2    H212112   4.630   2.601  17.084  2.1105  0.7001  1.7739
  823MPD2    H312113   4.630   2.528  17.295 -1.0657  2.2925 -2.5197
  823MPD2     N12114   0.104   2.130  17.193  0.1995  0.0846 -0.2072
  823MPD2    H512115   0.111   2.113  17.293  0.1851 -0.2115 -0.2577
  823MPD2    N112116   4.671   2.466  16.856  0.2232  0.6583 -0.2365
  823MPD2    H712117   4.646   2.563  16.843 -1.3024  0.2730 -0.2329
  824MPD2     C12118   0.649   1.247  15.872  0.2076 -0.5071  0.5491
  824MPD2    C112119   0.763   1.302  15.922  0.2356  0.1726 -0.4989
  824MPD2    C212120   0.883   1.264  15.870 -0.3531 -1.5302 -0.0873
  824MPD2    C312121   0.891   1.164  15.776  0.2560  0.1026 -0.9071
  824MPD2    C412122   0.779   1.095  15.741  0.3689 -0.2156 -0.2379
  824MPD2    C512123   0.658   1.135  15.788  0.3201 -0.1423  0.6986
  824MPD2     H12124   0.970   1.315  15.911  0.3424 -1.0672 -2.1792
  824MPD2    H112125   0.773   1.011  15.673  0.6674 -1.8503  1.7803
  824MPD2    H212126   0.555   1.286  15.909  0.6958 -1.9882  3.3482
  824MPD2    H312127   0.576   1.087  15.736  1.5494  0.0270 -1.4255
  824MPD2     N12128   1.019   1.131  15.723  0.5809 -0.0091  0.3930
  824MPD2    H512129   1.093   1.194  15.752  1.4914 -0.3021 -1.3096
  824MPD2    N112130   0.741   1.414  16.011 -0.2775 -0.5012 -0.0927
  824MPD2    H712131   0.650   1.456  16.020 -1.2451 -2.9462  1.6396
  825MPD2     C12132   1.718   1.301  15.244 -0.2486 -0.4792  0.7557
  825MPD2    C112133   1.642   1.342  15.345  0.5309 -0.5277  0.4004
  825MPD2    C212134   1.640   1.478  15.379 -0.7578  0.2965 -0.1569
  825MPD2    C312135   1.714   1.574  15.308 -0.1925  0.6292  0.3762
  825MPD2    C412136   1.793   1.526  15.203 -0.2387 -0.6153  0.6909
  825MPD2    C512137   1.791   1.388  15.168  0.4685 -0.4285 -0.1522
  825MPD2     H12138   1.588   1.510  15.468 -1.3440 -0.8106 -0.1016
  825MPD2    H112139   1.847   1.603  15.149 -2.2138  0.1370 -0.2192
  825MPD2    H212140   1.711   1.198  15.210  1.0585  0.4105 -2.2401
  825MPD2    H312141   1.859   1.353  15.092 -0.7410 -1.4484 -0.7684
  825MPD2     N12142   1.714   1.709  15.336 -0.3150  0.4908 -0.5154
  825MPD2    H512143   1.762   1.773  15.274  0.2407  2.1296  1.6137
  825MPD2    N112144   1.570   1.242  15.418 -0.6197  0.6565 -0.4926
  825MPD2    H712145   1.585   1.144  15.398  0.9085  0.7903 -0.0622
  826MPD2     C12146   1.587   1.531  13.795  0.4420  0.0243 -0.6270
  826MPD2    C112147   1.508   1.533  13.686 -0.3779 -0.0407 -0.3951
  826MPD2    C212148   1.392   1.617  13.689  0.7951  0.1006 -0.0164
  826MPD2    C312149   1.360   1.684  13.810  0.3456 -0.1778 -0.2016
  826MPD2    C412150   1.444   1.678  13.913 -0.2013 -0.4600  0.0918
  826MPD2    C512151   1.552   1.597  13.908  0.0044  0.1987 -0.5441
  826MPD2     H12152   1.327   1.628  13.603 -0.1041 -1.8090  0.4187
  826MPD2    H112153   1.415   1.733  14.002 -2.2376  2.6934 -2.5258
  826MPD2    H212154   1.685   1.486  13.804  0.0073 -1.2040 -1.9178
  826MPD2    H312155   1.615   1.602  13.996  1.1919 -0.2680 -1.3810
  826MPD2     N12156   1.246   1.766  13.809 -0.5034  0.2388  0.0084
  826MPD2    H512157   1.236   1.821  13.894  3.0646 -0.0143  0.5721
  826MPD2    N112158   1.532   1.456  13.570 -0.2181 -0.3740  0.1619
  826MPD2    H712159   1.459   1.469  13.501 -0.0401  2.3069  0.4936
  827MPD2     C12160   1.979   2.220   9.647 -0.0092 -0.3137 -0.3124
  827MPD2    C112161   2.084   2.170   9.714  0.2111  0.4101  0.3134
  827MPD2    C212162   2.110   2.032   9.706 -0.1793  0.0795 -0.0367
  827MPD2    C312163   2.038   1.944   9.623  0.2835 -0.3369  0.4870
  827MPD2    C412164   1.928   1.996   9.557 -0.3581  0.4189 -0.4824
  827MPD2    C512165   1.913   2.132   9.562  0.2125 -0.8033  0.2543
  827MPD2     H12166   2.185   1.981   9.767 -0.1275  0.5595  0.3058
  827MPD2    H112167   1.853   1.937   9.506  0.3832 -0.5130 -0.4951
  827MPD2    H212168   1.950   2.324   9.646  0.1019 -0.2814 -0.0266
  827MPD2    H312169   1.835   2.181   9.504  0.6048 -1.0822 -0.5110
  827MPD2     N12170   2.065   1.804   9.630  0.3933  0.5272  0.8244
  827MPD2    H512171   2.132   1.769   9.699  0.3608 -1.3092 -0.0631
  827MPD2    N112172   2.155   2.267   9.796 -0.0092  0.2007  0.0355
  827MPD2    H712173   2.111   2.358   9.807 -0.6274 -0.2101  0.9662
  828MPD2     C12174   0.824   2.517  12.079  0.3405 -0.3164  0.1634
  828MPD2    C112175   0.766   2.491  11.956  0.5211  0.0514 -0.7258
  828MPD2    C212176   0.845   2.464  11.846 -1.0338 -0.3467 -0.0717
  828MPD2    C312177   0.988   2.452  11.852 -1.1068  0.3380 -0.0700
  828MPD2    C412178   1.039   2.472  11.980 -0.5045 -0.7104  0.1219
  828MPD2    C512179   0.957   2.511  12.087 -0.6622  0.1151  0.3096
  828MPD2     H12180   0.794   2.441  11.754 -2.4181  0.9178  0.3959
  828MPD2    H112181   1.147   2.472  11.992 -0.7403  1.0750  2.2360
  828MPD2    H212182   0.774   2.552  12.169 -1.4614  0.3135 -1.1033
  828MPD2    H312183   0.992   2.555  12.180  4.1856  0.5885 -1.7742
  828MPD2     N12184   1.075   2.409  11.755 -0.1550  0.3920  0.1597
  828MPD2    H512185   1.175   2.406  11.770 -0.3502  1.6016  1.7630
  828MPD2    N112186   0.623   2.494  11.939 -0.6892  0.3139  0.4094
  828MPD2    H712187   0.597   2.499  11.841 -2.0595 -0.3709  0.7449
  829MPD2     C12188   4.589   2.738  11.385 -0.2171 -0.8374  0.6598
  829MPD2    C112189   4.538   2.765  11.506 -0.1399 -0.0079 -0.5880
  829MPD2    C212190   4.593   2.697  11.614 -0.2812 -0.6655  0.1124
  829MPD2    C312191   4.713   2.622  11.595  0.2727 -0.2453  0.0446
  829MPD2    C412192   0.039   2.602  11.470 -0.0664 -1.0923  0.3920
  829MPD2    C512193   4.692   2.655  11.364  0.5184  0.6617  0.2954
  829MPD2     H12194   4.552   2.704  11.714 -0.2630 -1.2305  0.1605
  829MPD2    H112195   0.122   2.535  11.447  0.5787 -0.4752  0.9039
  829MPD2    H212196   4.537   2.782  11.301 -0.4576  0.6464  1.5754
  829MPD2    H312197   4.716   2.619  11.264 -2.5055 -1.3485  0.2672
  829MPD2     N12198   0.062   2.558  11.712 -0.2044  0.1715  0.1357
  829MPD2    H512199   0.010   2.548  11.799 -0.3228  0.4028  0.0919
  829MPD2    N112200   4.433   2.859  11.508 -0.1017  0.4187  0.1599
  829MPD2    H712201   4.417   2.893  11.414  1.4279  0.7877  0.0330
  830MPD2     C12202   0.626   0.194  15.590 -0.2502 -0.4024  0.0618
  830MPD2    C112203   0.691   0.309  15.592 -0.0364  0.9744  0.4324
  830MPD2    C212204   0.684   0.383  15.477 -0.0963 -0.6099  0.9241
  830MPD2    C312205   0.616   0.342  15.368 -0.3759  0.2867  0.4211
  830MPD2    C412206   0.557   0.213  15.361 -0.3038 -0.0436  0.0412
  830MPD2    C512207   0.566   0.138  15.480 -0.1051 -0.0569  0.2215
  830MPD2     H12208   0.732   0.480  15.465 -0.8743 -0.2959  0.3202
  830MPD2    H112209   0.508   0.165  15.277 -0.5205  1.5845 -0.7642
  830MPD2    H212210   0.616   0.152  15.690 -1.1336 -0.4871 -0.0653
  830MPD2    H312211   0.526   0.037  15.488  0.4451 -0.4075 -1.5014
  830MPD2     N12212   0.592   0.415  15.245 -0.0808  0.1575 -0.1365
  830MPD2    H512213   0.575   0.353  15.167  0.6090  0.4688 -0.5349
  830MPD2    N112214   0.750   0.351  15.712 -0.0710  0.3931  0.0181
  830MPD2    H712215   0.725   0.301  15.797 -0.6264 -0.3773 -0.6057
  831MPD2     C12216   0.494   2.424  16.691  0.2608  0.0269 -0.1586
  831MPD2    C112217   0.503   2.326  16.599 -0.4133 -0.1249 -0.0829
  831MPD2    C212218   0.433   2.207  16.614 -0.1792 -0.3820 -0.6881
  831MPD2    C312219   0.349   2.191  16.722  0.4724 -0.0910 -0.0207
  831MPD2    C412220   0.340   2.291  16.818  0.1265  0.5068 -0.0124
  831MPD2    C512221   0.413   2.411  16.803 -0.5744 -0.8110  0.4708
  831MPD2     H12222   0.438   2.125  16.543  0.6981 -0.1038 -0.9405
  831MPD2    H112223   0.268   2.277  16.898 -0.0633 -1.6121 -0.5543
  831MPD2    H212224   0.551   2.516  16.681 -1.2544  1.1413  1.4152
  831MPD2    H312225   0.392   2.500  16.861 -0.4626 -0.8875  0.6288
  831MPD2     N12226   0.246   2.092  16.718 -0.3916  0.2424  0.0879
  831MPD2    H512227   0.204   2.081  16.810  1.6210  0.0557  1.0001
  831MPD2    N112228   0.606   2.345  16.510  1.1819  0.0568  0.6533
  831MPD2    H712229   0.647   2.438  16.505 -0.6993  0.8183 -0.4460
  832MPD2     C12230   3.399   3.151  17.358  0.0327  0.5194 -0.4112
  832MPD2    C112231   3.292   3.241  17.345 -0.0307  0.0149 -0.0871
  832MPD2    C212232   3.197   3.225  17.248 -0.3018 -0.1362 -0.2197
  832MPD2    C312233   3.210   3.124  17.154 -0.1990 -0.9300  0.5667
  832MPD2    C412234   3.307   3.028  17.176 -0.2722  0.2762 -1.0419
  832MPD2    C512235   3.398   3.042  17.275  0.1521  0.7690 -0.3039
  832MPD2     H12236   3.139   3.312  17.218 -0.6078 -0.2258  0.1096
  832MPD2    H112237   3.324   2.954  17.099  0.2602 -1.0690  0.3621
  832MPD2    H212238   3.477   3.171  17.430  1.0102 -2.0435 -0.7529
  832MPD2    H312239   3.478   2.969  17.283  0.7261  1.3183 -1.0170
  832MPD2     N12240   3.129   3.096  17.041 -0.3623  0.4008 -1.2937
  832MPD2    H512241   3.144   3.010  16.989  0.0633  0.6651 -1.6144
  832MPD2    N112242   3.288   3.347  17.437 -0.5461  0.4618 -0.5936
  832MPD2    H712243   3.372   3.352  17.495 -1.9526  0.9534  1.4129
  833MPD2     C12244   1.275   0.515  12.749  0.2573 -0.4418 -0.3864
  833MPD2    C112245   1.367   0.577  12.667  0.4655 -0.2372 -0.1361
  833MPD2    C212246   1.449   0.500  12.581  0.1121  0.1491 -0.1445
  833MPD2    C312247   1.445   0.355  12.582 -0.3905 -0.1516 -0.4431
  833MPD2    C412248   1.360   0.295  12.672 -0.8897  0.0269  0.4281
  833MPD2    C512249   1.280   0.373  12.755 -0.7194 -0.6652  0.3266
  833MPD2     H12250   1.525   0.546  12.519 -0.3936 -0.5572 -1.2761
  833MPD2    H112251   1.340   0.189  12.677  0.6792 -0.3933 -2.3518
  833MPD2    H212252   1.209   0.570  12.815  0.7567 -1.8813  1.3094
  833MPD2    H312253   1.206   0.321  12.815 -0.0375  2.1006  3.5839
  833MPD2     N12254   1.519   0.277  12.492  0.2929  0.0235  0.0580
  833MPD2    H512255   1.508   0.176  12.499 -0.0368  0.0666  0.1429
  833MPD2    N112256   1.376   0.717  12.672 -0.0034 -0.0838  0.6220
  833MPD2    H712257   1.324   0.767  12.743 -2.3180  1.0617 -1.8898
  834MPD2     C12258   1.263   4.358  11.790  0.3824  0.1322  0.5770
  834MPD2    C112259   1.366   4.421  11.728  0.5905 -0.2689  0.1309
  834MPD2    C212260   1.425   4.530  11.790 -0.9750 -0.0442 -0.2155
  834MPD2    C312261   1.385   4.573  11.914 -0.3499  0.6396 -0.3599
  834MPD2    C412262   1.288   4.501  11.983  0.0877  0.0094 -0.3323
  834MPD2    C512263   1.222   4.397  11.916  0.5551  0.5266 -0.1853
  834MPD2     H12264   1.505   4.585  11.742 -1.0867  0.3050 -0.0061
  834MPD2    H112265   1.258   4.514  12.087 -0.7016  2.2224 -0.8150
  834MPD2    H212266   1.207   4.277  11.745 -0.8599  0.7942  0.9309
  834MPD2    H312267   1.148   4.334  11.964  1.1140  0.6565  0.8544
  834MPD2     N12268   1.461   4.679  11.972 -0.2267 -0.0871 -0.4706
  834MPD2    H512269   1.527   4.717  11.906  0.4007  1.5892  1.1054
  834MPD2    N112270   1.402   4.360  11.607  0.0122  0.4504 -0.3701
  834MPD2    H712271   1.346   4.282  11.574 -0.1744  0.2878  0.3252
  835MPD2     C12272   1.265   2.244  10.764  0.1656  0.7363 -0.4218
  835MPD2    C112273   1.183   2.306  10.850  0.4070  0.1005  0.1006
  835MPD2    C212274   1.240   2.379  10.960 -0.0109 -0.2546  0.4801
  835MPD2    C312275   1.374   2.379  10.979 -0.7127 -0.3009  0.1009
  835MPD2    C412276   1.458   2.319  10.890  0.0730 -0.8311  0.2864
  835MPD2    C512277   1.401   2.254  10.779 -0.7944 -0.3646  0.1950
  835MPD2     H12278   1.179   2.429  11.035  0.4273 -0.0081  0.6699
  835MPD2    H112279   1.564   2.302  10.906  0.6793  0.2931 -2.6362
  835MPD2    H212280   1.231   2.176  10.687 -0.8713  2.2430 -1.2769
  835MPD2    H312281   1.462   2.201  10.707 -0.0721  0.7885 -0.0422
  835MPD2     N12282   1.443   2.440  11.092  0.6070  0.5438 -0.0114
  835MPD2    H512283   1.543   2.428  11.103  0.3639  0.3086  1.8785
  835MPD2    N112284   1.043   2.299  10.840  0.3560  0.1902  0.4463
  835MPD2    H712285   0.987   2.335  10.917  1.1206  0.1015  1.0437
  836MPD2     C12286   1.257   3.078  11.584 -0.9585 -0.6265 -0.5054
  836MPD2    C112287   1.366   3.003  11.616 -0.1975  0.2337  0.0479
  836MPD2    C212288   1.412   3.006  11.748 -0.6172  0.0273  0.4325
  836MPD2    C312289   1.349   3.083  11.843 -0.1755 -0.0542  0.3995
  836MPD2    C412290   1.249   3.162  11.805 -0.3550 -0.7533  0.2440
  836MPD2    C512291   1.199   3.162  11.673  0.2916  0.6038  0.4358
  836MPD2     H12292   1.493   2.937  11.768 -0.0309 -0.2063 -2.7880
  836MPD2    H112293   1.195   3.220  11.880  4.7144  1.8707  1.8165
  836MPD2    H212294   1.219   3.070  11.483 -2.4872 -2.2355  0.1937
  836MPD2    H312295   1.106   3.212  11.652 -0.1961 -0.6423 -0.3595
  836MPD2     N12296   1.392   3.074  11.981 -0.2409 -0.6108  0.4373
  836MPD2    H512297   1.355   3.145  12.044 -1.1537  0.9094 -1.8145
  836MPD2    N112298   1.423   2.923  11.509 -0.4518  0.1779 -0.2525
  836MPD2    H712299   1.366   2.913  11.426 -0.3610  0.5591 -0.3621
  837MPD2     C12300   4.565   2.358   9.910  0.0566  1.3619  1.0839
  837MPD2    C112301   4.433   2.340   9.876 -0.4026 -0.3757  0.1553
  837MPD2    C212302   4.345   2.447   9.879 -0.4641  0.6503  0.1543
  837MPD2    C312303   4.398   2.567   9.913 -0.0887 -0.1168  0.1801
  837MPD2    C412304   4.526   2.581   9.950 -0.9552  0.2511  0.5256
  837MPD2    C512305   4.611   2.481   9.945 -0.0348  0.2759  0.5883
  837MPD2     H12306   4.249   2.426   9.833 -0.1609 -2.3173  0.8471
  837MPD2    H112307   4.572   2.679   9.952 -0.4682  0.0884 -2.3787
  837MPD2    H212308   4.647   2.287   9.903 -1.4531 -0.1576 -1.2909
  837MPD2    H312309   4.717   2.490   9.964  0.7067  1.3865 -4.1691
  837MPD2     N12310   4.314   2.683   9.893 -0.7603 -0.0528  0.3051
  837MPD2    H512311   4.215   2.663   9.882  0.0759 -0.8077 -6.1637
  837MPD2    N112312   4.385   2.221   9.820  0.1231  0.5245  1.2394
  837MPD2    H712313   4.286   2.210   9.800  0.3331 -0.3467  0.6656
  838MPD2     C12314   3.383   0.604  11.515  0.1829 -0.5238  0.4783
  838MPD2    C112315   3.311   0.498  11.468 -0.4778 -0.5607  0.2437
  838MPD2    C212316   3.180   0.485  11.506 -0.3606 -0.7475  0.2736
  838MPD2    C312317   3.116   0.584  11.571  0.5944 -0.1176 -0.0874
  838MPD2    C412318   3.182   0.691  11.616 -0.0313 -0.2048 -0.0290
  838MPD2    C512319   3.318   0.699  11.585 -0.2670  0.2537  0.7308
  838MPD2     H12320   3.129   0.394  11.478 -0.0018 -1.0267  0.5354
  838MPD2    H112321   3.131   0.767  11.674 -0.4523 -0.7064  0.2567
  838MPD2    H212322   3.489   0.620  11.505 -0.0219  0.1856 -0.5622
  838MPD2    H312323   3.379   0.782  11.619  0.2106 -0.4336  1.5642
  838MPD2     N12324   2.977   0.570  11.601  0.5373  0.6013 -0.1833
  838MPD2    H512325   2.932   0.481  11.581 -0.8857  1.5099 -1.0656
  838MPD2    N112326   3.364   0.405  11.377 -0.4507 -0.0663  0.6444
  838MPD2    H712327   3.298   0.332  11.355 -1.3226  0.5746  1.1266
  839MPD2     C12328   2.712   0.538  11.332 -0.2513  0.6328 -0.4512
  839MPD2    C112329   2.739   0.413  11.276 -0.4958 -0.0154 -0.3242
  839MPD2    C212330   2.856   0.382  11.213 -0.2511  0.1248  0.3430
  839MPD2    C312331   2.956   0.474  11.201 -0.5554  0.3017  0.4313
  839MPD2    C412332   2.933   0.593  11.262 -0.8008  0.6264  0.1299
  839MPD2    C512333   2.816   0.625  11.329 -0.2781 -0.0337  0.6069
  839MPD2     H12334   2.857   0.286  11.164 -0.5592  0.3018 -0.0064
  839MPD2    H112335   3.014   0.662  11.244 -1.1919  0.9458 -0.4024
  839MPD2    H212336   2.619   0.571  11.378 -0.9070 -0.3230 -1.1020
  839MPD2    H312337   2.801   0.725  11.367  3.0925  0.5032  0.4606
  839MPD2     N12338   3.080   0.444  11.139 -0.0595 -0.2712 -0.0796
  839MPD2    H512339   3.138   0.519  11.102  0.2372  0.2409  1.3894
  839MPD2    N112340   2.651   0.303  11.293  0.1812 -0.0080  0.0719
  839MPD2    H712341   2.672   0.215  11.248 -0.1884 -0.0379 -0.0437
  840MPD2     C12342   2.726   2.713   9.857 -0.1452 -0.2662 -0.1510
  840MPD2    C112343   2.720   2.648   9.975 -0.0442 -0.4046 -0.2019
  840MPD2    C212344   2.813   2.678  10.073 -0.3302  0.3559  0.0672
  840MPD2    C312345   2.921   2.759  10.049 -0.2720 -0.1670  0.7262
  840MPD2    C412346   2.932   2.813   9.923  0.5472  0.0427 -0.3910
  840MPD2    C512347   2.834   2.791   9.830 -0.0085 -0.0777 -0.0392
  840MPD2     H12348   2.818   2.617  10.162  1.8882  0.0654 -0.2458
  840MPD2    H112349   3.013   2.880   9.897  0.9035  0.6066  2.1705
  840MPD2    H212350   2.647   2.705   9.783  0.1695  1.0235 -0.6181
  840MPD2    H312351   2.841   2.831   9.730  0.0581  2.0020  0.7931
  840MPD2     N12352   3.017   2.796  10.143  0.5028  0.1652  0.2795
  840MPD2    H512353   3.093   2.858  10.116  0.8508 -0.6994 -0.7243
  840MPD2    N112354   2.609   2.567   9.992  0.1388 -0.6775 -0.1080
  840MPD2    H712355   2.547   2.558   9.912  0.0288 -0.0563 -0.0920
  841MPD2     C12356   2.648   1.860  14.507 -0.7887  1.0807 -0.0222
  841MPD2    C112357   2.668   1.988  14.466  0.8027 -0.7825  0.2860
  841MPD2    C212358   2.732   2.083  14.552 -0.5202 -0.5552  0.1259
  841MPD2    C312359   2.777   2.048  14.683 -0.0451 -0.3511  0.0747
  841MPD2    C412360   2.763   1.911  14.721 -0.3963  0.7776 -0.2585
  841MPD2    C512361   2.702   1.819  14.630 -0.0733 -0.5629  0.2514
  841MPD2     H12362   2.746   2.186  14.520  0.6021 -1.4627 -2.2547
  841MPD2    H112363   2.794   1.858  14.810 -0.4683  3.4060  1.3249
  841MPD2    H212364   2.590   1.788  14.451 -0.4399  2.0679 -1.6332
  841MPD2    H312365   2.700   1.713  14.655 -0.1157 -0.7240 -0.4342
  841MPD2     N12366   2.819   2.149  14.772 -0.5525 -0.0170  0.3603
  841MPD2    H512367   2.818   2.246  14.743  2.2458 -0.1562 -0.2250
  841MPD2    N112368   2.630   2.020  14.329 -0.1441 -0.3249  0.4193
  841MPD2    H712369   2.582   1.946  14.281 -0.6637  0.8417 -0.8608
  842MPD2     C12370   2.630   3.615  16.685  0.7073  0.2722  0.0832
  842MPD2    C112371   2.542   3.509  16.713  0.2831  0.0030 -0.2632
  842MPD2    C212372   2.550   3.446  16.836 -0.5272 -0.3772  0.5431
  842MPD2    C312373   2.626   3.506  16.933 -0.0287  0.0015 -0.3535
  842MPD2    C412374   2.703   3.611  16.906 -0.4342  0.5655  0.4914
  842MPD2    C512375   2.703   3.663  16.781  0.5038  0.1230  0.1137
  842MPD2     H12376   2.492   3.358  16.862 -0.2604 -0.9352 -0.7590
  842MPD2    H112377   2.771   3.658  16.976  1.2894  0.2080 -0.9456
  842MPD2    H212378   2.628   3.652  16.584  1.8762 -0.6239 -0.2730
  842MPD2    H312379   2.773   3.742  16.759  0.0556  0.9348  1.5965
  842MPD2     N12380   2.624   3.477  17.069  0.6675  0.0984  0.0214
  842MPD2    H512381   2.677   3.528  17.139 -0.9509  1.2738  0.3768
  842MPD2    N112382   2.452   3.455  16.609  0.4992  0.5246 -0.0732
  842MPD2    H712383   2.466   3.487  16.514  0.8058  0.0624 -0.1883
  843MPD2     C12384   0.208   4.129   0.439  0.3488 -0.0486 -0.0919
  843MPD2    C112385   0.249   4.131   0.575 -0.0968  0.2512 -0.2500
  843MPD2    C212386   0.357   4.200   0.615  0.3895  0.6267  0.4399
  843MPD2    C312387   0.413   4.297   0.538  0.3438 -0.3519  0.3749
  843MPD2    C412388   0.365   4.306   0.410 -0.9518  0.0838  0.8885
  843MPD2    C512389   0.265   4.224   0.354 -0.5769  0.2815 -0.0891
  843MPD2     H12390   0.393   4.189   0.717  1.3207 -0.0837  0.0444
  843MPD2    H112391   0.413   4.387   0.355 -2.0949 -0.2113 -0.5683
  843MPD2    H212392   0.135   4.061   0.398 -0.4934  1.0082 -0.3553
  843MPD2    H312393   0.235   4.226   0.250 -1.0515 -0.5034  0.0292
  843MPD2     N12394   0.518   4.381   0.580 -0.1281 -0.1089  0.2338
  843MPD2    H512395   0.537   4.459   0.517 -1.6537 -0.6364 -0.8627
  843MPD2    N112396   0.168   4.055   0.661  0.3148  0.1209  0.1426
  843MPD2    H712397   0.086   4.020   0.614  0.5586  1.0882 -0.9912
  844MPD2     C12398   3.009   3.015  16.375  0.2531 -0.4783 -0.6547
  844MPD2    C112399   3.107   2.937  16.432 -1.1927  0.3424  0.2211
  844MPD2    C212400   3.189   2.985  16.533  0.4235 -0.1446 -0.6056
  844MPD2    C312401   3.182   3.114  16.585 -0.0913  0.1354 -0.4951
  844MPD2    C412402   3.090   3.198  16.519 -0.1932 -0.5111  0.5430
  844MPD2    C512403   3.009   3.145  16.426  0.2845  0.1151  0.0536
  844MPD2     H12404   3.257   2.915  16.579  0.6251  0.1094 -0.5170
  844MPD2    H112405   3.096   3.304  16.540 -0.4429 -0.6972  1.5672
  844MPD2    H212406   2.938   2.989  16.297  0.3069  0.4460 -1.0162
  844MPD2    H312407   2.958   3.221  16.369  0.0655 -3.1157 -4.0953
  844MPD2     N12408   3.273   3.158  16.691  0.5258 -0.0831 -0.1836
  844MPD2    H512409   3.337   3.084  16.718  0.7501 -0.1233 -0.8127
  844MPD2    N112410   3.128   2.803  16.389  0.1160 -0.4968  0.4509
  844MPD2    H712411   3.214   2.758  16.419  0.9492 -0.7118 -2.3218
  845MPD2     C12412   3.316   3.993  17.331  0.1049 -0.0655  0.0998
  845MPD2    C112413   3.215   3.903  17.327 -0.5493  0.8219  0.3529
  845MPD2    C212414   3.230   3.784  17.252  0.1488  0.2377 -0.5875
  845MPD2    C312415   3.351   3.754  17.192  0.0007  0.5006 -1.4198
  845MPD2    C412416   3.455   3.847  17.206 -0.1888 -0.4981 -0.3388
  845MPD2    C512417   3.429   3.968  17.261 -0.1842  0.0895  0.0919
  845MPD2     H12418   3.162   3.701  17.238  0.7155 -0.0002 -1.9619
  845MPD2    H112419   3.551   3.834  17.158 -0.1864  2.4323 -1.1081
  845MPD2    H212420   3.308   4.084  17.389  0.3251  0.5114 -0.7646
  845MPD2    H312421   3.501   4.049  17.268 -0.6183  0.4759  0.0401
  845MPD2     N12422   3.366   3.633  17.124 -0.0813  0.1008  0.4121
  845MPD2    H512423   3.281   3.581  17.109 -1.0949  1.5571  1.1202
  845MPD2    N112424   3.096   3.943  17.384  0.4456  0.4930 -0.3618
  845MPD2    H712425   3.093   4.034  17.430 -0.3888 -0.5335  1.6238
  846MPD2     C12426   0.475   4.469  13.392  0.8136 -0.0426  0.1575
  846MPD2    C112427   0.464   4.597  13.440  0.1626  0.9102 -0.3927
  846MPD2    C212428   0.417   4.626  13.568  0.9651  0.3384 -0.0090
  846MPD2    C312429   0.390   4.523  13.653 -0.6245 -0.3098 -0.4131
  846MPD2    C412430   0.407   4.390  13.612 -0.6691 -1.0072 -0.2401
  846MPD2    C512431   0.449   4.367  13.486 -0.8490  0.0629  0.1427
  846MPD2     H12432   0.389   0.007  13.595 -0.2279 -0.1144  0.4545
  846MPD2    H112433   0.376   4.305  13.671 -1.4949 -0.1844  0.5247
  846MPD2    H212434   0.506   4.451  13.290 -0.5296 -1.6471  0.0245
  846MPD2    H312435   0.462   4.263  13.457  1.6830  0.2567  0.5438
  846MPD2     N12436   0.348   4.547  13.788 -0.3969 -0.2223 -0.1588
  846MPD2    H512437   0.296   4.632  13.810  0.6605 -0.4655  3.2377
  846MPD2    N112438   0.509   4.705  13.360  0.3165 -0.1759 -0.3604
  846MPD2    H712439   0.515   0.069  13.417  3.6252  0.4181 -1.6180
  847MPD2     C12440   0.684   0.585  14.220  0.1404  0.6217  0.3576
  847MPD2    C112441   0.739   0.630  14.342 -0.4460 -0.7650 -0.7576
  847MPD2    C212442   0.783   0.541  14.430 -1.1676  0.5266 -0.0155
  847MPD2    C312443   0.777   0.400  14.406  0.3283  0.0889 -0.0065
  847MPD2    C412444   0.735   0.359  14.279  0.2859  0.2443 -0.1199
  847MPD2    C512445   0.685   0.448  14.191  0.9286  0.4458 -0.6699
  847MPD2     H12446   0.828   0.565  14.526  0.2926 -0.7379 -0.3683
  847MPD2    H112447   0.726   0.254  14.253  0.7358 -0.5115  2.8037
  847MPD2    H212448   0.649   0.660  14.150  2.8862  0.8742 -0.7184
  847MPD2    H312449   0.657   0.408  14.094  0.1079 -1.6067  0.4089
  847MPD2     N12450   0.826   0.311  14.509 -0.4739  0.3286 -0.1166
  847MPD2    H512451   0.865   0.360  14.589  0.2964 -1.0850  0.3733
  847MPD2    N112452   0.758   0.766  14.380  0.3566 -0.0764 -0.2095
  847MPD2    H712453   0.805   0.778  14.469  1.0099  1.0671 -0.7259
  848MPD2     C12454   2.696   3.348  16.363 -0.1423 -0.5910  0.0797
  848MPD2    C112455   2.771   3.395  16.466 -0.4998 -1.0676 -0.1626
  848MPD2    C212456   2.856   3.506  16.445 -0.3637  0.0341 -0.3324
  848MPD2    C312457   2.844   3.587  16.331  0.0022 -0.9989 -0.2879
  848MPD2    C412458   2.754   3.551  16.237 -0.1373 -0.1831  0.5479
  848MPD2    C512459   2.685   3.432  16.255 -0.0288  0.3786  0.0651
  848MPD2     H12460   2.930   3.513  16.523 -1.1739 -0.7229  0.5067
  848MPD2    H112461   2.743   3.602  16.142 -2.0431  0.6867  1.2487
  848MPD2    H212462   2.643   3.253  16.361  0.0674 -0.7281  1.1733
  848MPD2    H312463   2.620   3.399  16.174  0.3944  0.6739 -0.3939
  848MPD2     N12464   2.919   3.704  16.318 -0.2879 -0.6408  0.4219
  848MPD2    H512465   2.893   3.764  16.240 -0.2521 -0.6123  0.4321
  848MPD2    N112466   2.791   3.308  16.578  0.4376 -0.2328 -0.4247
  848MPD2    H712467   2.867   3.335  16.638 -0.5197 -1.7548  1.4720
  849MPD2     C12468   1.981   3.545  14.355  0.1488 -0.0879  0.0967
  849MPD2    C112469   2.090   3.542  14.268  0.0179 -0.5928 -0.3717
  849MPD2    C212470   2.212   3.485  14.312 -0.0883  0.5310  0.0712
  849MPD2    C312471   2.224   3.441  14.448 -0.3410 -0.4984  0.7241
  849MPD2    C412472   2.115   3.445  14.537 -0.1506  0.9159 -0.1530
  849MPD2    C512473   1.998   3.492  14.482  0.0921  0.4848 -0.9455
  849MPD2     H12474   2.297   3.486  14.243 -0.5130  0.6200 -0.4528
  849MPD2    H112475   2.107   3.399  14.635  2.3821 -0.9688 -0.8407
  849MPD2    H212476   1.885   3.584  14.324 -1.6226 -1.2167  4.2061
  849MPD2    H312477   1.913   3.483  14.549 -0.1392 -1.0235 -1.4195
  849MPD2     N12478   2.354   3.399  14.481 -0.3902  0.2217  0.4655
  849MPD2    H512479   2.417   3.384  14.403  0.7204  2.1297  1.0097
  849MPD2    N112480   2.076   3.600  14.137 -0.1766  0.3214  0.7897
  849MPD2    H712481   1.991   3.636  14.095 -0.4869 -0.0341  1.1173
  850MPD2     C12482   0.388   1.922  14.784 -0.3547  0.4844  0.2643
  850MPD2    C112483   0.413   1.806  14.844  0.2163 -0.4362  0.1042
  850MPD2    C212484   0.511   1.795  14.939 -0.6476 -0.4061 -0.9912
  850MPD2    C312485   0.593   1.900  14.972 -0.2272 -0.1736  0.3162
  850MPD2    C412486   0.569   2.018  14.898 -0.2409 -0.5285 -0.1400
  850MPD2    C512487   0.469   2.031  14.815  0.2614 -0.7556  0.1433
  850MPD2     H12488   0.515   1.697  14.985 -0.8115 -0.3472 -0.8535
  850MPD2    H112489   0.634   2.100  14.926 -2.7245  1.0855  0.8293
  850MPD2    H212490   0.316   1.952  14.708  1.3412  0.7082 -1.2598
  850MPD2    H312491   0.471   2.125  14.760 -1.3759 -1.9101 -1.8942
  850MPD2     N12492   0.690   1.902  15.076 -0.4535  0.5202  0.1030
  850MPD2    H512493   0.733   1.992  15.097 -2.1740  1.0478  1.3578
  850MPD2    N112494   0.337   1.688  14.810  0.2167  0.1512 -0.2087
  850MPD2    H712495   0.359   1.602  14.860 -2.2671 -1.3188 -1.6543
  851MPD2     C12496   0.400   1.017  14.500 -0.3856 -0.2770 -0.3935
  851MPD2    C112497   0.396   1.059  14.634 -1.2827  0.2555  0.3682
  851MPD2    C212498   0.448   0.978  14.732 -0.7954 -0.5774  0.5771
  851MPD2    C312499   0.499   0.849  14.698  0.5284  0.6342  0.5928
  851MPD2    C412500   0.501   0.809  14.566  0.0365  0.2419 -0.2510
  851MPD2    C512501   0.450   0.901  14.474 -0.0404 -0.8673 -0.1573
  851MPD2     H12502   0.446   1.008  14.835  0.6337 -2.7407  1.2390
  851MPD2    H112503   0.543   0.714  14.536  1.8190  1.5113 -1.7526
  851MPD2    H212504   0.357   1.077  14.421 -2.4525  0.0120  0.9478
  851MPD2    H312505   0.450   0.887  14.367  0.4101 -1.1294 -0.1252
  851MPD2     N12506   0.537   0.760  14.803  0.9710  0.5750 -0.3376
  851MPD2    H512507   0.529   0.804  14.894  1.9786  0.0276  0.0253
  851MPD2    N112508   0.328   1.183  14.665  0.0907  0.1511  0.3240
  851MPD2    H712509   0.278   1.235  14.593 -0.6842 -0.4037  0.4650
  852MPD2     C12510   1.034   3.547  10.054  0.6503  0.2573  0.8404
  852MPD2    C112511   0.927   3.517   9.979  0.0744 -0.1517  0.3201
  852MPD2    C212512   0.925   3.544   9.840 -0.6755 -0.0763 -0.6045
  852MPD2    C312513   1.037   3.599   9.779  0.6304 -0.3646 -0.0516
  852MPD2    C412514   1.142   3.642   9.865  0.4063  0.3622  0.0531
  852MPD2    C512515   1.142   3.614  10.002 -0.3801 -0.1520  0.2221
  852MPD2     H12516   0.844   3.502   9.781 -0.1707 -0.9574 -0.6588
  852MPD2    H112517   1.233   3.683   9.823 -0.2664  0.8225 -0.9648
  852MPD2    H212518   1.044   3.527  10.160  0.3557  0.1362  0.8452
  852MPD2    H312519   1.227   3.638  10.065  0.9986 -3.0659 -0.4932
  852MPD2     N12520   1.029   3.617   9.640  0.0140 -0.2107 -0.9531
  852MPD2    H512521   0.937   3.611   9.597  0.0023  0.6043 -1.0353
  852MPD2    N112522   0.816   3.452  10.040 -0.6851 -0.9301  0.8527
  852MPD2    H712523   0.747   3.408   9.980 -0.3374  0.1437 -0.3353
  853MPD2     C12524   1.581   4.422  12.339  0.1041  1.0531 -0.3295
  853MPD2    C112525   1.695   4.471  12.285 -0.2413  0.0548 -0.7734
  853MPD2    C212526   1.728   4.433  12.153 -0.2152  0.0952  0.1810
  853MPD2    C312527   1.632   4.361  12.081  0.0338 -0.6926 -0.9665
  853MPD2    C412528   1.513   4.323  12.139  0.3615  0.2577  0.6477
  853MPD2    C512529   1.492   4.347  12.271 -0.1398 -0.8116  0.3600
  853MPD2     H12530   1.817   4.466  12.102 -0.4809 -1.0805 -1.0335
  853MPD2    H112531   1.443   4.251  12.098  0.1285  0.4555  0.6984
  853MPD2    H212532   1.560   4.439  12.444 -0.4030  0.0601 -0.2638
  853MPD2    H312533   1.415   4.300  12.330  1.0538 -1.2266  1.6028
  853MPD2     N12534   1.660   4.297  11.964  0.2398 -0.0302  0.2793
  853MPD2    H512535   1.594   4.222  11.947  0.6598 -0.3540  0.0662
  853MPD2    N112536   1.783   4.541  12.370 -0.4818 -0.0276 -0.2588
  853MPD2    H712537   1.752   4.558  12.465 -1.3405  1.8819 -0.8767
  854MPD2     C12538   3.664   4.309  13.218 -0.3102 -0.5266  0.9477
  854MPD2    C112539   3.766   4.293  13.124 -0.4618 -0.4045  0.0185
  854MPD2    C212540   3.832   4.177  13.101 -0.6310 -0.4078  0.3825
  854MPD2    C312541   3.804   4.073  13.188  0.2557  0.3664  0.1923
  854MPD2    C412542   3.706   4.088  13.280 -0.1084  0.2058  0.0165
  854MPD2    C512543   3.632   4.201  13.289  0.1842 -0.4631  0.1362
  854MPD2     H12544   3.899   4.163  13.017  1.0814 -0.1485  1.7059
  854MPD2    H112545   3.679   4.008  13.349  0.6833 -0.5236 -0.5164
  854MPD2    H212546   3.630   4.408  13.244  0.2854  0.0360 -0.3835
  854MPD2    H312547   3.553   4.215  13.362 -0.8288  1.0900 -1.2639
  854MPD2     N12548   3.861   3.949  13.186 -0.2146 -0.5998  0.0558
  854MPD2    H512549   3.833   3.883  13.258  0.8517 -1.3378 -0.2089
  854MPD2    N112550   3.776   4.407  13.036 -1.0103 -0.6097  0.1964
  854MPD2    H712551   3.731   4.492  13.068 -1.5241 -0.7175 -0.2436
  855MPD2     C12552   4.404   3.676  13.803  0.2996  0.4820 -1.3736
  855MPD2    C112553   4.378   3.555  13.750 -0.0552 -0.5841  0.2761
  855MPD2    C212554   4.315   3.551  13.622  0.0385 -0.6420  0.2270
  855MPD2    C312555   4.283   3.669  13.558 -0.1501 -0.6251 -0.2743
  855MPD2    C412556   4.322   3.792  13.611 -0.0772 -0.4258 -0.9489
  855MPD2    C512557   4.383   3.794  13.736 -0.6806 -0.2125 -0.2280
  855MPD2     H12558   4.291   3.452  13.586 -1.2091  0.0654 -0.9009
  855MPD2    H112559   4.298   3.882  13.556  0.3224  0.7431  0.7797
  855MPD2    H212560   4.451   3.687  13.901  0.7706  0.0346 -1.5480
  855MPD2    H312561   4.399   3.883  13.797 -0.9321 -0.2526 -0.1038
  855MPD2     N12562   4.206   3.675  13.436 -0.0366  0.4973 -0.0565
  855MPD2    H512563   4.193   3.762  13.385 -0.4987 -0.6616 -1.9417
  855MPD2    N112564   4.386   3.428  13.821 -0.5118 -0.0879  0.1706
  855MPD2    H712565   4.357   3.345  13.771  4.0735 -1.2325 -0.5886
  856MPD2     C12566   1.033   4.716  14.041  0.1802 -0.9018 -0.4012
  856MPD2    C112567   1.122   0.085  14.102  0.5179  0.3909  0.3452
  856MPD2    C212568   1.106   0.224  14.088  1.0159  0.5723 -0.3926
  856MPD2    C312569   0.997   0.274  14.019 -0.3421 -0.4868  0.3017
  856MPD2    C412570   0.905   0.186  13.956  0.6570  0.1212 -0.0468
  856MPD2    C512571   0.922   0.050  13.968  0.0367  0.3993  0.4154
  856MPD2     H12572   1.175   0.288  14.142  1.7900 -1.4147  0.9923
  856MPD2    H112573   0.818   0.218  13.900  0.7607  0.3986 -0.0482
  856MPD2    H212574   1.034   4.611  14.069 -0.7886  0.0436  3.0872
  856MPD2    H312575   0.848   4.708  13.918  0.4467 -0.9472  1.4622
  856MPD2     N12576   0.979   0.416  14.001 -0.7987  0.4281 -0.1101
  856MPD2    H512577   0.904   0.444  13.939 -1.3252  0.1438  0.3898
  856MPD2    N112578   1.229   0.037  14.177 -0.1545  0.2283  0.0363
  856MPD2    H712579   1.279   0.111  14.226  1.0967  0.5492 -1.7139
  857MPD2     C12580   3.487   2.654  12.987 -0.2082  0.0330  0.3053
  857MPD2    C112581   3.579   2.557  12.971  0.3565 -0.6944 -0.1165
  857MPD2    C212582   3.691   2.556  13.050  0.1272 -0.7459  0.4013
  857MPD2    C312583   3.690   2.635  13.168  0.3447  0.3378 -0.5270
  857MPD2    C412584   3.587   2.719  13.194  0.6617 -0.0781 -0.6737
  857MPD2    C512585   3.482   2.723  13.103 -0.3885 -0.5691 -0.0714
  857MPD2     H12586   3.779   2.498  13.025 -0.1393 -0.5588 -0.9600
  857MPD2    H112587   3.581   2.786  13.279  0.5306 -1.1791  0.1807
  857MPD2    H212588   3.413   2.679  12.911 -0.9569 -0.7373  0.7903
  857MPD2    H312589   3.410   2.802  13.121  1.4783  1.5677 -2.0040
  857MPD2     N12590   3.802   2.625  13.251 -0.1753  0.4400  0.6789
  857MPD2    H512591   3.875   2.559  13.224 -1.1954 -1.3063  2.1819
  857MPD2    N112592   3.588   2.469  12.860 -0.8283  0.1181  0.2190
  857MPD2    H712593   3.666   2.404  12.864 -0.5289  0.5234  0.9256
  858MPD2     C12594   3.665   1.651  16.563 -0.6809 -0.2992  0.2827
  858MPD2    C112595   3.722   1.528  16.521 -0.0055  0.1789  0.5769
  858MPD2    C212596   3.811   1.471  16.609  0.7051 -0.5685  0.1373
  858MPD2    C312597   3.839   1.523  16.730  1.0177  0.4084 -0.8475
  858MPD2    C412598   3.783   1.643  16.768  0.1984  0.6599  0.1031
  858MPD2    C512599   3.694   1.706  16.688 -0.2968 -0.3498  0.8318
  858MPD2     H12600   3.862   1.386  16.564  2.4108  0.6068 -0.1735
  858MPD2    H112601   3.793   1.675  16.871  0.3818 -0.3405  0.4029
  858MPD2    H212602   3.603   1.714  16.499  1.5490  0.0999 -1.5189
  858MPD2    H312603   3.637   1.787  16.732  0.2737  1.2185 -1.3191
  858MPD2     N12604   3.925   1.468  16.831  0.1596 -0.5593  0.6918
  858MPD2    H512605   3.912   1.512  16.922  3.5160  0.5521  0.6018
  858MPD2    N112606   3.689   1.478  16.399  0.0671 -0.0923  0.2109
  858MPD2    H712607   3.654   1.550  16.337  0.9404 -2.0401 -2.4945
  859MPD2     C12608   2.027   3.149  15.461 -0.2810  0.1902 -0.0322
  859MPD2    C112609   2.156   3.169  15.507  0.6268  0.0099 -0.1890
  859MPD2    C212610   2.195   3.097  15.617 -0.2339 -0.2942  0.3133
  859MPD2    C312611   2.117   2.993  15.668 -0.6070  0.2753  0.0840
  859MPD2    C412612   1.985   2.983  15.630 -0.3480 -0.5227  0.2553
  859MPD2    C512613   1.942   3.053  15.517  0.3523  0.0271  0.5475
  859MPD2     H12614   2.294   3.108  15.659  1.0192  0.8416 -2.9995
  859MPD2    H112615   1.913   2.914  15.672 -0.9125  0.5126  0.9844
  859MPD2    H212616   1.989   3.207  15.377  0.4984 -0.7896 -1.0680
  859MPD2    H312617   1.841   3.030  15.485  1.5446 -1.7871 -1.9016
  859MPD2     N12618   2.163   2.895  15.759 -0.0645  0.2925 -0.7473
  859MPD2    H512619   2.100   2.824  15.795  0.6619 -0.7514 -1.5377
  859MPD2    N112620   2.237   3.275  15.449 -0.5600 -0.0244  0.3949
  859MPD2    H712621   2.195   3.333  15.377  0.1074 -0.4633 -0.3560
  860MPD2     C12622   0.328   3.824  11.643  0.4319 -0.8445  0.1910
  860MPD2    C112623   0.342   3.880  11.770 -0.0963 -0.0754  0.2200
  860MPD2    C212624   0.234   3.863  11.858 -0.1374 -0.3264 -0.4553
  860MPD2    C312625   0.120   3.789  11.823 -0.0830 -0.5127  0.2063
  860MPD2    C412626   0.108   3.741  11.692 -0.2478 -0.1309 -1.1981
  860MPD2    C512627   0.211   3.767  11.609  0.6786 -0.8734 -0.2625
  860MPD2     H12628   0.246   3.893  11.961 -0.2598  1.6949 -1.0346
  860MPD2    H112629   0.027   3.687  11.643  1.7195 -1.1890 -3.2962
  860MPD2    H212630   0.409   3.819  11.572  0.5031  0.4989  0.1720
  860MPD2    H312631   0.195   3.728  11.509  2.1782 -1.7307 -0.1564
  860MPD2     N12632   0.030   3.767  11.928 -0.3489  0.1040 -0.0191
  860MPD2    H512633   0.043   3.828  12.008  0.1328  0.7508 -0.5817
  860MPD2    N112634   0.451   3.961  11.811 -0.1982 -0.8920  0.4226
  860MPD2    H712635   0.445   3.988  11.909 -1.2321  0.3358  0.0255
  861MPD2     C12636   4.114   2.303  10.985  0.1803 -0.0119 -1.0871
  861MPD2    C112637   3.990   2.285  11.040 -0.4662  0.4106 -0.2158
  861MPD2    C212638   3.876   2.273  10.959 -0.0891  0.2666 -0.0051
  861MPD2    C312639   3.889   2.285  10.822 -0.1322  0.0793  0.1656
  861MPD2    C412640   4.013   2.296  10.772  0.2602 -0.1300 -0.2250
  861MPD2    C512641   4.122   2.305  10.848 -0.3506  0.1365 -0.0092
  861MPD2     H12642   3.779   2.285  11.005  0.7428  1.3441  1.4905
  861MPD2    H112643   4.028   2.309  10.665 -0.3005  2.5927  0.0164
  861MPD2    H212644   4.205   2.322  11.040  0.4241  1.2371 -1.9177
  861MPD2    H312645   4.216   2.322  10.796  0.4485 -1.8260  0.7843
  861MPD2     N12646   3.789   2.287  10.723 -0.4538 -0.6950 -0.4744
  861MPD2    H512647   3.829   2.266  10.632  1.4259  1.9060 -0.2557
  861MPD2    N112648   3.974   2.272  11.180  0.9364  0.1963 -0.1544
  861MPD2    H712649   3.883   2.257  11.223  0.7414 -1.9347 -1.2971
  862MPD2     C12650   3.601   2.307   9.973 -0.1662 -0.0405 -0.2270
  862MPD2    C112651   3.586   2.229  10.086  0.3144  0.2990  0.3326
  862MPD2    C212652   3.551   2.096  10.070  0.1246 -0.1728  0.5418
  862MPD2    C312653   3.510   2.046   9.944 -0.2338 -0.3788  0.1569
  862MPD2    C412654   3.489   2.136   9.841 -0.3206 -0.3687  0.5847
  862MPD2    C512655   3.557   2.257   9.849  0.1167 -0.1568 -0.2764
  862MPD2     H12656   3.547   2.032  10.158  0.0666 -1.0034 -0.0609
  862MPD2    H112657   3.450   2.107   9.744  0.6544  0.1032  0.0498
  862MPD2    H212658   3.627   2.412   9.978 -2.1392  0.4832 -1.0763
  862MPD2    H312659   3.549   2.328   9.767 -1.3395  1.5125  1.3233
  862MPD2     N12660   3.469   1.915   9.918  0.0615  0.4194 -0.4822
  862MPD2    H512661   3.435   1.899   9.824 -0.0114 -0.1221 -0.3683
  862MPD2    N112662   3.604   2.270  10.222  0.5422 -0.2472 -0.1451
  862MPD2    H712663   3.580   2.209  10.299 -0.1200 -0.3144 -0.4055
  863MPD2     C12664   1.618   0.615  16.921  0.4463 -0.8104 -0.3212
  863MPD2    C112665   1.661   0.520  16.840 -0.4107 -0.2898  0.3907
  863MPD2    C212666   1.785   0.464  16.861 -1.0392 -0.2476  0.2143
  863MPD2    C312667   1.875   0.523  16.953  0.0574  0.4810  0.0530
  863MPD2    C412668   1.834   0.622  17.036 -0.2144  0.4635 -0.4744
  863MPD2    C512669   1.707   0.669  17.014 -0.2005  0.7119 -0.3728
  863MPD2     H12670   1.822   0.392  16.789 -1.2172  1.1739 -1.2845
  863MPD2    H112671   1.889   0.671  17.116  0.9173  2.0635 -2.2478
  863MPD2    H212672   1.521   0.660  16.906  0.0148 -1.7170 -0.2011
  863MPD2    H312673   1.675   0.743  17.086  0.9855 -1.1208  2.0540
  863MPD2     N12674   2.001   0.462  16.984  0.0579  0.3758  0.3800
  863MPD2    H512675   2.066   0.514  17.041 -0.9348  1.0999  0.8428
  863MPD2    N112676   1.579   0.491  16.730 -0.0466 -0.1396 -0.4889
  863MPD2    H712677   1.495   0.548  16.730  0.3325  0.4254  0.3334
  864MPD2     C12678   2.474   1.307  17.297 -0.0653  0.3266  0.1497
  864MPD2    C112679   2.512   1.243  17.181  1.5919  0.1935  0.4523
  864MPD2    C212680   2.589   1.314  17.088 -0.6665 -0.2199  0.5749
  864MPD2    C312681   2.637   1.439  17.114  0.1343 -0.1375 -0.8673
  864MPD2    C412682   2.598   1.502  17.231  0.0117 -0.5275 -0.4349
  864MPD2    C512683   2.515   1.437  17.317  0.5168  0.5475 -0.0152
  864MPD2     H12684   2.620   1.267  16.995  0.5263  1.5659  0.0798
  864MPD2    H112685   2.620   1.606  17.252 -0.3877 -0.7605  1.1361
  864MPD2    H212686   2.422   1.253  17.375  0.3935 -0.3069  0.0244
  864MPD2    H312687   2.485   1.491  17.406 -2.1217  0.4015 -0.7970
  864MPD2     N12688   2.730   1.513  17.027  0.2122  0.3392 -0.4477
  864MPD2    H512689   2.754   1.605  17.063 -1.1619  0.7237 -0.4817
  864MPD2    N112690   2.470   1.112  17.154 -0.1921  0.5906  0.1082
  864MPD2    H712691   2.399   1.074  17.215  1.2691  0.6786  1.8599
  865MPD2     C12692   2.644   1.807  16.107  1.1017  0.8722  0.6093
  865MPD2    C112693   2.657   1.695  16.184  0.6615 -0.2642  0.1454
  865MPD2    C212694   2.699   1.715  16.315 -0.0774  0.2367 -0.0642
  865MPD2    C312695   2.726   1.840  16.369 -0.3794 -0.1392  0.2543
  865MPD2    C412696   2.721   1.945  16.281  0.3195  0.3595  0.6689
  865MPD2    C512697   2.685   1.931  16.151 -0.1811 -0.1546 -0.3583
  865MPD2     H12698   2.716   1.624  16.371 -1.0378 -0.9093 -1.6216
  865MPD2    H112699   2.747   2.046  16.312  0.8842  1.0912 -2.1902
  865MPD2    H212700   2.623   1.796  16.002 -0.6456  1.8681  0.8553
  865MPD2    H312701   2.677   2.025  16.098  0.2604 -1.3161 -2.4738
  865MPD2     N12702   2.780   1.861  16.497 -0.0898 -0.2090 -0.0583
  865MPD2    H512703   2.850   1.933  16.513 -0.9385  0.5818  0.1169
  865MPD2    N112704   2.623   1.570  16.130  0.0869  0.6020  0.4229
  865MPD2    H712705   2.602   1.563  16.031  0.3350 -1.4530  0.5081
  866MPD2     C12706   4.253   2.518  11.600 -0.2294  0.3989 -0.0677
  866MPD2    C112707   4.302   2.482  11.482 -0.0942 -0.4180 -0.5252
  866MPD2    C212708   4.237   2.521  11.371  0.1452 -0.7749  0.6903
  866MPD2    C312709   4.140   2.618  11.374  0.1588  0.0094  0.5855
  866MPD2    C412710   4.095   2.664  11.495  0.2684 -0.3510 -0.5018
  866MPD2    C512711   4.157   2.617  11.608  0.3866 -0.0226  0.0174
  866MPD2     H12712   4.259   2.470  11.277 -0.8515  0.9888 -0.5143
  866MPD2    H112713   4.025   2.747  11.498  0.7454  0.0092  0.8051
  866MPD2    H212714   4.305   2.502  11.693 -0.7781  0.9989  0.3390
  866MPD2    H312715   4.124   2.652  11.705  2.0014  0.5567  0.3601
  866MPD2     N12716   4.059   2.665  11.262  0.0187  0.0033  0.3242
  866MPD2    H512717   3.979   2.725  11.279  0.9776  1.0699  1.0530
  866MPD2    N112718   4.419   2.402  11.481  0.0807  0.0211 -0.6531
  866MPD2    H712719   4.458   2.373  11.570  1.2146  0.0777 -1.1323
  867MPD2     C12720   1.486   1.681  16.583  0.9638 -1.2821 -0.5879
  867MPD2    C112721   1.577   1.639  16.677  0.2086  0.2312 -0.1681
  867MPD2    C212722   1.646   1.735  16.752 -0.6703 -0.0702 -0.6393
  867MPD2    C312723   1.621   1.871  16.731 -0.3192 -0.1385  0.4601
  867MPD2    C412724   1.531   1.908  16.630  0.1389  0.3358 -0.5338
  867MPD2    C512725   1.457   1.812  16.565 -0.3796 -0.2532 -0.4893
  867MPD2     H12726   1.717   1.708  16.829 -0.0173 -0.1438 -1.2743
  867MPD2    H112727   1.519   2.009  16.591 -3.4429  1.6854  4.0891
  867MPD2    H212728   1.432   1.614  16.516  0.6362 -0.7244 -0.8821
  867MPD2    H312729   1.389   1.850  16.489 -1.9235 -1.5213  0.2452
  867MPD2     N12730   1.672   1.966  16.827 -0.4754  0.1516  0.4461
  867MPD2    H512731   1.653   2.064  16.808 -0.9289 -0.6066 -3.1148
  867MPD2    N112732   1.592   1.503  16.686 -0.7256 -0.2305 -0.3241
  867MPD2    H712733   1.522   1.451  16.633 -2.0648  0.7133  0.5190
  868MPD2     C12734   3.441   1.110  13.106 -0.4489  0.0430 -0.1354
  868MPD2    C112735   3.476   0.999  13.191  0.4353 -0.2309  0.4844
  868MPD2    C212736   3.407   0.981  13.308 -0.3848  1.3120 -0.0051
  868MPD2    C312737   3.302   1.066  13.347  0.2836 -0.8106 -1.1630
  868MPD2    C412738   3.267   1.171  13.264  0.3001  0.0319  0.5083
  868MPD2    C512739   3.331   1.193  13.146  0.5516  0.5534  0.8820
  868MPD2     H12740   3.446   0.911  13.381 -1.0997 -0.0837 -0.9479
  868MPD2    H112741   3.178   1.231  13.281 -0.1670 -1.0325  1.8194
  868MPD2    H212742   3.493   1.120  13.011  0.6224 -2.1167  0.2322
  868MPD2    H312743   3.303   1.278  13.085  0.4150  0.4091  0.7424
  868MPD2     N12744   3.238   1.040  13.476 -0.2824  0.3087  0.1067
  868MPD2    H512745   3.276   0.962  13.528 -0.4182 -1.9093 -3.1320
  868MPD2    N112746   3.569   0.894  13.151 -0.3676  0.1373 -0.3167
  868MPD2    H712747   3.599   0.819  13.213  0.1214 -0.7420 -1.6061
  869MPD2     C12748   4.316   2.895   2.318  0.0948  0.7946  0.0490
  869MPD2    C112749   4.403   2.851   2.217 -0.0069 -0.1229 -0.3351
  869MPD2    C212750   4.426   2.940   2.107 -0.7972 -0.3235 -0.1878
  869MPD2    C312751   4.354   3.057   2.099  0.6827 -0.2023  0.5649
  869MPD2    C412752   4.272   3.097   2.202  0.8747  0.4297  0.0964
  869MPD2    C512753   4.251   3.016   2.312  0.9830 -0.1343  0.7535
  869MPD2     H12754   4.479   2.906   2.019  0.1876 -4.3564  1.9756
  869MPD2    H112755   4.215   3.189   2.192  0.6288  0.3811  1.0575
  869MPD2    H212756   4.298   2.839   2.408  1.1771  1.9169  0.9630
  869MPD2    H312757   4.174   3.040   2.384 -1.2718  1.3018 -2.0900
  869MPD2     N12758   4.336   3.123   1.975  0.2967  0.0245  0.4741
  869MPD2    H512759   4.268   3.198   1.973  1.0845  0.7816  2.3533
  869MPD2    N112760   4.448   2.719   2.238 -0.5654  0.5478  1.3660
  869MPD2    H712761   4.416   2.670   2.320 -0.8259 -0.6864  0.5178
  870MPD2     C12762   3.359   1.880   1.835  0.0665  0.7071  0.5408
  870MPD2    C112763   3.481   1.947   1.830 -0.1815 -0.6719 -0.3219
  870MPD2    C212764   3.498   2.073   1.776 -0.1203 -0.3843 -0.4444
  870MPD2    C312765   3.381   2.133   1.733 -0.6305  0.0470  0.9344
  870MPD2    C412766   3.257   2.071   1.735 -0.3892 -0.2049 -0.1360
  870MPD2    C512767   3.252   1.944   1.778  0.1407  0.2874 -0.2787
  870MPD2     H12768   3.595   2.121   1.765  0.8453 -2.6253 -1.7253
  870MPD2    H112769   3.167   2.108   1.688 -0.4256 -0.8829 -0.5930
  870MPD2    H212770   3.352   1.779   1.873  0.8997  0.0254 -1.1623
  870MPD2    H312771   3.159   1.889   1.777  0.8568 -0.8765 -1.6444
  870MPD2     N12772   3.400   2.259   1.667  0.2204 -0.1653  0.4953
  870MPD2    H512773   3.497   2.287   1.661 -0.0674  1.1094  1.7221
  870MPD2    N112774   3.589   1.866   1.877 -0.2295  0.0120  0.7051
  870MPD2    H712775   3.564   1.768   1.893  0.7952 -0.5882 -1.4132
  871MPD2     C12776   0.410   1.746  16.594 -0.4735 -0.0101 -0.3189
  871MPD2    C112777   0.360   1.661  16.691 -0.1130 -0.0802 -0.0669
  871MPD2    C212778   0.320   1.528  16.662  0.0040  0.1958 -0.0010
  871MPD2    C312779   0.351   1.489  16.528 -0.9926 -0.1986 -0.7646
  871MPD2    C412780   0.392   1.579  16.427  0.9559 -0.6711 -0.0999
  871MPD2    C512781   0.419   1.708  16.461 -0.4799  0.7179 -0.1068
  871MPD2     H12782   0.287   1.457  16.736  0.4961 -1.4846 -1.3896
  871MPD2    H112783   0.424   1.547  16.329  1.1587  0.9095 -0.5573
  871MPD2    H212784   0.438   1.848  16.622 -1.5345  0.2612 -0.2616
  871MPD2    H312785   0.463   1.775  16.388  2.7799 -0.8396  0.4324
  871MPD2     N12786   0.312   1.354  16.504 -0.4570  0.1189 -0.0654
  871MPD2    H512787   0.268   1.303  16.580 -1.2700 -0.3691 -0.8722
  871MPD2    N112788   0.360   1.706  16.825  0.1932  0.0399 -0.2386
  871MPD2    H712789   0.412   1.792  16.839  1.6949 -0.6161 -1.7309
  872MPD2     C12790   1.298   4.004  13.780  0.0662  0.8960  1.0412
  872MPD2    C112791   1.218   4.086  13.849  0.3868  0.3493 -0.1037
  872MPD2    C212792   1.105   4.028  13.906  0.2825 -0.5854 -0.0484
  872MPD2    C312793   1.075   3.892  13.898 -0.7405  0.4929 -0.3579
  872MPD2    C412794   1.169   3.817  13.823 -0.6242 -0.3033  0.5852
  872MPD2    C512795   1.282   3.872  13.764  0.5896  0.0542 -0.8884
  872MPD2     H12796   1.036   4.096  13.954  1.6847  0.6796  0.1615
  872MPD2    H112797   1.140   3.716  13.797  2.3172 -0.8276 -0.5492
  872MPD2    H212798   1.384   4.037  13.723 -0.0721 -1.1052 -0.3074
  872MPD2    H312799   1.353   3.816  13.704  1.5874 -1.4823  1.6934
  872MPD2     N12800   0.951   3.841  13.933 -0.3445  0.1339  0.0953
  872MPD2    H512801   0.938   3.743  13.911  0.0979 -0.1309  1.0297
  872MPD2    N112802   1.252   4.215  13.880  0.0037 -0.3178 -0.2487
  872MPD2    H712803   1.180   4.268  13.926 -2.4152 -2.3932 -1.6447
  873MPD2     C12804   2.218   3.827   0.437 -0.0065 -0.6767  0.4817
  873MPD2    C112805   2.237   3.776   0.560 -0.3548 -0.3366  0.2261
  873MPD2    C212806   2.196   3.648   0.589 -0.5558  0.1251  0.0276
  873MPD2    C312807   2.127   3.573   0.496 -0.1415  0.3513 -0.4660
  873MPD2    C412808   2.107   3.625   0.373 -0.1917 -0.0103  0.1568
  873MPD2    C512809   2.155   3.745   0.346 -0.9275 -0.0072 -0.3554
  873MPD2     H12810   2.220   3.596   0.681  2.2224 -0.4695 -1.0215
  873MPD2    H112811   2.066   3.568   0.291 -1.6201  0.0287  0.8552
  873MPD2    H212812   2.242   3.927   0.403 -2.3029  0.2195  1.4871
  873MPD2    H312813   2.133   3.786   0.249 -1.1614  0.1724 -0.2266
  873MPD2     N12814   2.077   3.439   0.519  0.2901 -0.3568  0.1595
  873MPD2    H512815   2.013   3.400   0.450  2.4228 -0.9539 -1.4859
  873MPD2    N112816   2.311   3.856   0.653 -0.1173  0.7626 -0.3406
  873MPD2    H712817   2.321   3.952   0.621  0.1206  0.5250 -0.9751
  874MPD2     C12818   2.369   3.841  16.003  0.1034  0.7480 -0.5031
  874MPD2    C112819   2.397   3.797  16.134  0.4602 -0.8816 -0.2273
  874MPD2    C212820   2.511   3.845  16.192 -0.4090  0.0763 -0.2436
  874MPD2    C312821   2.594   3.936  16.129  0.2525 -0.4026 -0.5399
  874MPD2    C412822   2.568   3.981  16.000  0.6708 -0.2952 -0.6326
  874MPD2    C512823   2.456   3.928  15.942  0.0329  1.1607 -0.5009
  874MPD2     H12824   2.527   3.822  16.297  1.7689 -0.1196 -0.6127
  874MPD2    H112825   2.633   4.048  15.944  1.2935 -0.0136  0.4252
  874MPD2    H212826   2.286   3.802  15.945  0.7009 -0.5458 -0.4945
  874MPD2    H312827   2.443   3.954  15.838  1.7250 -1.4946 -1.3450
  874MPD2     N12828   2.711   3.966  16.191 -0.7942  0.2936  1.2164
  874MPD2    H512829   2.704   3.964  16.292  0.1020  0.9791  1.2908
  874MPD2    N112830   2.304   3.706  16.192 -0.0117  0.2116  0.1655
  874MPD2    H712831   2.218   3.701  16.138 -0.1555 -2.5329  0.6470
  875MPD2     C12832   3.968   2.437  14.655  0.2147 -0.0376  0.5245
  875MPD2    C112833   3.846   2.505  14.657 -0.4824 -0.1643 -0.8230
  875MPD2    C212834   3.789   2.544  14.780  0.2478  0.6807  0.6638
  875MPD2    C312835   3.850   2.510  14.902 -0.0610 -0.2688  0.5284
  875MPD2    C412836   3.960   2.434  14.895  0.0490 -0.0965 -0.0496
  875MPD2    C512837   4.023   2.414  14.779  0.2175 -0.0001 -0.5318
  875MPD2     H12838   3.705   2.613  14.783 -0.8847 -0.6740 -0.4041
  875MPD2    H112839   4.002   2.398  14.988  0.5858  2.4491  0.7166
  875MPD2    H212840   4.019   2.393  14.571 -0.5768  1.0871 -0.5505
  875MPD2    H312841   4.111   2.350  14.777 -0.2911 -0.7348  0.9989
  875MPD2     N12842   3.772   2.518  15.023 -0.1573 -0.5277  0.0869
  875MPD2    H512843   3.803   2.459  15.100  1.4624 -1.4706 -1.2998
  875MPD2    N112844   3.781   2.541  14.537  0.2853  0.8706 -0.2688
  875MPD2    H712845   3.701   2.599  14.562 -0.0013  0.1019  0.5930
  876MPD2     C12846   2.257   3.490  15.943  0.4611 -0.0080  0.1458
  876MPD2    C112847   2.389   3.470  15.924  0.5400 -0.0169  0.4434
  876MPD2    C212848   2.434   3.345  15.970  0.2234  0.3382 -0.1581
  876MPD2    C312849   2.363   3.255  16.039 -0.4725  0.5648  0.6683
  876MPD2    C412850   2.228   3.280  16.051  0.8858  0.2585  0.2759
  876MPD2    C512851   2.182   3.405  16.014  0.0845 -0.2475  0.5858
  876MPD2     H12852   2.534   3.317  15.939  0.5388  0.7248  0.5199
  876MPD2    H112853   2.156   3.218  16.102  0.3836  0.0628 -0.6656
  876MPD2    H212854   2.197   3.574  15.910  2.0767  1.1906  0.2731
  876MPD2    H312855   2.076   3.425  16.022  0.0740  1.8113 -4.3965
  876MPD2     N12856   2.425   3.129  16.070 -0.1659 -0.7264 -0.2186
  876MPD2    H512857   2.522   3.111  16.048  0.1536  1.4291 -0.5992
  876MPD2    N112858   2.467   3.567  15.855 -0.0451  0.7103  0.4030
  876MPD2    H712859   2.414   3.639  15.808 -1.2115 -0.2190  0.3020
  877MPD2     C12860   2.435   3.999  15.276  0.1664  1.2096 -0.1579
  877MPD2    C112861   2.572   4.021  15.314 -0.2535  0.3619  0.9906
  877MPD2    C212862   2.655   4.081  15.223  0.4450  0.2647  0.7681
  877MPD2    C312863   2.605   4.127  15.099  0.5155  0.4072  0.7385
  877MPD2    C412864   2.478   4.092  15.071  0.5982 -0.2378 -0.3260
  877MPD2    C512865   2.393   4.029  15.158  0.2125  0.0112  0.2758
  877MPD2     H12866   2.761   4.094  15.245  1.5576  0.1099 -4.3516
  877MPD2    H112867   2.429   4.123  14.980 -0.8862 -1.5893 -0.0012
  877MPD2    H212868   2.363   3.952  15.341  0.9952  0.7075  0.3953
  877MPD2    H312869   2.292   4.008  15.125  0.2375  1.3837 -0.6562
  877MPD2     N12870   2.680   4.198  14.998 -0.6519 -0.0736  0.1745
  877MPD2    H512871   2.621   4.216  14.917 -0.5923 -0.9463 -0.0643
  877MPD2    N112872   2.626   3.975  15.439  0.2394  0.9085 -0.2928
  877MPD2    H712873   2.727   3.985  15.451  0.0528  0.9543  1.2729
  878MPD2     C12874   1.834   3.648  13.163 -0.0967 -0.2798  0.3800
  878MPD2    C112875   1.964   3.685  13.146  0.0063 -0.8584 -0.2541
  878MPD2    C212876   2.045   3.674  13.255 -0.3154 -0.4433 -0.1600
  878MPD2    C312877   2.002   3.636  13.382  0.3522  0.1535  0.2074
  878MPD2    C412878   1.863   3.608  13.401  0.2672  0.3189  0.5064
  878MPD2    C512879   1.787   3.616  13.288 -0.1284  0.9241  0.5356
  878MPD2     H12880   2.151   3.694  13.243 -0.3921 -0.6500 -1.1922
  878MPD2    H112881   1.822   3.563  13.490  2.3474 -1.4979  0.5296
  878MPD2    H212882   1.762   3.650  13.082 -0.8844 -0.3373  1.0711
  878MPD2    H312883   1.679   3.610  13.298  0.1665 -1.3599  2.1903
  878MPD2     N12884   2.088   3.636  13.494 -0.0487  0.0704  1.4522
  878MPD2    H512885   2.184   3.668  13.480  0.0564 -0.3452  1.2279
  878MPD2    N112886   1.998   3.722  13.013  0.3210  0.4057 -0.2849
  878MPD2    H712887   1.918   3.720  12.950 -0.4868 -4.8082  0.9183
  879MPD2     C12888   2.515   0.395  16.787  0.0536 -0.1030 -0.3466
  879MPD2    C112889   2.585   0.313  16.871  0.3601 -0.4720 -0.1236
  879MPD2    C212890   2.543   0.184  16.889 -0.2573  0.3101 -0.5076
  879MPD2    C312891   2.455   0.123  16.806  0.4697  0.8903  0.2782
  879MPD2    C412892   2.404   0.202  16.703 -0.0567  0.1961  0.0060
  879MPD2    C512893   2.427   0.339  16.698  0.1828  0.2528 -0.1988
  879MPD2     H12894   2.602   0.114  16.947 -1.1810  0.8894  1.1245
  879MPD2    H112895   2.336   0.168  16.627 -0.7675  0.8632  0.3474
  879MPD2    H212896   2.543   0.499  16.776 -0.0355 -0.2840 -2.1660
  879MPD2    H312897   2.366   0.384  16.620  0.2467  0.8979  0.1200
  879MPD2     N12898   2.425   4.706  16.809 -0.2507 -0.1562  0.1840
  879MPD2    H512899   2.391   4.669  16.721 -0.2142  0.0137  0.0997
  879MPD2    N112900   2.697   0.372  16.947 -0.0413 -0.3195 -0.5387
  879MPD2    H712901   2.713   0.470  16.927 -1.6152  0.1047  0.2193
  880MPD2     C12902   3.940   1.693   0.477  0.4053 -0.1790 -0.8848
  880MPD2    C112903   3.906   1.759   0.594  1.3932  0.1139 -0.1862
  880MPD2    C212904   3.889   1.680   0.711  0.1924  0.4466 -0.0914
  880MPD2    C312905   3.907   1.548   0.712 -0.6269  0.3590 -0.5836
  880MPD2    C412906   3.952   1.485   0.599  0.8989  0.2943  0.0079
  880MPD2    C512907   3.961   1.555   0.482 -0.6161  0.5723 -0.3182
  880MPD2     H12908   3.832   1.731   0.789 -2.1207  0.6665 -1.9268
  880MPD2    H112909   3.981   1.381   0.593 -1.3275 -0.2296 -1.6858
  880MPD2    H212910   3.931   1.734   0.377  0.9030  1.2146 -0.3567
  880MPD2    H312911   4.004   1.498   0.401  0.8669  3.1296 -1.3436
  880MPD2     N12912   3.883   1.472   0.837 -1.0054 -0.1416 -0.2511
  880MPD2    H512913   3.851   1.528   0.915  0.6332 -0.2301  0.4785
  880MPD2    N112914   3.883   1.899   0.579  0.2770 -0.1706  0.3711
  880MPD2    H712915   3.882   1.933   0.484  0.5870  1.7577  1.0599
  881MPD2     C12916   3.945   2.714   0.021  0.2748  0.0103  0.0449
  881MPD2    C112917   4.014   2.597   0.041 -0.0086  0.6476  0.4881
  881MPD2    C212918   3.986   2.523   0.160  0.1048 -1.0109 -0.6425
  881MPD2    C312919   3.890   2.554   0.252 -0.3877  0.1975 -0.9428
  881MPD2    C412920   3.832   2.676   0.237  0.0105 -0.4052 -0.0171
  881MPD2    C512921   3.860   2.751   0.128 -0.3043  0.2728 -0.5008
  881MPD2     H12922   4.032   2.426   0.175  2.6198 -0.0852 -2.1819
  881MPD2    H112923   3.772   2.724   0.314  0.5242  0.5433 -0.2101
  881MPD2    H212924   3.961   2.779  17.618 -0.1224  0.7938  0.5656
  881MPD2    H312925   3.797   2.839   0.118 -1.8134 -0.6052  1.1281
  881MPD2     N12926   3.861   2.480   0.364  0.5921  0.2851  0.1572
  881MPD2    H512927   3.781   2.511   0.418  0.1933  1.4629 -1.1164
  881MPD2    N112928   4.129   2.573  17.643 -0.5459 -0.3885  0.7974
  881MPD2    H712929   4.129   2.614  17.550 -1.8835 -1.8276  0.1648
  882MPD2     C12930   2.610   4.228  14.229  0.4450  0.2318  0.5310
  882MPD2    C112931   2.588   4.220  14.365 -0.5053  0.2652 -0.5381
  882MPD2    C212932   2.466   4.169  14.399 -0.3340 -0.1674 -0.2762
  882MPD2    C312933   2.369   4.128  14.313  0.2977 -0.9953 -0.5081
  882MPD2    C412934   2.397   4.139  14.180  0.3949  0.0943 -0.5459
  882MPD2    C512935   2.518   4.189  14.135  0.0878 -0.4764  0.5542
  882MPD2     H12936   2.445   4.153  14.504 -1.5387 -0.5608 -0.5825
  882MPD2    H112937   2.327   4.102  14.106  0.7027  2.3498 -1.9502
  882MPD2    H212938   2.711   4.240  14.191  0.6688 -0.7818  0.8167
  882MPD2    H312939   2.545   4.178  14.031  0.5489  0.2200  0.5997
  882MPD2     N12940   2.245   4.078  14.345 -0.0867  0.0518 -0.1075
  882MPD2    H512941   2.183   4.055  14.268  0.1555 -1.1169  0.0455
  882MPD2    N112942   2.681   4.266  14.460 -0.3447  0.1924 -0.4846
  882MPD2    H712943   2.773   4.287  14.423 -1.0226 -0.6963 -2.6552
  883MPD2     C12944   0.153   4.244  16.229  0.3363 -0.2693  0.2944
  883MPD2    C112945   0.108   4.112  16.245 -0.4440 -0.0446  0.0367
  883MPD2    C212946   0.155   4.042  16.357  0.5991  0.3286 -0.3697
  883MPD2    C312947   0.249   4.092  16.445 -0.3780 -0.0020 -0.8442
  883MPD2    C412948   0.290   4.223  16.425 -0.6571  0.5842 -0.2228
  883MPD2    C512949   0.244   4.295  16.317 -0.0221 -0.1393  0.1223
  883MPD2     H12950   0.113   3.942  16.355 -0.4037  0.7703 -1.3976
  883MPD2    H112951   0.351   4.273  16.499  1.6706  0.1372 -1.8553
  883MPD2    H212952   0.114   4.314  16.156  0.5768 -1.5450 -1.0565
  883MPD2    H312953   0.271   4.400  16.314  0.0076 -0.1390  0.4278
  883MPD2     N12954   0.298   4.015  16.558 -0.4298  0.4264 -0.1839
  883MPD2    H512955   0.254   3.925  16.569  2.0918 -0.7890  0.0730
  883MPD2    N112956   0.025   4.054  16.148  0.0236  0.0777  0.6409
  883MPD2    H712957   0.003   3.956  16.159  1.5664 -0.4404 -0.8767
  884MPD2     C12958   1.837   0.070  15.374 -0.4455 -0.0400 -0.0352
  884MPD2    C112959   1.772   0.132  15.270  0.4306 -0.2357 -0.7090
  884MPD2    C212960   1.638   0.158  15.272 -0.0349  0.2025  0.0484
  884MPD2    C312961   1.563   0.098  15.369 -1.0382  0.6488 -1.0664
  884MPD2    C412962   1.625   0.014  15.460  0.0858 -0.0971  0.0517
  884MPD2    C512963   1.761   0.014  15.472 -0.7288  0.1713  0.0770
  884MPD2     H12964   1.600   0.204  15.182 -0.0606  1.3036  0.6263
  884MPD2    H112965   1.572   4.676  15.534 -0.5541  1.2751  0.6826
  884MPD2    H212966   1.944   0.063  15.388 -0.2874 -1.1150 -1.8741
  884MPD2    H312967   1.805   4.685  15.558  1.1150  2.7180  0.5778
  884MPD2     N12968   1.421   0.112  15.368 -0.0698 -0.6532  0.8952
  884MPD2    H512969   1.388   0.171  15.292  0.8963 -0.9147  0.2643
  884MPD2    N112970   1.838   0.172  15.156 -0.0091  0.0327 -0.0609
  884MPD2    H712971   1.789   0.227  15.087 -4.1262 -1.1179  1.9760
  885MPD2     C12972   4.691   4.467   0.448  0.2191  0.3075 -0.3965
  885MPD2    C112973   0.091   4.524   0.470 -0.1396  0.9575 -0.2023
  885MPD2    C212974   0.133   4.609   0.373  0.1466 -0.1411 -0.6708
  885MPD2    C312975   0.070   4.639   0.254 -0.7697 -0.7385  0.1776
  885MPD2    C412976   4.668   4.573   0.233  0.3219 -0.4222  0.4906
  885MPD2    C512977   4.622   4.486   0.331 -0.7799  0.0379  0.1282
  885MPD2     H12978   0.232   4.651   0.385 -0.3619  1.5395 -2.5108
  885MPD2    H112979   4.609   4.579   0.142 -1.7192  2.4058  2.0163
  885MPD2    H212980   4.641   4.405   0.522  2.7646 -0.7903  0.4064
  885MPD2    H312981   4.525   4.441   0.315  0.2087 -1.5049 -1.5376
  885MPD2     N12982   0.128   0.016   0.169 -0.7294 -0.3808  0.1478
  885MPD2    H512983   0.225   0.040   0.187 -0.9872 -0.6330  1.8695
  885MPD2    N112984   0.153   4.512   0.594 -0.0468  0.1361 -0.0096
  885MPD2    H712985   0.102   4.451   0.658 -0.9167  0.0928 -0.7603
  886MPD2     C12986   1.205   3.839  15.995 -0.1594 -0.1248  0.7363
  886MPD2    C112987   1.294   3.740  15.948  0.2486 -0.3451  0.0957
  886MPD2    C212988   1.332   3.745  15.820 -0.1019 -0.2522 -0.1070
  886MPD2    C312989   1.282   3.832  15.727 -0.1175 -0.2308  0.2316
  886MPD2    C412990   1.189   3.922  15.770  0.1076  0.0288 -0.1230
  886MPD2    C512991   1.156   3.928  15.903  0.0520 -0.3634 -0.2292
  886MPD2     H12992   1.401   3.668  15.787 -0.0440 -0.2275 -0.0429
  886MPD2    H112993   1.129   3.987  15.707  1.6331  0.3462 -1.2609
  886MPD2    H212994   1.165   3.845  16.095 -0.9069  1.3410  0.3467
  886MPD2    H312995   1.083   4.004  15.930  2.5471  1.9348  0.0079
  886MPD2     N12996   1.330   3.826  15.593 -0.2857 -0.3070  0.0109
  886MPD2    H512997   1.408   3.763  15.574  0.4363  0.5821  0.0438
  886MPD2    N112998   1.350   3.636  16.024  0.3894  0.4020 -0.0245
  886MPD2    H712999   1.398   3.562  15.975 -0.1566  1.5448 -2.2801
  887MPD2     C13000   1.946   3.413  15.807 -0.0126 -0.2719 -0.3714
  887MPD2    C113001   1.869   3.513  15.852 -0.1595 -0.0536  0.2003
  887MPD2    C213002   1.874   3.628  15.789  0.0557 -0.5841 -0.0723
  887MPD2    C313003   1.946   3.651  15.677 -0.0505  0.2572 -0.4199
  887MPD2    C413004   2.027   3.556  15.625 -0.4484  0.2139  0.6632
  887MPD2    C513005   2.035   3.439  15.698 -0.0124  0.6235  0.8325
  887MPD2     H13006   1.824   3.719  15.821 -1.2902 -1.6021  0.7214
  887MPD2    H113007   2.091   3.563  15.538  0.8037 -1.8483  1.4184
  887MPD2    H213008   1.953   3.316  15.856 -0.3138 -1.8433 -3.4689
  887MPD2    H313009   2.098   3.360  15.659  0.0476  0.0775  2.0392
  887MPD2     N13010   1.944   3.779  15.622  0.1214 -0.9625 -0.4825
  887MPD2    H513011   1.893   3.842  15.683  1.4559 -0.5477  0.1846
  887MPD2    N113012   1.790   3.509  15.967  0.3881 -0.2511  0.1048
  887MPD2    H713013   1.728   3.590  15.966  1.7183  0.7956  1.1156
  888MPD2     C13014   3.894   3.664  14.867  0.1637 -0.2883 -0.5741
  888MPD2    C113015   3.876   3.722  14.981 -0.1739 -0.3689 -0.0243
  888MPD2    C213016   3.944   3.839  14.999  0.5992 -0.0110 -0.8157
  888MPD2    C313017   4.032   3.896  14.915 -1.0039 -0.6388  0.1219
  888MPD2    C413018   4.045   3.834  14.790  0.4234  0.6682  0.3092
  888MPD2    C513019   3.975   3.719  14.770 -0.5349 -0.3456 -0.0524
  888MPD2     H13020   3.945   3.889  15.095 -2.4658 -1.2139 -0.1484
  888MPD2    H113021   4.111   3.880  14.718 -0.4064  0.8244 -0.3501
  888MPD2    H213022   3.868   3.560  14.849 -3.1443  0.6870 -1.3976
  888MPD2    H313023   3.983   3.673  14.672 -1.4235  1.0804 -0.7962
  888MPD2     N13024   4.093   4.018  14.954 -0.7795  0.1531  0.3840
  888MPD2    H513025   4.068   4.064  15.041 -1.9661  1.8220 -0.8255
  888MPD2    N113026   3.799   3.668  15.092  0.6316 -0.5073  0.8920
  888MPD2    H713027   3.790   3.725  15.176 -2.0066 -2.4791  1.9316
  889MPD2     C13028   4.128   2.975  13.968 -0.2120  0.0199  0.0704
  889MPD2    C113029   4.032   2.979  13.871  0.3612  0.2934 -0.0128
  889MPD2    C213030   3.981   3.105  13.850 -0.5325  0.6248  0.2257
  889MPD2    C313031   3.991   3.216  13.935  0.2161  0.1885 -0.1495
  889MPD2    C413032   4.064   3.194  14.048 -0.0620  0.0883 -0.1167
  889MPD2    C513033   4.135   3.075  14.060  0.2015 -0.2082  0.4274
  889MPD2     H13034   3.932   3.107  13.753  0.6968 -3.5232 -0.4907
  889MPD2    H113035   4.083   3.269  14.125  2.8539 -0.5726 -0.2006
  889MPD2    H213036   4.189   2.889  13.991 -1.2196 -0.6835  0.0806
  889MPD2    H313037   4.195   3.051  14.147  1.3912 -0.9433 -0.5950
  889MPD2     N13038   3.936   3.343  13.909  0.0870 -0.5490  0.6793
  889MPD2    H513039   3.930   3.409  13.986  1.5673 -0.4504  0.7045
  889MPD2    N113040   4.027   2.893  13.763 -0.0619 -0.5413 -0.2249
  889MPD2    H713041   3.949   2.904  13.699 -0.3037 -0.4198  0.0851
  890MPD2     C13042   2.745   0.061  14.555 -0.7078  0.2645  0.5960
  890MPD2    C113043   2.836   0.133  14.627  0.2102  0.2538 -0.7965
  890MPD2    C213044   2.851   0.105  14.763 -0.2071  0.2326 -0.2906
  890MPD2    C313045   2.775   0.005  14.822 -0.2737  0.1415 -0.0530
  890MPD2    C413046   2.683   4.661  14.754  0.3089 -0.6851  0.5947
  890MPD2    C513047   2.665   4.688  14.621  0.2608  0.4040 -0.9304
  890MPD2     H13048   2.934   0.153  14.815  0.4520 -0.3973 -0.7638
  890MPD2    H113049   2.620   4.579  14.787 -1.2844  0.6938  0.9751
  890MPD2    H213050   2.723   0.086  14.451  0.4169  0.5593  0.4268
  890MPD2    H313051   2.583   4.639  14.570 -0.3735  0.9227 -0.4108
  890MPD2     N13052   2.808   4.698  14.960 -0.6189 -0.3118  0.1312
  890MPD2    H513053   2.879   0.038  14.999 -0.2456 -1.6837  1.5956
  890MPD2    N113054   2.902   0.242  14.578 -0.2768 -0.1725  0.2980
  890MPD2    H713055   2.887   0.258  14.478  0.6058 -2.4568 -0.2075
  891MPD2     C13056   0.247   3.073  17.117  0.0898  0.1971  0.8681
  891MPD2    C113057   0.312   3.113  17.002  0.0777  0.1758 -0.0098
  891MPD2    C213058   0.447   3.102  16.994 -0.1672  0.2527  0.2419
  891MPD2    C313059   0.520   3.035  17.090 -0.1868 -0.1507 -0.6310
  891MPD2    C413060   0.456   2.996  17.208 -0.7572  0.0660  0.1075
  891MPD2    C513061   0.321   3.020  17.218 -0.7797 -0.0337 -0.4132
  891MPD2     H13062   0.502   3.145  16.911 -1.8447 -1.7712 -1.8797
  891MPD2    H113063   0.507   2.961  17.296  1.8869  1.7306 -0.7577
  891MPD2    H213064   0.139   3.069  17.125  0.1783  1.7406  2.7158
  891MPD2    H313065   0.268   2.986  17.306 -1.6263  1.0705 -0.4991
  891MPD2     N13066   0.659   3.033  17.078 -0.3004 -0.2664  0.0020
  891MPD2    H513067   0.712   3.103  17.028  4.2343 -2.0722  2.2493
  891MPD2    N113068   0.233   3.158  16.894 -0.5150  0.2594  0.2031
  891MPD2    H713069   0.132   3.152  16.901 -0.4293 -1.9103 -0.5663
  892MPD2     C13070   1.788   4.160  15.196 -0.2200 -0.6232 -0.7820
  892MPD2    C113071   1.695   4.143  15.096  0.1644 -0.2477  0.7756
  892MPD2    C213072   1.738   4.078  14.987  0.1766  0.1864  0.5602
  892MPD2    C313073   1.870   4.031  14.977 -0.6517  0.1236 -0.1271
  892MPD2    C413074   1.964   4.050  15.078 -0.9179  0.6121  0.0923
  892MPD2    C513075   1.916   4.110  15.194  0.2928  0.6396 -0.4590
  892MPD2     H13076   1.669   4.055  14.907  1.2090 -1.9147  0.2682
  892MPD2    H113077   2.059   3.999  15.067 -1.1157  0.3621 -0.4825
  892MPD2    H213078   1.764   4.234  15.271  1.9169 -1.1113  0.3744
  892MPD2    H313079   1.988   4.128  15.273  1.0159 -1.7723 -0.5763
  892MPD2     N13080   1.917   3.963  14.863  0.5259 -0.6393  0.2458
  892MPD2    H513081   2.016   3.954  14.840  0.5549  1.4731 -0.4610
  892MPD2    N113082   1.568   4.205  15.111 -0.2435  0.0249 -0.1406
  892MPD2    H713083   1.548   4.247  15.201  0.3150  0.9259 -0.4371
  893MPD2     C13084   3.031   2.163   2.083 -0.0038  0.2018  0.8155
  893MPD2    C113085   3.148   2.093   2.093  0.1810  0.3791  0.0327
  893MPD2    C213086   3.145   1.963   2.078 -0.0925 -0.0273  0.2135
  893MPD2    C313087   3.021   1.898   2.057  0.3225  0.3740 -0.3900
  893MPD2    C413088   2.904   1.966   2.061 -0.2290 -0.6043  0.6044
  893MPD2    C513089   2.909   2.103   2.081  0.2774  0.0628  0.1459
  893MPD2     H13090   3.238   1.907   2.076 -0.5548 -0.7465 -1.0237
  893MPD2    H113091   2.810   1.912   2.062  0.1359 -1.2582 -0.3331
  893MPD2    H213092   3.035   2.272   2.089 -3.3932  0.3251  0.6806
  893MPD2    H313093   2.812   2.152   2.071 -0.5965 -1.9866 -1.5707
  893MPD2     N13094   3.001   1.761   2.035  0.1786  0.4091  0.3626
  893MPD2    H513095   2.905   1.728   2.038  0.1624  0.4440  0.2133
  893MPD2    N113096   3.271   2.167   2.093 -0.6166 -0.0923 -0.3161
  893MPD2    H713097   3.275   2.269   2.097  0.4195 -0.1594  0.3256
  894MPD2     C13098   1.454   0.253   1.337  0.2039 -0.0551  0.4295
  894MPD2    C113099   1.392   0.374   1.361  0.1738 -0.4182 -0.1178
  894MPD2    C213100   1.449   0.491   1.323 -0.1793 -0.4421 -0.3742
  894MPD2    C313101   1.565   0.496   1.246 -0.3974  0.1920 -0.0577
  894MPD2    C413102   1.625   0.371   1.220 -0.1580 -0.3115 -0.1407
  894MPD2    C513103   1.569   0.253   1.263 -0.8556 -0.3063  0.0915
  894MPD2     H13104   1.390   0.576   1.356  2.1873  0.6717  0.9628
  894MPD2    H113105   1.709   0.357   1.152  0.9671 -1.0627  1.4028
  894MPD2    H213106   1.401   0.161   1.363  2.1330 -1.1303  0.5120
  894MPD2    H313107   1.614   0.160   1.228 -0.5109 -1.1108  2.6933
  894MPD2     N13108   1.612   0.623   1.182 -0.5397 -0.0323 -0.1968
  894MPD2    H513109   1.566   0.708   1.214  1.9317  1.1007  0.3615
  894MPD2    N113110   1.263   0.378   1.431  0.0692  0.1008  0.5038
  894MPD2    H713111   1.230   0.474   1.436  0.7853  0.3688  0.1819
  895MPD2     C13112   0.581   4.075  13.698  0.4114 -0.0028  1.0738
  895MPD2    C113113   0.558   4.009  13.577  0.1565  0.0607 -0.4051
  895MPD2    C213114   0.659   4.008  13.483  0.3720  0.7280  0.6862
  895MPD2    C313115   0.785   4.051  13.528 -0.0479  0.0409 -0.0944
  895MPD2    C413116   0.815   4.090  13.657  0.2904 -0.7936  0.6722
  895MPD2    C513117   0.711   4.108  13.739  0.5175 -0.6042 -0.2836
  895MPD2     H13118   0.655   3.958  13.387  1.8287  0.3726  0.8044
  895MPD2    H113119   0.917   4.107  13.692  0.3886 -1.4814  0.7145
  895MPD2    H213120   0.508   4.102  13.773 -3.1486 -1.1195 -2.0171
  895MPD2    H313121   0.726   4.151  13.837  0.5609 -1.1853 -0.0311
  895MPD2     N13122   0.887   4.052  13.424  0.5542 -0.5231  0.0495
  895MPD2    H513123   0.863   4.012  13.334  0.0140 -2.7374  1.1747
  895MPD2    N113124   0.433   3.960  13.537  0.1906 -0.1056 -0.5148
  895MPD2    H713125   0.440   3.888  13.465 -0.1166 -0.5724 -0.0813
  896MPD2     C13126   2.839   1.586   1.229 -0.2094 -0.5620 -0.1028
  896MPD2    C113127   2.877   1.488   1.134 -0.7197  0.3140  0.6145
  896MPD2    C213128   2.796   1.459   1.027  0.2355  0.1397  0.5206
  896MPD2    C313129   2.670   1.516   1.031 -0.4146  0.4416 -0.3550
  896MPD2    C413130   2.635   1.616   1.122 -0.1787  1.0756 -0.0784
  896MPD2    C513131   2.719   1.653   1.226  0.3785 -0.2048  0.8859
  896MPD2     H13132   2.831   1.399   0.944 -0.5869  1.6046 -0.8660
  896MPD2    H113133   2.536   1.659   1.125 -1.1606 -1.2161  0.2350
  896MPD2    H213134   2.913   1.613   1.303  0.5297  0.6232 -1.2772
  896MPD2    H313135   2.689   1.722   1.303  1.1371  1.5081 -0.3479
  896MPD2     N13136   2.588   1.487   0.919 -0.6192 -0.3152  0.5210
  896MPD2    H513137   2.624   1.417   0.854  2.8001  2.2997 -0.4116
  896MPD2    N113138   3.008   1.439   1.148  0.2108  0.0620  0.2304
  896MPD2    H713139   3.066   1.471   1.225 -0.4843 -0.0609  0.8011
  897MPD2     C13140   4.694   2.795  10.351  0.1710  0.1339 -0.8343
  897MPD2    C113141   4.631   2.863  10.247 -0.6687 -0.4860 -0.5734
  897MPD2    C213142   4.507   2.913  10.275 -0.0336 -0.2647 -0.6031
  897MPD2    C313143   4.453   2.925  10.396 -0.2577  0.1192  0.7246
  897MPD2    C413144   4.517   2.856  10.498 -0.9162  0.2905 -0.7439
  897MPD2    C513145   4.628   2.797  10.471  0.4642 -0.2115 -0.2718
  897MPD2     H13146   4.455   2.984  10.211  1.0044  1.5469  0.5541
  897MPD2    H113147   4.487   2.841  10.601  2.4918 -0.3526  0.1681
  897MPD2    H213148   0.078   2.765  10.356  1.4268  4.7439  0.6544
  897MPD2    H313149   4.672   2.741  10.553  0.0588 -0.6993 -0.3866
  897MPD2     N13150   4.335   3.007  10.416 -0.0731  0.4838 -0.8477
  897MPD2    H513151   4.293   3.055  10.337 -2.4838  0.3063  0.3125
  897MPD2    N113152   4.681   2.879  10.115 -0.3030 -0.8934 -0.4416
  897MPD2    H713153   4.619   2.928  10.052 -1.7259 -1.7440  0.2886
  898MPD2     C13154   0.793   4.110   0.396 -0.2303  0.0799  0.5327
  898MPD2    C113155   0.901   4.112   0.313 -0.1789 -0.1256 -0.0583
  898MPD2    C213156   0.899   4.191   0.197  0.0411  0.5212  0.6240
  898MPD2    C313157   0.785   4.260   0.168 -0.3946  1.5979  0.2330
  898MPD2    C413158   0.674   4.249   0.249 -0.5539  0.1904  0.2422
  898MPD2    C513159   0.681   4.180   0.367  0.5881 -0.2681  0.1109
  898MPD2     H13160   0.985   4.183   0.132 -1.3894 -0.4952 -1.1337
  898MPD2    H113161   0.581   4.303   0.237 -1.3461 -1.2436 -0.1366
  898MPD2    H213162   0.786   4.052   0.487  0.8717 -1.8412 -0.6030
  898MPD2    H313163   0.600   4.168   0.438 -0.4968 -1.3754 -1.3025
  898MPD2     N13164   0.789   4.337   0.057  0.2646 -0.0792 -0.6032
  898MPD2    H513165   0.864   4.311  17.677  2.3779  3.1653  0.5731
  898MPD2    N113166   1.025   4.044   0.338  0.1733 -0.7286  0.9975
  898MPD2    H713167   1.092   4.054   0.262  0.4598 -1.7006  1.1225
  899MPD2     C13168   2.083   4.428  17.217  0.0837 -0.0060  0.4137
  899MPD2    C113169   2.134   4.530  17.288  0.7085 -0.5200  0.1339
  899MPD2    C213170   2.143   4.530  17.431  0.1231  0.0722 -0.2369
  899MPD2    C313171   2.096   4.415  17.498 -0.0495 -0.3915 -0.7453
  899MPD2    C413172   2.054   4.311  17.424 -0.5451  0.0983 -0.4645
  899MPD2    C513173   2.041   4.321  17.288 -0.5148  0.0148 -0.0101
  899MPD2     H13174   2.175   4.619  17.485 -0.3430 -1.0538  1.8948
  899MPD2    H113175   2.026   4.219  17.473 -2.3422  1.4038  0.9452
  899MPD2    H213176   2.072   4.441  17.109 -0.3222 -4.0879 -0.0205
  899MPD2    H313177   1.997   4.237  17.235 -1.7826  1.4601 -1.2427
  899MPD2     N13178   2.088   4.396  17.638  0.1289 -0.4230  0.0170
  899MPD2    H513179   2.069   4.305  17.677  1.3945 -1.8464 -2.6574
  899MPD2    N113180   2.182   4.646  17.212 -0.3033 -0.4081  0.1274
  899MPD2    H713181   2.152   4.639  17.115  2.9840  0.1356 -0.9361
  900MPD2     C13182   2.251   1.755  12.060  0.2491 -0.5984  1.1841
  900MPD2    C113183   2.139   1.672  12.060 -0.4427  0.8401  0.4865
  900MPD2    C213184   2.015   1.728  12.027 -0.0796 -0.5436  0.5915
  900MPD2    C313185   1.995   1.860  11.992  0.6475 -0.1955 -1.0315
  900MPD2    C413186   2.108   1.937  11.990 -0.6935 -0.6061  0.0267
  900MPD2    C513187   2.229   1.883  12.025 -0.8341  0.0734 -0.1850
  900MPD2     H13188   1.926   1.666  12.038 -1.1971  0.5508 -2.3491
  900MPD2    H113189   2.109   2.043  11.966 -0.4631 -0.8236 -0.9271
  900MPD2    H213190   2.352   1.727  12.085 -0.0299 -1.0711  1.7670
  900MPD2    H313191   2.311   1.954  12.033 -0.7021 -0.1159  0.1437
  900MPD2     N13192   1.863   1.907  11.959  0.4796 -0.2399 -0.0499
  900MPD2    H513193   1.783   1.845  11.965 -0.3231  0.8910  0.8399
  900MPD2    N113194   2.158   1.538  12.102  0.0477  0.5023 -0.3140
  900MPD2    H713195   2.256   1.511  12.104 -0.2320 -0.5561 -0.7615
  901MPD2     C13196   2.207   0.762  12.822 -0.2540 -0.3384 -0.3575
  901MPD2    C113197   2.214   0.698  12.699 -0.7049  1.1827  0.2224
  901MPD2    C213198   2.167   0.766  12.588 -0.0714  1.1643 -0.4216
  901MPD2    C313199   2.122   0.895  12.590 -0.1486 -0.0421 -0.0786
  901MPD2    C413200   2.112   0.955  12.713  0.0799  0.0651  0.5477
  901MPD2    C513201   2.160   0.894  12.824 -0.6325  0.2513  0.5415
  901MPD2     H13202   2.166   0.708  12.496 -1.6247 -0.2893  0.5178
  901MPD2    H113203   2.074   1.056  12.721 -2.5041 -0.8869  0.0639
  901MPD2    H213204   2.236   0.725  12.920  0.3015 -4.8809 -2.2591
  901MPD2    H313205   2.147   0.942  12.921 -2.7473  1.3437 -0.2730
  901MPD2     N13206   2.113   0.957  12.467  0.5033  0.4267  0.3607
  901MPD2    H513207   2.145   0.900  12.390 -1.1698  0.2336 -0.2018
  901MPD2    N113208   2.274   0.570  12.701  0.3460  0.2891  0.2807
  901MPD2    H713209   2.289   0.534  12.795  0.9914 -0.3445 -0.0647
  902MPD2     C13210   0.628   4.028  13.133 -0.3076 -0.0217  0.0865
  902MPD2    C113211   0.718   4.062  13.029 -0.2153  0.4001  0.1491
  902MPD2    C213212   0.761   3.966  12.941 -0.0780 -0.6240 -0.1343
  902MPD2    C313213   0.720   3.835  12.963  0.3191  0.2040  0.2296
  902MPD2    C413214   0.630   3.802  13.066 -0.1887 -0.7367 -0.2077
  902MPD2    C513215   0.582   3.898  13.148  0.3445  0.2610  0.2363
  902MPD2     H13216   0.821   4.007  12.861  0.9827  1.2257  1.5767
  902MPD2    H113217   0.588   3.702  13.069 -0.4847 -0.6411 -1.0533
  902MPD2    H213218   0.577   4.105  13.189 -2.2129 -0.6585 -0.7651
  902MPD2    H313219   0.510   3.864  13.221 -1.0603 -0.1900 -1.3700
  902MPD2     N13220   0.760   3.735  12.877 -1.0847  0.0878 -0.9505
  902MPD2    H513221   0.718   3.644  12.893  2.4430 -1.4838 -0.5820
  902MPD2    N113222   0.760   4.201  13.016  0.4095  0.7293  0.0402
  902MPD2    H713223   0.804   4.235  12.932  0.0838 -2.7112 -1.5513
  903MPD2     C13224   1.211   3.680  12.155  0.1169  0.3582 -0.5577
  903MPD2    C113225   1.087   3.723  12.203  0.0302 -0.0241  0.0970
  903MPD2    C213226   1.012   3.810  12.133  0.0777  0.0308 -0.8731
  903MPD2    C313227   1.054   3.867  12.017 -0.1109 -0.0590 -0.6692
  903MPD2    C413228   1.181   3.834  11.974  0.2812 -0.1729 -0.2830
  903MPD2    C513229   1.260   3.739  12.044 -0.1171 -0.5808  0.1920
  903MPD2     H13230   0.913   3.835  12.168 -0.6580 -0.8727 -2.3429
  903MPD2    H113231   1.220   3.885  11.886  2.4003 -1.0473  0.1449
  903MPD2    H213232   1.274   3.608  12.207 -0.3192  1.4834  1.5476
  903MPD2    H313233   1.355   3.709  12.003  1.2905  2.8021  0.9625
  903MPD2     N13234   0.970   3.966  11.961  0.5314  0.3810  0.4218
  903MPD2    H513235   0.879   3.976  12.004  0.0675 -1.9488 -0.0115
  903MPD2    N113236   1.043   3.659  12.327 -0.6758 -0.3911 -0.9350
  903MPD2    H713237   1.111   3.615  12.388 -0.6442  1.5753  0.4695
  904MPD2     C13238   0.982   2.993  13.901 -0.4632  0.5600  0.8716
  904MPD2    C113239   1.004   3.106  13.821 -0.2992  0.5847 -0.3906
  904MPD2    C213240   1.099   3.199  13.866 -0.1422  0.2247  0.0646
  904MPD2    C313241   1.174   3.173  13.980  0.5227 -0.4201  0.1972
  904MPD2    C413242   1.145   3.057  14.049 -1.0588  0.1379  1.0498
  904MPD2    C513243   1.051   2.970  14.014 -0.3976  0.5953  0.6288
  904MPD2     H13244   1.122   3.284  13.803 -0.4416  1.4339  1.5857
  904MPD2    H113245   1.213   3.040  14.132  2.3766  0.6912 -1.6557
  904MPD2    H213246   0.905   2.919  13.880 -1.0222  1.9270 -1.8815
  904MPD2    H313247   1.043   2.887  14.084 -0.2774  2.4974  2.9254
  904MPD2     N13248   1.270   3.251  14.039 -0.4173 -0.1536  0.0231
  904MPD2    H513249   1.327   3.209  14.112  0.7171  1.0546 -0.1699
  904MPD2    N113250   0.929   3.119  13.701  0.0620  0.1229 -0.3610
  904MPD2    H713251   0.926   3.215  13.670 -0.7194 -0.3329 -1.6646
  905MPD2     C13252   1.037   3.287  13.074 -0.0930 -0.0003 -0.0169
  905MPD2    C113253   0.953   3.368  13.155 -0.2735  0.3147 -0.3050
  905MPD2    C213254   0.958   3.501  13.143  1.0606  0.1981 -0.2753
  905MPD2    C313255   1.052   3.561  13.055 -0.1746 -0.3063  0.3457
  905MPD2    C413256   1.122   3.487  12.966 -0.1507  0.3731  0.5819
  905MPD2    C513257   1.122   3.348  12.985 -0.0613  0.4858 -0.2009
  905MPD2     H13258   0.900   3.562  13.212 -1.0907 -1.1422 -0.8760
  905MPD2    H113259   1.200   3.535  12.908  0.7802 -0.4020  1.1953
  905MPD2    H213260   1.045   3.179  13.072  0.2714  0.0322 -0.3731
  905MPD2    H313261   1.187   3.288  12.923  1.4653  0.8881  1.0297
  905MPD2     N13262   1.081   3.701  13.060  0.1574 -0.0408  0.7409
  905MPD2    H513263   1.150   3.740  12.997 -2.2136  0.6896 -1.3559
  905MPD2    N113264   0.865   3.298  13.250  0.1316  0.0522  0.7460
  905MPD2    H713265   0.879   3.197  13.256 -0.3977 -0.0400  0.4279
  906MPD2     C13266   3.123   3.080  10.955 -0.3402 -0.1521  0.7794
  906MPD2    C113267   3.038   3.004  10.872 -0.1328 -1.0771  0.6710
  906MPD2    C213268   2.916   2.964  10.911 -0.2153  1.1120  0.1818
  906MPD2    C313269   2.866   2.994  11.039  0.5051  0.5630  0.8273
  906MPD2    C413270   2.945   3.067  11.123  0.2297  0.0054 -0.5939
  906MPD2    C513271   3.067   3.113  11.077  0.8242  0.0234  0.0298
  906MPD2     H13272   2.853   2.904  10.846  0.1624 -1.8223  2.5623
  906MPD2    H113273   2.914   3.100  11.221 -1.1788 -2.3996 -0.2112
  906MPD2    H213274   3.227   3.101  10.935 -0.7327 -1.3314 -2.4554
  906MPD2    H313275   3.120   3.175  11.149  1.0026 -1.1985  0.9534
  906MPD2     N13276   2.735   2.964  11.072  0.8988  0.1983 -0.3355
  906MPD2    H513277   2.710   2.947  11.169  2.0397 -0.5227 -0.1762
  906MPD2    N113278   3.077   2.960  10.740 -0.5882  0.3361  0.0357
  906MPD2    H713279   3.013   2.889  10.708 -1.0914  0.8677 -0.1314
  907MPD2     C13280   1.760   2.347  15.871  0.4734 -0.2271 -0.4299
  907MPD2    C113281   1.787   2.220  15.813 -0.4472 -0.0542  0.0946
  907MPD2    C213282   1.901   2.153  15.856 -0.3690  0.0831 -0.0998
  907MPD2    C313283   1.987   2.207  15.953 -0.1932  0.7711 -0.5229
  907MPD2    C413284   1.963   2.333  16.000  0.2540  0.5461  0.4101
  907MPD2    C513285   1.847   2.401  15.963 -0.2884 -0.3673  0.2317
  907MPD2     H13286   1.926   2.056  15.814  2.8979  0.2466  1.4817
  907MPD2    H113287   2.025   2.374  16.079  0.0867 -1.9965  1.8675
  907MPD2    H213288   1.671   2.400  15.840  0.1057  0.1197  1.2397
  907MPD2    H313289   1.825   2.497  16.007 -2.3157  0.3377 -2.3672
  907MPD2     N13290   2.093   2.123  15.990  0.1121  0.3102  0.1945
  907MPD2    H513291   2.096   2.032  15.946 -0.2825  0.7529 -0.7325
  907MPD2    N113292   1.716   2.157  15.717 -0.8457 -0.0076 -1.1042
  907MPD2    H713293   1.742   2.061  15.698 -2.2726 -0.5710 -0.2326
  908MPD2     C13294   4.491   2.431   9.446 -0.2541  0.6105  0.2822
  908MPD2    C113295   4.593   2.402   9.532 -0.1838  0.2318  0.0383
  908MPD2    C213296   4.646   2.517   9.599  0.0528  0.0670  0.6044
  908MPD2    C313297   4.608   2.648   9.571 -0.2808  0.2495  0.1390
  908MPD2    C413298   4.497   2.670   9.490 -0.6485  0.6601  0.1990
  908MPD2    C513299   4.445   2.563   9.429  0.8684  0.2763 -0.5141
  908MPD2     H13300   0.007   2.506   9.669  0.9551  1.5272 -0.2252
  908MPD2    H113301   4.460   2.769   9.467 -1.0898  0.2531 -0.7904
  908MPD2    H213302   4.450   2.348   9.389  0.3374  0.4950  0.0286
  908MPD2    H313303   4.364   2.572   9.358  0.6657  0.7091 -0.2257
  908MPD2     N13304   4.677   2.745   9.644 -0.2380 -0.2600 -0.0483
  908MPD2    H513305   0.033   2.716   9.705  2.7311  2.2964 -2.5282
  908MPD2    N113306   4.654   2.272   9.537 -0.8410  0.5154  0.2436
  908MPD2    H713307   4.617   2.197   9.481  0.6910  0.5356 -0.7924
  909MPD2     C13308   0.364   0.866  12.164  0.7726  0.4834 -0.0714
  909MPD2    C113309   0.329   0.928  12.045  0.1417 -0.1029  0.4137
  909MPD2    C213310   0.256   1.048  12.043 -0.1698  0.4703 -0.5540
  909MPD2    C313311   0.204   1.104  12.163  0.3533 -0.3507  0.6699
  909MPD2    C413312   0.226   1.036  12.279  0.6211  0.3023 -0.0294
  909MPD2    C513313   0.306   0.923  12.280  0.3924  0.4626  0.0983
  909MPD2     H13314   0.237   1.092  11.946 -1.0242  1.1739 -0.0753
  909MPD2    H113315   0.197   1.079  12.374  1.1928  0.9465 -0.1433
  909MPD2    H213316   0.429   0.779  12.163 -0.1560 -0.2187 -0.5979
  909MPD2    H313317   0.331   0.887  12.378 -0.0654 -1.3346 -0.4556
  909MPD2     N13318   0.120   1.215  12.164 -0.0898  0.1904  0.2057
  909MPD2    H513319   0.103   1.258  12.074 -0.9901 -0.7147 -0.0632
  909MPD2    N113320   0.376   0.882  11.920  0.2061  0.2451  0.0618
  909MPD2    H713321   0.349   0.942  11.842  3.2134  2.4345  0.7192
  910MPD2     C13322   0.573   2.839  16.077  0.4818 -0.6250 -0.3206
  910MPD2    C113323   0.665   2.815  15.982 -0.1149 -0.8209  0.0381
  910MPD2    C213324   0.642   2.846  15.854  0.0975 -0.0820  0.0088
  910MPD2    C313325   0.522   2.892  15.811  0.4435  0.3898  0.2227
  910MPD2    C413326   0.422   2.905  15.908 -0.1904  0.6305  0.7930
  910MPD2    C513327   0.450   2.886  16.040 -0.0763  0.2258 -0.1164
  910MPD2     H13328   0.723   2.829  15.785 -0.2131  0.0185 -0.3775
  910MPD2    H113329   0.320   2.935  15.888 -0.4943 -0.2767  1.0004
  910MPD2    H213330   0.589   2.815  16.182  1.4251 -1.2228 -0.6048
  910MPD2    H313331   0.364   2.904  16.104  1.4449  0.9370  1.7162
  910MPD2     N13332   0.487   2.919  15.673 -0.0328  0.1001  0.0242
  910MPD2    H513333   0.393   2.949  15.650 -1.1238 -2.5638  0.9958
  910MPD2    N113334   0.782   2.747  16.012 -0.9513  0.0434  0.1297
  910MPD2    H713335   0.852   2.731  15.940  0.3483  4.4836  0.4239
  911MPD2     C13336   3.507   3.012  16.277 -0.3573 -0.6632 -0.1812
  911MPD2    C113337   3.515   3.132  16.345  0.1465 -0.0191  0.0302
  911MPD2    C213338   3.424   3.232  16.332  0.5180 -0.0900 -0.1894
  911MPD2    C313339   3.324   3.209  16.239  0.1137 -0.5717 -0.4712
  911MPD2    C413340   3.317   3.089  16.170 -0.0462 -0.5501  0.3925
  911MPD2    C513341   3.407   2.994  16.184  0.2415 -0.5481  0.9170
  911MPD2     H13342   3.427   3.320  16.395 -0.3471 -1.6657  2.0632
  911MPD2    H113343   3.231   3.066  16.109 -0.0478  1.5065 -0.3873
  911MPD2    H213344   3.582   2.934  16.291  0.0276 -0.1510  0.6212
  911MPD2    H313345   3.396   2.905  16.122  1.8231  0.5602 -0.9478
  911MPD2     N13346   3.220   3.296  16.215  0.0148  0.8685 -0.8491
  911MPD2    H513347   3.137   3.270  16.162  0.1430 -1.2642  0.0081
  911MPD2    N113348   3.632   3.138  16.428 -0.3073 -0.3545  0.3023
  911MPD2    H713349   3.692   3.056  16.426 -2.6429 -2.0485 -0.7851
  912MPD2     C13350   3.174   3.087  15.653 -0.1131  1.0999  0.7279
  912MPD2    C113351   3.110   3.097  15.775  0.8592  0.1548  0.7639
  912MPD2    C213352   3.091   2.984  15.848  0.5630 -0.5388 -0.3536
  912MPD2    C313353   3.148   2.859  15.812  0.5733  0.5460 -0.1276
  912MPD2    C413354   3.206   2.850  15.690  0.0316  0.1356 -0.1603
  912MPD2    C513355   3.208   2.961  15.606  0.1432  0.2402 -0.0303
  912MPD2     H13356   3.045   2.983  15.946 -1.9442  0.2174 -1.5250
  912MPD2    H113357   3.230   2.755  15.645  2.2489 -0.7675  2.8902
  912MPD2    H213358   3.186   3.163  15.576  2.9371 -0.1021  0.0146
  912MPD2    H313359   3.238   2.948  15.502 -0.3196  0.5060 -0.2042
  912MPD2     N13360   3.135   2.760  15.915  0.3585  0.2718 -0.0804
  912MPD2    H513361   3.083   2.773  16.001  2.0160  0.7260  0.8432
  912MPD2    N113362   3.073   3.223  15.824  0.2119  0.1288  0.5544
  912MPD2    H713363   3.102   3.301  15.766 -5.3089  0.8542 -1.1599
  913MPD2     C13364   4.298   4.308  10.142 -0.5157  0.8820  0.5613
  913MPD2    C113365   4.377   4.419  10.172 -0.2885  0.1272  0.3401
  913MPD2    C213366   4.364   4.536  10.102  0.1189 -0.3914 -0.2009
  913MPD2    C313367   4.262   4.549  10.016 -0.8574  0.8822  0.3018
  913MPD2    C413368   4.192   4.443   9.978  0.0639 -0.3822 -0.1117
  913MPD2    C513369   4.206   4.325  10.047  0.2037  0.2034  0.2935
  913MPD2     H13370   4.418   4.622  10.140  1.1514 -0.4970 -1.4500
  913MPD2    H113371   4.109   4.452   9.909  0.0881 -1.0448 -0.2358
  913MPD2    H213372   4.297   4.223  10.209  0.8130  0.8332  0.5164
  913MPD2    H313373   4.136   4.247  10.020  1.1502 -0.5206 -0.0686
  913MPD2     N13374   4.222   4.670   9.956 -0.3790 -0.6547 -0.6691
  913MPD2    H513375   4.137   4.669   9.901  0.4396  0.5148 -1.9349
  913MPD2    N113376   4.474   4.389  10.277  0.4469  0.1471  0.0049
  913MPD2    H713377   4.455   4.305  10.330  2.2559  0.6023  1.3668
  914MPD2     C13378   2.814   0.102  12.000  0.4839  0.2963  0.0388
  914MPD2    C113379   2.715   0.204  12.002 -0.6423 -0.3321 -0.4429
  914MPD2    C213380   2.646   0.221  12.121 -0.2982  0.4626 -0.9421
  914MPD2    C313381   2.677   0.152  12.231 -1.1256 -0.3068  1.1658
  914MPD2    C413382   2.773   0.060  12.228 -0.0658  1.2843  0.4750
  914MPD2    C513383   2.836   0.026  12.112 -0.2082  0.1365 -0.6585
  914MPD2     H13384   2.568   0.296  12.127  0.2394  0.9702 -0.3146
  914MPD2    H113385   2.805   0.005  12.315 -0.8671 -1.3516 -0.8865
  914MPD2    H213386   2.885   0.091  11.919  0.9016  0.4224  0.3865
  914MPD2    H313387   2.914   4.671  12.118  0.7529  1.2808  1.3867
  914MPD2     N13388   2.601   0.192  12.340  0.3709 -0.3036 -0.3505
  914MPD2    H513389   2.539   0.270  12.320  0.3519  0.1550  1.5658
  914MPD2    N113390   2.693   0.290  11.892  0.3973 -0.3312  0.6805
  914MPD2    H713391   2.755   0.279  11.812 -1.2080  1.2620 -0.7836
  915MPD2     C13392   0.202   0.272  15.446 -0.8264 -0.4302  0.1037
  915MPD2    C113393   0.081   0.215  15.492  0.1121  0.0367 -0.7561
  915MPD2    C213394   0.028   0.259  15.613 -0.2357  0.7247 -0.2642
  915MPD2    C313395   0.091   0.366  15.678  0.0509 -0.0617 -0.5808
  915MPD2    C413396   0.203   0.420  15.628 -0.1329  0.4770  0.1018
  915MPD2    C513397   0.261   0.372  15.517  0.1943  0.4221 -0.3667
  915MPD2     H13398   4.662   0.212  15.658 -1.6783  1.7902 -1.9431
  915MPD2    H113399   0.257   0.497  15.681  0.6162  0.0713 -0.0826
  915MPD2    H213400   0.241   0.245  15.349  0.6061 -0.2925  0.6366
  915MPD2    H313401   0.356   0.410  15.480 -0.4122  1.2658 -1.0767
  915MPD2     N13402   0.023   0.411  15.796  0.1739 -0.1667  0.2370
  915MPD2    H513403   4.650   0.371  15.801  0.5717 -1.2327 -0.8933
  915MPD2    N113404   0.017   0.105  15.426  0.0353  0.5623  0.1409
  915MPD2    H713405   4.657   0.064  15.474 -1.1331  1.9035 -0.6668
  916MPD2     C13406   2.795   2.895  15.706  0.0513 -0.0377  0.7512
  916MPD2    C113407   2.792   2.781  15.789 -0.2723  0.1543 -0.6881
  916MPD2    C213408   2.854   2.665  15.749  1.3644  1.0490  0.9267
  916MPD2    C313409   2.914   2.673  15.623 -0.2030 -0.3630 -0.4886
  916MPD2    C413410   2.901   2.779  15.539 -0.3364  0.1877  0.5411
  916MPD2    C513411   2.847   2.891  15.581  0.0171  0.1743  0.2802
  916MPD2     H13412   2.850   2.570  15.801  3.0363 -0.6109 -1.9426
  916MPD2    H113413   2.933   2.773  15.436 -1.0415  0.6684  0.2930
  916MPD2    H213414   2.744   2.984  15.741  1.7205  0.1355  2.7622
  916MPD2    H313415   2.841   2.976  15.514 -0.5488 -1.7163 -2.0593
  916MPD2     N13416   2.987   2.557  15.584  0.4176  0.0028  0.0673
  916MPD2    H513417   2.974   2.477  15.646  1.3172 -1.2199 -1.3265
  916MPD2    N113418   2.727   2.797  15.915 -0.0275  0.9410 -0.2340
  916MPD2    H713419   2.702   2.890  15.948  1.4107  1.1846  0.1716
  917MPD2     C13420   3.841   0.499  10.983 -0.3573 -0.1149  0.6981
  917MPD2    C113421   3.873   0.611  11.052  0.5357 -0.4834 -0.1765
  917MPD2    C213422   3.922   0.713  10.971  0.1480 -0.5336  0.4565
  917MPD2    C313423   3.965   0.694  10.842  0.7488 -0.5052 -0.0599
  917MPD2    C413424   3.924   0.585  10.775 -0.3800  0.2421  0.3498
  917MPD2    C513425   3.862   0.488  10.847  0.3775 -0.5217 -0.1287
  917MPD2     H13426   3.935   0.807  11.023 -1.2544  0.2146 -0.5580
  917MPD2    H113427   3.937   0.564  10.669 -0.9230 -2.5822  0.8235
  917MPD2    H213428   3.809   0.407  11.030  0.9330 -1.0945 -0.3262
  917MPD2    H313429   3.821   0.398  10.801  1.2515 -1.2089  0.4265
  917MPD2     N13430   4.015   0.801  10.770  0.4000  0.2001  0.2839
  917MPD2    H513431   4.022   0.778  10.671 -3.7878 -3.1331  0.7592
  917MPD2    N113432   3.828   0.617  11.186  0.2361 -0.1112  0.0514
  917MPD2    H713433   3.802   0.525  11.222 -0.0939  0.5333  1.4777
  918MPD2     C13434   4.053   1.246  11.854 -0.5216  0.3958  0.2698
  918MPD2    C113435   4.085   1.118  11.887  0.4159 -0.0345 -0.1869
  918MPD2    C213436   3.995   1.021  11.857 -0.6869 -0.2794  0.1650
  918MPD2    C313437   3.893   1.037  11.764 -0.1004  0.3774  0.4832
  918MPD2    C413438   3.869   1.168  11.724  0.0501 -0.1744 -0.4556
  918MPD2    C513439   3.944   1.272  11.777 -0.0255  0.0257 -0.5179
  918MPD2     H13440   4.011   0.922  11.897  1.3332 -0.3978 -0.9303
  918MPD2    H113441   3.779   1.201  11.674 -0.1319 -2.5959 -1.7112
  918MPD2    H213442   4.099   1.335  11.895  0.5441 -0.3005  0.5723
  918MPD2    H313443   3.914   1.375  11.759  0.3376 -0.3668 -3.4092
  918MPD2     N13444   3.808   0.929  11.727  0.2624  0.4026  0.0165
  918MPD2    H513445   3.836   0.835  11.756  2.3253  0.7576 -0.8177
  918MPD2    N113446   4.192   1.081  11.962 -0.1966 -0.5704  0.0929
  918MPD2    H713447   4.191   0.986  11.998 -1.0866 -0.1105  1.2787
  919MPD2     C13448   4.531   4.233  11.662 -0.3086 -0.3157  0.9018
  919MPD2    C113449   4.497   4.133  11.571  0.0910  0.3431  0.0158
  919MPD2    C213450   4.481   4.168  11.440 -0.4362  0.1849 -1.2997
  919MPD2    C313451   4.513   4.293  11.397 -0.3760  0.1481 -0.6319
  919MPD2    C413452   4.565   4.386  11.485 -0.0510  0.4164  0.1318
  919MPD2    C513453   4.562   4.362  11.623 -0.9171  0.2644 -0.0718
  919MPD2     H13454   4.433   4.095  11.375  0.2368 -1.1830 -0.2554
  919MPD2    H113455   4.579   4.488  11.452  1.3120  0.0179 -0.5198
  919MPD2    H213456   4.552   4.203  11.764  1.9868 -3.7612 -0.5955
  919MPD2    H313457   4.600   4.434  11.695  0.1366  1.1845 -1.5399
  919MPD2     N13458   4.503   4.343  11.264 -0.8088 -0.4067 -0.4440
  919MPD2    H513459   4.514   4.444  11.264 -2.3222 -0.2421  2.1118
  919MPD2    N113460   4.445   4.008  11.610  0.4331  0.3073  0.7382
  919MPD2    H713461   4.419   3.943  11.538 -1.4047  1.2876  0.5093
  920MPD2     C13462   4.578   0.391  10.655  0.2188 -0.2987  0.3906
  920MPD2    C113463   4.535   0.289  10.579 -0.4342  1.0024  0.4667
  920MPD2    C213464   4.550   0.159  10.625  0.2447  0.3606  0.3501
  920MPD2    C313465   4.600   0.133  10.748 -0.1736  0.5833  0.4110
  920MPD2    C413466   4.651   0.236  10.825  0.0823  0.0257  0.2330
  920MPD2    C513467   4.649   0.361  10.772  0.7766  0.1797 -0.2086
  920MPD2     H13468   4.513   0.083  10.557 -0.5865  0.6462  0.4777
  920MPD2    H113469   4.688   0.228  10.927 -0.9750  1.6728  0.7663
  920MPD2    H213470   4.569   0.491  10.614 -1.9429  0.3311  2.4512
  920MPD2    H313471   4.683   0.452  10.820 -0.0330 -1.0194  2.6611
  920MPD2     N13472   4.597   0.003  10.797 -0.3669  0.4453  0.3445
  920MPD2    H513473   4.589   4.656  10.722  2.2616  1.8568 -1.1940
  920MPD2    N113474   4.471   0.312  10.457  0.6404  0.0516 -0.1017
  920MPD2    H713475   4.449   0.229  10.404 -1.9887  1.2613 -0.9052
  921MPD2     C13476   4.387   3.639  16.532 -0.0637 -0.2675 -0.5219
  921MPD2    C113477   4.398   3.517  16.592 -0.3558 -0.5026 -0.5531
  921MPD2    C213478   4.292   3.460  16.665 -0.2364  0.0705 -0.3651
  921MPD2    C313479   4.167   3.519  16.669  0.0709 -0.2761 -0.1591
  921MPD2    C413480   4.157   3.648  16.615 -0.0910  0.7788  0.0876
  921MPD2    C513481   4.267   3.702  16.547  0.3486 -0.0008  0.2977
  921MPD2     H13482   4.313   3.359  16.701 -1.2082  0.2988  0.8379
  921MPD2    H113483   4.066   3.708  16.620  0.8297  2.0728  1.2176
  921MPD2    H213484   4.464   3.684  16.471  0.4855  0.2571  0.5790
  921MPD2    H313485   4.262   3.801  16.502  0.3646  0.7721  2.0127
  921MPD2     N13486   4.047   3.447  16.714 -0.2693  0.6151  0.3384
  921MPD2    H513487   3.963   3.497  16.687 -0.1365  0.4956 -0.2787
  921MPD2    N113488   4.527   3.459  16.575 -0.7343 -1.0470 -0.5410
  921MPD2    H713489   4.597   3.505  16.518  0.8086 -0.7621  1.5595
  922MPD2     C13490   0.711   0.864  16.814  0.2980  0.5764 -0.6849
  922MPD2    C113491   0.693   0.933  16.930 -0.7005 -0.2680 -0.5106
  922MPD2    C213492   0.601   0.888  17.022 -0.2401 -0.6657  0.2142
  922MPD2    C313493   0.514   0.781  16.988 -0.1497 -0.4760  0.3849
  922MPD2    C413494   0.535   0.715  16.863  0.0499 -0.4686  0.7263
  922MPD2    C513495   0.636   0.753  16.783  0.1365  0.0927 -0.4277
  922MPD2     H13496   0.608   0.931  17.121 -1.8022  0.6352 -0.2388
  922MPD2    H113497   0.475   0.634  16.826 -0.1952 -0.5889  1.3923
  922MPD2    H213498   0.797   0.881  16.750  0.4007  0.2068 -0.6477
  922MPD2    H313499   0.661   0.698  16.693 -1.2703 -3.1458  1.1335
  922MPD2     N13500   0.418   0.722  17.077  0.3957  0.1082 -0.2790
  922MPD2    H513501   0.363   0.643  17.045  1.1849 -0.4387 -0.2661
  922MPD2    N113502   0.763   1.057  16.954  0.4420  0.8571  0.5824
  922MPD2    H713503   0.728   1.117  17.028 -1.2615  0.8326 -0.2083
  923MPD2     C13504   2.815   1.735   9.436  0.0964 -0.8434 -0.2083
  923MPD2    C113505   2.841   1.867   9.432  0.0653 -0.1738 -0.8624
  923MPD2    C213506   2.892   1.932   9.546 -0.0229 -0.8833  0.3875
  923MPD2    C313507   2.939   1.861   9.656  0.7834 -0.6009 -0.4428
  923MPD2    C413508   2.911   1.731   9.658  0.1982 -0.0567  0.2253
  923MPD2    C513509   2.845   1.673   9.551  0.2203  0.3680  0.1248
  923MPD2     H13510   2.907   2.039   9.535 -1.0321 -0.7380  0.4092
  923MPD2    H113511   2.938   1.668   9.742 -1.2247 -0.2809  0.5109
  923MPD2    H213512   2.773   1.689   9.347  0.3118  0.9431 -1.2295
  923MPD2    H313513   2.819   1.568   9.550 -0.5190  0.5622 -1.5665
  923MPD2     N13514   3.009   1.915   9.768  0.4641 -0.0443 -0.0637
  923MPD2    H513515   3.043   1.846   9.835 -1.9643 -0.6994  0.4833
  923MPD2    N113516   2.808   1.934   9.309 -0.0406  0.0054  0.0425
  923MPD2    H713517   2.774   1.872   9.236  1.6900 -2.0251  0.9381
  924MPD2     C13518   1.926   1.487  15.601  0.5854  0.8630 -0.0293
  924MPD2    C113519   1.898   1.484  15.738  0.3743  0.3975  0.7133
  924MPD2    C213520   1.989   1.542  15.825 -0.2331 -0.0493 -0.5107
  924MPD2    C313521   2.097   1.612  15.775 -0.0539  0.1407 -0.1410
  924MPD2    C413522   2.124   1.613  15.640 -0.1335  0.7299 -0.5644
  924MPD2    C513523   2.037   1.555  15.555 -0.2239 -0.1712 -0.7265
  924MPD2     H13524   1.973   1.538  15.932  1.4871 -1.0024 -0.2916
  924MPD2    H113525   2.208   1.660  15.591  1.3885  0.0081  1.3453
  924MPD2    H213526   1.855   1.444  15.531  0.3462 -0.4203  1.0022
  924MPD2    H313527   2.062   1.553  15.449  2.6084 -0.6795 -0.0290
  924MPD2     N13528   2.195   1.682  15.859 -0.5417  0.2751 -0.1396
  924MPD2    H513529   2.257   1.748  15.814  1.5362 -0.9845  0.8949
  924MPD2    N113530   1.776   1.438  15.779  0.5252  0.0626  0.2120
  924MPD2    H713531   1.696   1.444  15.717 -0.4386  0.1239  1.4714
  925MPD2     C13532   0.998   3.739  14.633 -0.3221 -0.7049 -0.9289
  925MPD2    C113533   0.860   3.702  14.623  0.0024 -0.1905  0.2039
  925MPD2    C213534   0.794   3.651  14.732 -0.4267 -0.7806 -0.2308
  925MPD2    C313535   0.862   3.647  14.854 -0.0898 -0.5146 -0.4369
  925MPD2    C413536   0.998   3.675  14.861  0.1009 -0.1365 -0.4738
  925MPD2    C513537   1.064   3.715  14.752 -0.6643 -0.5684 -0.0129
  925MPD2     H13538   0.690   3.621  14.720 -1.5025  2.7224  0.3939
  925MPD2    H113539   1.054   3.658  14.952  0.8095 -1.0075 -1.0683
  925MPD2    H213540   1.057   3.781  14.553  0.4129 -0.5043 -0.2869
  925MPD2    H313541   1.171   3.730  14.761 -0.5991 -1.8358  1.3163
  925MPD2     N13542   0.800   3.599  14.974  0.4340 -0.0616  0.3132
  925MPD2    H513543   0.867   3.577  15.047  0.3841 -0.4170  0.2524
  925MPD2    N113544   0.790   3.708  14.499  0.6676 -0.0950 -0.2194
  925MPD2    H713545   0.689   3.700  14.504  0.6738 -0.2012 -0.2840
  926MPD2     C13546   0.429   2.015  13.116 -0.3776  0.0887 -0.5237
  926MPD2    C113547   0.459   2.135  13.180 -0.6857  0.5936  0.0233
  926MPD2    C213548   0.550   2.216  13.121 -0.4536  0.2662 -0.0267
  926MPD2    C313549   0.618   2.184  13.001  0.3555  0.2193  0.3905
  926MPD2    C413550   0.583   2.069  12.942  0.0347 -0.3007  0.2106
  926MPD2    C513551   0.485   1.990  12.995 -0.4519 -0.0756 -0.1941
  926MPD2     H13552   0.567   2.309  13.174  2.1028  0.8793 -1.9477
  926MPD2    H113553   0.618   2.040  12.843 -2.3960  0.0925 -0.7740
  926MPD2    H213554   0.368   1.938  13.161  0.0751  0.2561  0.3827
  926MPD2    H313555   0.466   1.893  12.949  1.5369 -0.3601 -0.4368
  926MPD2     N13556   0.715   2.267  12.931 -0.4986  0.1882  0.4730
  926MPD2    H513557   0.744   2.245  12.836 -0.7937 -2.7017  1.0700
  926MPD2    N113558   0.401   2.175  13.306  0.9136  0.1618 -0.4114
  926MPD2    H713559   0.430   2.266  13.341  1.2932 -0.9391  2.1320
  927MPD2     C13560   3.744   4.659   0.086 -0.6140  0.7822 -0.4686
  927MPD2    C113561   3.747   4.529   0.114  0.6824  0.1479 -0.0905
  927MPD2    C213562   3.825   4.444   0.041  0.0692  0.4885  0.4010
  927MPD2    C313563   3.917   4.498  17.638  0.3659 -0.4823  0.6715
  927MPD2    C413564   3.920   4.631  17.611  0.6348  0.1819  0.3125
  927MPD2    C513565   3.837   4.711  17.681 -0.1868  0.2770 -0.0975
  927MPD2     H13566   3.827   4.338   0.060 -1.6272  0.6589  1.5056
  927MPD2    H113567   3.978   4.682  17.536 -1.4875  0.8826 -0.8574
  927MPD2    H213568   3.679   0.013   0.131 -1.5904  0.1326 -0.8194
  927MPD2    H313569   3.846   0.099  17.670 -0.9126  0.5189  1.6520
  927MPD2     N13570   3.991   4.409  17.558 -0.1789 -0.1195 -0.3021
  927MPD2    H513571   3.984   4.311  17.586 -0.3055 -0.9114 -3.0786
  927MPD2    N113572   3.661   4.483   0.217 -0.4622  0.2410  0.2588
  927MPD2    H713573   3.608   4.556   0.263 -1.1512 -1.3402  1.9940
  928MPD2     C13574   1.187   3.212   0.870 -0.5201 -0.3162  0.0317
  928MPD2    C113575   1.213   3.347   0.843  0.0132 -0.6226 -0.1949
  928MPD2    C213576   1.233   3.377   0.713  0.1181  0.1452  0.1440
  928MPD2    C313577   1.246   3.286   0.609  0.2450  0.3215  0.0154
  928MPD2    C413578   1.230   3.151   0.643 -0.5713 -0.1969 -0.6014
  928MPD2    C513579   1.195   3.118   0.770  0.7311  0.0641 -0.3375
  928MPD2     H13580   1.248   3.483   0.692 -0.7050  0.3921  0.7676
  928MPD2    H113581   1.261   3.074   0.573 -1.7350 -1.7477  0.5897
  928MPD2    H213582   1.163   3.178   0.970 -3.1414 -1.8896 -1.1431
  928MPD2    H313583   1.180   3.014   0.794 -0.0313  0.9716  3.2825
  928MPD2     N13584   1.296   3.324   0.487 -0.5826  0.9790  0.1570
  928MPD2    H513585   1.303   3.246   0.422  0.4155  0.2154  1.1632
  928MPD2    N113586   1.209   3.446   0.945 -0.5109 -0.5483  0.2443
  928MPD2    H713587   1.214   3.418   1.043  0.0669 -1.8541 -0.1571
  929MPD2     C13588   2.158   3.028  10.998  0.0196 -0.3412  0.0812
  929MPD2    C113589   2.122   2.964  10.881  0.0251 -0.0840  0.2143
  929MPD2    C213590   2.179   3.006  10.762 -0.1899  0.5142  0.2595
  929MPD2    C313591   2.273   3.103  10.759 -0.1987 -0.2627 -0.5253
  929MPD2    C413592   2.329   3.147  10.875 -0.1629  0.2254 -0.4693
  929MPD2    C513593   2.263   3.116  10.988  0.2144 -0.4197 -1.2761
  929MPD2     H13594   2.150   2.965  10.666 -0.7930 -0.0438  0.6810
  929MPD2    H113595   2.412   3.218  10.880 -1.4438  1.6975 -0.0822
  929MPD2    H213596   2.113   3.017  11.096 -1.5753  3.5721 -0.2342
  929MPD2    H313597   2.308   3.166  11.073 -0.6763 -1.2681 -0.3092
  929MPD2     N13598   2.325   3.152  10.639  0.0489  0.1912  0.0938
  929MPD2    H513599   2.402   3.216  10.651 -1.7141  2.1822  0.8515
  929MPD2    N113600   2.024   2.863  10.884  0.9589 -0.2208 -0.0909
  929MPD2    H713601   1.969   2.857  10.969 -0.1905  1.2858 -0.7297
  930MPD2     C13602   3.575   0.586  13.925  0.0481  0.5680 -0.1982
  930MPD2    C113603   3.709   0.581  13.958 -0.8740 -0.5542  0.4704
  930MPD2    C213604   3.793   0.533  13.862 -0.1622  0.6546 -0.5836
  930MPD2    C313605   3.745   0.508  13.733  0.2762  0.0520 -0.4765
  930MPD2    C413606   3.610   0.506  13.709  0.5020 -0.3467  0.0913
  930MPD2    C513607   3.526   0.535  13.809  0.1629 -0.0881  0.4395
  930MPD2     H13608   3.897   0.515  13.887 -0.6444 -0.2227  0.8082
  930MPD2    H113609   3.575   0.464  13.615  1.7415  2.9741 -1.8611
  930MPD2    H213610   3.509   0.624  14.001  0.0902 -0.3687  0.3124
  930MPD2    H313611   3.419   0.532  13.792 -0.1768  1.1403  2.3919
  930MPD2     N13612   3.825   0.488  13.623 -0.2191 -0.1024  0.5392
  930MPD2    H513613   3.780   0.499  13.532 -2.0104  1.4537  1.6085
  930MPD2    N113614   3.750   0.634  14.082  0.7974  0.5327  0.2076
  930MPD2    H713615   3.684   0.684  14.142 -0.4887 -0.9927  0.0507
  931MPD2     C13616   3.783   3.903   0.680 -0.3725  0.5316 -0.1008
  931MPD2    C113617   3.647   3.931   0.687 -0.0950 -0.0516 -0.1493
  931MPD2    C213618   3.575   3.867   0.792  0.6052  0.0427  0.3297
  931MPD2    C313619   3.630   3.764   0.868 -0.5332  0.3435  0.5263
  931MPD2    C413620   3.761   3.732   0.842  0.5046 -0.4448 -0.0180
  931MPD2    C513621   3.835   3.807   0.760 -0.1254  0.4250 -0.5439
  931MPD2     H13622   3.468   3.887   0.796  0.3704 -1.1391 -0.0855
  931MPD2    H113623   3.802   3.654   0.906 -0.2413  0.5259  1.6528
  931MPD2    H213624   3.855   3.956   0.619  0.0469  0.8597  0.6816
  931MPD2    H313625   3.940   3.783   0.752 -0.4893 -0.6932 -2.0574
  931MPD2     N13626   3.566   3.694   0.977  0.3655  0.5051  0.2527
  931MPD2    H513627   3.630   3.637   1.031  1.1643  0.5121 -0.6991
  931MPD2    N113628   3.592   4.031   0.604  0.5411  0.0206 -0.6020
  931MPD2    H713629   3.656   4.078   0.540 -0.2983  2.5523  0.3819
  932MPD2     C13630   0.945   4.156  11.126  0.6447  0.0742 -0.0600
  932MPD2    C113631   1.014   4.110  11.237  0.0973 -0.1423 -0.1937
  932MPD2    C213632   0.959   4.022  11.329  0.8336 -0.1789  0.0383
  932MPD2    C313633   0.845   3.957  11.300  0.2450  0.9057 -0.5597
  932MPD2    C413634   0.771   4.010  11.193  0.6024 -0.3891 -0.5296
  932MPD2    C513635   0.818   4.110  11.113  0.0308  0.1495  0.0952
  932MPD2     H13636   1.028   3.990  11.406  0.6881  0.2810  0.3587
  932MPD2    H113637   0.666   3.983  11.183  0.5256 -0.0554 -0.6464
  932MPD2    H213638   0.987   4.239  11.070  2.2471 -0.9913 -0.4498
  932MPD2    H313639   0.749   4.156  11.044  0.3907 -0.4744 -0.6885
  932MPD2     N13640   0.784   3.854  11.377  0.1004  0.0993 -0.2722
  932MPD2    H513641   0.692   3.819  11.353  0.5914 -0.3281 -1.5111
  932MPD2    N113642   1.147   4.151  11.267 -0.1771  0.5770 -0.1156
  932MPD2    H713643   1.185   4.112  11.353  0.7851 -0.1572 -0.8898
  933MPD2     C13644   0.723   4.012   1.103  0.0129  0.3680 -0.1641
  933MPD2    C113645   0.843   4.030   1.171 -0.4322  1.1940 -0.1945
  933MPD2    C213646   0.871   4.154   1.229 -0.5638 -0.5431 -0.2087
  933MPD2    C313647   0.790   4.262   1.212  0.6750 -0.4780  0.0737
  933MPD2    C413648   0.673   4.241   1.147  0.5591  0.9047 -0.1293
  933MPD2    C513649   0.643   4.117   1.100  1.1554  0.0273 -0.3793
  933MPD2     H13650   0.965   4.171   1.281 -0.2404 -2.4703 -0.1841
  933MPD2    H113651   0.600   4.320   1.134 -1.6014 -0.6449  2.7160
  933MPD2    H213652   0.692   3.915   1.065 -0.8926  0.4556  0.3393
  933MPD2    H313653   0.560   4.101   1.031 -0.4143  0.0400  1.5119
  933MPD2     N13654   0.824   4.391   1.258  0.4774  0.0796 -0.2042
  933MPD2    H513655   0.906   4.384   1.317  1.0961 -0.1089 -1.0936
  933MPD2    N113656   0.932   3.919   1.169  0.6011  0.2635 -0.6530
  933MPD2    H713657   0.919   3.848   1.098  1.0270 -0.9371  0.4742
  934MPD2     C13658   3.076   1.410   1.579 -0.2106  0.0721  0.2251
  934MPD2    C113659   3.116   1.281   1.600  0.3372 -0.5433  0.6383
  934MPD2    C213660   3.051   1.181   1.529 -0.8326  0.0426  0.4850
  934MPD2    C313661   2.941   1.211   1.445 -0.2949  0.5101 -0.1173
  934MPD2    C413662   2.889   1.336   1.450  0.0928  0.2671 -0.6789
  934MPD2    C513663   2.960   1.439   1.510 -0.5971 -0.6788  0.7632
  934MPD2     H13664   3.102   1.085   1.531 -1.9608 -0.5464  1.0526
  934MPD2    H113665   2.794   1.353   1.400 -0.7273 -0.9412  0.4880
  934MPD2    H213666   3.126   1.497   1.621  0.2657 -1.2379  2.3830
  934MPD2    H313667   2.937   1.544   1.493  0.2857 -0.3347  1.6910
  934MPD2     N13668   2.879   1.112   1.373  0.1416  0.0861 -0.0064
  934MPD2    H513669   2.792   1.132   1.324  0.2901  0.5972 -0.0596
  934MPD2    N113670   3.224   1.237   1.678 -0.3863  0.4036 -0.3756
  934MPD2    H713671   3.246   1.138   1.681  0.4517  0.6125  0.4163
  935MPD2     C13672   3.077   0.116   1.295 -0.0022  0.3874 -0.4833
  935MPD2    C113673   2.965   0.135   1.216  0.3096 -0.5957 -0.4683
  935MPD2    C213674   2.900   0.253   1.220 -0.1770  0.8659  0.2563
  935MPD2    C313675   2.938   0.363   1.298 -0.0806 -0.1996  1.0659
  935MPD2    C413676   3.057   0.340   1.378 -0.9161 -0.1479  0.4096
  935MPD2    C513677   3.126   0.223   1.368 -0.1954  0.3791 -0.0023
  935MPD2     H13678   2.815   0.259   1.152  0.3398 -1.1517 -0.5698
  935MPD2    H113679   3.096   0.423   1.437  2.3709 -0.3887 -1.3836
  935MPD2    H213680   3.142   0.031   1.313  1.5530  1.5130 -0.7413
  935MPD2    H313681   3.212   0.207   1.431 -0.7290 -0.1413  0.5973
  935MPD2     N13682   2.868   0.482   1.320 -0.4099  0.2088 -0.0083
  935MPD2    H513683   2.904   0.539   1.396 -0.2531 -2.1644  1.6767
  935MPD2    N113684   2.901   0.025   1.148 -0.4556 -0.1912  0.1182
  935MPD2    H713685   2.814   0.042   1.098 -1.0068 -1.3421  0.6725
  936MPD2     C13686   2.154   2.722  12.341 -0.2229  0.2917 -0.6754
  936MPD2    C113687   2.190   2.787  12.451  0.4306  0.6104 -0.4375
  936MPD2    C213688   2.318   2.840  12.462 -0.9460 -0.4715  0.5417
  936MPD2    C313689   2.416   2.814  12.371  0.8182  0.5708  0.4657
  936MPD2    C413690   2.380   2.737  12.259 -0.2772 -1.3308  0.5647
  936MPD2    C513691   2.251   2.694  12.245  0.3545  0.6429 -0.0386
  936MPD2     H13692   2.349   2.893  12.551  0.4102 -0.4652  0.0647
  936MPD2    H113693   2.446   2.700  12.182  0.9979 -1.1719  1.5727
  936MPD2    H213694   2.048   2.701  12.329 -0.0035  0.9135 -3.6703
  936MPD2    H313695   2.219   2.660  12.147 -2.5232  0.0448  1.1374
  936MPD2     N13696   2.545   2.847  12.410  0.2144 -0.0324  0.1416
  936MPD2    H513697   2.562   2.903  12.493 -0.2527  0.2080  0.0719
  936MPD2    N113698   2.103   2.807  12.558  0.2235 -0.4751  0.7846
  936MPD2    H713699   2.140   2.877  12.622  1.1080 -0.8249  0.6519
  937MPD2     C13700   4.418   3.344  11.316  0.2929  0.1514  0.3446
  937MPD2    C113701   4.433   3.481  11.316 -1.0858 -0.5148 -0.6746
  937MPD2    C213702   4.523   3.537  11.226  0.1209 -0.2440 -0.1495
  937MPD2    C313703   4.574   3.464  11.121  0.0851  0.4344 -0.4284
  937MPD2    C413704   4.537   3.333  11.110 -0.4809  0.8547 -0.6545
  937MPD2    C513705   4.467   3.268  11.208 -0.1516  0.4708  0.6984
  937MPD2     H13706   4.543   3.643  11.233  0.2806 -0.2868  0.0183
  937MPD2    H113707   4.559   3.269  11.025  1.2032 -0.4575  0.7967
  937MPD2    H213708   4.357   3.298  11.392  0.5957  1.7778  1.5769
  937MPD2    H313709   4.443   3.163  11.202 -0.4764  0.6532 -1.0985
  937MPD2     N13710   4.667   3.527  11.038  0.1127 -0.1782 -0.3240
  937MPD2    H513711   4.694   3.619  11.072 -0.1203 -0.2965  0.1889
  937MPD2    N113712   4.406   3.566  11.429  0.5830  0.2435  0.1497
  937MPD2    H713713   4.427   3.664  11.419  1.9323  0.0812  1.4759
  938MPD2     C13714   1.716   4.654   0.708  0.2478 -0.6020 -0.0625
  938MPD2    C113715   1.759   0.059   0.751  0.1809 -0.0279  0.2164
  938MPD2    C213716   1.802   0.076   0.881  0.0283 -0.5802 -0.5187
  938MPD2    C313717   1.791   4.687   0.967  0.0137  0.2409  0.5774
  938MPD2    C413718   1.727   4.574   0.931  0.5371  0.2953  0.7161
  938MPD2    C513719   1.703   4.549   0.798 -0.0119 -0.0920 -0.1522
  938MPD2     H13720   1.849   0.169   0.911 -0.5301 -0.6165  0.4633
  938MPD2    H113721   1.715   4.491   1.000 -0.8623 -0.2617 -0.1970
  938MPD2    H213722   1.672   4.640   0.610  2.1591 -0.8128 -0.8886
  938MPD2    H313723   1.671   4.448   0.776  2.9936 -0.7138 -1.7205
  938MPD2     N13724   1.851   4.688   1.096 -0.8268  0.6728 -0.5477
  938MPD2    H513725   1.848   4.605   1.154 -1.1925  1.7594  0.9715
  938MPD2    N113726   1.759   0.172   0.660 -0.1466 -0.3719 -1.1067
  938MPD2    H713727   1.793   0.258   0.702 -1.1546 -1.3100  1.6331
  939MPD2     C13728   2.569   1.509   0.474  0.0516 -0.8406 -0.4707
  939MPD2    C113729   2.700   1.525   0.523  0.1942  0.1873  0.0212
  939MPD2    C213730   2.803   1.473   0.453 -0.2781  0.0834  0.2509
  939MPD2    C313731   2.787   1.398   0.335  0.5589  0.0665 -0.4398
  939MPD2    C413732   2.661   1.380   0.292 -0.4615  0.5335 -1.1917
  939MPD2    C513733   2.554   1.433   0.358 -0.2278  0.2160 -1.0138
  939MPD2     H13734   2.904   1.500   0.480  0.2026 -1.5836  0.1002
  939MPD2    H113735   2.646   1.350   0.189 -0.5175 -0.2730 -0.9484
  939MPD2    H213736   2.485   1.552   0.527  0.1580 -1.7868  0.4709
  939MPD2    H313737   2.459   1.422   0.307 -0.5401  1.2741 -0.6689
  939MPD2     N13738   2.907   1.363   0.265  0.4766 -0.3302  0.3028
  939MPD2    H513739   3.000   1.392   0.294  0.8688  0.1039 -1.4323
  939MPD2    N113740   2.711   1.607   0.640 -0.3841  0.1162 -1.0242
  939MPD2    H713741   2.629   1.663   0.663 -0.3084 -0.3116  0.2759
  940MPD2     C13742   2.532   2.552  12.586  0.6361 -0.2763 -0.0267
  940MPD2    C113743   2.668   2.525  12.598 -0.1491  0.3962  0.7880
  940MPD2    C213744   2.733   2.447  12.505 -0.1918  0.3391  0.3333
  940MPD2    C313745   2.662   2.407  12.390  0.2775 -0.4849  0.4915
  940MPD2    C413746   2.527   2.438  12.384  0.2347 -0.1268 -0.7436
  940MPD2    C513747   2.460   2.503  12.482 -0.0201  0.1470  0.1447
  940MPD2     H13748   2.840   2.435  12.513 -0.1682  1.7538  2.2540
  940MPD2    H113749   2.467   2.408  12.299 -0.5520  1.0207 -0.5990
  940MPD2    H213750   2.472   2.607  12.658  1.2562 -0.0004  0.2784
  940MPD2    H313751   2.357   2.533  12.466  0.2350  0.5801 -0.7140
  940MPD2     N13752   2.716   2.318  12.294  0.1995 -0.1262  0.2403
  940MPD2    H513753   2.662   2.258  12.233  2.2318 -1.8729  0.1877
  940MPD2    N113754   2.736   2.551  12.724 -0.5679 -0.1125 -0.4909
  940MPD2    H713755   2.828   2.511  12.739 -0.7409 -0.8138 -1.3517
  941MPD2     C13756   2.379   0.455   9.219 -0.2368  0.0314  0.1827
  941MPD2    C113757   2.309   0.455   9.341 -0.4070 -0.1355  0.7409
  941MPD2    C213758   2.236   0.344   9.376 -0.3101  0.7479  0.4355
  941MPD2    C313759   2.247   0.220   9.309  0.2134  0.1023  0.3319
  941MPD2    C413760   2.347   0.217   9.206 -0.0553  0.2290  0.3179
  941MPD2    C513761   2.406   0.329   9.166  0.0211  0.3851 -0.3296
  941MPD2     H13762   2.173   0.355   9.463 -1.0644  1.1512 -0.1529
  941MPD2    H113763   2.370   0.126   9.153 -2.2477 -0.2269  0.1155
  941MPD2    H213764   2.422   0.547   9.181  0.9428  0.9529  3.7856
  941MPD2    H313765   2.480   0.318   9.088  0.6699 -0.0772  0.3542
  941MPD2     N13766   2.179   0.103   9.353 -0.1750  0.1588  0.3045
  941MPD2    H513767   2.202   0.022   9.297 -0.9577  0.9673 -1.1925
  941MPD2    N113768   2.291   0.570   9.425  0.0140  0.0710  0.3348
  941MPD2    H713769   2.226   0.569   9.503 -0.3714  0.5911  0.0211
  942MPD2     C13770   0.789   2.327   8.763 -0.2744 -0.4192 -0.1779
  942MPD2    C113771   0.777   2.190   8.782  0.6326  0.4230 -0.4732
  942MPD2    C213772   0.892   2.117   8.791  0.1424  0.1358 -0.5967
  942MPD2    C313773   1.015   2.181   8.810  0.2175 -0.0372 -0.3332
  942MPD2    C413774   1.030   2.317   8.792  0.0989 -0.7116  0.1958
  942MPD2    C513775   0.915   2.388   8.773 -0.7130  0.1732  0.4172
  942MPD2     H13776   0.882   2.009   8.797  0.6193  0.1705  0.9229
  942MPD2    H113777   1.125   2.369   8.793  0.9190 -2.2116 -0.3845
  942MPD2    H213778   0.699   2.384   8.741  0.0889  0.2880  0.1602
  942MPD2    H313779   0.939   2.493   8.760 -1.7391  0.2802 -0.5504
  942MPD2     N13780   1.138   2.118   8.850 -0.0627  0.1142 -0.4696
  942MPD2    H513781   1.224   2.173   8.846  0.7258 -1.1274 -0.5226
  942MPD2    N113782   0.648   2.124   8.785  0.0520 -0.0915  0.5322
  942MPD2    H713783   0.653   2.023   8.779 -2.2293 -0.2373  1.4590
  943MPD2     C13784   0.173   1.202   9.058 -0.0567 -0.2857  0.0068
  943MPD2    C113785   0.273   1.171   9.148 -0.8176 -0.2956  0.3922
  943MPD2    C213786   0.391   1.242   9.151  0.0034 -0.1158  0.0873
  943MPD2    C313787   0.409   1.347   9.063 -0.3042 -0.0027  0.4701
  943MPD2    C413788   0.303   1.386   8.978 -0.6321  0.0316  0.1352
  943MPD2    C513789   0.186   1.311   8.975  0.1702 -0.6777  0.0082
  943MPD2     H13790   0.484   1.214   9.199  1.6086  2.4668 -1.5319
  943MPD2    H113791   0.308   1.463   8.901 -1.4469 -0.0203  0.0247
  943MPD2    H213792   0.081   1.146   9.051 -0.4781  0.4403 -0.2849
  943MPD2    H313793   0.111   1.337   8.902  0.8019 -2.4467 -1.2637
  943MPD2     N13794   0.520   1.423   9.054  0.1816 -0.4349  0.3460
  943MPD2    H513795   0.519   1.496   8.983 -0.1990  0.4678  1.2780
  943MPD2    N113796   0.253   1.059   9.235  0.4202  0.1668  0.5094
  943MPD2    H713797   0.164   1.010   9.227  0.2110  0.2573  2.2146
  944MPD2     C13798   0.219   4.673  11.069  0.6744 -0.2601 -0.2790
  944MPD2    C113799   0.249   0.084  11.071 -0.0017 -0.5787 -0.4251
  944MPD2    C213800   0.277   0.137  11.197  0.2990  0.3860  0.0729
  944MPD2    C313801   0.273   0.058  11.311 -0.4344 -0.5202 -0.2504
  944MPD2    C413802   0.239   4.651  11.302 -0.1659 -0.1471 -0.5128
  944MPD2    C513803   0.210   4.596  11.179  0.3571 -0.2857  0.0694
  944MPD2     H13804   0.310   0.240  11.203  1.3156  0.1100 -0.7926
  944MPD2    H113805   0.224   4.582  11.385  2.5422  1.2533  1.1462
  944MPD2    H213806   0.201   4.617  10.978  0.6834 -1.0712  0.2077
  944MPD2    H313807   0.188   4.491  11.168 -0.5925 -0.1251  0.3830
  944MPD2     N13808   0.306   0.110  11.438  0.0655 -0.0113  0.0185
  944MPD2    H513809   0.310   0.212  11.442 -1.8616  0.0690 -0.2182
  944MPD2    N113810   0.255   0.157  10.948  0.1274 -0.2926 -0.4910
  944MPD2    H713811   0.217   0.106  10.869  0.1491 -0.1239 -0.6111
    1TCq1    O113812   2.290   1.443  13.592  0.0977  0.3397 -0.2879
    1TCq1    C113813   2.337   1.492  13.710  0.5579  0.3458  0.2293
    1TCq1    O213814   2.274   1.534  13.806  0.0642 -0.0814  0.9502
    1TCq1    C213815   2.466   1.417  13.734 -0.1672  0.8079  0.1686
    1TCq1    C313816   2.569   1.432  13.647 -0.2799  0.3633  0.2012
    1TCq1    C413817   2.697   1.414  13.689  0.5328 -0.4207 -0.5184
    1TCq1    C513818   2.728   1.402  13.819 -0.0194 -0.5773 -0.6184
    1TCq1    C613819   2.622   1.388  13.908 -0.7735 -0.1109  0.6251
    1TCq1    C713820   2.489   1.393  13.870  1.0812  0.0330  0.2099
    1TCq1    C813821   2.641   1.446  14.038 -0.3157 -0.3414  0.4025
    1TCq1    O413822   2.590   1.403  14.142  0.2556  0.0353  0.5980
    1TCq1    C913823   2.806   1.430  13.593 -0.0328 -0.0717  0.4102
    1TCq1    O513824   2.922   1.425  13.636 -0.5984  0.0200  0.0626
    1TCq1    O613825   2.784   1.419  13.471  0.6344  0.2362  0.4307
    1TCq1    H113826   2.348   1.403  13.524 -1.2024 -0.6410 -0.8177
    1TCq1    H213827   2.556   1.468  13.545  3.8825 -3.4065 -1.6967
    1TCq1    H313828   2.829   1.410  13.857  0.1958  1.2326 -1.5761
    1TCq1    H413829   2.411   1.410  13.943  0.6185  2.4816 -0.8518
    2MPD2     C13830   2.908   1.744  14.362  0.1814  0.1695 -0.2316
    2MPD2    C113831   2.893   1.807  14.242 -0.3990 -0.9402  0.6242
    2MPD2    C213832   2.822   1.744  14.141 -0.0927  0.6668 -0.0743
    2MPD2    C313833   2.771   1.617  14.154 -0.2898 -0.1173  0.0297
    2MPD2    C413834   2.780   1.561  14.281 -0.1919  0.6699 -1.2172
    2MPD2    C513835   2.853   1.613  14.382 -0.5927  1.0017  0.0683
    2MPD2     H13836   2.812   1.791  14.043 -0.2993  2.5334  0.8385
    2MPD2    H113837   2.753   1.458  14.302 -2.5363  1.5211 -0.0906
    2MPD2    H213838   2.964   1.790  14.443  1.0693  1.9964 -1.9129
    2MPD2    H313839   2.871   1.564  14.477 -1.7066  0.1439 -0.1567
    2MPD2     N13840   2.733   1.548  14.037 -0.1236  0.6558 -0.5857
    2MPD2    H513841   2.744   1.587  13.944  1.6186  0.0315 -0.6334
    2MPD2    N113842   2.958   1.931  14.221  0.3063 -0.4814  0.4217
    2MPD2    H713843   3.006   1.967  14.303 -1.6690 -0.6432  1.6382
    3TMC2    C113844   3.011   2.142  14.128  1.1474  0.3795 -0.4056
    3TMC2    C213845   3.029   2.184  14.256  0.4458 -0.3635 -0.0530
    3TMC2    C313846   3.072   2.311  14.277  0.2687 -0.7662 -0.4135
    3TMC2    C413847   3.039   2.226  14.022 -0.3135  0.6634 -0.4351
    3TMC2    C513848   3.061   2.358  14.048  0.3153 -0.3381  0.3386
    3TMC2    C613849   3.082   2.400  14.175 -1.0277 -0.3750  0.7775
    3TMC2     C13850   2.958   2.008  14.111  0.2830  0.3574  0.9040
    3TMC2     O13851   2.921   1.979  13.997 -0.1318 -0.0791  0.1771
    3TMC2     H13852   2.996   2.133  14.346 -0.4229 -1.3028 -0.9049
    3TMC2    H113853   3.033   2.201  13.917 -1.2331  0.3790 -0.3083
    3TMC2    H213854   3.122   2.498  14.197 -1.4983 -0.0585  0.2143
    3TMC2    C713855   3.101   2.443  13.941 -0.1113  0.1063  1.0597
    3TMC2    C813856   3.129   2.346  14.406 -0.2520 -0.5566 -0.8796
    3TMC2    O113857   3.150   2.400  13.840 -0.0268 -0.1454  0.1946
    3TMC2    O213858   3.166   2.459  14.442  0.1726  0.5276 -0.0135
    3TMC2    O513859   3.167   2.239  14.475 -0.4444 -0.9546  0.0505
    3TMC2    H513860   3.145   2.154  14.431  0.8300 -0.9872 -0.5422
    4MPD2     C13861   2.234   3.327  13.472 -0.7737  0.4078  0.5221
    4MPD2    C113862   2.339   3.378  13.397 -0.2328  0.2626  0.2774
    4MPD2    C213863   2.462   3.391  13.454 -0.6714  0.2415 -0.5167
    4MPD2    C313864   2.476   3.348  13.582  0.0558  0.6015 -0.6516
    4MPD2    C413865   2.367   3.290  13.655  0.3317  0.0451  0.4058
    4MPD2    C513866   2.241   3.293  13.601  0.4186 -0.8190 -0.5949
    4MPD2     H13867   2.546   3.416  13.390  0.2629 -1.2836  0.1181
    4MPD2    H113868   2.374   3.254  13.757 -1.0802 -1.5001 -0.0398
    4MPD2    H213869   2.134   3.329  13.432  0.6924  0.3531 -3.1584
    4MPD2    H313870   2.146   3.268  13.646  0.0333 -0.5175 -1.2436
    4MPD2     N13871   2.607   3.337  13.630 -0.0415  0.0841  0.3989
    4MPD2    H513872   2.674   3.355  13.555 -0.9440  0.4663 -0.3076
    4MPD2    N113873   2.316   3.409  13.259  0.7200  0.0308 -0.0203
    4MPD2    H713874   2.224   3.385  13.223  0.3692  0.4579  0.5920
    5TCq2    C113875   2.653   3.298  13.750 -0.1924  0.3585 -0.5628
    5TCq2    O213876   2.584   3.277  13.850 -1.0959 -0.0558 -0.4403
    5TCq2    C213877   2.800   3.287  13.756 -0.0957  0.1059 -0.8344
    5TCq2    C313878   2.874   3.339  13.651  0.3979  0.2654 -0.0474
    5TCq2    C413879   3.007   3.326  13.671  0.5142  0.6602 -0.5743
    5TCq2    C513880   3.060   3.275  13.788  0.3814 -0.1684  0.3390
    5TCq2    C613881   2.988   3.228  13.890  0.4320  0.6536 -0.7178
    5TCq2    C713882   2.860   3.244  13.872  0.3687 -0.3367 -0.6111
    5TCq2    C813883   3.024   3.097  13.944 -1.2094  0.2641  0.6551
    5TCq2    O413884   2.946   3.041  14.013  0.2413  0.2331 -0.0782
    5TCq2    C913885   3.099   3.357  13.566 -0.9298  0.1020 -0.9965
    5TCq2    O513886   3.052   3.388  13.455  0.2750 -0.0510 -1.0408
    5TCq2    O613887   3.218   3.371  13.599  0.4589 -0.0822 -0.1980
    5TCq2    H213888   2.842   3.396  13.566 -2.0629  0.0467  0.7244
    5TCq2    H313889   3.168   3.270  13.787  0.3645 -0.7110  1.9664
    5TCq2    H413890   2.789   3.214  13.949 -0.3423  2.2541 -0.2728
    6MPD1     C13891   0.932   4.206  12.382 -0.2574  0.4604  0.3097
    6MPD1    C113892   1.041   4.220  12.294  0.1253  0.0462  0.0790
    6MPD1    C213893   1.149   4.131  12.302 -0.7632  0.1762 -0.2942
    6MPD1    C313894   1.146   4.032  12.394 -0.3909 -0.0159 -0.1489
    6MPD1    C413895   1.035   4.007  12.466 -0.2797  0.1170  0.0303
    6MPD1    C513896   0.930   4.094  12.463 -0.1039 -0.7710 -0.0467
    6MPD1     H13897   1.228   4.138  12.229  0.4428  1.7346  1.1833
    6MPD1    H113898   1.046   3.921  12.530 -1.2850 -0.6424 -0.7991
    6MPD1    H213899   0.848   4.275  12.380  0.2321  1.0612  0.3057
    6MPD1    H313900   0.852   4.078  12.536  0.6283 -1.8283  0.5004
    6MPD1     N13901   1.250   3.930  12.404  0.8107 -0.8698  0.1606
    6MPD1    H513902   1.231   3.858  12.472  1.0533 -0.6490  0.4609
    6MPD1    N113903   1.047   4.333  12.206 -0.5844  0.0217  0.4203
    6MPD1    H613904   0.958   4.361  12.166  0.6809 -1.2097 -3.2449
    6MPD1    H713905   1.111   4.311  12.130 -0.4382  2.1589 -0.0626
    7MPD2     C13906   1.563   3.449  12.895  0.0440  0.3118 -0.0337
    7MPD2    C113907   1.653   3.455  12.784 -0.2215  0.9397  0.1517
    7MPD2    C213908   1.785   3.420  12.800 -0.1675  0.4419  0.4171
    7MPD2    C313909   1.831   3.374  12.924 -0.2324 -0.0231  0.3780
    7MPD2    C413910   1.745   3.371  13.029  0.0667  0.7729 -0.2037
    7MPD2    C513911   1.610   3.399  13.013  0.1617  0.9037  0.3625
    7MPD2     H13912   1.850   3.430  12.714 -0.7526 -2.3980 -0.3564
    7MPD2    H113913   1.772   3.324  13.122 -2.2294 -0.3813 -0.1173
    7MPD2    H213914   1.457   3.470  12.885  0.0938 -0.5104 -2.1578
    7MPD2    H313915   1.541   3.379  13.095  0.9301  0.5930  0.9412
    7MPD2     N13916   1.964   3.343  12.946 -0.3209  0.2046 -0.1863
    7MPD2    H513917   1.994   3.319  13.040  0.0160  2.7938  0.3749
    7MPD2    N113918   1.623   3.501  12.654  0.0339  0.8735 -0.0870
    7MPD2    H713919   1.682   3.470  12.577 -2.7439  2.2043 -2.7309
    8TMC3    C113920   2.206   3.353  12.905 -0.1986  0.5595 -0.2696
    8TMC3    C213921   2.226   3.419  13.023 -0.1732 -0.4218 -0.3029
    8TMC3    C313922   2.348   3.483  13.044 -1.2963  0.0679  0.3606
    8TMC3    C413923   2.302   3.367  12.808  0.2219  0.1136 -0.1464
    8TMC3    C513924   2.398   3.453  12.816 -0.0897 -0.3563 -0.3012
    8TMC3    C613925   2.436   3.505  12.940 -0.4454  0.0618 -0.2177
    8TMC3     C13926   2.070   3.352  12.854 -0.7626 -0.2443  0.7566
    8TMC3     O13927   2.078   3.380  12.735 -0.1961 -0.5930 -1.0886
    8TMC3     H13928   2.150   3.424  13.100  0.9394 -1.3468  0.8571
    8TMC3    H113929   2.299   3.305  12.720  0.2039 -0.3243  0.1664
    8TMC3    H213930   2.534   3.548  12.955 -0.3253  0.5026 -2.2477
    8TMC3    C713931   2.395   3.564  12.719 -0.1021  0.4357  0.0852
    8TMC3    C813932   2.402   3.479  13.179 -0.1493  0.1314 -0.5059
    8TMC3    O113933   2.470   3.656  12.743 -0.0738  0.3150  0.7007
    8TMC3    O213934   2.514   3.525  13.188  0.2813  0.4240  0.3222
    9TMC3    C113935   1.478   3.856  12.400 -0.1708  0.1853  0.7822
    9TMC3    C213936   1.611   3.873  12.355  0.1730  0.5271 -0.0032
    9TMC3    C313937   1.689   3.762  12.365 -0.1863 -0.1004 -0.6961
    9TMC3    C413938   1.445   3.750  12.480  0.6920 -0.0883  0.5597
    9TMC3    C513939   1.532   3.644  12.487 -0.3024  0.0386  0.3997
    9TMC3    C613940   1.655   3.646  12.431  0.2388 -0.4039  0.0009
    9TMC3     C13941   1.374   3.946  12.340 -0.1897  0.2546  0.0848
    9TMC3     O13942   1.423   4.030  12.263 -0.1590  0.6170  0.3908
    9TMC3     H13943   1.637   3.960  12.296  0.5712  1.1149  1.0445
    9TMC3    H113944   1.346   3.746  12.524  1.2157 -2.0263  1.5391
    9TMC3    H213945   1.733   3.571  12.421 -0.9903 -1.7149  0.1650
    9TMC3    C713946   1.517   3.576  12.620  0.0823  0.3698 -0.0753
    9TMC3    C813947   1.828   3.796  12.337 -0.1423  0.5181  0.5505
    9TMC3    O113948   1.422   3.614  12.692 -0.1320  0.0130  0.2166
    9TMC3    O213949   1.850   3.898  12.282  0.3242 -0.1202  0.2098
   10MPD2     C13950   2.312   3.764  12.514  0.8017  0.3949 -0.0761
   10MPD2    C113951   2.238   3.651  12.546 -0.5786 -0.3799  0.9040
   10MPD2    C213952   2.116   3.633  12.494 -0.3988 -0.1254  0.1173
   10MPD2    C313953   2.049   3.727  12.417  0.5382 -0.0576  0.0342
   10MPD2    C413954   2.116   3.845  12.395  0.1732  0.4892 -0.3867
   10MPD2    C513955   2.248   3.861  12.438  0.4387 -1.0996 -0.1882
   10MPD2     H13956   2.060   3.545  12.522  1.6032 -0.7966  1.9891
   10MPD2    H113957   2.075   3.932  12.345  0.0557  2.0073  2.3461
   10MPD2    H213958   2.412   3.789  12.546  1.3823  0.0070 -1.5819
   10MPD2    H313959   2.307   3.948  12.411 -0.3295 -0.3069  0.6984
   10MPD2     N13960   1.912   3.708  12.398 -0.6358  0.0778  0.5230
   10MPD2    H513961   1.881   3.612  12.408  0.1927 -0.0422  1.9782
   10MPD2    N113962   2.285   3.554  12.637  0.3112 -0.6677  0.0690
   10MPD2    H713963   2.227   3.473  12.654  0.6664 -0.3384  2.8072
   11MPD2     C13964   3.261   2.654  13.829  0.7957  0.0161 -0.3490
   11MPD2    C113965   3.158   2.675  13.916  0.0951 -0.4101  0.1038
   11MPD2    C213966   3.119   2.806  13.936  0.2351  0.1924 -0.3617
   11MPD2    C313967   3.181   2.912  13.875  0.0853 -0.7979  0.4584
   11MPD2    C413968   3.285   2.889  13.791  0.6408  0.2619  0.0566
   11MPD2    C513969   3.330   2.762  13.770 -0.8885  0.3557  0.3940
   11MPD2     H13970   3.040   2.820  14.009  0.2006  0.6259 -0.4801
   11MPD2    H113971   3.338   2.970  13.743 -0.4366 -0.0355 -1.6265
   11MPD2    H213972   3.303   2.558  13.802 -0.4180 -1.0846  1.6512
   11MPD2    H313973   3.405   2.734  13.697 -1.1384  0.6491  0.0269
   11MPD2     N13974   3.136   3.048  13.881  0.4637 -0.4807 -0.2314
   11MPD2    H513975   3.189   3.112  13.823  0.2650  1.0343  1.2799
   11MPD2    N113976   3.085   2.570  13.978 -0.0847 -0.3794 -0.6351
   11MPD2    H713977   3.018   2.598  14.049 -0.4044  0.2099 -1.1672
    1MPD1     C13978   4.507   3.564  17.295 -0.0203 -0.2244  0.5266
    1MPD1    C113979   4.572   3.532  17.411  0.3884  0.9972 -0.6204
    1MPD1    C213980   4.690   3.596  17.428  0.0954 -0.0743  0.0524
    1MPD1    C313981   0.028   3.690  17.346  0.1266  0.3646  0.2973
    1MPD1    C413982   4.687   3.723  17.236 -0.2255 -0.5683  0.0700
    1MPD1    C513983   4.569   3.652  17.210 -0.2965  0.1502 -0.3928
    1MPD1     H13984   0.032   3.564  17.512  0.7524 -0.6878 -0.6681
    1MPD1    H113985   0.007   3.791  17.161 -1.3564  1.0675  0.9698
    1MPD1    H213986   4.410   3.523  17.266 -0.0906  0.4784 -0.2430
    1MPD1    H313987   4.522   3.685  17.118 -1.8694  1.0091  0.7135
    1MPD1     N13988   0.157   3.741  17.369  0.2956 -0.3782 -0.2934
    1MPD1    H513989   0.205   3.795  17.298 -0.7440  1.2234  0.2143
    1MPD1    N113990   4.535   3.431  17.501  0.2974 -0.0929 -0.5194
    1MPD1    H613991   4.435   3.415  17.497  0.1431  1.0112 -1.0876
    1MPD1    H713992   4.579   3.431  17.592 -1.4446 -0.8092  0.3206
    2MPD1     C13993   0.682   3.803   0.493  0.6432 -0.2761 -0.2622
    2MPD1    C113994   0.556   3.849   0.473 -0.3351  0.1803  0.1346
    2MPD1    C213995   0.522   3.872   0.342 -0.2675 -0.0785 -0.2701
    2MPD1    C313996   0.605   3.854   0.234 -0.1452 -0.5040  0.3724
    2MPD1    C413997   0.738   3.817   0.258 -0.8054  0.6802  0.0132
    2MPD1    C513998   0.772   3.783   0.391  0.6238 -0.0673  0.2722
    2MPD1     H13999   0.419   3.903   0.328 -0.6101 -0.4809  1.2738
    2MPD1    H114000   0.814   3.805   0.182 -1.3829  0.5756 -0.5543
    2MPD1    H214001   0.720   3.775   0.591  0.9504 -2.8635 -1.1205
    2MPD1    H314002   0.872   3.745   0.408  0.8068  0.8660  1.2747
    2MPD1     N14003   0.559   3.874   0.100  0.2277 -0.1684  0.2658
    2MPD1    H514004   0.458   3.883   0.089  0.3004  0.6734  0.3028
    2MPD1    N114005   0.465   3.865   0.582 -0.4558 -0.2866  0.0905
    2MPD1    H614006   0.398   3.938   0.557 -0.2059 -0.2278 -0.4043
    2MPD1    H714007   0.510   3.907   0.663 -1.0089 -0.1267  0.3161
    3TMC3    C114008   0.568   3.860  17.550 -0.6722  0.1023 -0.0810
    3TMC3    C214009   0.635   3.822  17.440  0.2617  0.5545 -0.0699
    3TMC3    C314010   0.569   3.751  17.339  0.1445 -0.0280 -0.2722
    3TMC3    C414011   0.423   3.848  17.556  0.5688 -0.1185 -0.2062
    3TMC3    C514012   0.370   3.777  17.455 -1.0408  0.4986  0.2113
    3TMC3    C614013   0.434   3.741  17.336 -0.0546 -0.4496  0.1384
    3TMC3     C14014   0.640   3.871  17.673  0.0350  0.2936  0.6726
    3TMC3     O14015   0.761   3.872  17.667  0.6897  0.0887  0.2186
    3TMC3     H14016   0.740   3.847  17.434  0.5014 -0.9672 -2.1623
    3TMC3    H114017   0.374   3.871  17.650 -0.0439 -1.6056 -0.1666
    3TMC3    H214018   0.381   3.685  17.259 -0.4108 -0.5506  0.4577
    3TMC3    C714019   0.236   3.727  17.485  0.5377 -0.2749  0.3801
    3TMC3    C814020   0.652   3.688  17.243  0.1679 -0.2337  0.5242
    3TMC3    O114021   0.206   3.698  17.601  0.4760  0.3571 -0.0499
    3TMC3    O214022   0.763   3.653  17.282  0.0306  0.3105  0.0678
    4MPD1     C14023   0.792   3.536  16.769 -0.4007 -0.4968  0.6262
    4MPD1    C114024   0.657   3.504  16.784 -0.6487  0.4181 -0.9884
    4MPD1    C214025   0.598   3.540  16.902  0.8841  0.0693 -0.0347
    4MPD1    C314026   0.663   3.603  17.008 -0.3820  0.2087  0.4998
    4MPD1    C414027   0.800   3.616  16.994 -0.5095 -0.3516 -0.1404
    4MPD1    C514028   0.868   3.579  16.877 -0.8324 -0.2519  0.0155
    4MPD1     H14029   0.495   3.518  16.924  1.0463 -0.9377 -0.2888
    4MPD1    H114030   0.862   3.661  17.071 -1.0468  1.1978 -0.6295
    4MPD1    H214031   0.840   3.525  16.672 -2.6403 -1.1421 -0.4030
    4MPD1    H314032   0.969   3.616  16.859 -1.1200 -0.1276 -1.4091
    4MPD1     N14033   0.590   3.660  17.121  0.3894  0.8396 -0.1966
    4MPD1    H514034   0.490   3.659  17.102  0.3027 -1.4776  0.4325
    4MPD1    N114035   0.596   3.449  16.677  0.4460  0.3761 -0.2782
    4MPD1    H614036   0.511   3.401  16.707  1.1111 -1.0431 -0.6731
    4MPD1    H714037   0.653   3.374  16.638  0.7358 -0.1991  1.2131
    1TCq1    O114038   0.961   3.396  11.746  0.2484 -0.1800 -0.0792
    1TCq1    C114039   0.999   3.488  11.838  0.6846 -0.2078  0.6289
    1TCq1    O214040   1.098   3.560  11.822  0.2442  0.2777 -0.2951
    1TCq1    C214041   0.972   3.432  11.960  0.2438  0.8935 -0.2207
    1TCq1    C314042   1.073   3.416  12.043  0.9186  0.0707  0.4085
    1TCq1    C414043   1.058   3.341  12.154  0.5780  0.0055  0.3401
    1TCq1    C514044   0.947   3.269  12.174  0.2085  0.4921 -0.5837
    1TCq1    C614045   0.843   3.307  12.097  0.3954  0.0221  0.0474
    1TCq1    C714046   0.851   3.387  11.986 -0.0683 -0.1415 -0.4869
    1TCq1    C814047   0.713   3.257  12.123  0.0439 -0.6324  0.2414
    1TCq1    O414048   0.682   3.231  12.238 -0.3584 -0.4987  0.4838
    1TCq1    C914049   1.182   3.296  12.215 -0.7337  0.4050  0.4300
    1TCq1    O514050   1.291   3.304  12.153  0.2098  0.9449 -0.7528
    1TCq1    O614051   1.170   3.298  12.340 -0.2910  0.1053  0.1097
    1TCq1    H114052   0.893   3.328  11.763 -0.6679 -0.0053 -3.0320
    1TCq1    H214053   1.172   3.447  12.011  0.5529 -1.8015 -2.5114
    1TCq1    H314054   0.937   3.196  12.254  0.5497 -1.1038 -2.0066
    1TCq1    H414055   0.787   3.398  11.900  0.8869  1.8163 -0.9378
    2MPD1     C14056   0.229   3.252  11.959 -0.6055  0.5546  0.0027
    2MPD1    C114057   0.309   3.270  11.847 -0.1486 -0.4975 -0.0587
    2MPD1    C214058   0.448   3.253  11.863  0.1186 -0.2820 -0.0747
    2MPD1    C314059   0.498   3.242  11.993 -0.0975 -0.0711  0.7980
    2MPD1    C414060   0.411   3.240  12.103  0.0839  0.4412  0.2138
    2MPD1    C514061   0.283   3.239  12.087 -0.0382 -0.9196 -0.1738
    2MPD1     H14062   0.522   3.268  11.785  2.3346  0.8001  2.2442
    2MPD1    H114063   0.446   3.243  12.205 -0.1077  0.9410  0.2681
    2MPD1    H214064   0.121   3.253  11.946 -0.5853 -2.1897 -0.2459
    2MPD1    H314065   0.211   3.234  12.168 -0.2001  0.7454 -0.2169
    2MPD1     N14066   0.636   3.255  12.006  0.9973  0.0977  0.5535
    2MPD1    H514067   0.692   3.256  11.921 -1.5224 -0.5042 -1.1324
    2MPD1    N114068   0.253   3.291  11.722 -0.0944  0.2000 -0.0725
    2MPD1    H614069   0.158   3.327  11.731 -0.1891  0.4096 -1.8696
    2MPD1    H714070   0.308   3.354  11.664  2.8356 -2.6220 -0.3608
    1TCq1    O114071   3.860   3.903   9.061 -0.1699  0.4303  0.5889
    1TCq1    C114072   3.811   3.851   8.946  0.8751 -0.2299 -0.1767
    1TCq1    O214073   3.884   3.844   8.849  0.3113 -0.7296 -0.5177
    1TCq1    C214074   3.685   3.918   8.929 -0.1259  0.1305 -1.0806
    1TCq1    C314075   3.657   3.966   8.799 -0.2129 -0.5828 -0.3869
    1TCq1    C414076   3.526   3.980   8.760  0.3133 -0.1389  0.2075
    1TCq1    C514077   3.426   3.969   8.851  0.1726  0.9637  0.2534
    1TCq1    C614078   3.452   3.915   8.974  0.0810 -0.1196 -0.3417
    1TCq1    C714079   3.583   3.879   9.013  0.5970 -0.2854  0.2032
    1TCq1    C814080   3.340   3.892   9.063 -0.2765 -0.4813  0.4833
    1TCq1    O414081   3.362   3.852   9.177  0.0924 -0.3097 -0.1460
    1TCq1    C914082   3.494   4.061   8.641 -0.2377  0.1482  0.0124
    1TCq1    O514083   3.586   4.102   8.572 -0.0784 -0.5736  0.2700
    1TCq1    O614084   3.374   4.099   8.631  0.2569 -0.0346 -0.0086
    1TCq1    H114085   3.790   3.962   9.095  0.2802  1.1495  0.2928
    1TCq1    H214086   3.742   3.989   8.735 -0.4050  0.0343 -0.4160
    1TCq1    H314087   3.332   4.017   8.831  0.3282  0.7340 -0.9852
    1TCq1    H414088   3.607   3.817   9.099 -0.5002 -0.0246  0.6917
    2MPD1     C14089   2.849   3.843   9.173  0.4634  0.3604  0.7308
    2MPD1    C114090   2.856   3.860   9.036 -0.0912  0.7586  0.3312
    2MPD1    C214091   2.985   3.874   8.980 -0.2708  0.3182  0.7345
    2MPD1    C314092   3.097   3.888   9.059 -1.2439  0.1826  0.2364
    2MPD1    C414093   3.080   3.883   9.190  0.4018 -0.2527  0.0422
    2MPD1    C514094   2.959   3.867   9.247  0.2372 -0.1773  0.1925
    2MPD1     H14095   2.990   3.869   8.872  0.4364  1.0042  0.7407
    2MPD1    H114096   3.162   3.896   9.259 -0.0832  0.4326  0.4962
    2MPD1    H214097   2.762   3.800   9.221 -0.7933  1.7510 -0.2827
    2MPD1    H314098   2.964   3.849   9.354 -1.2249  0.6529  0.3961
    2MPD1     N14099   3.223   3.885   8.997 -0.3392  0.2201  0.3462
    2MPD1    H514100   3.224   3.888   8.896  0.0249  0.6476  0.3574
    2MPD1    N114101   2.744   3.827   8.962 -0.0636 -0.5082 -0.0498
    2MPD1    H614102   2.746   3.851   8.863  3.8026  0.3926  0.2446
    2MPD1    H714103   2.670   3.877   9.010  0.9733  0.6699  0.3188
    1MPD1     C14104   2.384   3.876  11.739  0.0487  0.0269  0.5519
    1MPD1    C114105   2.491   3.882  11.827 -0.5564 -0.4030  0.2569
    1MPD1    C214106   2.611   3.939  11.779  0.2412  0.8072 -0.0570
    1MPD1    C314107   2.614   4.007  11.656  0.1927 -0.1755 -0.0748
    1MPD1    C414108   2.505   3.996  11.570  0.2774 -0.3854 -0.0808
    1MPD1    C514109   2.389   3.938  11.616  0.3290  0.6260  0.3670
    1MPD1     H14110   2.700   3.924  11.838 -0.4102 -0.3792  0.6390
    1MPD1    H114111   2.498   4.056  11.480 -0.8748 -1.6117 -0.8076
    1MPD1    H214112   2.293   3.822  11.759 -0.0885  0.9028  2.3212
    1MPD1    H314113   2.295   3.942  11.563  1.5623 -1.3988 -1.9893
    1MPD1     N14114   2.733   4.079  11.618 -0.0043 -0.0526  0.0694
    1MPD1    H514115   2.808   4.063  11.684  0.1782 -0.5309 -0.2550
    1MPD1    N114116   2.503   3.804  11.943 -0.2940 -0.2963 -0.1787
    1MPD1    H614117   2.410   3.808  11.985 -0.3178 -1.0147 -0.1742
    1MPD1    H714118   2.570   3.859  11.997 -0.8105  0.0458  0.1117
    2MPD1     C14119   2.552   3.743  11.346 -0.4105 -0.3449  0.4666
    2MPD1    C114120   2.508   3.612  11.319 -0.3609 -0.1805 -0.7723
    2MPD1    C214121   2.549   3.546  11.203 -0.1068 -0.2817 -0.3782
    2MPD1    C314122   2.665   3.584  11.144  0.1757 -0.0933  0.8023
    2MPD1    C414123   2.718   3.709  11.176  0.0317  0.3017 -0.0536
    2MPD1    C514124   2.658   3.788  11.270 -0.2006 -0.2380 -0.3638
    2MPD1     H14125   2.502   3.451  11.178 -0.6151 -0.0690 -0.2298
    2MPD1    H114126   2.797   3.748  11.112 -0.4470 -0.5205 -1.1315
    2MPD1    H214127   2.502   3.806  11.418 -0.5552 -0.2255  0.2606
    2MPD1    H314128   2.699   3.887  11.286 -0.1870 -0.7703  2.8128
    2MPD1     N14129   2.729   3.508  11.046 -0.4583  1.2988  0.0025
    2MPD1    H514130   2.818   3.546  11.014  0.5377  0.0772  1.3244
    2MPD1    N114131   2.400   3.563  11.400 -0.4661 -0.2216 -0.1074
    2MPD1    H614132   2.383   3.463  11.397  0.0272 -0.3702  1.8490
    2MPD1    H714133   2.426   3.598  11.493  0.2522 -0.8175 -0.0822
    3MPD1     C14134   2.576   2.848  10.298  0.3913 -0.7184  0.2324
    3MPD1    C114135   2.534   2.822  10.426  0.4229  0.0712 -0.0391
    3MPD1    C214136   2.597   2.898  10.523  0.4874  0.2960  0.1902
    3MPD1    C314137   2.693   2.988  10.489  0.0030  0.0551  0.1706
    3MPD1    C414138   2.747   2.990  10.360 -0.1876  0.3533  0.1600
    3MPD1    C514139   2.664   2.944  10.263  1.2952  0.0095 -0.3853
    3MPD1     H14140   2.574   2.887  10.628  0.9030  1.0505  0.3570
    3MPD1    H114141   2.824   3.057  10.325 -0.8586 -0.5663 -3.0301
    3MPD1    H214142   2.527   2.786  10.224  0.3911 -1.6265  0.9952
    3MPD1    H314143   2.700   2.950  10.161  1.0086  1.0691 -0.4224
    3MPD1     N14144   2.739   3.076  10.593 -0.0501 -0.2405  0.1410
    3MPD1    H514145   2.693   3.068  10.683  1.7478 -4.2143  0.7292
    3MPD1    N114146   2.446   2.719  10.465  0.1691  0.7007  0.4846
    3MPD1    H614147   2.439   2.717  10.567  1.5227  2.3908  0.6109
    3MPD1    H714148   2.354   2.727  10.423 -0.3224 -1.1214  1.2245
    4MPD2     C14149   3.149   4.623  11.144  0.6354 -1.0176 -0.5950
    4MPD2    C114150   3.184   4.510  11.221  0.6762 -0.1982 -0.3772
    4MPD2    C214151   3.273   4.412  11.176  0.5306 -0.4519  0.8046
    4MPD2    C314152   3.328   4.432  11.048  0.0281 -0.1517 -0.7668
    4MPD2    C414153   3.300   4.547  10.973 -0.0100 -0.6787 -0.3879
    4MPD2    C514154   3.212   4.649  11.019  0.1349 -0.5756 -0.0913
    4MPD2     H14155   3.286   4.318  11.228 -1.9866 -0.8828  0.6345
    4MPD2    H114156   3.346   4.562  10.875  0.1800  1.7077  0.0624
    4MPD2    H214157   3.086   4.701  11.185  0.7800 -1.3503  0.2835
    4MPD2    H314158   3.175   0.006  10.953 -0.5527 -1.1417 -0.3660
    4MPD2     N14159   3.416   4.332  11.012 -0.0359  0.2456  0.2273
    4MPD2    H514160   3.427   4.255  11.077  2.2836  1.1150  0.8894
    4MPD2    N114161   3.135   4.492  11.348 -0.3552 -0.2645  0.0304
    4MPD2    H714162   3.164   4.404  11.389  0.9232 -0.0885 -0.4821
    5TMC3    C114163   2.976   4.469  11.515  0.3162  0.0840 -0.2407
    5TMC3    C214164   2.876   4.382  11.484  0.6835  0.1770  0.2956
    5TMC3    C314165   2.868   4.251  11.531  0.3340  0.0413 -0.3059
    5TMC3    C414166   3.082   4.408  11.577  0.4428  0.1727  0.0771
    5TMC3    C514167   3.084   4.280  11.624  0.1620 -0.4875 -0.4169
    5TMC3    C614168   2.972   4.197  11.607  0.2752 -0.4163  0.6199
    5TMC3     C14169   3.018   4.542  11.397  0.1132  0.1435  0.2257
    5TMC3     O14170   2.938   4.614  11.345 -1.0507 -0.6180  0.2529
    5TMC3     H14171   2.805   4.426  11.414  1.3883  2.2438  0.8876
    5TMC3    H114172   3.171   4.460  11.609  2.5287 -2.9534 -0.6952
    5TMC3    H214173   2.968   4.097  11.649  1.2269 -0.9718 -0.6050
    5TMC3    C714174   3.209   4.215  11.602 -0.3512 -0.2066  0.6389
    5TMC3    C814175   2.740   4.178  11.528 -0.9950  0.1496  0.0058
    5TMC3    O114176   3.276   4.271  11.515  0.3838  0.3317 -0.0935
    5TMC3    O214177   2.648   4.238  11.473 -0.4909  0.4324  0.0877
    6TMC3    C114178   2.791   3.361  10.885 -0.0253  0.6256 -0.0206
    6TMC3    C214179   2.764   3.260  10.787 -0.0492  0.5433  0.0908
    6TMC3    C314180   2.868   3.237  10.699  0.7258  0.1800  0.3785
    6TMC3    C414181   2.913   3.430  10.881 -0.1839  0.2499  0.4694
    6TMC3    C514182   3.014   3.390  10.804 -0.3044 -0.1086 -0.0865
    6TMC3    C614183   2.988   3.302  10.701  1.2242  0.3155 -0.3980
    6TMC3     C14184   2.692   3.397  10.978  0.1822  0.4073  0.4187
    6TMC3     O14185   2.595   3.325  10.984 -0.0615 -0.0227  0.0384
    6TMC3     H14186   2.666   3.214  10.786  0.6405 -0.9037 -0.8132
    6TMC3    H114187   2.940   3.514  10.944  1.8287  0.7162 -1.0057
    6TMC3    H214188   3.057   3.290  10.618 -0.2509  0.3440 -1.6344
    6TMC3    C714189   3.136   3.465  10.805  0.3793  0.7360  0.2717
    6TMC3    C814190   2.849   3.151  10.588 -0.1823 -0.2358  0.3366
    6TMC3    O114191   3.138   3.563  10.877 -0.2883  0.7046  0.4644
    6TMC3    O214192   2.938   3.150  10.505 -1.0231  0.4935  0.1364
    7MPD2     C14193   3.431   3.774  11.440  0.1440 -0.6452  0.7290
    7MPD2    C114194   3.442   3.907  11.394  0.2577  0.1995 -0.2620
    7MPD2    C214195   3.382   4.011  11.465  0.1776 -0.0773 -0.2312
    7MPD2    C314196   3.300   3.984  11.569  0.2047  0.5124  0.3601
    7MPD2    C414197   3.276   3.853  11.605  0.2811  0.0027 -0.4848
    7MPD2    C514198   3.345   3.749  11.547 -0.2219  0.4928  0.3149
    7MPD2     H14199   3.400   4.114  11.438  1.4075  0.0435  1.0132
    7MPD2    H114200   3.211   3.835  11.690  0.0523 -2.2351 -1.1303
    7MPD2    H214201   3.489   3.698  11.389  1.5393 -1.0446  2.9072
    7MPD2    H314202   3.333   3.655  11.600 -1.8318 -0.0712 -1.0462
    7MPD2     N14203   3.219   4.082  11.638 -0.2633 -0.4154 -0.0414
    7MPD2    H514204   3.156   4.051  11.711 -0.6201 -0.0199 -0.1817
    7MPD2    N114205   3.517   3.926  11.279 -0.1208  0.0598  0.4375
    7MPD2    H714206   3.555   3.843  11.236  0.4592  0.0156  1.0427
    8TMC3    C114207   3.599   4.040  11.077 -0.7349  0.5468 -0.8986
    8TMC3    C214208   3.572   3.932  10.998  0.3320  0.4049 -1.1500
    8TMC3    C314209   3.520   3.954  10.870 -0.5632  0.1156  0.3681
    8TMC3    C414210   3.595   4.166  11.025  0.6075  0.1320  0.2133
    8TMC3    C514211   3.547   4.187  10.898 -0.5820 -0.6244 -0.5063
    8TMC3    C614212   3.497   4.081  10.825  0.2478  0.4716  0.4387
    8TMC3     C14213   3.526   4.047  11.206 -0.5067 -0.1171 -0.1741
    8TMC3     O14214   3.473   4.154  11.233 -0.1905 -0.3912  0.0863
    8TMC3     H14215   3.601   3.833  11.031  1.6108  0.1049 -3.1278
    8TMC3    H114216   3.632   4.252  11.080  0.2314 -0.3118  1.1727
    8TMC3    H214217   3.459   4.100  10.725  0.6675  0.0794  0.1997
    8TMC3    C714218   3.477   4.312  10.895 -0.5990 -0.2132  0.2035
    8TMC3    C814219   3.488   3.836  10.798 -0.1302  0.1741  0.5005
    8TMC3    O114220   3.473   4.372  10.788 -0.2574  0.3779  0.0194
    8TMC3    O214221   3.403   3.844  10.709  0.3263  0.1641 -0.1248
    9MPD2     C14222   3.646   3.509  10.786 -0.1464 -0.6234 -0.0220
    9MPD2    C114223   3.545   3.600  10.792 -0.6719  0.4924  0.2141
    9MPD2    C214224   3.416   3.563  10.784  0.5284 -0.0899  0.1056
    9MPD2    C314225   3.382   3.429  10.770 -0.0237  0.9565 -0.0948
    9MPD2    C414226   3.482   3.339  10.743 -0.3636 -0.3152  0.1291
    9MPD2    C514227   3.612   3.380  10.761  0.1216 -0.6658  0.0928
    9MPD2     H14228   3.330   3.629  10.796 -0.9862 -2.0921  0.2971
    9MPD2    H114229   3.469   3.233  10.725 -1.4435 -0.1619  0.0292
    9MPD2    H214230   3.752   3.533  10.786 -0.1828 -0.4331  0.8188
    9MPD2    H314231   3.691   3.314  10.729  2.2448  2.3147 -0.7487
    9MPD2     N14232   3.243   3.386  10.766 -0.3468  0.0785 -0.4810
    9MPD2    H514233   3.223   3.289  10.744  1.3763 -0.4818  0.4300
    9MPD2    N114234   3.582   3.734  10.815  0.0230 -0.3003  0.1323
    9MPD2    H714235   3.674   3.768  10.842  0.6368 -0.2132 -2.0584
    1MPD1     C14236   3.379   1.748  17.111 -0.3048 -0.2119  0.4017
    1MPD1    C114237   3.275   1.671  17.062 -0.0374  0.2378  0.0887
    1MPD1    C214238   3.156   1.696  17.119 -0.0922  0.2289 -0.2774
    1MPD1    C314239   3.140   1.774  17.234 -0.3807  0.2621  0.2109
    1MPD1    C414240   3.250   1.834  17.291  0.3640 -0.9761 -0.0541
    1MPD1    C514241   3.373   1.815  17.231  0.1724 -0.4174  0.6761
    1MPD1     H14242   3.060   1.663  17.080  0.2966  0.2959 -1.3031
    1MPD1    H114243   3.244   1.896  17.379 -1.4091  0.4396 -1.1692
    1MPD1    H214244   3.478   1.755  17.066 -0.4563 -0.9120 -0.0554
    1MPD1    H314245   3.461   1.870  17.260  0.1175  0.1407 -0.1935
    1MPD1     N14246   3.020   1.821  17.290  0.1237 -0.3058  0.4334
    1MPD1    H514247   3.032   1.884  17.368  2.3322  0.6003 -0.6331
    1MPD1    N114248   3.288   1.608  16.938 -0.3539 -0.4972  0.9869
    1MPD1    H614249   3.379   1.567  16.923  0.7272  2.1429  0.3703
    1MPD1    H714250   3.217   1.535  16.934  1.0360 -1.7244 -1.0841
    2MPD1     C14251   2.228   2.229  16.884  0.0394  0.1129  0.7800
    2MPD1    C114252   2.338   2.167  16.835  0.3111  0.0502  0.1578
    2MPD1    C214253   2.417   2.111  16.932 -0.3727 -0.4203 -1.2517
    2MPD1    C314254   2.406   2.133  17.069 -0.5791  0.1590 -0.0052
    2MPD1    C414255   2.315   2.225  17.104  1.0133 -0.1406 -0.2288
    2MPD1    C514256   2.221   2.262  17.017  0.8786  0.2786  0.5429
    2MPD1     H14257   2.486   2.032  16.907  4.3954  3.4816 -0.3447
    2MPD1    H114258   2.302   2.261  17.206 -0.5311  0.6161 -0.6946
    2MPD1    H214259   2.148   2.276  16.828 -0.1470 -1.4750 -0.2709
    2MPD1    H314260   2.139   2.320  17.058  0.5543  2.0342 -2.5818
    2MPD1     N14261   2.493   2.064  17.158 -0.0570  0.1200 -0.4854
    2MPD1    H514262   2.552   1.993  17.118 -1.1342  0.8165 -3.3031
    2MPD1    N114263   2.333   2.127  16.701 -0.2952  0.2307 -0.4641
    2MPD1    H614264   2.418   2.086  16.664  1.7402  1.4180  2.8877
    2MPD1    H714265   2.302   2.201  16.637  1.0669  0.8492 -0.4158
    3TCq2    C114266   2.506   2.088  17.290  0.3542  0.0539 -0.0416
    3TCq2    O214267   2.465   2.188  17.348  0.3711  0.3378  0.6591
    3TCq2    C214268   2.613   2.004  17.350  0.0257  0.2303  0.3427
    3TCq2    C314269   2.649   2.051  17.472  0.1449  0.4856  0.0641
    3TCq2    C414270   2.758   2.000  17.544 -0.0358  0.8474 -0.3909
    3TCq2    C514271   2.833   1.907  17.473  0.3866  0.0534  0.8559
    3TCq2    C614272   2.792   1.860  17.346 -1.2166  0.5818 -0.0518
    3TCq2    C714273   2.675   1.901  17.283 -0.0058 -0.5734  0.2654
    3TCq2    C814274   2.885   1.786  17.263  0.5450  0.2281  0.6277
    3TCq2    O414275   2.845   1.730  17.164 -0.5818 -0.1136 -1.2796
    3TCq2    C914276   2.804   2.081  17.654  0.3475 -0.0242 -0.1000
    3TCq2    O514277   2.926   2.081  17.668  0.3512 -0.1544 -0.0325
    3TCq2    O614278   2.721   2.141   0.036 -0.1431  0.0279 -0.1961
    3TCq2    H214279   2.598   2.135  17.517  0.2399  0.0308  1.0113
    3TCq2    H314280   2.923   1.878  17.526  1.2309  3.2359  1.1655
    3TCq2    H414281   2.648   1.856  17.188 -2.0867  0.6751  0.2811
    1TCq1    O114282   0.418   1.438  12.809 -0.3215 -0.3083  0.4512
    1TCq1    C114283   0.485   1.552  12.850  0.6317  0.5785  0.2281
    1TCq1    O214284   0.462   1.667  12.814 -0.6781  0.0343  0.1735
    1TCq1    C214285   0.583   1.527  12.947  0.4298  0.5142  0.1861
    1TCq1    C314286   0.551   1.473  13.070 -0.7905 -0.2539 -0.3057
    1TCq1    C414287   0.652   1.462  13.166 -0.1369  0.2897 -1.5136
    1TCq1    C514288   0.780   1.486  13.138 -0.6907 -0.1114 -0.6977
    1TCq1    C614289   0.810   1.549  13.021 -0.7310 -0.6082 -0.3345
    1TCq1    C714290   0.711   1.560  12.926  0.1877  0.1753  0.3657
    1TCq1    C814291   0.933   1.619  12.997  0.1924 -0.1552 -0.2126
    1TCq1    O414292   0.961   1.660  12.883 -0.2178  0.1958 -0.2126
    1TCq1    C914293   0.609   1.403  13.290 -0.0570 -0.0309 -0.4379
    1TCq1    O514294   0.489   1.409  13.326  0.4070 -0.4732 -0.1657
    1TCq1    O614295   0.694   1.343  13.358 -0.8430  0.0144  0.2806
    1TCq1    H114296   0.448   1.361  12.861  0.5353  1.6508  2.8481
    1TCq1    H214297   0.450   1.440  13.090 -0.1308 -2.5849 -0.8841
    1TCq1    H314298   0.857   1.450  13.205  0.7883 -0.4125 -2.5598
    1TCq1    H414299   0.728   1.618  12.836 -1.6552 -0.1805 -0.2086
    2MPD2     C14300   1.193   1.754  12.990 -0.1384  0.1669  0.4180
    2MPD2    C114301   1.132   1.725  13.106  0.1080  0.3958 -0.5644
    2MPD2    C214302   1.191   1.765  13.226 -0.3029 -1.3842 -0.5898
    2MPD2    C314303   1.315   1.826  13.230  0.2782 -0.3370 -0.3551
    2MPD2    C414304   1.372   1.865  13.113 -0.4876  0.2937  0.4175
    2MPD2    C514305   1.309   1.833  12.996  0.0638 -0.5525  0.0870
    2MPD2     H14306   1.138   1.749  13.319 -1.0403 -2.7275 -1.2424
    2MPD2    H114307   1.473   1.903  13.099 -0.2962 -0.3421  0.0597
    2MPD2    H214308   1.162   1.722  12.891 -1.2436 -1.2283  1.2175
    2MPD2    H314309   1.367   1.854  12.907 -0.7988 -2.5957 -0.9597
    2MPD2     N14310   1.376   1.857  13.356  0.3181  1.1173  0.4292
    2MPD2    H514311   1.326   1.832  13.441 -0.6157  2.2812  0.2221
    2MPD2    N114312   1.008   1.657  13.108 -0.1221  0.4833  0.1547
    2MPD2    H714313   0.964   1.653  13.200 -0.7338 -0.2427 -0.1643
    3TCq1    O114314   1.445   2.069  13.936 -0.0739 -0.6580  0.0749
    3TCq1    C114315   1.441   2.100  13.809  0.0051 -0.5278  0.1887
    3TCq1    O214316   1.351   2.162  13.761 -0.0713  0.1127  0.0268
    3TCq1    C214317   1.517   2.000  13.724  0.3921 -0.0624  0.5627
    3TCq1    C314318   1.653   1.982  13.753  0.2810  0.2029  0.0178
    3TCq1    C414319   1.736   1.915  13.657 -0.1561  0.2320 -0.1819
    3TCq1    C514320   1.676   1.884  13.540  0.1920 -0.1062 -0.0475
    3TCq1    C614321   1.544   1.903  13.514  0.4685  0.0371  0.2759
    3TCq1    C714322   1.462   1.959  13.606 -0.3532 -0.4358  0.1563
    3TCq1    C814323   1.504   1.899  13.372 -0.9347  0.0196  0.1550
    3TCq1    O414324   1.594   1.909  13.287 -0.0442  0.2604 -0.4650
    3TCq1    C914325   1.881   1.907  13.682 -0.1347 -0.7441  0.7158
    3TCq1    O514326   1.929   1.974  13.780 -0.0001 -0.7791 -0.1943
    3TCq1    O614327   1.937   1.821  13.606  0.2006  0.1160 -0.2885
    3TCq1    H114328   1.518   2.010  13.966 -0.8381 -1.4102  0.4597
    3TCq1    H214329   1.699   2.006  13.848 -0.9785  0.8776  0.4479
    3TCq1    H314330   1.739   1.841  13.463 -1.1611 -1.5748 -0.3239
    3TCq1    H414331   1.361   1.993  13.589 -0.1842  0.8904  1.7793
    1MPD2     C14332   0.199   2.678  15.374 -0.3575  0.0969  0.0107
    1MPD2    C114333   0.101   2.578  15.394 -0.0272  0.0589  0.1315
    1MPD2    C214334   0.140   2.450  15.363  0.1447 -0.2526  0.7379
    1MPD2    C314335   0.273   2.417  15.330  1.3662  0.2918  0.6959
    1MPD2    C414336   0.362   2.517  15.308 -0.4481  0.3488  0.1653
    1MPD2    C514337   0.327   2.649  15.335 -0.0665  0.1723 -0.5000
    1MPD2     H14338   0.069   2.368  15.363 -1.0218  0.7638 -0.9097
    1MPD2    H114339   0.458   2.504  15.260 -0.5320  2.0188 -0.4803
    1MPD2    H214340   0.173   2.782  15.387  1.9046  0.5373  1.1385
    1MPD2    H314341   0.405   2.722  15.321  0.0838  0.3375  1.1808
    1MPD2     N14342   0.310   2.291  15.284 -0.3168 -0.5579  0.3300
    1MPD2    H514343   0.406   2.282  15.250 -0.2540  1.4479 -0.0573
    1MPD2    N114344   4.693   2.606  15.450 -0.0094 -0.0725 -0.1200
    1MPD2    H714345   4.677   2.703  15.475 -1.0315 -0.3151  0.1632
    2TMC3    C114346   4.469   2.566  15.505  0.5344 -0.3548  0.2116
    2TMC3    C214347   4.373   2.473  15.467 -0.5349  0.6359 -0.1212
    2TMC3    C314348   4.268   2.523  15.393  0.2194 -0.0242  0.1389
    2TMC3    C414349   4.459   2.699  15.486  0.0616 -0.0366  0.0831
    2TMC3    C514350   4.353   2.746  15.413  0.1639  0.5332  0.1082
    2TMC3    C614351   4.261   2.660  15.366  0.1706 -0.4579 -0.0017
    2TMC3     C14352   4.602   2.515  15.483  0.1888 -0.5096 -0.3379
    2TMC3     O14353   4.603   2.392  15.477  0.2969 -0.0440  0.3143
    2TMC3     H14354   4.374   2.371  15.504 -2.4753  1.3676  1.9119
    2TMC3    H114355   4.525   2.765  15.541 -1.9133  0.2353  2.1401
    2TMC3    H214356   4.181   2.696  15.302 -0.5447 -0.6855  0.7641
    2TMC3    C714357   4.316   2.887  15.423  0.5143  0.5621 -0.2471
    2TMC3    C814358   4.261   2.448  15.270  0.5144 -0.3564 -0.4708
    2TMC3    O114359   4.209   2.918  15.372  0.2195  1.0945  0.4090
    2TMC3    O214360   4.171   2.460  15.187  0.1256  0.9378 -0.0444
    3TCq1    O114361   0.327   3.321  15.776 -0.0923  0.3355  0.0468
    3TCq1    C114362   0.364   3.453  15.784  0.8194 -0.0454 -0.1767
    3TCq1    O214363   0.474   3.492  15.818 -0.3594 -0.5926 -0.7348
    3TCq1    C214364   0.237   3.521  15.812 -0.1943 -0.5596 -0.5843
    3TCq1    C314365   0.226   3.605  15.923 -0.0319 -0.3146 -0.0836
    3TCq1    C414366   0.095   3.640  15.964  0.2425  0.1862 -0.5578
    3TCq1    C514367   4.710   3.597  15.894  0.3452 -0.7245  0.1012
    3TCq1    C614368   0.006   3.518  15.781 -0.2001  0.2066  0.1386
    3TCq1    C714369   0.132   3.473  15.748  0.2684  0.3676 -0.5075
    3TCq1    C814370   4.596   3.491  15.713  0.3977  0.4621  0.5096
    3TCq1    O414371   4.505   3.568  15.734 -0.3147 -0.1749 -0.1782
    3TCq1    C914372   0.083   3.738  16.068 -0.4865  0.0281 -0.4418
    3TCq1    O514373   4.692   3.748  16.120  0.4172  0.0670  0.0293
    3TCq1    O614374   0.189   3.781  16.122 -0.2100 -0.7596  0.4662
    3TCq1    H114375   0.231   3.308  15.761  0.2035 -0.9628 -0.6720
    3TCq1    H214376   0.323   3.637  15.958  0.9174 -1.5677 -1.6124
    3TCq1    H314377   4.614   3.634  15.927  0.8269  2.7743 -2.4098
    3TCq1    H414378   0.145   3.426  15.652 -1.4249 -0.7230 -0.2062
    4MPD2     C14379   4.390   3.382  15.545 -0.2497 -0.2029  0.1223
    4MPD2    C114380   4.499   3.304  15.585 -0.2446  0.2035  0.3996
    4MPD2    C214381   4.505   3.172  15.560  0.0603  0.0980 -0.2250
    4MPD2    C314382   4.403   3.115  15.486 -0.0844  0.3984  0.2139
    4MPD2    C414383   4.301   3.189  15.428 -0.6330 -0.5969 -0.6233
    4MPD2    C514384   4.295   3.318  15.461 -0.5150  0.0247  0.5659
    4MPD2     H14385   4.579   3.101  15.594 -0.0229  1.3180  2.5301
    4MPD2    H114386   4.222   3.151  15.365  0.4173 -1.6754 -1.2828
    4MPD2    H214387   4.379   3.486  15.573 -2.6951 -0.7889  1.3117
    4MPD2    H314388   4.216   3.384  15.428 -0.2909  0.7008  1.3643
    4MPD2     N14389   4.414   2.968  15.482 -0.2068  0.0670  1.0286
    4MPD2    H514390   4.500   2.927  15.515 -0.7812 -1.6540  0.3822
    4MPD2    N114391   4.600   3.364  15.660 -0.2330 -0.3961  0.0504
    4MPD2    H714392   4.679   3.304  15.680 -1.0398 -1.5068 -0.0741
    5TMC2    C114393   0.173   1.969  15.032  0.1828  0.2469  0.0698
    5TMC2    C214394   0.184   1.847  15.098 -0.3022 -0.3254  0.2585
    5TMC2    C314395   0.237   1.845  15.224 -0.4661  0.3117  0.8922
    5TMC2    C414396   0.237   2.078  15.081  0.2947  0.8385 -0.4785
    5TMC2    C514397   0.292   2.070  15.204  0.7138  0.4370 -0.2903
    5TMC2    C614398   0.289   1.958  15.276 -0.3250  0.3966  0.2428
    5TMC2     C14399   0.046   1.995  14.974 -0.9480  0.0203 -0.2955
    5TMC2     O14400   0.012   1.930  14.874 -0.8535  0.1038 -1.3484
    5TMC2     H14401   0.137   1.761  15.052 -0.1901  0.0052 -0.4768
    5TMC2    H114402   0.217   2.177  15.040 -1.7616  0.1550 -1.0881
    5TMC2    H214403   0.319   1.965  15.380 -1.4629  0.4434  0.5616
    5TMC2    C714404   0.233   2.174  15.286 -0.3655 -0.3400 -0.1126
    5TMC2    C814405   0.169   1.776  15.330  0.2092  0.0997 -0.2445
    5TMC2    O114406   0.115   2.158  15.313 -0.3888  0.3850 -0.5038
    5TMC2    O214407   0.140   1.836  15.434  0.6242 -0.6545 -0.1978
    5TMC2    O514408   0.216   1.651  15.325  0.1196  0.3869  0.0263
    5TMC2    H514409   0.248   1.619  15.237 -0.3008 -1.1356  0.4264
    6MPD2     C14410   4.322   2.260  15.036 -0.1145 -0.0455  0.1435
    6MPD2    C114411   4.409   2.288  15.136 -0.4622  0.8373 -0.8269
    6MPD2    C214412   4.532   2.226  15.146 -0.0925  0.7914  0.1291
    6MPD2    C314413   4.572   2.138  15.047 -0.6030  0.0753  0.1010
    6MPD2    C414414   4.483   2.108  14.945 -0.0329  0.0601 -0.4703
    6MPD2    C514415   4.355   2.159  14.945 -0.1536 -0.2554  0.1412
    6MPD2     H14416   4.596   2.243  15.233 -0.8549  1.6018  0.5285
    6MPD2    H114417   4.508   2.039  14.866 -1.5632 -3.3935  2.0820
    6MPD2    H214418   4.221   2.299  15.035  0.4352  1.3535 -0.8490
    6MPD2    H314419   4.296   2.139  14.857 -0.2186  0.4873  0.0154
    6MPD2     N14420   4.703   2.086  15.056 -0.5934  0.0979  0.2284
    6MPD2    H514421   0.032   2.133  15.131 -1.4503  1.0301  0.2037
    6MPD2    N114422   4.374   2.372  15.249 -0.0764 -0.2198  0.2054
    6MPD2    H714423   4.442   2.378  15.324 -0.3030  0.4008  0.3601
  945NH4     N114424   1.176   3.860   7.695 -0.0829 -0.0080 -0.3245
  945NH4     H214425   1.086   3.822   7.658 -0.1369  0.4003 -0.6154
  945NH4     H314426   1.214   3.803   7.773  0.8037  0.5305 -0.3613
  945NH4     H414427   1.162   3.960   7.719  0.9296 -0.1394  0.8091
  945NH4     H514428   1.244   3.857   7.616  0.5319 -2.3805  0.3048
  946SOD     NA14429   0.434   3.186  11.547  0.3094  0.5838 -0.0912
  947SOD     NA14430   0.391   3.863  16.106 -0.0607  0.4100  0.1363
  948SOD     NA14431   3.483   1.572   0.404 -0.4572  0.2502  0.4178
  949SOD     NA14432   0.040   1.911  10.422  0.3320  0.1108  0.1438
  950SOD     NA14433   3.176   2.719   5.485 -0.2267 -0.1200  0.0404
  951SOD     NA14434   2.038   0.528   9.918  0.6553  0.1961 -0.0105
  952SOD     NA14435   3.236   0.482  13.319  0.3660  0.3308 -0.2503
  953SOD     NA14436   2.284   1.760  13.986 -0.4175 -0.0385 -0.0135
  954SOD     NA14437   2.005   1.967  13.980 -0.3792 -0.1041 -0.0047
  955SOD     NA14438   0.936   0.747   9.570  0.2537  0.2129 -0.1541
  956SOD     NA14439   1.557   1.309  11.828 -0.3804  0.2267 -0.5600
  957SOD     NA14440   1.264   2.719  10.213 -0.6391 -0.4344 -0.2553
  958SOD     NA14441   1.094   3.647  16.366  0.0861  0.2961 -0.1021
  959SOD     NA14442   3.018   2.123   1.277 -0.3251  0.5867  0.0501
  960SOD     NA14443   2.097   1.708  13.711 -0.3912 -0.6033  0.5738
  961SOD     NA14444   1.391   1.221   7.750  0.1676  0.6501  0.1994
  962SOD     NA14445   0.715   1.494   2.536 -0.1169 -0.1093 -0.0950
  963SOD     NA14446   2.610   3.776  14.716 -0.5229  0.0641  0.2058
  964SOD     NA14447   2.677   1.165  17.627 -0.3180  0.4957 -0.2774
  965SOD     NA14448   2.600   4.084  12.882  0.1872 -0.0883 -0.7268
  966SOD     NA14449   4.482   3.422   1.137  0.1670 -0.5024 -0.2973
  967SOD     NA14450   1.474   1.640  11.329 -0.0899 -0.0263 -0.4402
  968SOD     NA14451   0.760   0.639  10.556  0.2621 -0.4658 -0.0081
  969SOD     NA14452   0.332   1.571  13.372 -0.0803  0.3250 -0.1928
  970SOD     NA14453   2.063   1.803   7.051  0.2878  0.3331  0.1115
  971SOD     NA14454   3.733   1.687   2.735  0.0311  0.3126  0.3911
  972SOD     NA14455   3.483   3.076  14.885 -0.0185  0.0788 -0.0731
  973SOD     NA14456   2.011   3.322   3.044 -0.0666  0.2530 -0.4009
  974SOD     NA14457   0.353   2.058  11.833  0.5252  0.1980  0.2692
  975SOD     NA14458   2.152   1.245  10.532  0.0131  0.4283  0.1423
  976SOD     NA14459   1.508   1.601  11.660 -0.3222 -0.2101  0.4589
  977SOD     NA14460   2.096   2.117  13.711 -0.1396 -0.1402  0.1259
  978SOD     NA14461   3.293   4.233   1.781  0.3425 -0.4608  0.6045
  979SOD     NA14462   4.326   1.026  11.288  0.0850  0.2158  0.4434
  980SOD     NA14463   0.784   1.067   9.071  0.0898 -0.4378 -0.4232
  981SOD     NA14464   2.861   3.985   0.660 -0.2385 -0.0302  0.0775
  982SOD     NA14465   3.013   1.430  13.437  0.4833 -0.0845 -0.3363
  983SOD     NA14466   1.300   4.343  17.311 -0.1765  0.0609  0.0440
  984SOD     NA14467   4.596   1.384  10.737  0.1379  0.1734  0.0775
  985SOD     NA14468   1.558   2.658  11.929 -0.0551  0.0679  0.2638
  986SOD     NA14469   4.450   4.353   6.738 -0.0976 -0.5725 -0.4031
  987SOD     NA14470   1.997   4.446  16.541  0.2265  0.1784 -0.0441
  988SOD     NA14471   1.265   0.814  10.734 -0.0378  0.0282  0.2151
  989SOD     NA14472   1.031   1.688   9.779  0.0559 -0.0131 -0.0088
  990SOD     NA14473   4.675   0.780  10.030 -0.0717 -0.4380  0.8134
  991SOD     NA14474   2.081   1.880  13.444 -0.1280 -0.0718  0.0044
  992SOD     NA14475   4.425   1.070  13.131 -0.0675  0.3415 -0.4332
  993SOD     NA14476   4.116   1.831  14.134  0.0557  0.1712  0.1660
  994SOD     NA14477   4.487   0.884  14.121 -0.4060  0.7769  0.0419
  995SOD     NA14478   2.621   2.870  17.232 -0.1926  0.4598 -0.1079
  996SOD     NA14479   0.337   1.246  13.313 -0.0555 -0.1852  0.0488
  997SOD     NA14480   1.687   1.473   9.928 -0.1819  0.1501  0.0259
  998SOD     NA14481   4.393   1.589  10.590 -0.1402 -0.1384 -0.5930
  999SOD     NA14482   0.986   2.633   1.898  0.2790 -0.2001 -0.2594
 1000SOD     NA14483   0.424   0.635   0.840 -0.1469 -0.6089 -0.1799
 1001SOD     NA14484   2.088   2.344  16.359  0.2528 -0.0915  0.0630
 1002SOD     NA14485   4.236   3.772   1.795  0.5916  0.2973  0.1478
 1003SOD     NA14486   1.133   0.588  10.511  0.2366 -0.3497 -0.5129
 1004SOD     NA14487   0.441   1.116  15.385 -0.4084  0.6406  0.1405
 1005SOD     NA14488   0.239   2.048   2.196  0.0941 -0.1890 -0.2195
 1006SOD     NA14489   2.458   4.260   8.530 -0.0182 -0.4210 -0.1972
 1007SOD     NA14490   2.006   2.646  16.425 -0.1694  0.1343  0.0805
 1008SOD     NA14491   2.681   4.235  13.455 -0.1451 -0.0798  0.0034
 1009SOD     NA14492   2.737   2.611  10.406 -0.1622 -0.2056  0.3268
 1010SOD     NA14493   4.494   3.899   8.530 -0.6374  0.4158 -0.1185
 1011SOL     OW14494   3.079   0.473  12.543  0.7758  0.2925  0.0743
 1011SOL    HW114495   3.151   0.442  12.489 -0.0212 -0.3715 -0.5990
 1011SOL    HW214496   2.997   0.430  12.519  0.3791 -0.3912  2.5893
 1012SOL     OW14497   0.910   4.624   5.284 -0.3459  0.3627 -0.4528
 1012SOL    HW114498   0.848   4.683   5.243  0.0689  0.8158 -0.4246
 1012SOL    HW214499   0.904   4.668   5.369 -2.3039 -0.5123 -0.1494
 1013SOL     OW14500   3.229   4.177   2.974 -0.4163  0.2245 -0.2429
 1013SOL    HW114501   3.222   4.118   3.048 -0.3475 -1.5364 -1.6381
 1013SOL    HW214502   3.322   4.191   2.955 -0.3404  1.0964  0.7646
 1014SOL     OW14503   1.427   1.526   2.106  0.4706 -0.0716  0.6126
 1014SOL    HW114504   1.392   1.560   2.188 -0.0919 -0.3642  0.4960
 1014SOL    HW214505   1.457   1.606   2.063  2.0378 -0.5562  0.8024
 1015SOL     OW14506   1.637   1.193   3.255  0.0711  0.1351 -0.2136
 1015SOL    HW114507   1.558   1.169   3.303  0.3969 -0.1109  0.1967
 1015SOL    HW214508   1.685   1.111   3.259 -2.7021 -1.5941 -2.2777
 1016SOL     OW14509   1.135   2.259   0.711  0.3233  0.1278 -0.0947
 1016SOL    HW114510   1.203   2.252   0.777  0.0143 -0.2810  0.1774
 1016SOL    HW214511   1.142   2.176   0.664 -4.1877 -0.7427  0.7366
 1017SOL     OW14512   4.632   1.505  10.347 -0.2011  0.2640  0.2721
 1017SOL    HW114513   4.634   1.527  10.440 -1.3407  0.0009  0.3625
 1017SOL    HW214514   4.538   1.502  10.328 -0.2395  1.7675  0.2270
 1018SOL     OW14515   1.166   1.332   7.377  0.2445  0.0011  0.1287
 1018SOL    HW114516   1.075   1.325   7.406 -0.2307  1.3666 -1.0797
 1018SOL    HW214517   1.192   1.423   7.393  2.5726 -0.9268  1.6882
 1019SOL     OW14518   3.852   0.815   5.675  0.1430 -0.4346  0.3607
 1019SOL    HW114519   3.844   0.723   5.651 -0.4070 -0.3752  0.3206
 1019SOL    HW214520   3.775   0.850   5.632  0.5210 -0.0894 -0.0351
 1020SOL     OW14521   4.628   2.273   5.723  0.1902 -0.1447  0.4740
 1020SOL    HW114522   4.544   2.312   5.748 -0.5040 -2.0080  1.0058
 1020SOL    HW214523   4.593   2.211   5.660  1.3783  1.1151 -1.4295
 1021SOL     OW14524   4.280   4.215   9.135 -0.3845  0.7048  0.3320
 1021SOL    HW114525   4.191   4.182   9.140  1.0063 -3.5005 -2.3540
 1021SOL    HW214526   4.288   4.254   9.222  2.3894  2.1003 -0.5547
 1022SOL     OW14527   4.476   0.098  13.240 -0.3625  0.2204 -1.2055
 1022SOL    HW114528   4.424   0.027  13.278  0.9487 -1.0570 -1.8149
 1022SOL    HW214529   4.510   0.136  13.321 -0.2245 -0.9023 -0.7331
 1023SOL     OW14530   3.681   1.199   3.032 -0.0370  0.4935  0.2879
 1023SOL    HW114531   3.742   1.149   2.977  1.9933  1.9811  1.1794
 1023SOL    HW214532   3.606   1.140   3.027 -0.2981  0.9245 -0.9735
 1024SOL     OW14533   3.092   0.409  10.199 -0.1563 -0.2170 -0.4357
 1024SOL    HW114534   3.087   0.320  10.167  1.3689 -0.2559 -0.5804
 1024SOL    HW214535   3.161   0.452  10.149 -0.8101  2.4478  0.9112
 1025SOL     OW14536   0.274   1.506   4.837  0.0336 -0.0812  0.0739
 1025SOL    HW114537   0.260   1.412   4.845  0.9136 -0.3350 -1.5234
 1025SOL    HW214538   0.196   1.529   4.786 -0.6665 -1.3326  0.5666
 1026SOL     OW14539   1.156   1.492   8.732 -0.1065 -0.1261  0.1182
 1026SOL    HW114540   1.086   1.541   8.776 -2.5998 -2.8903 -0.7495
 1026SOL    HW214541   1.125   1.510   8.643 -0.4514  0.2685  0.3186
 1027SOL     OW14542   2.853   2.621   1.972  0.3495  0.2361 -0.5137
 1027SOL    HW114543   2.869   2.642   2.064 -0.0868  0.8514 -0.5761
 1027SOL    HW214544   2.940   2.649   1.943 -0.2350  1.1497 -1.3917
 1028SOL     OW14545   3.281   3.756   2.033  1.0065 -0.8032 -0.6449
 1028SOL    HW114546   3.248   3.833   2.079 -0.5661 -0.9656 -1.4897
 1028SOL    HW214547   3.370   3.750   2.069  1.4530  1.2445 -1.4067
 1029SOL     OW14548   0.532   1.721   7.890 -0.3303 -0.4655 -0.9658
 1029SOL    HW114549   0.511   1.812   7.866  0.0111 -0.4385 -1.1724
 1029SOL    HW214550   0.487   1.714   7.974  3.1984 -2.1190  0.7951
 1030SOL     OW14551   1.639   2.836  10.523 -0.1843  0.1576 -0.1766
 1030SOL    HW114552   1.571   2.809  10.584  0.5202 -0.1342  0.4870
 1030SOL    HW214553   1.601   2.901  10.465  1.0683  1.1790  0.1510
 1031SOL     OW14554   3.391   0.867  12.489 -0.1970 -0.4368 -0.0820
 1031SOL    HW114555   3.385   0.901  12.578  0.0180  3.1505 -1.4237
 1031SOL    HW214556   3.482   0.893  12.470 -0.9826 -0.9629 -4.6052
 1032SOL     OW14557   2.393   4.352   5.067 -0.0031 -0.3489  0.8269
 1032SOL    HW114558   2.441   4.399   4.999 -0.8383  0.7767  1.0060
 1032SOL    HW214559   2.301   4.372   5.052 -0.2507 -0.1672  2.5320
 1033SOL     OW14560   2.071   2.698  17.531  0.2618 -0.0682 -0.2746
 1033SOL    HW114561   2.128   2.630  17.496 -0.9809 -1.4705  0.4632
 1033SOL    HW214562   2.030   2.665  17.611 -0.2241  1.9893  0.3277
 1034SOL     OW14563   2.159   2.983   4.924  0.4303 -1.0685  0.1423
 1034SOL    HW114564   2.244   2.970   4.882  0.3884 -0.2836 -0.1890
 1034SOL    HW214565   2.094   2.982   4.854  1.3474  0.3110 -0.7380
 1035SOL     OW14566   3.359   2.204   6.362 -0.2442  0.2223  0.3884
 1035SOL    HW114567   3.453   2.223   6.367 -0.3037  0.8487 -0.8207
 1035SOL    HW214568   3.326   2.291   6.340 -1.4983  0.1320  1.8979
 1036SOL     OW14569   3.559   0.111  15.991  0.5129  0.2839 -0.2816
 1036SOL    HW114570   3.554   0.179  15.923 -2.1637 -0.9805 -1.3581
 1036SOL    HW214571   3.558   0.167  16.069  2.0845 -0.2027  0.0814
 1037SOL     OW14572   0.417   2.368   3.980 -0.1784  0.9039  0.2353
 1037SOL    HW114573   0.363   2.443   3.954 -0.3118  0.3265 -1.1414
 1037SOL    HW214574   0.432   2.396   4.070 -0.6945  2.0207 -0.0245
 1038SOL     OW14575   0.197   0.594  12.140 -0.0439  0.1617  0.0087
 1038SOL    HW114576   0.133   0.659  12.110  1.0193  0.4140 -1.7640
 1038SOL    HW214577   0.215   0.566  12.050 -0.4196 -2.2892  0.7056
 1039SOL     OW14578   2.960   2.403   3.429 -0.1005  0.0899 -0.0798
 1039SOL    HW114579   2.975   2.359   3.512  1.2674  0.2809 -0.2355
 1039SOL    HW214580   2.982   2.333   3.367  2.2280  0.3615  0.4523
 1040SOL     OW14581   2.348   1.176  12.632 -0.1968 -0.6022 -0.2649
 1040SOL    HW114582   2.266   1.173  12.682 -0.2897  3.0074 -0.2274
 1040SOL    HW214583   2.353   1.268  12.606  0.5832  0.6770  4.4052
 1041SOL     OW14584   1.244   4.517  10.570  0.3058  0.2419 -0.0129
 1041SOL    HW114585   1.233   4.507  10.665 -1.0696 -0.4692 -0.2472
 1041SOL    HW214586   1.306   4.450  10.540  0.4015  0.8675 -1.2103
 1042SOL     OW14587   0.461   3.562   5.069 -0.0226 -0.6604 -0.2675
 1042SOL    HW114588   0.365   3.556   5.067 -0.1858  1.0685  2.0537
 1042SOL    HW214589   0.452   3.645   5.116 -0.3542 -0.2830 -0.9987
 1043SOL     OW14590   1.815   4.299  12.855 -0.2938  0.8002  0.1798
 1043SOL    HW114591   1.748   4.299  12.785  1.1665  2.7476 -1.2386
 1043SOL    HW214592   1.885   4.357  12.825 -1.5525  1.1588 -2.0872
 1044SOL     OW14593   0.024   3.645   4.826 -0.2476 -0.0112  0.1127
 1044SOL    HW114594   4.699   3.718   4.783 -0.2811  1.4379  2.5561
 1044SOL    HW214595   4.678   3.580   4.804  0.1301  0.3913 -2.1293
 1045SOL     OW14596   0.232   4.079   3.998  0.3922  0.3393 -0.0968
 1045SOL    HW114597   0.251   4.095   4.090 -1.4364 -1.4184  0.5837
 1045SOL    HW214598   0.311   4.122   3.966  1.6603 -0.2120  2.3275
 1046SOL     OW14599   2.765   2.769   7.414 -0.6273  0.5208  0.1090
 1046SOL    HW114600   2.757   2.681   7.379 -1.9452  0.3288  0.8603
 1046SOL    HW214601   2.718   2.760   7.497  1.2452  1.8803  1.3000
 1047SOL     OW14602   0.190   1.143   4.043  0.2476 -0.1371  0.2956
 1047SOL    HW114603   0.153   1.202   4.109 -0.1027  0.0881 -0.1051
 1047SOL    HW214604   0.108   1.117   4.001  0.9666 -2.8626  0.5676
 1048SOL     OW14605   3.748   2.778  16.445  0.0010 -0.0192 -0.5391
 1048SOL    HW114606   3.745   2.743  16.356 -0.1633  1.1055 -0.9833
 1048SOL    HW214607   3.837   2.756  16.473  0.7397  3.0581 -0.4410
 1049SOL     OW14608   2.413   1.815   6.505  0.2889  0.3717 -0.2047
 1049SOL    HW114609   2.505   1.816   6.479  0.4931  1.0149  0.5491
 1049SOL    HW214610   2.430   1.848   6.593  0.8543  0.2936 -0.2865
 1050SOL     OW14611   0.367   3.220   7.989  0.0559 -0.3557 -0.3419
 1050SOL    HW114612   0.288   3.214   7.935  0.1391  1.5991 -0.6695
 1050SOL    HW214613   0.431   3.203   7.919  1.3203 -0.5844  0.8723
 1051SOL     OW14614   4.465   3.591  13.001 -0.0463  0.4947 -0.3865
 1051SOL    HW114615   4.491   3.539  13.076 -0.4524 -0.1106 -0.6663
 1051SOL    HW214616   4.446   3.670  13.052  1.3483 -0.1738  1.1400
 1052SOL     OW14617   1.453   0.464   8.416 -0.3846 -0.2963  0.0442
 1052SOL    HW114618   1.434   0.372   8.403 -1.4133 -0.1499  0.5185
 1052SOL    HW214619   1.371   0.496   8.453  0.5582  2.8435 -0.5544
 1053SOL     OW14620   0.221   2.040  10.488 -0.2383 -0.2591 -0.4415
 1053SOL    HW114621   0.176   2.118  10.521 -1.9901 -1.4880  0.0171
 1053SOL    HW214622   0.315   2.056  10.497 -0.5938  2.6489 -1.9184
 1054SOL     OW14623   4.302   0.271   8.360  0.6202  0.5176 -0.4825
 1054SOL    HW114624   4.239   0.201   8.346 -0.4505  1.5368 -0.7402
 1054SOL    HW214625   4.328   0.241   8.448  0.4843  0.3396 -0.5041
 1055SOL     OW14626   1.961   2.587   8.811  0.2379  0.0366 -0.1071
 1055SOL    HW114627   2.026   2.557   8.747  0.1417 -0.3048 -0.0460
 1055SOL    HW214628   1.890   2.530   8.780 -0.0105 -0.3057  1.0781
 1056SOL     OW14629   3.164   1.977   8.723 -0.4942  0.1305  0.1989
 1056SOL    HW114630   3.127   2.009   8.806 -1.8165 -1.7594  0.3229
 1056SOL    HW214631   3.223   1.911   8.758 -0.1521 -0.1460 -0.9233
 1057SOL     OW14632   0.651   0.755   4.658  0.2729 -0.3865 -0.7307
 1057SOL    HW114633   0.622   0.741   4.568  0.4764 -0.6098 -0.7612
 1057SOL    HW214634   0.567   0.772   4.700 -0.9921  0.2804 -3.5464
 1058SOL     OW14635   0.943   3.463   8.497  0.2242 -0.0959  0.0704
 1058SOL    HW114636   0.976   3.508   8.575  0.3006 -0.4810  0.2577
 1058SOL    HW214637   0.856   3.499   8.481 -0.3038 -1.4210 -0.0138
 1059SOL     OW14638   3.384   0.236   8.771  0.5391 -0.2393  0.4396
 1059SOL    HW114639   3.310   0.178   8.757  0.3253  0.1607 -0.0836
 1059SOL    HW214640   3.447   0.171   8.803 -0.6053 -1.3901  0.3276
 1060SOL     OW14641   3.959   0.799   8.763  1.0615 -0.3314  0.0591
 1060SOL    HW114642   3.911   0.727   8.723 -1.1632  1.3618 -0.3504
 1060SOL    HW214643   3.928   0.790   8.853 -0.1027 -0.1070 -0.3240
 1061SOL     OW14644   4.302   3.121   8.457 -0.2445 -0.1030 -0.2021
 1061SOL    HW114645   4.273   3.034   8.432 -1.5880  0.2678  0.0921
 1061SOL    HW214646   4.240   3.178   8.411 -0.9727 -0.6914  0.0534
 1062SOL     OW14647   2.940   0.948   5.950 -0.4766 -0.3759  0.3490
 1062SOL    HW114648   3.033   0.930   5.939 -0.0852  1.2270  1.0634
 1062SOL    HW214649   2.937   1.037   5.913 -0.3194 -1.5143 -2.3465
 1063SOL     OW14650   4.595   4.701   7.022  0.4386  0.2826 -0.4371
 1063SOL    HW114651   4.629   0.034   6.949  0.3173  0.9417 -0.0132
 1063SOL    HW214652   4.613   0.043   7.093 -1.3181 -0.4433  0.6421
 1064SOL     OW14653   0.465   0.632   2.520 -0.9379  0.6312 -0.6534
 1064SOL    HW114654   0.546   0.683   2.512 -1.1802  1.0905 -0.1127
 1064SOL    HW214655   0.407   0.696   2.480 -1.4712  2.8775  3.7482
 1065SOL     OW14656   0.319   4.600  15.393 -0.3166  0.2552  0.0053
 1065SOL    HW114657   0.315   4.624  15.486 -2.8591  1.2444 -0.3730
 1065SOL    HW214658   0.291   4.679  15.348 -0.1885  0.0856 -0.3715
 1066SOL     OW14659   0.887   3.864   3.014 -0.4556  0.4459 -0.3075
 1066SOL    HW114660   0.937   3.939   2.984  0.5404  0.9463  2.5982
 1066SOL    HW214661   0.915   3.873   3.105  1.0387 -0.1272 -0.7061
 1067SOL     OW14662   3.845   4.260   1.707 -0.0865  0.1274  0.0567
 1067SOL    HW114663   3.779   4.255   1.637 -0.7239 -1.5919  0.7791
 1067SOL    HW214664   3.802   4.265   1.792  1.7334  0.8818  0.9458
 1068SOL     OW14665   2.378   4.089   2.568  0.2420  0.1247  0.1299
 1068SOL    HW114666   2.448   4.154   2.565 -0.1983  0.5686 -0.5640
 1068SOL    HW214667   2.431   4.010   2.578 -0.3620 -0.2516  0.3348
 1069SOL     OW14668   4.001   3.366   0.141  0.3505 -0.0191  0.3160
 1069SOL    HW114669   4.063   3.378   0.068 -0.4637  2.9419  0.1004
 1069SOL    HW214670   4.012   3.274   0.164 -1.5153  0.4609  3.0451
 1070SOL     OW14671   4.067   0.065   0.980  0.1446 -0.5630 -0.3316
 1070SOL    HW114672   4.029   4.700   1.003 -1.3494  0.1328 -0.2747
 1070SOL    HW214673   3.990   0.116   0.957  1.3433  1.1565 -0.5463
 1071SOL     OW14674   4.423   1.093   8.225 -0.5257 -0.3753  0.5082
 1071SOL    HW114675   4.344   1.068   8.273  0.0679 -3.2628 -0.0305
 1071SOL    HW214676   4.488   1.078   8.294 -0.7086  3.0466  1.4025
 1072SOL     OW14677   0.225   2.605   9.749  0.2093  0.4023 -0.0153
 1072SOL    HW114678   0.226   2.513   9.722  1.1270  0.9309 -1.7906
 1072SOL    HW214679   0.223   2.595   9.844  0.9288 -2.1340 -0.2468
 1073SOL     OW14680   1.387   3.668   7.763 -0.0915 -0.2643 -0.4142
 1073SOL    HW114681   1.426   3.608   7.700 -0.5933 -0.1862 -0.8039
 1073SOL    HW214682   1.431   3.746   7.729 -1.3647  0.0709 -1.3330
 1074SOL     OW14683   1.096   1.049  15.131 -0.6638 -0.8198 -0.2651
 1074SOL    HW114684   1.064   0.964  15.102 -2.0560 -0.4025  0.0599
 1074SOL    HW214685   1.048   1.057  15.213 -4.0331  0.0485 -2.3052
 1075SOL     OW14686   1.589   1.104  11.788 -0.2157 -0.4557 -0.4019
 1075SOL    HW114687   1.659   1.076  11.729  0.8991  0.6144  0.4041
 1075SOL    HW214688   1.525   1.033  11.796 -0.8377  0.0322 -1.0400
 1076SOL     OW14689   3.249   2.105   7.446 -0.0625 -0.5402 -0.8026
 1076SOL    HW114690   3.323   2.074   7.393  0.7292 -1.5548  0.8731
 1076SOL    HW214691   3.177   2.057   7.406 -0.6538  2.1046 -2.8720
 1077SOL     OW14692   0.682   0.886   9.911  0.3630  0.7997  0.4937
 1077SOL    HW114693   0.713   0.846   9.829  0.4138  0.9133  0.4579
 1077SOL    HW214694   0.674   0.980   9.896  3.1167  0.8042 -1.1086
 1078SOL     OW14695   2.572   3.832  12.299 -0.7222  0.3995 -0.2955
 1078SOL    HW114696   2.619   3.852  12.218  0.8494 -0.1129  0.4750
 1078SOL    HW214697   2.509   3.765  12.273  1.0159 -1.5591  0.4919
 1079SOL     OW14698   3.520   1.882  11.137  0.7115 -0.3688  0.2279
 1079SOL    HW114699   3.450   1.938  11.103  1.9679  0.7249 -0.5498
 1079SOL    HW214700   3.473   1.837  11.208 -1.1041  0.2233 -0.5978
 1080SOL     OW14701   3.333   0.884   3.403  0.0949  0.4411 -0.7266
 1080SOL    HW114702   3.395   0.955   3.386 -0.4339  0.4538 -2.6602
 1080SOL    HW214703   3.367   0.815   3.346 -0.8842  0.0447 -0.8303
 1081SOL     OW14704   1.489   0.929   6.530 -0.4111  0.0324  0.1146
 1081SOL    HW114705   1.434   0.993   6.576 -0.5622  1.2446 -1.7193
 1081SOL    HW214706   1.423   0.860   6.541 -1.0765  0.3069 -2.0867
 1082SOL     OW14707   3.106   1.305   3.065  0.1581  0.3404 -0.5068
 1082SOL    HW114708   3.148   1.364   3.003  2.6003 -2.5321 -1.6376
 1082SOL    HW214709   3.041   1.262   3.009 -1.6467  0.6631  1.3465
 1083SOL     OW14710   0.671   3.894  12.104  0.0906 -0.2335  0.3170
 1083SOL    HW114711   0.678   3.856  12.192  2.4740  0.8659  0.6008
 1083SOL    HW214712   0.670   3.818  12.047 -0.4705 -1.3461  1.8172
 1084SOL     OW14713   0.410   0.063   0.217 -0.3163  0.3499  0.7042
 1084SOL    HW114714   0.485   0.114   0.249 -2.2178  3.7024 -0.1236
 1084SOL    HW214715   0.429   4.692   0.241  0.2126 -0.4950 -2.9877
 1085SOL     OW14716   2.758   2.586   7.180  0.4995  0.1567  0.6235
 1085SOL    HW114717   2.849   2.612   7.166 -0.1419  2.1250  0.1379
 1085SOL    HW214718   2.737   2.566   7.089 -1.1298  2.9418  0.3704
 1086SOL     OW14719   0.287   1.719   4.436  0.3032 -0.1331 -0.6389
 1086SOL    HW114720   0.229   1.787   4.469  2.0293 -0.1114  2.3512
 1086SOL    HW214721   0.296   1.730   4.341  1.9984  0.6828 -0.3878
 1087SOL     OW14722   4.223   0.283   6.001  0.0134 -0.1031 -0.5800
 1087SOL    HW114723   4.226   0.215   6.067  0.4380  0.6185  0.1449
 1087SOL    HW214724   4.143   0.326   6.034 -0.8569 -2.0539 -0.1651
 1088SOL     OW14725   1.765   0.167  10.305  0.4109  0.2716 -0.2298
 1088SOL    HW114726   1.722   0.094  10.261 -0.6536  0.3271  0.7273
 1088SOL    HW214727   1.709   0.169  10.383  0.0277 -0.3335 -0.4928
 1089SOL     OW14728   1.106   0.963   5.707  0.1269  0.1483  0.1815
 1089SOL    HW114729   1.100   0.884   5.761 -0.8582  1.1698  1.5819
 1089SOL    HW214730   1.070   1.032   5.763 -2.4636 -1.4597  0.5182
 1090SOL     OW14731   0.843   3.391   6.124 -0.0466  0.1927  0.3877
 1090SOL    HW114732   0.914   3.347   6.077  0.7991  3.0960 -1.0267
 1090SOL    HW214733   0.790   3.311   6.136 -1.3962  1.3064  1.8407
 1091SOL     OW14734   2.213   3.998   4.309 -0.4679  0.4931  0.2102
 1091SOL    HW114735   2.193   4.014   4.401 -0.7244  0.3048  0.1866
 1091SOL    HW214736   2.160   4.068   4.271 -0.2743  0.4693 -0.1048
 1092SOL     OW14737   3.283   1.276   4.093  0.1603 -0.0228  0.6434
 1092SOL    HW114738   3.299   1.370   4.087  2.1547 -0.4219 -0.4080
 1092SOL    HW214739   3.222   1.270   4.020  2.3102 -1.9242 -0.9922
 1093SOL     OW14740   2.699   4.017  13.395  0.0377 -0.5513 -0.2212
 1093SOL    HW114741   2.731   3.969  13.319 -0.2959 -1.2326  0.0684
 1093SOL    HW214742   2.628   3.964  13.432  0.3734  0.0316  1.2264
 1094SOL     OW14743   1.980   4.107   0.036  0.1878 -0.5319  0.0075
 1094SOL    HW114744   1.907   4.047   0.052 -1.1849  0.7180 -1.5591
 1094SOL    HW214745   2.044   4.052  17.676  1.8310  0.5680  1.0556
 1095SOL     OW14746   2.218   3.257   1.683  0.1697 -0.2393 -0.0569
 1095SOL    HW114747   2.252   3.182   1.635 -1.1709 -1.0326  0.2311
 1095SOL    HW214748   2.237   3.331   1.626 -3.1254 -0.4693 -1.4536
 1096SOL     OW14749   0.543   1.362   3.563 -0.0904 -0.2647 -0.2608
 1096SOL    HW114750   0.461   1.360   3.612 -1.0727  1.0362 -1.8772
 1096SOL    HW214751   0.516   1.303   3.493 -0.6301 -2.4530  1.7797
 1097SOL     OW14752   3.130   1.549   6.866  0.0517 -0.1845 -0.1219
 1097SOL    HW114753   3.149   1.608   6.939 -2.8601  0.9377 -0.2661
 1097SOL    HW214754   3.192   1.477   6.879  1.0233  0.6630 -0.0647
 1098SOL     OW14755   1.549   2.240   6.326  0.1127  0.0271 -0.0891
 1098SOL    HW114756   1.460   2.241   6.361 -0.8019  1.4469 -2.4643
 1098SOL    HW214757   1.537   2.187   6.247  0.5415 -1.3093  0.7297
 1099SOL     OW14758   3.973   1.720   8.104  0.5027  0.3853  0.0244
 1099SOL    HW114759   4.046   1.696   8.047  0.9689 -0.1181  0.8294
 1099SOL    HW214760   3.946   1.805   8.070 -1.0293 -0.5532 -1.0540
 1100SOL     OW14761   2.740   2.121   1.645  0.0328 -0.3663 -0.4119
 1100SOL    HW114762   2.702   2.205   1.622  0.7955  0.5501  1.6349
 1100SOL    HW214763   2.676   2.097   1.712  1.2882 -1.1171  0.5245
 1101SOL     OW14764   1.035   2.851  10.692  0.5030  0.2106 -0.3052
 1101SOL    HW114765   1.017   2.864  10.785  0.8777 -1.1875 -0.0316
 1101SOL    HW214766   1.077   2.765  10.690  0.3774  0.1037  1.5553
 1102SOL     OW14767   0.193   0.848  17.595 -0.5575 -0.0338  0.0513
 1102SOL    HW114768   0.152   0.805  17.670  0.7055  1.8297  1.8003
 1102SOL    HW214769   0.278   0.865  17.635 -0.0261  1.4296 -1.6990
 1103SOL     OW14770   1.034   3.445  13.489 -0.1390  0.1946 -0.1188
 1103SOL    HW114771   0.957   3.449  13.547 -0.0530  1.7510 -0.0988
 1103SOL    HW214772   1.042   3.539  13.471  0.7825 -0.1576 -1.4710
 1104SOL     OW14773   2.230   1.675   8.380 -0.1766 -0.3345 -0.4356
 1104SOL    HW114774   2.245   1.714   8.467  0.6135 -1.1547 -0.2045
 1104SOL    HW214775   2.135   1.663   8.379 -0.1001 -1.0587  0.8351
 1105SOL     OW14776   0.084   0.325   4.023  0.2698  0.5393  0.5303
 1105SOL    HW114777   0.051   0.235   4.026  1.8110  0.0017  1.4730
 1105SOL    HW214778   0.067   0.351   3.933 -1.8950 -0.2747  0.7113
 1106SOL     OW14779   1.048   0.607   7.253  0.4821  0.3428  0.6944
 1106SOL    HW114780   1.085   0.576   7.336 -0.2926  1.6139  1.5076
 1106SOL    HW214781   1.045   0.529   7.198  1.1739 -0.2473  1.4824
 1107SOL     OW14782   3.096   4.290  15.243 -0.3817 -0.0293 -0.2440
 1107SOL    HW114783   3.116   4.378  15.210  2.4218 -0.0527  1.4130
 1107SOL    HW214784   3.030   4.267  15.178  0.1974 -2.4444  0.0306
 1108SOL     OW14785   1.910   1.525   6.880  0.7969  0.2869  0.1127
 1108SOL    HW114786   1.832   1.574   6.854  0.3113  0.2163  1.4288
 1108SOL    HW214787   1.881   1.441   6.844  0.9777  0.3301 -0.1284
 1109SOL     OW14788   0.638   2.130   8.003 -0.0532  0.2467  0.1771
 1109SOL    HW114789   0.608   2.080   7.927 -1.7371  0.7525  0.4883
 1109SOL    HW214790   0.555   2.147   8.049  0.2803 -0.5907  1.0980
 1110SOL     OW14791   1.934   1.737   3.966 -0.3762  0.3089 -0.4694
 1110SOL    HW114792   1.988   1.673   4.012 -2.9156 -0.1418  1.8296
 1110SOL    HW214793   1.964   1.711   3.878  2.0091  0.3723  0.3067
 1111SOL     OW14794   0.035   1.154   3.659  0.1231 -0.7238  0.1431
 1111SOL    HW114795   0.020   1.225   3.723  1.6588 -1.3261  1.1615
 1111SOL    HW214796   4.665   1.155   3.626  0.9787  1.5473 -2.0642
 1112SOL     OW14797   1.635   3.716   9.106 -0.0715 -0.2056 -0.0605
 1112SOL    HW114798   1.641   3.621   9.095 -1.0364 -0.0168 -2.0410
 1112SOL    HW214799   1.607   3.728   9.197  0.2007  1.7652 -0.2343
 1113SOL     OW14800   4.457   1.227   8.523 -0.1363  0.4643  0.1487
 1113SOL    HW114801   4.421   1.139   8.532  0.0248  0.3578 -0.2446
 1113SOL    HW214802   4.519   1.231   8.595  1.2076 -0.0512 -0.9852
 1114SOL     OW14803   0.740   2.346  11.403 -0.0072  0.2460 -0.1556
 1114SOL    HW114804   0.808   2.363  11.468  0.6098 -1.8442 -0.2457
 1114SOL    HW214805   0.664   2.394  11.436  0.0901  0.2019  0.1307
 1115SOL     OW14806   1.567   1.363  14.711 -0.7191 -0.1582 -0.4370
 1115SOL    HW114807   1.489   1.326  14.753 -1.2256  2.0076  0.5731
 1115SOL    HW214808   1.625   1.293  14.742 -0.5505 -0.0641 -0.5424
 1116SOL     OW14809   3.835   2.864   4.297 -0.4626 -0.1342 -0.6739
 1116SOL    HW114810   3.752   2.862   4.249 -1.5165 -1.5060  1.2164
 1116SOL    HW214811   3.848   2.770   4.310  0.7416  0.2459  0.7583
 1117SOL     OW14812   0.771   1.065   5.376  0.1961 -0.7896  0.1951
 1117SOL    HW114813   0.762   1.091   5.467  1.1896  0.6932 -0.1196
 1117SOL    HW214814   0.844   1.123   5.352  0.1205 -0.9724 -0.4814
 1118SOL     OW14815   2.664   0.527   2.511  0.2909 -0.2601 -0.5415
 1118SOL    HW114816   2.640   0.538   2.603 -2.7487 -1.6788 -1.1794
 1118SOL    HW214817   2.756   0.553   2.505 -0.0154  0.7754 -0.7991
 1119SOL     OW14818   0.826   1.974  16.917 -0.2584  0.2290  0.0464
 1119SOL    HW114819   0.827   1.982  16.822  0.4567 -1.8267 -0.1133
 1119SOL    HW214820   0.787   2.058  16.944 -3.3081 -1.5517  1.1607
 1120SOL     OW14821   3.091   0.096   5.254 -0.4428 -0.6311 -1.2283
 1120SOL    HW114822   3.024   0.120   5.190 -0.5234  0.8552 -0.5889
 1120SOL    HW214823   3.056   0.156   5.320  0.8514 -0.8604 -0.3356
 1121SOL     OW14824   0.231   3.195  11.041 -0.1599  0.1585  0.3606
 1121SOL    HW114825   0.149   3.149  11.058  1.3954 -2.3629  1.0197
 1121SOL    HW214826   0.224   3.258  11.112 -0.6076 -0.3051  0.7262
 1122SOL     OW14827   1.145   3.321   1.216 -1.1114  0.2437 -0.3603
 1122SOL    HW114828   1.214   3.272   1.261 -1.2398  1.9071  1.6141
 1122SOL    HW214829   1.071   3.274   1.254 -0.8677 -0.1756 -0.4040
 1123SOL     OW14830   0.565   3.325  10.630 -0.1317 -0.3500  0.6783
 1123SOL    HW114831   0.536   3.238  10.603 -1.3860  1.0720 -2.4598
 1123SOL    HW214832   0.650   3.296  10.665  0.2925  1.9235  1.5285
 1124SOL     OW14833   3.829   3.482  16.998  0.2960  0.1023  0.4661
 1124SOL    HW114834   3.763   3.522  17.054 -0.7776 -0.7650 -0.1729
 1124SOL    HW214835   3.831   3.536  16.919  0.9939 -0.3761  0.1544
 1125SOL     OW14836   3.407   4.519   6.898  0.5880 -0.1520 -0.0252
 1125SOL    HW114837   3.423   4.458   6.969 -1.7813 -0.0427  0.6134
 1125SOL    HW214838   3.339   4.582   6.924  0.5230  0.1675 -0.9671
 1126SOL     OW14839   3.279   2.911   3.912 -0.0503  0.5770  0.1135
 1126SOL    HW114840   3.323   2.951   3.837  1.2797  0.7276  0.9697
 1126SOL    HW214841   3.333   2.832   3.914 -2.7066 -1.1999  2.5100
 1127SOL     OW14842   0.556   2.133   9.174 -0.2696  0.1406 -0.9040
 1127SOL    HW114843   0.586   2.042   9.181 -0.8059  0.0252 -0.1246
 1127SOL    HW214844   0.501   2.132   9.252  0.2736 -0.0298 -0.5273
 1128SOL     OW14845   2.458   4.687   4.598  0.4974  0.3039 -0.2143
 1128SOL    HW114846   2.476   0.018   4.519 -1.1039  1.3008  0.0587
 1128SOL    HW214847   2.419   0.034   4.655  0.8802 -0.7531  1.2895
 1129SOL     OW14848   2.250   4.506   5.431 -1.0162  0.1206  0.5591
 1129SOL    HW114849   2.278   4.589   5.470 -2.0423 -0.1379  1.8137
 1129SOL    HW214850   2.325   4.455   5.463  0.3726  1.9171  0.1678
 1130SOL     OW14851   3.225   3.855   2.815 -0.0909 -0.0905 -0.2023
 1130SOL    HW114852   3.295   3.847   2.750 -1.3158 -2.3024 -1.2557
 1130SOL    HW214853   3.277   3.886   2.889  0.6556  0.5677 -0.9909
 1131SOL     OW14854   1.771   2.464   3.814 -0.6669  0.1718  0.4403
 1131SOL    HW114855   1.829   2.421   3.751  0.4143  1.4475  0.5668
 1131SOL    HW214856   1.760   2.555   3.785  0.7796  0.6858  1.5466
 1132SOL     OW14857   1.962   3.422   5.014 -0.4700 -0.2664  0.1855
 1132SOL    HW114858   1.878   3.441   4.972  0.6122 -0.1543 -1.9343
 1132SOL    HW214859   2.007   3.506   5.016  1.6372 -1.3718 -1.0597
 1133SOL     OW14860   1.160   3.728   8.428 -0.3540  0.1743 -0.3018
 1133SOL    HW114861   1.099   3.771   8.488 -1.5185 -1.6383 -0.1871
 1133SOL    HW214862   1.098   3.735   8.356 -0.4458 -2.1884 -0.4421
 1134SOL     OW14863   0.795   2.058   3.896 -0.3333  0.2937 -0.5393
 1134SOL    HW114864   0.778   2.131   3.837  0.5893  2.7359  2.2201
 1134SOL    HW214865   0.885   2.080   3.918 -0.3391  0.2779 -0.4999
 1135SOL     OW14866   3.145   0.789  17.473 -0.2777  0.3280 -0.1130
 1135SOL    HW114867   3.156   0.880  17.445  1.8058  0.4170  1.0055
 1135SOL    HW214868   3.126   0.810  17.564  2.3133  3.2783 -0.2241
 1136SOL     OW14869   0.206   3.222   4.036 -0.0900 -0.3593  0.1725
 1136SOL    HW114870   0.134   3.262   4.085 -1.0623  0.7500 -2.1233
 1136SOL    HW214871   0.264   3.295   4.012  1.1723 -1.0781  1.0366
 1137SOL     OW14872   4.433   4.320  15.813 -0.1756 -0.4209  0.4508
 1137SOL    HW114873   4.375   4.247  15.833 -1.6634  0.9684  1.2054
 1137SOL    HW214874   4.377   4.376  15.758  0.9911 -1.1500 -1.4974
 1138SOL     OW14875   0.060   1.681   3.582  0.0261 -0.4220  0.4229
 1138SOL    HW114876   0.023   1.767   3.561  3.0475  0.6883 -0.2614
 1138SOL    HW214877   0.101   1.705   3.664 -2.0410  2.9387  0.4773
 1139SOL     OW14878   4.517   4.273   3.315 -0.0935  0.5851 -0.1047
 1139SOL    HW114879   4.542   4.184   3.288  0.7519  1.3308 -1.8091
 1139SOL    HW214880   4.578   4.315   3.255 -1.2415 -1.3567 -2.6148
 1140SOL     OW14881   1.956   1.948   3.511  0.3213 -0.0653 -0.2736
 1140SOL    HW114882   1.895   1.891   3.557  0.7412  1.4131  2.0893
 1140SOL    HW214883   1.907   1.964   3.430  0.2459  1.8810  0.1545
 1141SOL     OW14884   3.151   1.211   4.330 -0.0224  0.2937  0.0847
 1141SOL    HW114885   3.087   1.146   4.302  2.0474 -1.4333 -0.7085
 1141SOL    HW214886   3.191   1.234   4.245 -0.6138  1.4105  0.1045
 1142SOL     OW14887   2.730   2.426   6.960 -0.4458  0.5263  0.2127
 1142SOL    HW114888   2.638   2.402   6.952 -0.3339 -0.1807  1.1144
 1142SOL    HW214889   2.743   2.472   6.877 -2.4683 -1.3384 -1.1299
 1143SOL     OW14890   4.012   4.096   4.482 -0.1629 -0.3166 -0.6239
 1143SOL    HW114891   3.949   4.108   4.553  0.7134 -2.1097  0.4830
 1143SOL    HW214892   4.007   4.173   4.427 -1.1354  0.3512  0.3918
 1144SOL     OW14893   3.726   0.655   5.257 -0.0035 -0.2549 -0.3187
 1144SOL    HW114894   3.799   0.622   5.204  1.9546 -0.5703  2.5199
 1144SOL    HW214895   3.786   0.665   5.332 -0.5718 -0.5590  0.1757
 1145SOL     OW14896   2.867   2.651  14.137  0.4432  0.4608  0.1238
 1145SOL    HW114897   2.830   2.607  14.214 -1.9532 -0.3798 -1.5195
 1145SOL    HW214898   2.836   2.740  14.153  2.3312  1.2674 -0.7404
 1146SOL     OW14899   3.570   3.937   3.876  0.6541 -0.8392 -0.2572
 1146SOL    HW114900   3.511   4.010   3.855  1.4894 -0.1045 -0.0507
 1146SOL    HW214901   3.533   3.856   3.842  1.0014 -0.9303 -0.4151
 1147SOL     OW14902   0.064   1.713  11.263  0.0175 -0.0062  0.0622
 1147SOL    HW114903   0.068   1.716  11.168  1.3035 -1.8764  0.0519
 1147SOL    HW214904   0.054   1.620  11.283 -1.3958 -0.3347 -2.1533
 1148SOL     OW14905   4.049   1.066   2.868 -0.1894  0.4366 -0.6366
 1148SOL    HW114906   3.955   1.061   2.849 -0.6938  0.1703  1.9661
 1148SOL    HW214907   4.076   1.157   2.881  0.6149  0.1427 -0.3218
 1149SOL     OW14908   2.918   0.885   8.917  0.6310 -0.5001 -0.3861
 1149SOL    HW114909   2.858   0.885   8.992  1.9254 -2.2401  0.6358
 1149SOL    HW214910   2.875   0.930   8.844  0.7966  0.6188  0.1944
 1150SOL     OW14911   1.415   4.699   2.402 -0.4761 -0.0824 -0.1914
 1150SOL    HW114912   1.501   0.010   2.429 -0.6345  1.0276 -0.9493
 1150SOL    HW214913   1.382   0.050   2.347  0.3340  1.0080  0.7299
 1151SOL     OW14914   4.540   2.673   0.046  0.5174 -0.2394  0.2330
 1151SOL    HW114915   4.492   2.693   0.127 -0.6293 -0.3957 -0.4076
 1151SOL    HW214916   4.584   2.591   0.068 -1.1359 -0.5327  2.4836
 1152SOL     OW14917   2.736   2.899   9.516 -0.2385 -0.0159 -1.2565
 1152SOL    HW114918   2.658   2.879   9.568 -0.2301  2.3737 -0.3113
 1152SOL    HW214919   2.710   2.956   9.444 -0.8311 -0.3033 -1.2731
 1153SOL     OW14920   3.100   3.569  10.196 -0.2815  0.1853  0.1532
 1153SOL    HW114921   3.077   3.478  10.216  0.7170  0.1278  1.0646
 1153SOL    HW214922   3.080   3.612  10.279  1.5704 -1.9850  1.7281
 1154SOL     OW14923   2.338   1.966  11.393  0.0587 -0.0884  0.5765
 1154SOL    HW114924   2.271   1.898  11.406  1.9384 -1.8089  1.2194
 1154SOL    HW214925   2.296   2.009  11.319  0.4632  2.1701  1.6566
 1155SOL     OW14926   3.470   0.620   9.661  0.4170  0.2306  0.0075
 1155SOL    HW114927   3.434   0.708   9.665 -1.1653 -0.3359 -2.1110
 1155SOL    HW214928   3.441   0.590   9.575  0.7270 -1.7042  0.5807
 1156SOL     OW14929   1.712   3.865  17.338  0.6093  0.4196 -0.1436
 1156SOL    HW114930   1.722   3.869  17.433 -1.6156  1.4999  0.0536
 1156SOL    HW214931   1.731   3.772  17.328  0.2264  0.2028  1.1876
 1157SOL     OW14932   2.987   3.801  10.879 -0.4824 -0.0274 -0.2020
 1157SOL    HW114933   3.033   3.719  10.864  1.1588  1.1829 -1.8023
 1157SOL    HW214934   3.020   3.842  10.959  0.8127 -1.7567  0.1471
 1158SOL     OW14935   0.744   0.912   7.025 -0.1413 -0.1350 -0.4606
 1158SOL    HW114936   0.711   0.947   7.108  0.2151 -1.0661  0.0696
 1158SOL    HW214937   0.662   0.919   6.976 -0.3293 -0.4837 -0.1933
 1159SOL     OW14938   1.182   0.766   6.599 -0.1707  0.2392  0.3728
 1159SOL    HW114939   1.108   0.705   6.600 -0.6584  0.7920 -1.2462
 1159SOL    HW214940   1.249   0.700   6.615 -1.4830 -1.8848 -2.6863
 1160SOL     OW14941   0.912   2.703   5.950  0.0552 -0.1348 -0.0520
 1160SOL    HW114942   0.933   2.612   5.970 -1.6604 -0.4528  0.2823
 1160SOL    HW214943   0.886   2.705   5.858 -1.4541  0.7385  0.3966
 1161SOL     OW14944   0.560   3.073   7.561  0.1127 -0.5421 -0.0094
 1161SOL    HW114945   0.577   3.115   7.476  0.9137 -0.1414  0.3492
 1161SOL    HW214946   0.649   3.040   7.575  0.5269  0.0226 -1.2944
 1162SOL     OW14947   4.656   1.200   2.802  0.0621 -0.0339  0.1342
 1162SOL    HW114948   4.628   1.116   2.765  0.5078  0.0680 -0.4256
 1162SOL    HW214949   4.624   1.256   2.732 -2.8028 -0.8286  0.7977
 1163SOL     OW14950   3.618   0.701   0.649  0.1677  0.1303 -0.1484
 1163SOL    HW114951   3.617   0.753   0.568 -1.9431 -0.0234 -0.2228
 1163SOL    HW214952   3.532   0.717   0.687  0.3394  0.0338  0.2805
 1164SOL     OW14953   1.712   0.570   8.316 -0.2275 -0.0591  0.2661
 1164SOL    HW114954   1.687   0.663   8.312 -0.2899  0.0005  1.8863
 1164SOL    HW214955   1.633   0.541   8.361  0.8186 -0.8557  1.5858
 1165SOL     OW14956   1.545   2.396  12.213 -0.5429  0.1654 -0.2981
 1165SOL    HW114957   1.570   2.486  12.235 -0.0581 -0.3413  1.2077
 1165SOL    HW214958   1.568   2.403  12.120  0.8745  1.1073  0.1207
 1166SOL     OW14959   1.167   0.746   4.641  0.3504 -0.0621 -0.2836
 1166SOL    HW114960   1.072   0.748   4.628  0.1048 -1.4602  1.2124
 1166SOL    HW214961   1.170   0.673   4.704 -3.2817  0.1590  0.1766
 1167SOL     OW14962   0.948   1.895   6.628  0.0336 -0.1628  0.4326
 1167SOL    HW114963   0.918   1.804   6.627  2.0290 -0.7906 -2.1282
 1167SOL    HW214964   0.968   1.906   6.721 -1.5258 -3.1534  1.1024
 1168SOL     OW14965   0.223   4.464   5.542  0.4551 -0.3145  0.3078
 1168SOL    HW114966   0.259   4.466   5.631  1.4016  0.5720 -0.0883
 1168SOL    HW214967   0.301   4.425   5.501 -1.3696  0.5174 -3.9592
 1169SOL     OW14968   0.552   0.507   4.720 -0.0548 -0.0782  0.0906
 1169SOL    HW114969   0.503   0.565   4.663  1.4031 -1.3400 -2.4621
 1169SOL    HW214970   0.621   0.566   4.749 -1.6752  1.4031  0.8758
 1170SOL     OW14971   2.225   3.085   1.164  0.4627  0.1497 -0.4274
 1170SOL    HW114972   2.298   3.133   1.126  0.5029 -0.1046 -0.6695
 1170SOL    HW214973   2.173   3.075   1.084 -1.2717  0.1243  0.6897
 1171SOL     OW14974   1.584   0.126   4.873  0.5216 -0.5064  0.2082
 1171SOL    HW114975   1.495   0.093   4.882  0.4049 -0.1479  0.3728
 1171SOL    HW214976   1.611   0.086   4.790 -0.7560 -0.3438 -0.2874
 1172SOL     OW14977   0.209   2.456   8.157 -0.0998  0.1360  0.4197
 1172SOL    HW114978   0.259   2.477   8.236 -0.7737 -1.2868  1.2465
 1172SOL    HW214979   0.282   2.404   8.124 -1.1942 -0.7518 -0.6100
 1173SOL     OW14980   0.249   3.114   4.348  0.1247 -0.5772  0.2022
 1173SOL    HW114981   0.309   3.186   4.327  0.1754 -1.1949 -1.7910
 1173SOL    HW214982   0.273   3.104   4.440  1.7604  0.1180 -0.1545
 1174SOL     OW14983   4.381   2.639   7.632  0.2459  0.0025 -0.3178
 1174SOL    HW114984   4.387   2.588   7.713  1.6393 -0.3147 -0.6159
 1174SOL    HW214985   4.388   2.732   7.650  2.2095  0.1686 -1.8529
 1175SOL     OW14986   1.511   2.829  14.997 -0.8326  0.2024 -0.0572
 1175SOL    HW114987   1.551   2.774  15.064 -1.9833  0.1275  0.5588
 1175SOL    HW214988   1.418   2.828  15.020 -0.4359  1.5725  1.5158
 1176SOL     OW14989   2.157   2.344   2.402  0.6393 -0.4355  0.3842
 1176SOL    HW114990   2.189   2.325   2.490  0.3655 -1.2006  0.3172
 1176SOL    HW214991   2.068   2.311   2.413 -0.0343  0.9819 -0.7826
 1177SOL     OW14992   1.975   1.959   4.679 -0.3559 -0.4169 -0.1503
 1177SOL    HW114993   1.959   1.969   4.585 -1.7171  0.7141  0.2017
 1177SOL    HW214994   1.896   1.997   4.716 -1.3455 -2.3195 -0.2634
 1178SOL     OW14995   4.500   3.251   2.521  0.0635  0.7222 -0.4223
 1178SOL    HW114996   4.584   3.225   2.559  0.0071  0.1508 -0.6844
 1178SOL    HW214997   4.449   3.178   2.556  0.5483  1.2254  1.3488
 1179SOL     OW14998   1.381   3.247  12.785  0.3944 -0.1755  0.3353
 1179SOL    HW114999   1.455   3.287  12.739  0.0202  0.2685  0.1137
 1179SOL    HW215000   1.310   3.225  12.724 -0.8526  0.4909  1.5456
 1180SOL     OW15001   0.375   3.518   5.473 -0.0785 -0.0407  0.8467
 1180SOL    HW115002   0.379   3.574   5.550 -0.3225 -0.0413  0.8584
 1180SOL    HW215003   0.456   3.532   5.424  0.6521 -0.5001  1.9280
 1181SOL     OW15004   2.113   3.064  13.877  0.0181  0.3594  0.2458
 1181SOL    HW115005   2.062   2.988  13.848 -0.7164  0.3137  1.6259
 1181SOL    HW215006   2.144   3.038  13.964  0.5661 -2.1453 -0.7009
 1182SOL     OW15007   3.484   2.467  11.593 -0.0858  0.0259 -0.5690
 1182SOL    HW115008   3.391   2.462  11.617 -0.2983 -0.1155 -1.4059
 1182SOL    HW215009   3.519   2.385  11.627 -1.5157 -0.7474 -0.9611
 1183SOL     OW15010   0.229   1.353   2.324  0.2872 -0.0761 -0.1767
 1183SOL    HW115011   0.194   1.433   2.284  2.0179  0.7851  0.0372
 1183SOL    HW215012   0.231   1.295   2.247 -0.3059 -0.3468  0.0105
 1184SOL     OW15013   0.598   3.763   6.412 -0.6238 -0.4177 -0.5994
 1184SOL    HW115014   0.693   3.779   6.413 -0.5312 -1.1667  3.2958
 1184SOL    HW215015   0.575   3.760   6.505  1.0019  0.5587 -0.1668
 1185SOL     OW15016   2.485   3.283   1.511 -0.0249 -0.2795  0.1731
 1185SOL    HW115017   2.446   3.209   1.558 -0.4698 -1.0078 -1.3336
 1185SOL    HW215018   2.507   3.349   1.576 -3.0490  1.8305 -0.9905
 1186SOL     OW15019   2.578   0.597   4.816  0.1468 -0.1164 -0.4144
 1186SOL    HW115020   2.634   0.521   4.803 -0.6989 -0.7087 -0.6041
 1186SOL    HW215021   2.595   0.639   4.731 -0.3505 -0.1175 -0.5127
 1187SOL     OW15022   1.491   2.563   1.045 -0.3328 -0.1782 -0.7515
 1187SOL    HW115023   1.479   2.634   0.981 -1.4477  0.7303  0.4684
 1187SOL    HW215024   1.424   2.589   1.108  0.3554 -3.6091  1.3499
 1188SOL     OW15025   3.183   1.414  11.448  0.0162 -0.0187  0.0711
 1188SOL    HW115026   3.115   1.349  11.430 -0.4101  1.1230 -2.4411
 1188SOL    HW215027   3.124   1.488  11.439 -1.1474 -0.6370  2.8028
 1189SOL     OW15028   2.001   0.002  14.281 -0.1977 -0.6548 -0.5124
 1189SOL    HW115029   1.988   0.043  14.196  1.3656  1.0436  0.0717
 1189SOL    HW215030   1.933   4.655  14.282 -0.8341  0.0120  1.4984
 1190SOL     OW15031   4.206   0.247  11.938 -0.1394 -0.1434  0.7992
 1190SOL    HW115032   4.124   0.240  11.987 -0.0232  0.4765  1.0773
 1190SOL    HW215033   4.265   0.288  12.001 -1.3844  1.2031  1.0829
 1191SOL     OW15034   0.897   1.262   8.093 -0.5268 -0.0643 -0.3790
 1191SOL    HW115035   0.856   1.286   8.009 -0.5489 -1.7520 -0.8680
 1191SOL    HW215036   0.940   1.344   8.113  0.9266 -0.8757 -0.1813
 1192SOL     OW15037   2.890   0.926   8.498  0.1329  0.7084 -0.4149
 1192SOL    HW115038   2.858   0.989   8.433  1.3366  1.0265 -0.6962
 1192SOL    HW215039   2.875   0.972   8.581  1.7613  1.4881 -0.5639
 1193SOL     OW15040   3.071   1.265  12.750 -0.2619 -0.4587 -0.5930
 1193SOL    HW115041   3.100   1.192  12.695 -1.0593 -1.3717  0.1884
 1193SOL    HW215042   3.056   1.332  12.683  3.5468  0.9405 -0.0255
 1194SOL     OW15043   1.894   1.299   7.800  0.5593 -0.3219 -0.5807
 1194SOL    HW115044   1.806   1.262   7.807 -1.3209  3.5058 -3.4186
 1194SOL    HW215045   1.876   1.385   7.838  0.7727  0.5190 -2.3921
 1195SOL     OW15046   2.794   1.033   8.726  0.1689  0.0090 -0.6967
 1195SOL    HW115047   2.825   1.123   8.737 -0.8636  0.3439 -0.5937
 1195SOL    HW215048   2.704   1.048   8.754 -0.0802 -1.2956 -0.8245
 1196SOL     OW15049   4.562   2.662   6.355  0.2596  0.3676 -0.0508
 1196SOL    HW115050   4.640   2.679   6.407 -1.1515  2.4965  1.3545
 1196SOL    HW215051   4.583   2.725   6.286  0.4960 -1.0932 -1.3259
 1197SOL     OW15052   0.125   1.363   5.565  0.2154 -0.0477 -0.0094
 1197SOL    HW115053   0.148   1.454   5.586 -1.5409 -0.2283  2.5885
 1197SOL    HW215054   0.153   1.359   5.473  0.1546 -1.4087  0.0416
 1198SOL     OW15055   1.569   1.571   1.031 -0.1912 -0.3281 -0.1843
 1198SOL    HW115056   1.564   1.541   1.122 -0.8468  2.2770  0.6101
 1198SOL    HW215057   1.648   1.529   0.997 -0.0491 -0.4893  0.3330
 1199SOL     OW15058   4.137   3.689   5.166  0.2902 -0.4838  0.6310
 1199SOL    HW115059   4.115   3.690   5.259  4.1986  2.3817  1.5357
 1199SOL    HW215060   4.205   3.621   5.166 -1.4987 -2.2541 -0.6708
 1200SOL     OW15061   2.913   4.591   9.209  0.1516  0.1791 -0.3590
 1200SOL    HW115062   2.818   4.602   9.199  0.1122 -1.2170 -1.6057
 1200SOL    HW215063   2.953   4.626   9.130 -0.7591 -1.5428 -1.5898
 1201SOL     OW15064   3.264   1.654   7.529  1.0378  0.1374 -0.1553
 1201SOL    HW115065   3.286   1.567   7.495  2.7003  0.0814  1.0726
 1201SOL    HW215066   3.242   1.641   7.621 -0.1767 -0.2539 -0.5039
 1202SOL     OW15067   4.038   0.183   3.769  0.0610 -0.6239 -0.7426
 1202SOL    HW115068   4.029   0.089   3.751 -0.2323 -0.4970 -1.2718
 1202SOL    HW215069   4.092   0.223   3.701  1.0046 -0.6707 -0.0177
 1203SOL     OW15070   4.395   2.866   8.663 -0.4599  0.4547 -0.2264
 1203SOL    HW115071   4.319   2.809   8.668  0.0617 -0.3257 -1.0993
 1203SOL    HW215072   4.365   2.914   8.586 -2.0694  1.1846  0.8730
 1204SOL     OW15073   3.956   4.129   7.451  0.2937 -0.0416  0.4941
 1204SOL    HW115074   4.012   4.148   7.377 -0.8249  3.2051  0.5088
 1204SOL    HW215075   3.953   4.033   7.441 -1.4599 -0.1241  1.7401
 1205SOL     OW15076   3.114   2.553   7.928 -0.1284  0.3753  0.5587
 1205SOL    HW115077   3.055   2.483   7.956 -0.7941  0.6147 -0.2511
 1205SOL    HW215078   3.059   2.593   7.861 -0.1618  0.9752  0.9460
 1206SOL     OW15079   3.495   0.047   0.313  0.1760 -0.0035  0.3806
 1206SOL    HW115080   3.565   0.104   0.282  0.6487  0.1235  1.7054
 1206SOL    HW215081   3.440   0.110   0.359  0.7501  1.8720 -1.4988
 1207SOL     OW15082   1.464   1.696  10.282  0.4408  0.1342 -0.5761
 1207SOL    HW115083   1.535   1.759  10.295  0.7573 -0.0032 -1.6445
 1207SOL    HW215084   1.394   1.761  10.274 -0.9427 -1.3725 -0.7734
 1208SOL     OW15085   0.331   3.290  12.713  0.4594 -0.3820 -1.1991
 1208SOL    HW115086   0.241   3.321  12.708  0.4180 -0.6637 -2.2461
 1208SOL    HW215087   0.374   3.364  12.670 -1.5260  1.4181 -0.0760
 1209SOL     OW15088   1.261   1.718   1.637  0.5210 -0.2983  0.6216
 1209SOL    HW115089   1.190   1.679   1.585  0.5512  0.8374 -0.2840
 1209SOL    HW215090   1.309   1.766   1.569 -2.0671  1.1202 -0.2168
 1210SOL     OW15091   2.449   0.745   3.200 -0.0887 -0.0654  0.0033
 1210SOL    HW115092   2.378   0.737   3.264 -1.1933 -0.2554 -1.2454
 1210SOL    HW215093   2.446   0.660   3.155  1.8074  1.0854 -2.2780
 1211SOL     OW15094   1.052   1.773   0.220  0.3763  0.5341 -0.5264
 1211SOL    HW115095   1.024   1.780   0.129  2.3662  0.6235 -1.1383
 1211SOL    HW215096   0.989   1.705   0.243  1.6113 -1.7268 -3.7711
 1212SOL     OW15097   0.440   3.279   5.762  0.0497 -0.5287  0.1667
 1212SOL    HW115098   0.425   3.367   5.727 -2.0399 -1.2207 -0.6832
 1212SOL    HW215099   0.414   3.225   5.688 -0.5533  0.0039 -0.0076
 1213SOL     OW15100   3.345   2.791   8.508 -0.2214  0.1900 -0.5866
 1213SOL    HW115101   3.253   2.764   8.509  0.0954 -0.8108  1.1165
 1213SOL    HW215102   3.353   2.863   8.569  0.6368 -0.7563  0.4186
 1214SOL     OW15103   3.496   4.176  14.530  0.7219  0.0396  0.2177
 1214SOL    HW115104   3.500   4.270  14.547 -0.3431 -0.2142  1.8577
 1214SOL    HW215105   3.403   4.166  14.507  0.4894  0.3869  1.0153
 1215SOL     OW15106   0.318   0.499   9.245 -0.2089  0.4253  0.4438
 1215SOL    HW115107   0.224   0.484   9.253  0.0826 -2.1397 -1.0755
 1215SOL    HW215108   0.355   0.467   9.326 -2.7145 -0.3745  1.2705
 1216SOL     OW15109   2.378   4.653  16.497 -0.2961 -0.1463 -0.0874
 1216SOL    HW115110   2.470   4.677  16.490 -0.2129 -0.3750  0.2046
 1216SOL    HW215111   2.348   4.674  16.408  2.3644 -0.3685 -1.0392
 1217SOL     OW15112   4.401   1.779   8.044 -0.2880  0.2730  0.0746
 1217SOL    HW115113   4.438   1.789   8.132  0.8916  0.4254 -0.4478
 1217SOL    HW215114   4.372   1.688   8.049  0.6387  0.0361  0.9751
 1218SOL     OW15115   4.155   4.177   7.782 -0.3403 -0.0771  0.0405
 1218SOL    HW115116   4.180   4.266   7.808  1.6813 -1.0092  1.2254
 1218SOL    HW215117   4.071   4.200   7.741 -0.0299 -0.2521 -0.7063
 1219SOL     OW15118   3.527   4.537   8.988  0.0891  0.6079  0.4412
 1219SOL    HW115119   3.455   4.579   8.940  0.5270  1.0516  0.1622
 1219SOL    HW215120   3.476   4.469   9.031  1.9954 -0.8645  0.3758
 1220SOL     OW15121   0.424   1.790   3.459  0.2899  0.4717  0.1593
 1220SOL    HW115122   0.395   1.756   3.544 -1.4411 -0.5122 -0.8213
 1220SOL    HW215123   0.455   1.708   3.423  0.0899  0.5836 -0.2606
 1221SOL     OW15124   0.976   3.682  17.446 -0.1503 -0.4339  0.0605
 1221SOL    HW115125   1.061   3.688  17.403 -0.4345  0.1672 -0.4117
 1221SOL    HW215126   0.914   3.663  17.375  1.6977 -0.3425 -1.5820
 1222SOL     OW15127   0.050   4.150  12.251 -0.6735  0.4690  0.0579
 1222SOL    HW115128   4.680   4.118  12.243 -0.9142  1.3246 -0.6695
 1222SOL    HW215129   0.040   4.228  12.197 -0.5290 -0.1829 -0.9052
 1223SOL     OW15130   0.533   1.535   4.924 -0.1453 -0.4695 -0.0266
 1223SOL    HW115131   0.556   1.443   4.915 -1.4338 -0.6221 -1.7778
 1223SOL    HW215132   0.439   1.536   4.903 -0.4688  1.7608  1.4804
 1224SOL     OW15133   2.864   4.660   8.151  0.0168  0.2024 -0.5859
 1224SOL    HW115134   2.951   4.690   8.177  0.3444 -1.8220  0.6452
 1224SOL    HW215135   2.807   4.717   8.204  0.3037 -0.3543  0.3175
 1225SOL     OW15136   0.268   1.611   0.871 -0.0983  0.0051 -0.1964
 1225SOL    HW115137   0.225   1.669   0.808 -1.2057 -0.9471 -0.3223
 1225SOL    HW215138   0.333   1.574   0.810  1.3607 -2.6522  2.9811
 1226SOL     OW15139   1.752   0.294  14.899  0.1141 -0.1422 -0.6035
 1226SOL    HW115140   1.768   0.378  14.858  1.4125  0.2154  0.6297
 1226SOL    HW215141   1.721   0.238  14.828 -0.4162  0.6795 -1.0145
 1227SOL     OW15142   2.815   0.382  13.131 -0.4259  0.0284  0.5188
 1227SOL    HW115143   2.896   0.412  13.173 -0.8678 -0.8012  1.9751
 1227SOL    HW215144   2.788   0.454  13.075  0.4354 -0.9218 -1.1247
 1228SOL     OW15145   1.599   2.558  16.287 -0.2911  0.5212 -0.1447
 1228SOL    HW115146   1.650   2.634  16.258 -0.2404  0.2003 -0.9220
 1228SOL    HW215147   1.511   2.588  16.267 -0.6050  0.7267  1.5864
 1229SOL     OW15148   0.141   1.338   6.066 -0.0876  0.5463 -0.0093
 1229SOL    HW115149   0.202   1.407   6.091 -0.8741  1.1503  0.2520
 1229SOL    HW215150   0.110   1.325   6.155  0.5305 -1.6469 -0.1152
 1230SOL     OW15151   0.101   1.980   2.651  0.0130 -0.1798 -0.1769
 1230SOL    HW115152   0.162   2.033   2.600 -1.5498  2.2625  0.5207
 1230SOL    HW215153   0.083   2.042   2.721 -2.4904 -1.0644 -0.0489
 1231SOL     OW15154   1.557   3.080   4.345 -0.5279 -0.4267 -0.6697
 1231SOL    HW115155   1.494   3.096   4.275 -1.3633 -1.1790 -0.0940
 1231SOL    HW215156   1.528   3.136   4.417  3.6961  0.3893  0.3805
 1232SOL     OW15157   2.239   0.093   8.617  0.5466 -0.8662 -0.0339
 1232SOL    HW115158   2.151   0.057   8.632  0.8705 -2.0343 -1.0085
 1232SOL    HW215159   2.288   0.028   8.666  0.3875 -1.3960 -0.5775
 1233SOL     OW15160   2.265   2.195  17.535 -0.1517  0.8148 -0.2341
 1233SOL    HW115161   2.324   2.191  17.610  2.2375  3.0292 -2.0104
 1233SOL    HW215162   2.328   2.212  17.466  2.2728  1.4358  2.1492
 1234SOL     OW15163   1.369   4.630   8.697 -0.3012 -0.4128  0.0387
 1234SOL    HW115164   1.450   4.583   8.675  0.8611  0.9252  1.4277
 1234SOL    HW215165   1.338   4.579   8.772 -0.8882  0.5086  0.4161
 1235SOL     OW15166   1.834   4.229   7.820  0.2132  0.5413  0.3744
 1235SOL    HW115167   1.895   4.298   7.793  1.1534 -0.1945  0.6546
 1235SOL    HW215168   1.854   4.222   7.913  0.2314  1.7489  0.4580
 1236SOL     OW15169   3.161   3.847  13.021  0.7201 -0.4082 -0.2694
 1236SOL    HW115170   3.193   3.769  12.976  0.1905  0.1831 -1.6707
 1236SOL    HW215171   3.075   3.866  12.984  1.2796  0.5560 -1.0902
 1237SOL     OW15172   2.131   1.193   0.142  0.2432  0.3492  0.0409
 1237SOL    HW115173   2.044   1.160   0.120  1.3430 -0.6849 -2.6050
 1237SOL    HW215174   2.182   1.176   0.063  0.9903  1.4725  0.2757
 1238SOL     OW15175   0.926   3.441   3.673 -0.0857  0.1815  0.2083
 1238SOL    HW115176   0.835   3.428   3.645 -0.4196  0.3151  1.2407
 1238SOL    HW215177   0.948   3.357   3.714  1.5934  0.4413 -0.1928
 1239SOL     OW15178   4.136   2.148  17.207  0.1262 -0.3075 -0.9417
 1239SOL    HW115179   4.074   2.077  17.193  1.6228 -2.3007  2.4551
 1239SOL    HW215180   4.113   2.214  17.142  0.8311 -0.7796 -1.6697
 1240SOL     OW15181   4.077   1.117   5.154  0.3300 -0.1530  0.0018
 1240SOL    HW115182   4.150   1.148   5.099 -1.5488 -0.0363 -2.4353
 1240SOL    HW215183   4.010   1.100   5.088 -0.2528 -2.1287  1.1001
 1241SOL     OW15184   4.482   2.102  16.815 -0.2267  0.0849 -0.5594
 1241SOL    HW115185   4.419   2.156  16.863 -2.0152 -1.9831 -0.5831
 1241SOL    HW215186   4.534   2.171  16.774  0.2882  0.5590  0.8799
 1242SOL     OW15187   1.279   0.238  10.543 -0.4878 -0.2861 -0.5364
 1242SOL    HW115188   1.194   0.281  10.544 -0.3963 -0.0763 -1.9761
 1242SOL    HW215189   1.333   0.317  10.551 -0.0865 -0.5962 -0.1270
 1243SOL     OW15190   4.497   3.472   8.189 -0.1216  0.0125  0.6439
 1243SOL    HW115191   4.408   3.490   8.217 -1.1155 -0.8664 -1.8678
 1243SOL    HW215192   4.501   3.378   8.206 -4.0930  0.3992  3.4576
 1244SOL     OW15193   2.823   1.182   8.330  0.3697  0.6143  0.1886
 1244SOL    HW115194   2.809   1.160   8.238 -1.6229  1.3002  0.3338
 1244SOL    HW215195   2.735   1.212   8.354  0.6560  1.2815  0.4185
 1245SOL     OW15196   2.120   0.437   3.811  0.1785  0.0553 -0.6054
 1245SOL    HW115197   2.215   0.437   3.826  0.0769  1.2939  0.0816
 1245SOL    HW215198   2.134   0.410   3.720  3.0167 -2.7208  0.6546
 1246SOL     OW15199   1.671   4.349   0.481 -0.1474  0.2528 -0.2895
 1246SOL    HW115200   1.653   4.300   0.401 -2.5752 -0.7250  0.8925
 1246SOL    HW215201   1.629   4.428   0.445 -1.2691 -0.7578 -1.1744
 1247SOL     OW15202   3.710   3.627   2.908  0.4513  0.0471  0.0659
 1247SOL    HW115203   3.665   3.545   2.886 -2.5727  1.6622  0.2517
 1247SOL    HW215204   3.739   3.641   2.818  0.2390  0.3052  0.0396
 1248SOL     OW15205   0.634   4.426   4.458 -0.0893  0.0618  0.2484
 1248SOL    HW115206   0.541   4.432   4.435  0.1585  0.0877 -0.7673
 1248SOL    HW215207   0.617   4.414   4.551  1.6152  1.8056  0.8047
 1249SOL     OW15208   1.035   0.799  10.690 -0.2647  0.1158 -0.2131
 1249SOL    HW115209   0.967   0.854  10.651 -0.0624  0.1564 -0.4997
 1249SOL    HW215210   0.995   0.712  10.692 -1.8288  0.8598  1.8360
 1250SOL     OW15211   1.771   0.202   9.754  0.0923 -0.0286 -0.4735
 1250SOL    HW115212   1.738   0.143   9.822  1.2242 -2.4350 -1.9882
 1250SOL    HW215213   1.687   0.236   9.724  0.3216  0.5275 -0.4851
 1251SOL     OW15214   0.354   3.513   2.051 -0.0307 -0.2443 -0.2241
 1251SOL    HW115215   0.309   3.502   1.968  4.4902 -0.0404 -2.7161
 1251SOL    HW215216   0.293   3.461   2.104 -1.2459 -0.5919 -1.9702
 1252SOL     OW15217   0.030   4.451   5.337  0.5079 -0.1436 -0.1303
 1252SOL    HW115218   0.089   4.436   5.411  0.3287 -0.4934 -0.0583
 1252SOL    HW215219   4.667   4.445   5.384  1.5536 -0.8404  1.6588
 1253SOL     OW15220   1.005   0.882   5.177 -0.0621  0.3035  0.0219
 1253SOL    HW115221   1.054   0.879   5.260  0.6860 -0.6103 -0.4485
 1253SOL    HW215222   1.044   0.965   5.148 -0.1766  0.2573 -0.2565
 1254SOL     OW15223   4.139   3.164   5.449  0.3462  0.0547  0.3108
 1254SOL    HW115224   4.127   3.158   5.544  2.4361  0.5027  0.6009
 1254SOL    HW215225   4.191   3.088   5.421 -1.7528 -0.8805 -1.0844
 1255SOL     OW15226   2.435   4.281  11.307 -0.4445  0.4836  0.2255
 1255SOL    HW115227   2.402   4.192  11.299  0.1266  0.2132  0.8645
 1255SOL    HW215228   2.519   4.263  11.349  0.9811 -0.8202 -3.1993
 1256SOL     OW15229   4.207   0.051   3.148  0.2668 -0.3375 -0.0256
 1256SOL    HW115230   4.258   4.698   3.184 -1.5841 -0.7277  1.7872
 1256SOL    HW215231   4.117   0.029   3.170 -0.1293  1.6436  0.3012
 1257SOL     OW15232   1.216   0.670   8.762  0.4867 -0.3363 -0.0663
 1257SOL    HW115233   1.222   0.578   8.788  0.5718  0.0498  1.3269
 1257SOL    HW215234   1.122   0.683   8.775  0.4619  0.3449 -0.9727
 1258SOL     OW15235   2.913   3.339   6.573  0.0929  0.3344  0.6874
 1258SOL    HW115236   2.885   3.431   6.574 -0.1942  0.2468  0.6546
 1258SOL    HW215237   2.833   3.293   6.597  0.5283 -1.0098 -0.4235
 1259SOL     OW15238   3.170   3.893   4.555 -0.4064 -0.1501  0.2059
 1259SOL    HW115239   3.205   3.833   4.621 -0.7144  0.6719  1.1109
 1259SOL    HW215240   3.114   3.836   4.502 -1.0420 -0.3508  1.0908
 1260SOL     OW15241   3.506   2.196  11.077 -0.7332 -0.2805 -0.2618
 1260SOL    HW115242   3.540   2.206  10.989  1.5070  1.1635  0.7581
 1260SOL    HW215243   3.414   2.198  11.051 -1.4211 -0.8224  2.0556
 1261SOL     OW15244   4.398   1.296   6.143 -0.2740  0.2888 -0.1659
 1261SOL    HW115245   4.326   1.255   6.096  0.8621  0.1881 -1.8287
 1261SOL    HW215246   4.477   1.253   6.110 -0.2974 -1.3762  1.9189
 1262SOL     OW15247   1.867   0.968   7.744 -0.9503 -0.4130 -0.2782
 1262SOL    HW115248   1.856   0.987   7.650 -1.1474  1.8558  0.2171
 1262SOL    HW215249   1.925   0.892   7.748  1.1089  1.1012 -1.1993
 1263SOL     OW15250   1.832   0.528   9.992 -0.7548 -0.4046  0.3702
 1263SOL    HW115251   1.759   0.547   9.933 -0.3455  1.1005  0.3372
 1263SOL    HW215252   1.792   0.506  10.076 -1.1055 -0.4058  0.2034
 1264SOL     OW15253   0.519   0.816   6.262  0.2978 -0.0613 -0.3992
 1264SOL    HW115254   0.587   0.773   6.210  1.0000 -1.1089  1.3816
 1264SOL    HW215255   0.572   0.831   6.341 -0.0161  1.2101 -0.4256
 1265SOL     OW15256   1.253   1.169   7.952  0.3466 -0.5889  0.1759
 1265SOL    HW115257   1.318   1.125   8.007  0.7634 -1.2090 -0.8148
 1265SOL    HW215258   1.175   1.119   7.975  0.5743  0.0761  2.4014
 1266SOL     OW15259   4.300   1.265  11.682 -0.1315  0.0486 -0.4128
 1266SOL    HW115260   4.219   1.279  11.732 -0.1461 -0.1062 -0.3936
 1266SOL    HW215261   4.363   1.263  11.753 -1.8968  1.8757  1.2074
 1267SOL     OW15262   3.264   4.655   7.492 -0.0317 -0.5728  0.4516
 1267SOL    HW115263   3.312   4.708   7.429 -0.2335  0.3411  1.0657
 1267SOL    HW215264   3.210   4.597   7.439 -0.3618 -0.7057  0.9335
 1268SOL     OW15265   1.754   4.216   0.984  0.6213 -0.1488 -0.7614
 1268SOL    HW115266   1.716   4.217   0.896  1.0249  2.0354 -0.9253
 1268SOL    HW215267   1.697   4.151   1.024  0.4598 -0.0155 -0.7716
 1269SOL     OW15268   3.621   1.358   6.000  0.4806  0.2755 -0.2121
 1269SOL    HW115269   3.696   1.313   5.961 -0.5925 -1.8941  0.2879
 1269SOL    HW215270   3.660   1.427   6.054  0.9205  1.2205 -1.7311
 1270SOL     OW15271   4.000   1.939   3.159 -1.2833  0.1263 -0.3042
 1270SOL    HW115272   3.909   1.924   3.183 -1.8733  2.5468 -0.9463
 1270SOL    HW215273   3.996   1.911   3.067  2.3980 -1.3413 -0.0437
 1271SOL     OW15274   3.038   2.454  16.568  0.2017  0.4359 -0.0512
 1271SOL    HW115275   3.027   2.408  16.485 -2.1867 -0.6513  0.8549
 1271SOL    HW215276   3.082   2.388  16.622 -0.2561  1.4478  1.5583
 1272SOL     OW15277   4.376   2.125   5.882 -0.1859 -0.3479  0.0390
 1272SOL    HW115278   4.392   2.154   5.971 -1.2666 -0.2727  0.2102
 1272SOL    HW215279   4.300   2.180   5.861  1.0870  0.9952 -1.1178
 1273SOL     OW15280   2.706   1.936   2.922  0.3716 -0.0586 -0.2635
 1273SOL    HW115281   2.669   1.962   2.838 -0.7230  0.6202  0.4348
 1273SOL    HW215282   2.755   2.018   2.927 -2.0187  1.4314 -1.1834
 1274SOL     OW15283   1.798   0.951  11.663  0.2558 -0.1529 -0.1077
 1274SOL    HW115284   1.850   0.895  11.720 -1.8497 -1.8197  0.1675
 1274SOL    HW215285   1.820   0.906  11.581 -1.4507  0.6373 -0.9911
 1275SOL     OW15286   3.315   2.056   4.912  0.2482 -0.1112 -0.0711
 1275SOL    HW115287   3.285   2.147   4.922  2.0115  0.4752 -0.1325
 1275SOL    HW215288   3.394   2.058   4.965  0.6543  0.7479 -0.6910
 1276SOL     OW15289   4.307   1.716   0.532  0.8165  0.5898 -0.0931
 1276SOL    HW115290   4.349   1.800   0.514  1.7992  0.3140  0.9119
 1276SOL    HW215291   4.259   1.721   0.449  1.8337  0.2998 -0.7022
 1277SOL     OW15292   4.502   1.153   3.581  0.3192 -0.3591 -0.3588
 1277SOL    HW115293   4.552   1.193   3.510  1.5467  0.6350  1.0787
 1277SOL    HW215294   4.431   1.216   3.597  0.1656  0.1505 -2.9759
 1278SOL     OW15295   1.118   0.850   7.358  0.4682  0.3522 -0.3300
 1278SOL    HW115296   1.144   0.871   7.268 -0.1846  0.3337 -0.5242
 1278SOL    HW215297   1.065   0.773   7.337 -0.3761  0.8704 -0.1367
 1279SOL     OW15298   2.333   3.393   8.055 -0.2202  0.2134  0.2248
 1279SOL    HW115299   2.278   3.465   8.026  0.5076  0.5494 -0.3243
 1279SOL    HW215300   2.333   3.406   8.150  1.3990  1.7728  0.0122
 1280SOL     OW15301   3.704   1.175   2.538 -0.4563  0.1675  0.5275
 1280SOL    HW115302   3.657   1.122   2.474 -0.0593 -0.7047  0.9598
 1280SOL    HW215303   3.710   1.264   2.504  1.2064 -0.1838 -0.0740
 1281SOL     OW15304   2.237   3.138   2.590  0.0203 -0.5042 -0.0419
 1281SOL    HW115305   2.256   3.228   2.562  1.8198 -1.7766 -2.8733
 1281SOL    HW215306   2.322   3.109   2.622 -0.5176 -4.0726 -1.9338
 1282SOL     OW15307   1.059   1.138  12.161  0.1108  0.5988  0.4194
 1282SOL    HW115308   1.109   1.082  12.103 -2.1946 -0.2942 -0.6971
 1282SOL    HW215309   1.119   1.212  12.170  0.3045  0.3580  1.1322
 1283SOL     OW15310   0.614   0.674  13.814  0.1647 -0.7219 -0.3050
 1283SOL    HW115311   0.630   0.758  13.855 -0.5157 -0.6203 -0.2411
 1283SOL    HW215312   0.524   0.683  13.780 -0.6175  1.8928  2.5625
 1284SOL     OW15313   2.697   3.092   9.316  0.1225  0.1055  0.7521
 1284SOL    HW115314   2.671   3.170   9.267  2.7756  1.2654  1.1554
 1284SOL    HW215315   2.621   3.035   9.306  0.1541  0.6566 -2.6209
 1285SOL     OW15316   2.616   2.180   8.508 -0.8725 -0.1650  0.3731
 1285SOL    HW115317   2.525   2.155   8.525 -0.8042 -0.7808 -0.1783
 1285SOL    HW215318   2.598   2.262   8.463  2.6743  0.1660 -0.4046
 1286SOL     OW15319   0.364   3.676   2.655  0.0003  0.0257 -0.0340
 1286SOL    HW115320   0.416   3.749   2.688 -0.3266  1.2483 -2.2174
 1286SOL    HW215321   0.271   3.694   2.665  0.5184  1.4606  2.1392
 1287SOL     OW15322   2.910   2.440   8.632 -0.1926 -0.6419  0.7982
 1287SOL    HW115323   2.858   2.465   8.709 -1.1193  1.3581 -0.4728
 1287SOL    HW215324   2.997   2.445   8.672 -0.3013 -0.7371  1.0425
 1288SOL     OW15325   2.862   1.514   8.694 -0.2476  0.4397 -0.2514
 1288SOL    HW115326   2.778   1.490   8.732 -0.7224  1.1691 -0.8544
 1288SOL    HW215327   2.874   1.435   8.641 -2.6532  0.1840 -0.3870
 1289SOL     OW15328   0.566   0.030   7.642  0.1506 -0.3689  0.1967
 1289SOL    HW115329   0.477   0.041   7.608 -0.3322 -1.0127  1.2812
 1289SOL    HW215330   0.569   0.116   7.682  1.6218 -1.0388  1.5218
 1290SOL     OW15331   3.393   0.959  12.757 -0.1611  0.5989 -0.3201
 1290SOL    HW115332   3.456   1.003  12.814 -2.2882  0.1741  2.3617
 1290SOL    HW215333   3.313   0.944  12.807  0.1722 -2.6402 -0.7695
 1291SOL     OW15334   4.356   2.098  10.623 -0.4915 -0.2114 -0.0275
 1291SOL    HW115335   4.360   2.192  10.606  0.8363 -0.3755 -0.6167
 1291SOL    HW215336   4.261   2.089  10.625 -0.6451  1.9751  2.6153
 1292SOL     OW15337   0.292   3.679   7.134 -0.6198 -0.5937  0.2993
 1292SOL    HW115338   0.354   3.622   7.179  0.3913  1.5348  1.6494
 1292SOL    HW215339   0.303   3.756   7.190  1.0228  0.0869 -0.9884
 1293SOL     OW15340   2.860   1.967   4.147  0.3813 -0.0380 -0.4846
 1293SOL    HW115341   2.948   1.931   4.133  0.5512  0.7470 -1.4577
 1293SOL    HW215342   2.858   1.986   4.241  1.5725 -1.1947 -0.2198
 1294SOL     OW15343   3.192   1.628   3.055 -0.4866 -0.6238  0.0183
 1294SOL    HW115344   3.279   1.666   3.068  0.6401 -2.8962 -0.9679
 1294SOL    HW215345   3.214   1.555   2.997 -1.1874 -1.7728  1.1771
 1295SOL     OW15346   0.649   0.446   9.731  0.2665  0.4267 -0.1142
 1295SOL    HW115347   0.620   0.531   9.697  1.4667  0.5649 -0.7940
 1295SOL    HW215348   0.565   0.429   9.773  0.5885  0.9803  0.7642
 1296SOL     OW15349   0.261   4.618   7.545 -0.7541  0.3633 -0.0584
 1296SOL    HW115350   0.286   4.702   7.584  0.4771 -1.0075  2.1084
 1296SOL    HW215351   0.228   4.660   7.465 -0.7347 -0.5468 -0.5387
 1297SOL     OW15352   3.756   4.091   0.023  0.0542  0.3759  0.5616
 1297SOL    HW115353   3.766   4.000   0.050  0.1194 -0.0080 -0.7683
 1297SOL    HW215354   3.741   4.128   0.110  0.5842 -0.1989  0.8925
 1298SOL     OW15355   0.480   3.051  14.511 -0.1848  0.1952 -0.0007
 1298SOL    HW115356   0.555   3.058  14.569 -1.2606 -0.5669  1.4857
 1298SOL    HW215357   0.420   3.108  14.559  1.7792  0.8265  1.6788
 1299SOL     OW15358   2.815   0.431  12.438 -0.3159  0.3279 -0.4193
 1299SOL    HW115359   2.793   0.479  12.518  1.6079  0.5825 -0.0409
 1299SOL    HW215360   2.751   0.477  12.383 -1.4711 -1.2061 -0.3567
 1300SOL     OW15361   1.878   0.587   4.696  0.0861  0.2970  0.5585
 1300SOL    HW115362   1.868   0.665   4.642 -0.3758  1.1307  1.8388
 1300SOL    HW215363   1.916   0.630   4.773  2.9592  0.5166 -0.9762
 1301SOL     OW15364   0.006   1.954   3.438  0.3079  0.2750 -0.3342
 1301SOL    HW115365   4.697   1.963   3.347 -0.1919  0.2491 -0.1770
 1301SOL    HW215366   0.099   1.976   3.427  0.5988 -0.9928 -0.3171
 1302SOL     OW15367   3.609   3.887   4.709  0.2298  0.1091  0.4330
 1302SOL    HW115368   3.536   3.920   4.658 -2.4768 -1.7352  3.1065
 1302SOL    HW215369   3.575   3.901   4.798 -0.2157  1.1136  0.1071
 1303SOL     OW15370   0.791   4.445  13.489  0.1317  0.0517 -0.0914
 1303SOL    HW115371   0.761   4.449  13.580  0.6659 -0.7726  0.1194
 1303SOL    HW215372   0.737   4.379  13.445  0.3523  0.0786 -0.4017
 1304SOL     OW15373   3.434   1.142   5.982  0.3224 -0.4640 -0.7657
 1304SOL    HW115374   3.509   1.096   6.021  1.0563  0.2213 -1.3769
 1304SOL    HW215375   3.467   1.231   5.994 -2.7685  0.8530 -2.0090
 1305SOL     OW15376   1.798   2.416   2.341  0.1988 -0.1707 -0.4884
 1305SOL    HW115377   1.834   2.349   2.398 -0.6129 -0.4297 -0.2852
 1305SOL    HW215378   1.854   2.410   2.264  1.1478 -3.0889  0.4436
 1306SOL     OW15379   4.247   0.988  13.006 -0.0361  0.6211  0.1670
 1306SOL    HW115380   4.235   1.002  12.913  1.5600 -1.3112 -0.3286
 1306SOL    HW215381   4.183   1.054  13.035  1.1793  1.1078  1.7717
 1307SOL     OW15382   0.019   0.333   7.404  0.6180 -0.3250 -0.5805
 1307SOL    HW115383   0.044   0.395   7.336 -0.7155  0.8405 -0.0339
 1307SOL    HW215384   4.648   0.364   7.406  0.6979 -0.2507  2.2205
 1308SOL     OW15385   0.787   1.252   3.485  0.0362  0.0697 -0.3126
 1308SOL    HW115386   0.759   1.250   3.393  0.3920 -0.9422 -0.4002
 1308SOL    HW215387   0.708   1.291   3.520 -0.6899 -2.1165  0.4313
 1309SOL     OW15388   1.239   2.485   9.061  0.1398 -0.1089  0.0687
 1309SOL    HW115389   1.173   2.436   9.110 -0.6465  0.0526 -0.8327
 1309SOL    HW215390   1.179   2.557   9.039  0.4189 -0.9695 -3.5631
 1310SOL     OW15391   4.026   0.399   1.617  0.2874  0.4055  0.3951
 1310SOL    HW115392   3.953   0.337   1.610  1.5043 -0.9598 -0.0468
 1310SOL    HW215393   4.103   0.343   1.621  0.8667  1.2211  0.5822
 1311SOL     OW15394   4.350   0.259  13.973 -0.1419  0.1159  0.1105
 1311SOL    HW115395   4.342   0.308  13.891  3.4124  3.1399  1.5603
 1311SOL    HW215396   4.257   0.272  13.990 -0.6387 -3.7058  0.1199
 1312SOL     OW15397   3.319   4.668   6.421  0.1223 -0.2083  0.1729
 1312SOL    HW115398   3.285   4.698   6.337  0.0574 -4.3907 -1.2411
 1312SOL    HW215399   3.401   4.631   6.388  0.1345 -1.3860  1.5105
 1313SOL     OW15400   1.622   1.895  14.055 -0.3224  0.1625 -0.1132
 1313SOL    HW115401   1.614   1.872  14.147 -1.2112  2.3602  0.3388
 1313SOL    HW215402   1.709   1.862  14.029 -0.9388 -1.8033  0.3248
 1314SOL     OW15403   2.731   3.684  12.493  0.2227  0.0451  0.0211
 1314SOL    HW115404   2.730   3.596  12.531 -0.7938  1.2136  2.6252
 1314SOL    HW215405   2.679   3.663  12.415  1.8924 -1.0140 -0.8060
 1315SOL     OW15406   4.718   2.006  15.830 -0.5521 -0.1053  0.4095
 1315SOL    HW115407   4.640   2.044  15.871 -1.0568 -1.1863  0.4473
 1315SOL    HW215408   0.041   2.091  15.819 -0.4592 -0.4082 -1.5529
 1316SOL     OW15409   1.578   2.508  13.758  0.0187 -0.1353  0.0600
 1316SOL    HW115410   1.637   2.440  13.791 -1.5228 -0.1939  2.7060
 1316SOL    HW215411   1.531   2.533  13.838  1.1151 -0.6914  0.8945
 1317SOL     OW15412   3.354   1.418   3.278  0.0168  0.4493 -0.1183
 1317SOL    HW115413   3.379   1.397   3.368 -0.1951  0.0465 -0.1555
 1317SOL    HW215414   3.313   1.337   3.249 -1.3939  1.2504 -0.3904
 1318SOL     OW15415   3.478   3.300   4.547 -0.2000 -0.4585  0.6500
 1318SOL    HW115416   3.552   3.360   4.537 -1.2495  0.6425 -0.4544
 1318SOL    HW215417   3.513   3.221   4.506 -1.5187 -1.2217  0.9874
 1319SOL     OW15418   2.351   2.036   8.450 -0.5286 -0.8525 -0.4410
 1319SOL    HW115419   2.387   1.960   8.496  0.8309  1.0304  1.6056
 1319SOL    HW215420   2.302   2.094   8.509  0.0548  1.2424 -2.0386
 1320SOL     OW15421   2.706   0.516   5.366 -0.0100  1.0223  0.1090
 1320SOL    HW115422   2.669   0.509   5.278 -1.2309  1.7437  0.5638
 1320SOL    HW215423   2.774   0.582   5.356  0.2493  0.8895  1.0214
 1321SOL     OW15424   3.173   1.131  12.539 -0.2764 -0.2000 -0.1353
 1321SOL    HW115425   3.199   1.206  12.485 -2.1698 -0.4992 -1.4563
 1321SOL    HW215426   3.252   1.124  12.593 -0.4112  0.9111  0.2053
 1322SOL     OW15427   1.046   2.653   0.100  0.7957 -0.0603  0.0893
 1322SOL    HW115428   1.127   2.604   0.118  0.8493  0.2742  0.7395
 1322SOL    HW215429   1.046   2.720   0.168  2.2956  0.2430 -0.2050
 1323SOL     OW15430   1.522   3.771   7.285 -0.0344 -0.2868 -0.1189
 1323SOL    HW115431   1.490   3.739   7.200  0.1764  2.4082 -1.1996
 1323SOL    HW215432   1.558   3.856   7.259 -0.7787 -0.0305 -0.2900
 1324SOL     OW15433   1.365   4.210   7.915 -0.0673  0.3424 -0.4215
 1324SOL    HW115434   1.322   4.177   7.836 -1.5267  2.3636 -0.4680
 1324SOL    HW215435   1.417   4.134   7.941 -0.7349  0.7751  2.1864
 1325SOL     OW15436   2.124   3.775   7.482  0.0725  0.2270 -0.5595
 1325SOL    HW115437   2.211   3.773   7.521 -0.2958 -0.4016  0.2259
 1325SOL    HW215438   2.074   3.723   7.545 -0.0959  0.8051 -0.2174
 1326SOL     OW15439   3.273   3.562   2.329  0.5399  0.3028 -0.0816
 1326SOL    HW115440   3.197   3.558   2.271 -0.6970 -0.9715  1.6333
 1326SOL    HW215441   3.331   3.595   2.260  0.4414  1.0755  0.2068
 1327SOL     OW15442   0.613   4.518   4.145 -0.0894  0.0572  0.1453
 1327SOL    HW115443   0.659   4.602   4.134  1.2096 -0.7046 -0.2759
 1327SOL    HW215444   0.641   4.489   4.232 -0.2870 -0.0858  0.1586
 1328SOL     OW15445   3.619   2.925   6.831  0.0285  0.4096 -0.3181
 1328SOL    HW115446   3.600   2.939   6.739  2.0983  1.2863 -0.6110
 1328SOL    HW215447   3.641   2.832   6.824  0.1976  0.3881  0.4626
 1329SOL     OW15448   2.299   2.699  15.342 -0.4480  0.3142 -0.2000
 1329SOL    HW115449   2.275   2.612  15.373  0.5516  0.0431 -0.1989
 1329SOL    HW215450   2.383   2.716  15.384 -0.7780 -2.6159  1.6471
 1330SOL     OW15451   1.544   3.409  15.260  0.2880  0.0068  0.1982
 1330SOL    HW115452   1.583   3.351  15.195 -0.8107  0.1129 -0.5392
 1330SOL    HW215453   1.611   3.477  15.271  1.6866 -1.0331 -2.0073
 1331SOL     OW15454   2.110   2.441  15.703  0.0284  0.4119  0.6882
 1331SOL    HW115455   2.080   2.495  15.777 -1.7072 -2.6525  2.2458
 1331SOL    HW215456   2.043   2.471  15.641 -0.6877 -1.1758  0.6934
 1332SOL     OW15457   0.708   0.636   7.248  0.0095  0.5883  0.6427
 1332SOL    HW115458   0.761   0.564   7.214 -1.5876 -0.5722  0.5596
 1332SOL    HW215459   0.620   0.624   7.210  0.5467 -0.8026 -0.1730
 1333SOL     OW15460   1.328   1.441   8.322  0.2427 -0.1318 -0.0910
 1333SOL    HW115461   1.319   1.480   8.235  0.6513  1.5924  0.6385
 1333SOL    HW215462   1.349   1.523   8.367  0.5843  0.1793 -0.8180
 1334SOL     OW15463   4.320   2.596   3.374  0.0143 -0.4238  0.1583
 1334SOL    HW115464   4.261   2.646   3.431 -0.2075 -1.1042  0.5337
 1334SOL    HW215465   4.291   2.632   3.291  0.6830  0.8717  0.4841
 1335SOL     OW15466   3.607   0.911  12.337  0.5451 -0.6791  0.2354
 1335SOL    HW115467   3.575   0.979  12.278 -1.0052 -1.1047  0.5792
 1335SOL    HW215468   3.702   0.918  12.334  0.4463  0.4174 -0.5655
 1336SOL     OW15469   2.776   4.542   5.280  0.0563  0.4464 -0.4713
 1336SOL    HW115470   2.785   4.559   5.374 -2.0583 -1.6829  0.1040
 1336SOL    HW215471   2.709   4.474   5.287 -1.5255  2.0213 -0.0249
 1337SOL     OW15472   2.186   2.024   0.312  1.2188 -0.2661 -0.4017
 1337SOL    HW115473   2.214   2.061   0.395 -1.3268 -0.0769  0.3766
 1337SOL    HW215474   2.249   2.073   0.257 -0.5952  2.3448 -0.1727
 1338SOL     OW15475   1.927   0.356   3.096  0.6708 -0.3879  0.2599
 1338SOL    HW115476   1.910   0.316   3.181 -0.3714 -2.4519 -0.9180
 1338SOL    HW215477   1.870   0.304   3.039 -0.6590 -1.4798  2.5835
 1339SOL     OW15478   0.166   3.666   3.723 -0.2810  0.1469  0.1230
 1339SOL    HW115479   0.158   3.606   3.797 -1.1627 -0.9112 -0.8346
 1339SOL    HW215480   0.083   3.709   3.744  0.7984  2.7685 -1.0104
 1340SOL     OW15481   2.151   4.102  11.813 -0.4662 -0.0632  0.5173
 1340SOL    HW115482   2.231   4.153  11.827 -0.2528 -0.4085  0.5683
 1340SOL    HW215483   2.189   4.014  11.815  2.1568  1.0028 -1.5503
 1341SOL     OW15484   4.683   0.441   4.437 -0.1408  0.1352  0.0000
 1341SOL    HW115485   4.639   0.429   4.522  0.5233  2.1223  0.6315
 1341SOL    HW215486   4.622   0.505   4.401 -1.9806 -2.2976 -1.1617
 1342SOL     OW15487   1.364   2.507   9.503 -0.0491 -0.4691 -0.2638
 1342SOL    HW115488   1.346   2.595   9.470  0.2761 -0.6942 -1.0261
 1342SOL    HW215489   1.405   2.463   9.429  0.5649 -1.6323  0.7532
 1343SOL     OW15490   3.833   2.801   2.933  0.1769  0.0909 -0.5774
 1343SOL    HW115491   3.739   2.806   2.915 -0.3692 -0.6640  1.9608
 1343SOL    HW215492   3.839   2.709   2.959  2.5640  0.2473 -0.5189
 1344SOL     OW15493   1.390   2.335   3.009  0.2761 -1.0933  0.1785
 1344SOL    HW115494   1.477   2.336   2.969  0.1358 -0.4056 -0.1117
 1344SOL    HW215495   1.339   2.395   2.954  3.1087  1.5204  0.3510
 1345SOL     OW15496   1.953   2.832   3.134 -0.5876  0.0194  0.3243
 1345SOL    HW115497   1.938   2.760   3.073 -0.9129  0.1771  0.2212
 1345SOL    HW215498   2.027   2.799   3.184 -0.9461 -0.8301  0.2947
 1346SOL     OW15499   1.828   1.872  15.721  0.2805  0.1180  0.1338
 1346SOL    HW115500   1.829   1.778  15.706  0.2567  0.4386 -1.8154
 1346SOL    HW215501   1.856   1.871  15.813 -0.7579 -0.8524  0.4389
 1347SOL     OW15502   0.993   4.075   6.290 -0.0479  0.4144  0.1110
 1347SOL    HW115503   1.023   3.994   6.249 -0.8629  0.3159 -0.2727
 1347SOL    HW215504   1.072   4.130   6.287 -1.0385  1.7659 -1.0556
 1348SOL     OW15505   4.489   2.500   7.853  0.3671  0.0694  0.6451
 1348SOL    HW115506   4.534   2.584   7.860 -1.6109  1.4114 -2.3004
 1348SOL    HW215507   4.505   2.459   7.937  2.0645  0.2979  0.4286
 1349SOL     OW15508   2.759   2.481   7.773  0.4002  0.2220  0.4809
 1349SOL    HW115509   2.778   2.509   7.862 -1.9253 -0.5597  1.2153
 1349SOL    HW215510   2.763   2.386   7.782 -0.8599  0.0560 -0.7667
 1350SOL     OW15511   2.843   0.062   4.750 -0.1600  0.2697  0.0940
 1350SOL    HW115512   2.817   4.712   4.809  1.6626  0.4290  1.0638
 1350SOL    HW215513   2.795   0.034   4.672 -0.3603 -2.0500  1.0345
 1351SOL     OW15514   1.389   4.005   4.456  0.1095  0.0314 -0.2449
 1351SOL    HW115515   1.404   4.100   4.463 -1.4803  0.1304  1.8126
 1351SOL    HW215516   1.477   3.975   4.475  1.5223  3.3604 -1.4895
 1352SOL     OW15517   2.213   3.650   8.255 -0.1158  0.0793  0.2811
 1352SOL    HW115518   2.139   3.607   8.299 -0.3447 -0.1040 -0.2773
 1352SOL    HW215519   2.177   3.635   8.168  0.3895  1.2339 -0.1164
 1353SOL     OW15520   1.731   3.226   5.147  0.0584 -0.5589 -0.3025
 1353SOL    HW115521   1.755   3.133   5.144 -1.9226 -1.0595 -0.3353
 1353SOL    HW215522   1.712   3.244   5.055  2.3506  0.7774 -0.5184
 1354SOL     OW15523   2.680   4.490  12.838 -0.4198 -0.2897  0.4597
 1354SOL    HW115524   2.694   4.456  12.749 -1.0708  0.0974  0.2031
 1354SOL    HW215525   2.757   4.546  12.828 -0.5342 -0.2896 -0.4063
 1355SOL     OW15526   0.063   2.929   3.956  0.0113 -0.0690  0.2700
 1355SOL    HW115527   0.097   2.882   3.880 -1.6260 -3.8713  1.8684
 1355SOL    HW215528   0.136   2.914   4.015  1.4746  1.9175 -1.0630
 1356SOL     OW15529   3.210   4.488  17.258  0.5721 -0.0760  0.1481
 1356SOL    HW115530   3.120   4.468  17.282  1.3723  1.1820  4.2348
 1356SOL    HW215531   3.227   4.571  17.303 -4.9457  0.9439  0.3149
 1357SOL     OW15532   0.365   2.646   1.833  0.0048  0.0954 -0.1120
 1357SOL    HW115533   0.322   2.592   1.767  1.8530  0.2401 -1.4353
 1357SOL    HW215534   0.454   2.610   1.831 -1.0941 -2.5233 -1.5781
 1358SOL     OW15535   4.667   1.327   5.781 -0.2621 -0.1484 -0.6996
 1358SOL    HW115536   4.622   1.248   5.752  1.4281 -0.4809 -2.3502
 1358SOL    HW215537   4.702   1.354   5.696  1.7799 -0.7106 -0.0169
 1359SOL     OW15538   1.502   2.837  13.976  0.2170 -0.3864 -0.4111
 1359SOL    HW115539   1.498   2.872  14.066 -1.6086 -1.0455 -0.2391
 1359SOL    HW215540   1.414   2.809  13.953 -0.0244  1.7881 -2.0925
 1360SOL     OW15541   1.936   1.538   3.225  0.4163 -0.3736  0.0767
 1360SOL    HW115542   1.886   1.497   3.295  0.2278  0.3475  0.3596
 1360SOL    HW215543   1.894   1.623   3.233 -0.0395 -0.7652  1.8983
 1361SOL     OW15544   1.213   2.881   5.581  0.3316 -0.5454  0.0704
 1361SOL    HW115545   1.212   2.885   5.677 -0.4024 -0.3163  0.0543
 1361SOL    HW215546   1.143   2.946   5.568 -0.5318 -1.4563  0.1777
 1362SOL     OW15547   1.522   4.570   0.419  0.4781  0.4636 -0.5971
 1362SOL    HW115548   1.554   4.659   0.430 -2.2131  1.6993 -2.9018
 1362SOL    HW215549   1.458   4.559   0.489  0.1711  0.7527 -0.8291
 1363SOL     OW15550   1.527   1.730   8.444 -0.2040 -0.4825  0.2258
 1363SOL    HW115551   1.610   1.729   8.492 -1.0451  1.8352  1.7211
 1363SOL    HW215552   1.464   1.760   8.510  0.7112  1.6156  0.1218
 1364SOL     OW15553   3.412   0.230   7.960 -0.5301  0.0124 -0.0700
 1364SOL    HW115554   3.335   0.175   7.969 -1.0126  0.6397 -0.3191
 1364SOL    HW215555   3.412   0.269   8.047  0.2209 -0.8779  0.3298
 1365SOL     OW15556   2.414   1.575   6.766 -0.2912 -0.3902 -0.3645
 1365SOL    HW115557   2.411   1.516   6.842  2.7528 -0.8680 -0.6071
 1365SOL    HW215558   2.509   1.586   6.774 -0.0537 -2.5788 -0.0959
 1366SOL     OW15559   1.869   0.552  11.264 -0.0655  0.3501 -0.2819
 1366SOL    HW115560   1.909   0.569  11.178 -0.5740  0.4613 -0.4944
 1366SOL    HW215561   1.938   0.578  11.325  0.4224  1.0357 -1.1165
 1367SOL     OW15562   2.724   4.423   4.407 -0.0123  0.6754  0.6019
 1367SOL    HW115563   2.790   4.456   4.346 -0.7740  2.5395  0.7808
 1367SOL    HW215564   2.754   4.332   4.405 -0.6745  0.4872 -0.5495
 1368SOL     OW15565   2.799   2.663   2.238 -0.2567 -0.5300  0.5526
 1368SOL    HW115566   2.756   2.744   2.266  0.3038  0.1184 -0.4165
 1368SOL    HW215567   2.873   2.653   2.298  0.5813  0.0038 -0.3880
 1369SOL     OW15568   4.231   0.678   2.004  0.2258 -0.7827  0.2772
 1369SOL    HW115569   4.147   0.657   2.045  0.1302 -1.3646 -0.2177
 1369SOL    HW215570   4.227   0.599   1.950  0.6785 -0.8379  0.3262
 1370SOL     OW15571   2.003   3.381   2.785 -0.5028  0.3950 -0.8403
 1370SOL    HW115572   2.096   3.397   2.799 -0.4415  0.7572 -1.6592
 1370SOL    HW215573   1.974   3.472   2.782 -0.7007  0.3419 -0.5035
 1371SOL     OW15574   1.135   3.178   4.847 -0.0613  0.3355  0.8474
 1371SOL    HW115575   1.079   3.210   4.918  1.2445 -0.3026  2.1512
 1371SOL    HW215576   1.076   3.139   4.782  2.4143  0.1596 -1.2856
 1372SOL     OW15577   2.830   3.321  10.178  0.0563  0.2038  0.7529
 1372SOL    HW115578   2.885   3.387  10.136  0.8382  0.6518  2.4640
 1372SOL    HW215579   2.831   3.248  10.116  0.0274  0.4007  0.5201
 1373SOL     OW15580   1.318   0.258   7.018 -0.2478  0.3370  0.0257
 1373SOL    HW115581   1.353   0.281   6.932 -2.7501 -0.3752 -1.1603
 1373SOL    HW215582   1.324   0.162   7.020 -0.4391  0.3225 -0.0995
 1374SOL     OW15583   4.288   4.607   9.634  0.9626 -0.0941  0.6142
 1374SOL    HW115584   4.209   4.587   9.686  1.7029 -1.1725  1.3164
 1374SOL    HW215585   4.320   4.517   9.633  0.0804 -0.3846 -0.5821
 1375SOL     OW15586   0.379   4.652   6.351  0.4858 -0.2006 -0.2101
 1375SOL    HW115587   0.334   4.676   6.432  1.9980 -2.4718  1.3056
 1375SOL    HW215588   0.302   4.665   6.294 -0.2812  1.3254  1.1964
 1376SOL     OW15589   2.542   1.960   2.676  0.3582  0.2490  0.4659
 1376SOL    HW115590   2.454   1.949   2.713  0.7370 -0.5889  1.1164
 1376SOL    HW215591   2.542   1.880   2.623 -0.8501 -0.5581  1.6495
 1377SOL     OW15592   1.695   4.536   6.902  0.1556  0.1555 -0.1635
 1377SOL    HW115593   1.714   4.518   6.810 -2.8151 -3.1524 -0.1224
 1377SOL    HW215594   1.717   4.455   6.946 -1.6522 -1.0841 -1.5296
 1378SOL     OW15595   4.202   1.697   4.996 -0.0262 -0.2803  0.2888
 1378SOL    HW115596   4.293   1.728   4.992  0.1737 -1.0443 -0.9682
 1378SOL    HW215597   4.214   1.610   5.034 -0.2595 -0.6495 -0.4955
 1379SOL     OW15598   0.771   2.557   7.612 -0.0557  0.3650  0.2001
 1379SOL    HW115599   0.791   2.557   7.706 -1.4421 -0.3572  0.5049
 1379SOL    HW215600   0.719   2.478   7.598  1.0523 -0.5104  1.0235
 1380SOL     OW15601   2.141   2.543   8.615  0.1261  0.1691  0.9141
 1380SOL    HW115602   2.214   2.601   8.639  0.2896  0.1240  0.5242
 1380SOL    HW215603   2.160   2.522   8.524 -0.8014  3.0671  0.0504
 1381SOL     OW15604   2.574   0.389   3.970  0.3970 -0.5476 -0.2519
 1381SOL    HW115605   2.646   0.450   3.986 -0.5758  0.7358 -0.7836
 1381SOL    HW215606   2.622   0.328   3.914 -0.1218 -0.9549 -0.2498
 1382SOL     OW15607   3.853   0.558   8.676  0.3594  0.3500  0.3442
 1382SOL    HW115608   3.762   0.530   8.690  0.4018  1.7415  3.5361
 1382SOL    HW215609   3.883   0.484   8.624 -1.2964 -0.0281 -0.1036
 1383SOL     OW15610   4.308   4.069   7.107 -0.0059  0.2474 -0.3307
 1383SOL    HW115611   4.296   3.977   7.088  1.3476 -0.4293  2.0804
 1383SOL    HW215612   4.322   4.059   7.201 -1.5060 -0.2195 -0.1658
 1384SOL     OW15613   3.526   3.826   2.932  0.1653 -0.1463  0.3738
 1384SOL    HW115614   3.588   3.899   2.940  2.9654 -2.3932 -0.9133
 1384SOL    HW215615   3.589   3.755   2.922  2.2827  2.4235 -4.5166
 1385SOL     OW15616   2.962   4.168  13.145 -0.4295  0.0151  0.4219
 1385SOL    HW115617   3.040   4.117  13.123 -0.8174  0.1421 -1.2048
 1385SOL    HW215618   2.963   4.155  13.240  0.5474  1.3842  0.5932
 1386SOL     OW15619   2.728   1.996   5.583 -0.0059  0.5187  0.1600
 1386SOL    HW115620   2.653   1.997   5.524  0.6580  0.8676 -0.6931
 1386SOL    HW215621   2.790   2.032   5.519  2.5051  0.6942  2.6881
 1387SOL     OW15622   0.835   3.910  16.640 -0.0718  0.4053 -0.6274
 1387SOL    HW115623   0.877   3.962  16.571  0.3181  1.7885  0.6480
 1387SOL    HW215624   0.796   3.847  16.580 -1.6001 -0.2673  1.0862
 1388SOL     OW15625   1.027   0.002  10.545 -0.1352  0.5508 -0.1727
 1388SOL    HW115626   1.122   4.713  10.536  0.0298  1.0129  1.0903
 1388SOL    HW215627   1.003   4.649  10.601 -2.3803  0.2061 -1.5839
 1389SOL     OW15628   3.584   2.971   3.538  0.3209  0.1071  0.0513
 1389SOL    HW115629   3.624   2.884   3.531 -0.6512 -0.4473  1.3688
 1389SOL    HW215630   3.577   2.974   3.443  0.4072  0.5737  0.0583
 1390SOL     OW15631   3.817   3.870  15.302  0.1229 -0.1681  0.6681
 1390SOL    HW115632   3.903   3.895  15.268 -0.7975  2.8150  0.4645
 1390SOL    HW215633   3.778   3.955  15.325  1.1801  0.2845  0.8129
 1391SOL     OW15634   0.028   0.200   7.098  0.2363  0.2686 -0.1854
 1391SOL    HW115635   0.103   0.147   7.124  0.2705  1.0622  1.3648
 1391SOL    HW215636   0.074   0.245   7.027  0.9437 -2.0544 -1.1811
 1392SOL     OW15637   2.473   4.512   3.891  0.1598 -0.0998  0.1113
 1392SOL    HW115638   2.444   4.545   3.806  0.3965  0.2310  0.1619
 1392SOL    HW215639   2.468   4.589   3.947 -0.5803  0.7276 -1.1147
 1393SOL     OW15640   4.511   4.088  10.309 -0.2742  0.1172  0.3476
 1393SOL    HW115641   4.599   4.067  10.279  0.0180  0.5616  0.8880
 1393SOL    HW215642   4.460   4.011  10.286  0.2916 -0.5404  1.2975
 1394SOL     OW15643   1.711   1.030   9.541  0.3418 -0.3711 -0.1559
 1394SOL    HW115644   1.620   1.004   9.555  0.2315  0.0977 -0.0105
 1394SOL    HW215645   1.719   1.005   9.449 -0.5164  1.3499 -0.6995
 1395SOL     OW15646   3.577   2.408   3.963 -0.0973 -0.1238  0.2132
 1395SOL    HW115647   3.492   2.380   3.927 -0.6218  0.7802  0.7542
 1395SOL    HW215648   3.550   2.414   4.055  0.7347  1.4247  0.3388
 1396SOL     OW15649   0.520   4.055   3.435 -0.0206 -0.5162 -0.1315
 1396SOL    HW115650   0.457   4.030   3.368  0.5390  0.1115 -0.8984
 1396SOL    HW215651   0.553   4.137   3.399 -1.7816  1.0270  1.8201
 1397SOL     OW15652   1.408   2.841   2.358  0.0482 -0.1448  0.2939
 1397SOL    HW115653   1.498   2.871   2.371  0.1351 -0.2883  0.0215
 1397SOL    HW215654   1.401   2.825   2.264 -4.1065 -0.6037  0.6775
 1398SOL     OW15655   3.221   0.977   5.876  0.1907 -0.1091 -0.1238
 1398SOL    HW115656   3.260   1.060   5.905 -0.0287  0.2527 -0.8699
 1398SOL    HW215657   3.215   0.992   5.782 -3.9460 -0.2149  0.1293
 1399SOL     OW15658   3.817   0.074   0.679  0.1191 -0.1488 -0.7974
 1399SOL    HW115659   3.840   0.138   0.747 -0.3394 -0.4596 -0.3473
 1399SOL    HW215660   3.830   0.128   0.601 -1.6786 -0.1461 -1.0811
 1400SOL     OW15661   0.907   1.637  14.931 -0.0945 -0.9931  0.2296
 1400SOL    HW115662   0.813   1.637  14.951 -0.3342  1.0026 -0.8369
 1400SOL    HW215663   0.904   1.720  14.882  1.7081 -0.8912  0.2980
 1401SOL     OW15664   4.636   2.863   6.710 -0.5355  0.0734 -0.0603
 1401SOL    HW115665   4.579   2.919   6.658 -1.5295  0.8716  1.8750
 1401SOL    HW215666   4.568   2.821   6.763  0.6248  1.7181  2.7248
 1402SOL     OW15667   4.693   2.247   5.423 -0.5417  0.2753  0.7230
 1402SOL    HW115668   4.693   2.237   5.328  2.7287 -0.3499  0.7883
 1402SOL    HW215669   4.605   2.222   5.450 -1.5159  1.7835 -1.0430
 1403SOL     OW15670   2.185   1.877   3.377  0.1978  0.1881  0.2810
 1403SOL    HW115671   2.256   1.850   3.436  0.9234 -0.8722 -1.0652
 1403SOL    HW215672   2.110   1.888   3.435 -0.8613  2.0684 -1.4780
 1404SOL     OW15673   1.888   0.181  16.466 -0.0085  0.4373  0.9599
 1404SOL    HW115674   1.960   0.193  16.528  2.1819 -1.6493 -1.1367
 1404SOL    HW215675   1.814   0.227  16.505 -0.1006 -0.1079  1.4276
 1405SOL     OW15676   0.199   1.362   7.211  0.6637  0.2812 -0.9769
 1405SOL    HW115677   0.149   1.315   7.145 -1.3838  2.0237 -0.6635
 1405SOL    HW215678   0.130   1.364   7.278 -0.2554 -0.0607 -1.9178
 1406SOL     OW15679   0.732   1.704  12.308  0.5451  0.0754  0.2994
 1406SOL    HW115680   0.703   1.757  12.383  1.0994 -2.3981  2.2814
 1406SOL    HW215681   0.792   1.640  12.347 -0.9664 -1.3902  0.2769
 1407SOL     OW15682   4.469   2.313   4.170  0.3927  0.0858  0.2124
 1407SOL    HW115683   4.380   2.296   4.139  0.9119  4.7147 -3.8476
 1407SOL    HW215684   4.452   2.313   4.264 -1.3660  1.2740 -0.1240
 1408SOL     OW15685   0.266   2.957   4.134  0.4656  0.2070 -0.5794
 1408SOL    HW115686   0.269   3.052   4.123 -0.8057  0.2898 -0.2664
 1408SOL    HW215687   0.276   2.954   4.229 -2.7678  0.0799 -0.2268
 1409SOL     OW15688   3.667   1.344   7.166  0.1939 -0.3735 -0.6977
 1409SOL    HW115689   3.662   1.322   7.259  0.0642 -1.2153 -0.9051
 1409SOL    HW215690   3.582   1.388   7.169 -0.2191 -1.1784 -0.6072
 1410SOL     OW15691   3.958   0.873   6.421 -0.1389  0.0763 -0.1895
 1410SOL    HW115692   3.999   0.932   6.484  0.0269  0.6887 -0.8710
 1410SOL    HW215693   3.945   0.945   6.360 -1.4370  0.4833  0.5609
 1411SOL     OW15694   2.600   3.231   2.990  0.1240  0.4664 -0.7991
 1411SOL    HW115695   2.673   3.293   2.982  0.5609 -0.1011 -1.2038
 1411SOL    HW215696   2.571   3.227   2.899 -0.0211  1.8418 -0.8156
 1412SOL     OW15697   2.648   0.010   3.624 -0.6277  0.0277 -0.0390
 1412SOL    HW115698   2.556   4.705   3.631  0.5499 -4.5914 -0.9421
 1412SOL    HW215699   2.689   4.653   3.664  0.1182  0.1292 -0.6065
 1413SOL     OW15700   1.424   0.227  17.059  0.4227 -0.3931  0.3654
 1413SOL    HW115701   1.427   0.140  17.019 -0.7410 -1.3529  2.3552
 1413SOL    HW215702   1.447   0.206  17.150 -3.1430 -0.5174  1.2373
 1414SOL     OW15703   4.473   1.297   1.149 -0.1104 -0.3273  0.6523
 1414SOL    HW115704   4.463   1.204   1.131  2.6391 -0.7883  1.5325
 1414SOL    HW215705   4.568   1.307   1.152 -0.4026  2.1190  1.8898
 1415SOL     OW15706   0.712   2.912   0.698  0.7207  0.4531  0.2381
 1415SOL    HW115707   0.761   2.938   0.620 -0.7254  1.1378 -0.4567
 1415SOL    HW215708   0.715   2.817   0.692  0.1607  0.5063 -1.0162
 1416SOL     OW15709   0.723   0.212   0.229  0.3253 -0.5777 -0.0235
 1416SOL    HW115710   0.772   0.181   0.305 -1.3177 -1.8843  0.5177
 1416SOL    HW215711   0.786   0.174   0.169 -0.1387  1.3547 -1.7171
 1417SOL     OW15712   3.766   2.817   9.377 -0.4260  0.2925 -0.1772
 1417SOL    HW115713   3.744   2.825   9.469 -2.8133 -1.3857 -0.5901
 1417SOL    HW215714   3.851   2.861   9.379 -0.7589  0.9692 -0.9948
 1418SOL     OW15715   0.623   3.697   8.928  0.0420  0.3689  0.7758
 1418SOL    HW115716   0.532   3.722   8.942 -1.2468 -3.1522 -1.2255
 1418SOL    HW215717   0.652   3.670   9.015 -2.4671 -0.4321  1.3569
 1419SOL     OW15718   2.989   3.615   1.004 -0.2555 -0.4287 -0.3100
 1419SOL    HW115719   2.919   3.562   0.965  1.2584 -2.7918  0.1542
 1419SOL    HW215720   2.955   3.704   1.008  1.1389  0.1540 -1.3122
 1420SOL     OW15721   1.556   2.157   5.270  0.1164 -0.2888  0.3492
 1420SOL    HW115722   1.552   2.101   5.347 -0.8857 -3.0377 -1.7053
 1420SOL    HW215723   1.466   2.189   5.259 -0.0750 -1.8841 -2.6810
 1421SOL     OW15724   4.446   4.591   6.070 -0.7145 -0.1549  0.1915
 1421SOL    HW115725   4.482   4.505   6.090  0.0943  0.2772  0.6356
 1421SOL    HW215726   4.360   4.559   6.043 -1.7557  1.9915  0.9662
 1422SOL     OW15727   1.376   2.871   1.748 -0.6501  0.2329  0.3927
 1422SOL    HW115728   1.300   2.881   1.691 -0.3980 -0.7364 -0.1118
 1422SOL    HW215729   1.405   2.961   1.764 -1.1798  0.4631  0.0468
 1423SOL     OW15730   0.731   2.852   3.379  0.6087 -0.4187 -0.7891
 1423SOL    HW115731   0.709   2.945   3.390  2.1380  0.0669 -1.7781
 1423SOL    HW215732   0.642   2.828   3.354 -0.4243  0.1484  2.3940
 1424SOL     OW15733   4.521   3.299   9.379 -0.2092 -0.0173 -0.6221
 1424SOL    HW115734   4.453   3.360   9.406 -0.5428 -1.2956  1.4058
 1424SOL    HW215735   4.473   3.217   9.390 -0.4065 -0.1486 -2.3653
 1425SOL     OW15736   1.113   0.075   4.510  0.0556  0.4172  0.0862
 1425SOL    HW115737   1.055   0.146   4.483 -0.0198  0.2646 -0.1528
 1425SOL    HW215738   1.191   0.091   4.458  0.3364 -0.3099  0.2820
 1426SOL     OW15739   0.989   3.075  11.302 -0.0022  0.2713 -0.2439
 1426SOL    HW115740   0.974   3.167  11.323  0.0389  0.4840 -1.1188
 1426SOL    HW215741   1.072   3.064  11.348 -1.8176 -1.0760  2.6628
 1427SOL     OW15742   1.834   4.142   7.301 -0.4206 -0.3298 -0.5366
 1427SOL    HW115743   1.861   4.202   7.371 -0.8371  1.4837 -1.9452
 1427SOL    HW215744   1.841   4.055   7.342 -2.3494 -1.1290 -1.8744
 1428SOL     OW15745   3.287   4.076  14.866 -0.0485 -0.6950 -0.3553
 1428SOL    HW115746   3.379   4.050  14.874  0.6194  0.9889 -2.2706
 1428SOL    HW215747   3.288   4.156  14.918  1.3833  0.7238 -2.5702
 1429SOL     OW15748   1.087   3.008   7.725  0.2519  0.5483  0.2279
 1429SOL    HW115749   1.109   3.101   7.732 -1.7093  1.0116  0.2269
 1429SOL    HW215750   1.078   2.975   7.814  0.2411 -1.7598 -0.6455
 1430SOL     OW15751   3.003   4.576   3.055 -0.1491 -0.5458 -0.4064
 1430SOL    HW115752   3.088   4.538   3.078  0.2576  2.1636  2.6536
 1430SOL    HW215753   2.956   4.538   3.130  1.1621  1.6005  1.5066
 1431SOL     OW15754   1.737   2.935   5.687 -0.1076  0.7077  0.7210
 1431SOL    HW115755   1.691   2.900   5.611  1.6269 -2.5138  1.1644
 1431SOL    HW215756   1.826   2.901   5.679 -0.4244 -0.1524  0.9138
 1432SOL     OW15757   3.621   3.397   7.679 -0.2762 -0.0779  0.0145
 1432SOL    HW115758   3.675   3.364   7.608 -0.8833  0.6697 -0.7891
 1432SOL    HW215759   3.678   3.386   7.755  0.5607 -1.6723 -0.8428
 1433SOL     OW15760   4.112   0.719   6.219 -0.4549 -0.0601  0.2758
 1433SOL    HW115761   4.074   0.763   6.295  0.4154 -1.2673  1.4045
 1433SOL    HW215762   4.054   0.648   6.193 -2.8621  1.7558  0.7261
 1434SOL     OW15763   3.288   0.318   4.698  0.2730 -0.2602  0.2108
 1434SOL    HW115764   3.230   0.345   4.627  0.9165  2.6616  0.7553
 1434SOL    HW215765   3.376   0.344   4.673 -0.0912  1.8864  1.1318
 1435SOL     OW15766   2.225   1.657  14.587  0.7355 -0.7990 -0.2401
 1435SOL    HW115767   2.292   1.612  14.638 -0.2657 -0.6973  1.1676
 1435SOL    HW215768   2.281   1.668  14.510  0.2875  0.8301 -0.3406
 1436SOL     OW15769   2.121   4.347   5.237 -0.2319  0.4168 -0.1832
 1436SOL    HW115770   2.185   4.413   5.266 -1.1715  0.4818  1.7158
 1436SOL    HW215771   2.103   4.384   5.150 -0.7647  0.7562  0.0743
 1437SOL     OW15772   1.662   1.869   4.281 -0.4675  0.3230 -0.0437
 1437SOL    HW115773   1.679   1.943   4.339  1.6680  0.0607 -0.3139
 1437SOL    HW215774   1.749   1.832   4.263  0.0803  1.8107 -0.4648
 1438SOL     OW15775   1.900   3.945   4.460  0.0719 -0.0980  0.5057
 1438SOL    HW115776   1.924   3.993   4.539 -0.3427  0.6002  0.2098
 1438SOL    HW215777   1.920   4.011   4.394  0.2649 -2.5463 -1.9015
 1439SOL     OW15778   1.751   2.068   6.030 -0.2264 -0.2236  0.2449
 1439SOL    HW115779   1.774   2.160   6.042 -2.7966  0.4906 -0.3951
 1439SOL    HW215780   1.811   2.036   6.096  0.5517  0.9297  0.1046
 1440SOL     OW15781   1.734   2.850   7.550 -0.3662  0.1490  0.5641
 1440SOL    HW115782   1.677   2.894   7.488 -0.0534  0.3844  0.4480
 1440SOL    HW215783   1.809   2.847   7.491  0.6224 -0.4992  1.8314
 1441SOL     OW15784   4.453   4.310   4.923 -0.0101 -0.1817 -0.2245
 1441SOL    HW115785   4.526   4.315   4.985 -1.8590  1.3230  1.8340
 1441SOL    HW215786   4.384   4.325   4.987 -1.3500 -1.0771 -1.4646
 1442SOL     OW15787   3.714   0.478   7.995  0.0756  0.0667  0.2122
 1442SOL    HW115788   3.790   0.535   7.997 -0.8189  1.2047  1.2271
 1442SOL    HW215789   3.651   0.533   8.040 -1.5408 -1.2954 -0.3628
 1443SOL     OW15790   0.297   4.345  15.298 -0.0293  0.5258  0.4186
 1443SOL    HW115791   0.275   4.291  15.374  0.3140  1.2908  1.0533
 1443SOL    HW215792   0.309   4.434  15.331 -0.9415  1.5070 -1.8716
 1444SOL     OW15793   4.270   1.439   7.570  0.5346  0.4765 -0.1949
 1444SOL    HW115794   4.301   1.485   7.648 -0.3888 -0.3943  0.6580
 1444SOL    HW215795   4.314   1.494   7.504  0.3112  1.9108  0.8480
 1445SOL     OW15796   3.797   0.572   4.150  0.1456 -0.1722 -0.7243
 1445SOL    HW115797   3.763   0.612   4.070  1.2747  1.6091 -0.3154
 1445SOL    HW215798   3.877   0.550   4.102  0.8591  1.9027 -0.4904
 1446SOL     OW15799   4.090   0.709   7.043  0.1711  0.2667 -0.0938
 1446SOL    HW115800   4.107   0.708   7.137 -1.6710  0.7319  0.2435
 1446SOL    HW215801   4.149   0.642   7.009  1.6389  1.3377  0.3112
 1447SOL     OW15802   3.695   3.255   4.135 -0.5857 -0.1897  0.2450
 1447SOL    HW115803   3.686   3.161   4.116  1.9646 -0.0198 -1.6907
 1447SOL    HW215804   3.603   3.279   4.147  0.0978  1.3289  2.4013
 1448SOL     OW15805   3.353   1.788  16.741 -0.2579  0.3968  0.1998
 1448SOL    HW115806   3.318   1.732  16.672 -0.3910  3.5858 -2.3071
 1448SOL    HW215807   3.316   1.737  16.813 -0.6943  1.0744  0.4546
 1449SOL     OW15808   4.654   4.166  14.934 -0.5555  0.1583 -0.2101
 1449SOL    HW115809   4.676   4.187  15.025  1.1123 -2.7051  0.0376
 1449SOL    HW215810   4.592   4.093  14.946  1.1919 -1.5389 -1.7144
 1450SOL     OW15811   4.170   3.375   2.799  0.0804 -0.1774 -0.5470
 1450SOL    HW115812   4.259   3.341   2.807  0.8625  2.1321  0.5544
 1450SOL    HW215813   4.151   3.342   2.711 -0.6240  0.2378 -0.5487
 1451SOL     OW15814   4.331   1.081   2.223  0.2739 -0.2187  0.3228
 1451SOL    HW115815   4.241   1.107   2.202  0.0633 -0.9298  0.3345
 1451SOL    HW215816   4.338   1.024   2.146 -1.7211  2.3008 -1.7592
 1452SOL     OW15817   0.492   3.123   2.955  0.0075 -0.1738 -0.3834
 1452SOL    HW115818   0.438   3.202   2.948  1.6124  0.7255 -2.5522
 1452SOL    HW215819   0.581   3.150   2.934  1.2606 -3.9702  0.0340
 1453SOL     OW15820   1.681   3.854  10.818  0.4176  0.1260  0.1326
 1453SOL    HW115821   1.756   3.821  10.769 -0.6992 -2.3010  0.0743
 1453SOL    HW215822   1.606   3.805  10.783 -0.0867  1.1852 -0.2903
 1454SOL     OW15823   0.699   4.050  16.392 -0.1929 -0.7291 -0.2432
 1454SOL    HW115824   0.639   4.011  16.455 -0.1037 -0.8737 -0.2476
 1454SOL    HW215825   0.683   4.142  16.411  1.4956 -0.3251 -0.7939
 1455SOL     OW15826   0.515   1.205  13.524  0.2316  0.3074  0.7977
 1455SOL    HW115827   0.594   1.161  13.555 -0.0295 -0.2890  0.6193
 1455SOL    HW215828   0.563   1.268  13.471  2.2586 -0.1433  2.0765
 1456SOL     OW15829   3.582   3.045   2.866  0.2157 -0.0072 -0.5996
 1456SOL    HW115830   3.583   3.097   2.786 -0.2896  0.4560 -0.3074
 1456SOL    HW215831   3.571   2.959   2.825 -0.5930  0.5926 -1.6174
 1457SOL     OW15832   3.882   4.256   7.770  0.1354  0.8609  0.3955
 1457SOL    HW115833   3.868   4.289   7.681 -1.1973  1.4416  0.8181
 1457SOL    HW215834   3.827   4.314   7.823  0.9665  0.9897  1.1040
 1458SOL     OW15835   4.471   3.895   2.466  0.8311 -0.4113 -0.2486
 1458SOL    HW115836   4.532   3.825   2.442  1.8257  0.2967  0.2362
 1458SOL    HW215837   4.421   3.863   2.541 -0.3178 -0.8381 -1.2133
 1459SOL     OW15838   2.986   2.038   2.781  0.7617 -0.0174  0.4744
 1459SOL    HW115839   2.925   2.034   2.707  0.7442 -1.3437  0.5623
 1459SOL    HW215840   2.971   2.125   2.817 -1.3756 -0.0266 -0.3959
 1460SOL     OW15841   3.657   3.993   5.822  0.0840 -0.0621 -0.2955
 1460SOL    HW115842   3.589   4.049   5.860  0.0009  0.2413 -0.8966
 1460SOL    HW215843   3.608   3.912   5.834 -1.9454  1.2770  0.4264
 1461SOL     OW15844   0.022   1.565   6.663 -0.0774 -0.2333  0.3403
 1461SOL    HW115845   4.648   1.565   6.649 -0.0283  2.5109 -0.1018
 1461SOL    HW215846   0.057   1.528   6.582 -0.7084  0.1532 -0.1093
 1462SOL     OW15847   1.217   1.435   4.894  0.2840  0.1522  0.2444
 1462SOL    HW115848   1.310   1.432   4.869  0.0080 -0.8037 -0.6381
 1462SOL    HW215849   1.176   1.359   4.854  1.9444 -0.9937  0.7191
 1463SOL     OW15850   1.148   1.786   4.005 -0.6620 -0.1606 -0.6848
 1463SOL    HW115851   1.112   1.752   4.086 -2.1015  0.5193 -1.0425
 1463SOL    HW215852   1.222   1.726   3.998  0.7825  1.5246  0.1102
 1464SOL     OW15853   3.022   3.855   7.823  1.3595  0.3930 -0.4763
 1464SOL    HW115854   2.957   3.788   7.804  2.1918 -0.2697 -1.0268
 1464SOL    HW215855   3.035   3.850   7.918 -1.1849  0.4348 -0.1282
 1465SOL     OW15856   4.426   1.172   1.627 -0.3600 -0.2402 -0.1102
 1465SOL    HW115857   4.455   1.225   1.701 -2.9393  3.4500 -1.7288
 1465SOL    HW215858   4.361   1.230   1.588  2.7500  2.2272 -1.6281
 1466SOL     OW15859   1.193   0.325   9.077 -0.7000 -1.2198 -0.3340
 1466SOL    HW115860   1.271   0.320   9.131 -0.6693 -0.5340 -0.3166
 1466SOL    HW215861   1.232   0.351   8.994 -0.4329 -0.9902 -0.1348
 1467SOL     OW15862   1.090   1.164   2.001 -0.0805 -0.2917 -0.4473
 1467SOL    HW115863   1.108   1.258   2.000 -1.4386 -0.0278  0.4948
 1467SOL    HW215864   1.133   1.137   1.920  1.7078  1.5099 -0.0984
 1468SOL     OW15865   0.673   2.835   3.836 -0.3197 -0.4335 -0.8323
 1468SOL    HW115866   0.649   2.920   3.873  0.0687 -1.2588  1.3108
 1468SOL    HW215867   0.679   2.783   3.916 -0.5856 -1.8114 -1.7155
 1469SOL     OW15868   4.387   4.226   8.888  0.0642  0.0505  0.0670
 1469SOL    HW115869   4.345   4.242   8.972 -0.3145  0.3099 -0.1706
 1469SOL    HW215870   4.334   4.150   8.863 -0.3896  0.2302  0.4866
 1470SOL     OW15871   0.897   1.594  12.565  0.0836  0.0446  0.4385
 1470SOL    HW115872   0.991   1.582  12.554 -0.0627 -1.4667  0.8624
 1470SOL    HW215873   0.885   1.537  12.641 -0.4532 -0.6109 -0.1307
 1471SOL     OW15874   1.913   3.498   7.431  0.6555  0.1510 -0.4432
 1471SOL    HW115875   1.861   3.457   7.501  0.5800 -0.5078 -0.8895
 1471SOL    HW215876   1.857   3.566   7.394 -1.4930 -0.5648  1.4795
 1472SOL     OW15877   3.062   1.980   0.191 -0.0119  0.3797 -0.1099
 1472SOL    HW115878   3.015   2.006   0.111 -0.3080 -0.7116 -0.3021
 1472SOL    HW215879   2.985   1.946   0.236  0.3745  0.4624  0.6065
 1473SOL     OW15880   0.753   0.432  10.434  0.2384  0.7267 -0.0474
 1473SOL    HW115881   0.794   0.351  10.403  0.3097  0.9764 -0.6108
 1473SOL    HW215882   0.689   0.446  10.364 -1.5045  0.8847  1.5853
 1474SOL     OW15883   3.800   1.184   9.474 -0.1047  0.2719 -0.1938
 1474SOL    HW115884   3.819   1.202   9.567 -3.1243 -0.1865  0.5144
 1474SOL    HW215885   3.716   1.141   9.486  1.3409 -2.4153  0.3051
 1475SOL     OW15886   4.631   0.392   2.822 -0.0834 -0.3752  0.1982
 1475SOL    HW115887   4.622   0.312   2.874  0.1510  1.1452  2.6096
 1475SOL    HW215888   4.719   0.418   2.851 -0.1309  0.6036 -0.5426
 1476SOL     OW15889   4.085   1.594   3.655  1.0024  0.2666 -0.0256
 1476SOL    HW115890   4.094   1.687   3.633 -1.6322  0.7209  0.8234
 1476SOL    HW215891   4.123   1.596   3.742 -2.1305 -1.6812  1.4038
 1477SOL     OW15892   2.574   1.034  12.734 -0.1652 -0.1204 -0.6994
 1477SOL    HW115893   2.503   1.081  12.690 -2.1783 -2.2322  0.2484
 1477SOL    HW215894   2.631   1.027  12.658  0.8028  0.4098 -0.0297
 1478SOL     OW15895   1.033   2.037   7.021 -0.5450  0.8842 -0.1487
 1478SOL    HW115896   1.011   2.004   7.109 -0.6046 -1.4137 -1.0207
 1478SOL    HW215897   1.028   2.132   7.026 -1.5760  0.7369  1.9973
 1479SOL     OW15898   3.522   0.110   5.656 -0.4316  0.3835  0.4047
 1479SOL    HW115899   3.579   0.164   5.710  0.0009  0.3713 -0.0472
 1479SOL    HW215900   3.504   0.176   5.589  1.2546  1.3847  0.9501
 1480SOL     OW15901   1.030   1.698   3.644  0.5561 -0.7542 -0.2263
 1480SOL    HW115902   0.980   1.682   3.564  0.7151 -0.7249 -0.3297
 1480SOL    HW215903   1.012   1.615   3.689  0.7726 -0.5554  0.2216
 1481SOL     OW15904   4.319   2.280   3.336  0.3320 -0.4829 -0.1112
 1481SOL    HW115905   4.270   2.227   3.398  0.2338 -1.5792 -1.1240
 1481SOL    HW215906   4.255   2.350   3.323  2.0446  1.3134  1.1960
 1482SOL     OW15907   4.013   4.258   5.207  0.3313  0.7629  0.7121
 1482SOL    HW115908   3.927   4.218   5.198  1.0410 -1.1788  2.6542
 1482SOL    HW215909   4.065   4.186   5.172  0.4457  0.2413  1.9631
 1483SOL     OW15910   3.567   0.802   4.740  0.5683  0.2327 -0.4239
 1483SOL    HW115911   3.480   0.781   4.706  0.7054 -2.0608  0.6191
 1483SOL    HW215912   3.543   0.892   4.762  1.1171  0.6180 -1.3858
 1484SOL     OW15913   1.563   4.358   5.279  0.1318 -0.0068  0.2323
 1484SOL    HW115914   1.596   4.318   5.359 -0.3622  0.0395  0.4611
 1484SOL    HW215915   1.477   4.384   5.312 -0.0768  0.0963 -0.3822
 1485SOL     OW15916   1.738   1.779   3.068  0.0322  0.0889  0.0183
 1485SOL    HW115917   1.649   1.746   3.077  0.0688  0.4524  1.7388
 1485SOL    HW215918   1.777   1.713   3.011 -1.4907 -0.7129 -0.0893
 1486SOL     OW15919   1.125   1.933  12.462 -0.3015  0.1420 -0.2954
 1486SOL    HW115920   1.195   1.901  12.518  1.5534  2.9415 -1.0192
 1486SOL    HW215921   1.180   1.981  12.400 -0.2111  4.4037  3.0867
 1487SOL     OW15922   3.702   0.587   4.667  0.4746  0.5860  0.3426
 1487SOL    HW115923   3.664   0.670   4.698  1.0466  0.9539  0.0619
 1487SOL    HW215924   3.711   0.609   4.575  0.4288 -0.6778  0.0337
 1488SOL     OW15925   1.792   1.793   0.994  0.0895  0.5477 -0.0041
 1488SOL    HW115926   1.745   1.722   0.952  0.2002  0.4822 -0.0162
 1488SOL    HW215927   1.768   1.772   1.084 -0.3873 -1.2404 -0.5633
 1489SOL     OW15928   3.647   2.808   8.791 -0.1284  0.0093 -0.1277
 1489SOL    HW115929   3.591   2.819   8.868  2.1721 -1.1739  1.7534
 1489SOL    HW215930   3.721   2.860   8.822  2.5992 -2.6932 -2.1443
 1490SOL     OW15931   3.191   1.397   7.397 -0.1222 -0.4088 -0.3017
 1490SOL    HW115932   3.119   1.458   7.412  1.4238  1.1643  0.9128
 1490SOL    HW215933   3.147   1.313   7.395 -2.8896  1.0103  1.3506
 1491SOL     OW15934   0.355   1.419   4.169  0.0490  0.7710 -0.2826
 1491SOL    HW115935   0.416   1.488   4.143 -2.0641  2.3952 -1.0268
 1491SOL    HW215936   0.268   1.450   4.143 -1.3399 -4.7324 -2.1881
 1492SOL     OW15937   1.179   3.175   2.574 -0.3579 -0.1332 -0.4933
 1492SOL    HW115938   1.219   3.125   2.645 -1.0830 -0.0151 -0.0008
 1492SOL    HW215939   1.242   3.247   2.567 -2.3303  1.4739 -1.9702
 1493SOL     OW15940   1.768   2.612   2.536  0.0112  0.1252 -0.2546
 1493SOL    HW115941   1.781   2.540   2.475  0.7985  0.5336 -0.5624
 1493SOL    HW215942   1.763   2.682   2.471  0.8771  0.9393  0.5570
 1494SOL     OW15943   2.290   0.771   3.960 -0.1278 -0.6688  0.3523
 1494SOL    HW115944   2.234   0.843   3.931 -0.6236 -1.1640  0.0812
 1494SOL    HW215945   2.337   0.816   4.030 -0.8759 -0.8034  0.9395
 1495SOL     OW15946   4.541   2.283  11.026 -0.7704 -0.1407  0.2632
 1495SOL    HW115947   4.477   2.313  11.090 -1.6577  0.4710 -0.9139
 1495SOL    HW215948   4.579   2.366  10.998 -2.2812  0.8367  1.1242
 1496SOL     OW15949   2.351   4.481  14.691  0.3927  0.0889 -0.5570
 1496SOL    HW115950   2.411   4.407  14.684 -0.4453 -0.4266 -2.1973
 1496SOL    HW215951   2.284   4.456  14.628  1.6311  0.1965 -1.9418
 1497SOL     OW15952   0.418   2.885   6.452 -0.3908  0.3454 -0.2724
 1497SOL    HW115953   0.494   2.929   6.414  0.9251  0.3642  2.3793
 1497SOL    HW215954   0.405   2.935   6.532 -2.1206 -0.3363 -0.1444
 1498SOL     OW15955   1.330   0.243   2.003  0.2553  0.1068 -0.2856
 1498SOL    HW115956   1.344   0.214   1.913  1.0503  2.2084 -0.8536
 1498SOL    HW215957   1.323   0.339   1.995 -2.9765 -0.4465 -4.3185
 1499SOL     OW15958   3.058   3.978   7.018 -0.0717 -0.0875 -0.4708
 1499SOL    HW115959   3.043   3.946   7.107 -0.4534  0.1125 -0.4635
 1499SOL    HW215960   2.968   3.997   6.990 -0.1536  1.7272  1.0297
 1500SOL     OW15961   3.035   0.644   9.352  0.0876 -0.2239 -0.3494
 1500SOL    HW115962   3.074   0.581   9.413 -1.4419  0.2735  1.1489
 1500SOL    HW215963   2.949   0.652   9.393  0.4540 -2.7080  0.9608
 1501SOL     OW15964   0.224   3.703  13.986 -0.2114 -0.4613 -0.4215
 1501SOL    HW115965   0.140   3.749  13.994  0.4358  0.4648  0.9185
 1501SOL    HW215966   0.227   3.689  14.080  3.3639 -1.2037 -0.6682
 1502SOL     OW15967   1.377   3.848  11.504  0.2779  0.8392 -0.0720
 1502SOL    HW115968   1.356   3.847  11.411  2.6343 -1.8643 -0.5713
 1502SOL    HW215969   1.316   3.786  11.543  2.6446 -0.4203  1.6124
 1503SOL     OW15970   0.021   1.026   2.340 -0.0387 -0.4301 -0.3945
 1503SOL    HW115971   0.070   1.092   2.292 -2.0781  1.4493  0.1087
 1503SOL    HW215972   0.098   1.012   2.396  0.2451 -1.6811 -1.1000
 1504SOL     OW15973   3.867   0.377   3.879 -0.4466  0.0366  0.3176
 1504SOL    HW115974   3.923   0.453   3.896  0.6301 -1.0434  1.6070
 1504SOL    HW215975   3.917   0.319   3.821  2.5282 -0.3540  3.2062
 1505SOL     OW15976   4.453   2.969   6.275  0.2416  0.1823  0.2449
 1505SOL    HW115977   4.471   2.968   6.369 -0.8306 -0.1561  0.4555
 1505SOL    HW215978   4.533   2.937   6.233 -0.7957 -1.1085 -0.7601
 1506SOL     OW15979   4.099   1.381  14.225  0.4684 -0.2044 -0.1298
 1506SOL    HW115980   4.055   1.422  14.150  2.1303 -0.1736 -1.0945
 1506SOL    HW215981   4.161   1.325  14.177  2.4227  1.5559  0.3187
 1507SOL     OW15982   0.602   1.882   3.823  0.2662  0.2668  0.7585
 1507SOL    HW115983   0.653   1.824   3.879  1.5409 -0.1460 -0.8494
 1507SOL    HW215984   0.664   1.955   3.832 -1.0152  1.2427  1.5663
 1508SOL     OW15985   4.373   4.550   3.240  0.1719 -0.1721  0.0658
 1508SOL    HW115986   4.467   4.532   3.245  0.3223  0.6477  0.1727
 1508SOL    HW215987   4.357   4.525   3.149 -2.0742  1.8599 -0.0873
 1509SOL     OW15988   1.745   4.062   5.816 -0.9786 -0.0070  0.1120
 1509SOL    HW115989   1.663   4.029   5.851 -0.6919 -1.6707 -0.7811
 1509SOL    HW215990   1.788   4.097   5.894 -0.4134  0.7379 -0.5289
 1510SOL     OW15991   2.734   2.087   0.289  0.0187  0.0851 -0.4753
 1510SOL    HW115992   2.730   2.095   0.194  0.3748 -0.2753 -0.5257
 1510SOL    HW215993   2.676   2.013   0.307 -0.4854  0.6961  0.3991
 1511SOL     OW15994   1.911   4.367  13.816 -0.5842 -0.5799 -0.3234
 1511SOL    HW115995   1.854   4.440  13.841 -0.4998 -0.0598 -1.6641
 1511SOL    HW215996   1.872   4.331  13.737 -0.2257 -0.3294 -0.6118
 1512SOL     OW15997   3.278   3.206   1.058 -0.0171 -0.2914  0.2987
 1512SOL    HW115998   3.291   3.157   1.139  2.0418  0.7564  0.5960
 1512SOL    HW215999   3.325   3.146   1.000 -1.2602 -2.4344  1.5032
 1513SOL     OW16000   3.744   3.510   8.475 -0.1699  0.0971  0.0443
 1513SOL    HW116001   3.798   3.469   8.543  1.3429  0.1242 -1.1424
 1513SOL    HW216002   3.761   3.594   8.518  0.6160  0.2065 -0.4881
 1514SOL     OW16003   2.269   1.637   7.537  0.1798 -0.0499 -0.1934
 1514SOL    HW116004   2.263   1.545   7.565 -1.0325  0.1525  0.2121
 1514SOL    HW216005   2.183   1.638   7.497  0.8152 -0.6745 -1.5616
 1515SOL     OW16006   1.828   4.226  14.220 -0.3036 -0.7082 -0.4407
 1515SOL    HW116007   1.805   4.215  14.127  0.0186  1.3933 -0.7596
 1515SOL    HW216008   1.827   4.134  14.249 -2.4562 -0.9925 -1.4403
 1516SOL     OW16009   0.270   2.607   3.942 -0.0325 -0.0410 -0.2479
 1516SOL    HW116010   0.220   2.608   4.024  0.6144  0.5339  0.1329
 1516SOL    HW216011   0.255   2.691   3.898  1.2209  0.8477  0.9786
 1517SOL     OW16012   1.724   2.490   5.571  0.4868 -0.2462  0.1490
 1517SOL    HW116013   1.806   2.531   5.546 -0.8132  1.8552 -0.6037
 1517SOL    HW216014   1.741   2.396   5.580  2.7212  0.3611  2.3725
 1518SOL     OW16015   1.198   4.122   7.713  0.4274 -0.0842  0.1297
 1518SOL    HW116016   1.261   4.142   7.644 -0.3019  2.5378  0.2046
 1518SOL    HW216017   1.144   4.200   7.703  2.7871  1.6249  0.5010
 1519SOL     OW16018   2.632   2.027   3.292 -0.3164  1.0108 -0.0867
 1519SOL    HW116019   2.603   1.939   3.269  0.8569  0.3363  0.9792
 1519SOL    HW216020   2.704   2.006   3.352 -0.3497 -0.1848 -0.4561
 1520SOL     OW16021   4.197   1.237   9.501  0.2477  0.1754  0.1149
 1520SOL    HW116022   4.220   1.272   9.588 -0.4628 -3.7308  1.8778
 1520SOL    HW216023   4.266   1.172   9.489  0.6044  0.2464  1.7343
 1521SOL     OW16024   1.253   3.340   8.579 -0.0476 -0.0106  0.0433
 1521SOL    HW116025   1.229   3.251   8.602  1.0439 -0.1163  0.7793
 1521SOL    HW216026   1.338   3.318   8.541  0.2171 -1.5562  1.5151
 1522SOL     OW16027   3.457   2.135   7.239  0.2803 -0.0255  0.2580
 1522SOL    HW116028   3.438   2.188   7.161 -2.1562 -2.4707 -0.8067
 1522SOL    HW216029   3.493   2.204   7.295  0.2712 -0.2026  0.4788
 1523SOL     OW16030   3.174   2.626   3.487  0.1623  0.2485 -0.3978
 1523SOL    HW116031   3.187   2.592   3.399 -2.6774  2.1100 -1.5499
 1523SOL    HW216032   3.096   2.581   3.519  0.9374 -0.0127  1.1260
 1524SOL     OW16033   2.996   1.032   4.222  0.2202  0.9156  0.7963
 1524SOL    HW116034   2.929   1.023   4.154  1.4922 -0.6651 -0.2522
 1524SOL    HW216035   3.065   0.977   4.185 -0.5039  1.7305 -1.7997
 1525SOL     OW16036   4.464   0.646   6.867 -0.0483 -0.3648 -0.4733
 1525SOL    HW116037   4.538   0.628   6.927  0.5989 -1.6754 -1.6635
 1525SOL    HW216038   4.433   0.731   6.899 -0.2620 -0.0112 -1.6332
 1526SOL     OW16039   4.146   3.691   2.209 -0.0553  0.5039  0.2856
 1526SOL    HW116040   4.099   3.634   2.148 -0.4263  2.4682 -1.2529
 1526SOL    HW216041   4.150   3.628   2.281  0.4341 -0.2241 -0.3747
 1527SOL     OW16042   4.536   3.892  14.994  0.7950 -0.2155  0.4110
 1527SOL    HW116043   4.462   3.840  15.027  1.7693 -0.6756  1.8742
 1527SOL    HW216044   4.538   3.878  14.900 -1.3377 -0.9078  0.4521
 1528SOL     OW16045   4.154   4.651  13.827 -0.2095 -0.1608 -0.1058
 1528SOL    HW116046   4.066   4.640  13.792 -0.5648 -0.7929  0.9699
 1528SOL    HW216047   4.129   4.686  13.913  0.2319 -0.8638  0.3145
 1529SOL     OW16048   1.856   1.325   5.417  1.3371 -0.5054  0.0220
 1529SOL    HW116049   1.823   1.414   5.408  0.3313 -1.2451 -3.7667
 1529SOL    HW216050   1.780   1.281   5.454 -0.2891  2.1065 -0.2190
 1530SOL     OW16051   0.362   0.203   1.887  0.6032  0.0200 -0.2771
 1530SOL    HW116052   0.330   0.276   1.834 -0.5518 -1.1204 -1.1431
 1530SOL    HW216053   0.302   0.206   1.961 -0.7025  0.0958 -1.3299
 1531SOL     OW16054   2.135   3.262   8.693  1.0111  0.2662  0.4643
 1531SOL    HW116055   2.120   3.357   8.694 -1.3600 -0.1285  3.7049
 1531SOL    HW216056   2.042   3.238   8.696  1.1667 -0.3594  0.1419
 1532SOL     OW16057   0.439   4.294   2.639  0.6720  0.2186  0.0737
 1532SOL    HW116058   0.445   4.202   2.612 -1.2010  0.4831 -1.2800
 1532SOL    HW216059   0.474   4.333   2.559 -0.3326  1.9608  0.4875
 1533SOL     OW16060   0.771   1.566   7.232 -0.1347 -0.0359 -0.1574
 1533SOL    HW116061   0.691   1.617   7.223 -0.0865 -0.3508 -2.4673
 1533SOL    HW216062   0.735   1.478   7.238 -1.4740  0.6072  1.0279
 1534SOL     OW16063   4.201   1.258   0.765 -0.4832 -0.0298  0.6984
 1534SOL    HW116064   4.111   1.226   0.776 -0.5072 -0.3483 -0.4401
 1534SOL    HW216065   4.213   1.312   0.844 -2.0353  0.3371  0.6901
 1535SOL     OW16066   4.557   0.664   2.658 -0.1594 -0.2063  0.5046
 1535SOL    HW116067   4.573   0.608   2.734 -1.6682 -0.2298  0.8013
 1535SOL    HW216068   4.602   0.613   2.590 -0.5250  0.8041 -0.4988
 1536SOL     OW16069   4.378   2.052   0.854 -0.2225 -0.3760  0.3857
 1536SOL    HW116070   4.291   2.048   0.813 -0.0946 -1.6391  0.2503
 1536SOL    HW216071   4.348   2.127   0.906 -0.2308  1.2832 -1.9674
 1537SOL     OW16072   1.335   1.394   9.644  0.2119 -0.0631 -0.0041
 1537SOL    HW116073   1.353   1.349   9.562  4.1894 -1.4660  1.6509
 1537SOL    HW216074   1.245   1.366   9.661 -0.2181  1.6973  0.6413
 1538SOL     OW16075   2.281   0.059   8.172  0.3007  0.2648  0.2622
 1538SOL    HW116076   2.194   0.098   8.160 -0.5245 -1.2762  1.1137
 1538SOL    HW216077   2.308   0.090   8.259  1.9315  0.1209 -0.1977
 1539SOL     OW16078   1.876   1.512  13.348 -0.2896  0.0720  0.5343
 1539SOL    HW116079   1.841   1.489  13.262 -0.8700 -1.2041  1.1038
 1539SOL    HW216080   1.934   1.586  13.330 -0.1418 -0.4685 -1.1369
 1540SOL     OW16081   3.799   1.173  11.382  0.1990  0.1677 -0.3277
 1540SOL    HW116082   3.721   1.150  11.433  1.0022 -0.2895  0.6839
 1540SOL    HW216083   3.814   1.262  11.415 -1.2763  1.3418 -2.7487
 1541SOL     OW16084   0.657   1.227  17.201  0.0707 -0.6316 -0.5360
 1541SOL    HW116085   0.604   1.155  17.234  0.2687  1.3561  4.1409
 1541SOL    HW216086   0.577   1.274  17.177  0.3330 -0.5385 -1.2320
 1542SOL     OW16087   1.907   0.274   3.894 -0.0180 -0.4789  0.1482
 1542SOL    HW116088   1.819   0.310   3.881  0.5774  0.3775 -1.5544
 1542SOL    HW216089   1.965   0.349   3.880 -1.3174  0.1000 -2.1690
 1543SOL     OW16090   3.940   3.589  11.704  0.2734  0.2945 -0.2479
 1543SOL    HW116091   3.881   3.612  11.776  0.2387  0.4627 -0.3288
 1543SOL    HW216092   3.989   3.513  11.735  0.5307  0.5873  0.0666
 1544SOL     OW16093   1.988   0.257  11.803 -0.3363  0.1335 -0.6864
 1544SOL    HW116094   2.079   0.280  11.821 -0.0141 -1.5641 -0.2162
 1544SOL    HW216095   1.980   0.179  11.857 -0.2938  0.9058  0.4314
 1545SOL     OW16096   1.005   0.104   2.193 -0.3565 -0.2136 -0.6322
 1545SOL    HW116097   0.910   0.103   2.183 -0.3120 -0.5121 -1.0177
 1545SOL    HW216098   1.034   0.141   2.110  1.1794 -0.0170 -0.0205
 1546SOL     OW16099   3.596   0.480   8.350  0.4686 -0.7280 -0.4595
 1546SOL    HW116100   3.519   0.511   8.397  1.4046  0.6709  0.1171
 1546SOL    HW216101   3.586   0.526   8.267 -1.4488 -0.8291 -0.2967
 1547SOL     OW16102   3.865   3.940   6.142 -0.1985  0.0769 -0.0050
 1547SOL    HW116103   3.850   4.035   6.137 -0.2921  0.1824  2.2189
 1547SOL    HW216104   3.945   3.922   6.094 -1.1289  0.1736 -1.5866
 1548SOL     OW16105   4.211   4.129   5.518  0.0605  0.5414 -0.2149
 1548SOL    HW116106   4.117   4.141   5.505  0.1767  2.6539  0.7922
 1548SOL    HW216107   4.199   4.042   5.555 -1.3596  0.2489 -1.3531
 1549SOL     OW16108   0.963   2.474   7.168 -0.1399  0.2012 -0.3973
 1549SOL    HW116109   0.944   2.561   7.134 -1.8941 -0.2357 -0.5816
 1549SOL    HW216110   1.056   2.486   7.182  0.2031 -0.9838 -1.6237
 1550SOL     OW16111   3.468   1.928  16.256 -0.5166  0.4372 -0.1956
 1550SOL    HW116112   3.455   1.873  16.334  0.8579  0.2583 -0.0808
 1550SOL    HW216113   3.521   1.992  16.305  0.7416 -2.0646  1.7004
 1551SOL     OW16114   2.210   1.388  10.683 -0.1069  0.3639  0.5037
 1551SOL    HW116115   2.290   1.440  10.689 -1.5036  2.6010 -0.1298
 1551SOL    HW216116   2.167   1.406  10.766 -1.7590 -2.5286  0.2628
 1552SOL     OW16117   0.024   0.490   9.343  0.4184 -0.0035 -0.0495
 1552SOL    HW116118   4.655   0.468   9.372  0.6505  2.2448  2.4323
 1552SOL    HW216119   0.005   0.559   9.280  1.3485 -1.4076 -1.8693
 1553SOL     OW16120   2.972   2.517  11.551 -0.0621  0.0403  0.0940
 1553SOL    HW116121   2.967   2.509  11.455 -2.0995 -0.0966  0.2153
 1553SOL    HW216122   2.929   2.600  11.571 -1.2745 -0.3265 -0.9781
 1554SOL     OW16123   3.245   3.629   0.463  0.5153  0.0581  0.5756
 1554SOL    HW116124   3.263   3.716   0.427 -1.4630 -0.0728 -0.7173
 1554SOL    HW216125   3.264   3.643   0.556  3.2838  2.2320 -0.3098
 1555SOL     OW16126   0.570   3.997   0.793 -0.0664  0.1332 -0.2754
 1555SOL    HW116127   0.590   4.090   0.803  0.0326 -0.0034  0.8726
 1555SOL    HW216128   0.506   3.979   0.863 -2.4114  1.8074 -1.9824
 1556SOL     OW16129   1.708   3.496   4.573  0.2626 -0.1647  0.3589
 1556SOL    HW116130   1.768   3.422   4.576 -0.4049 -0.7050  0.3576
 1556SOL    HW216131   1.722   3.532   4.486  1.6763 -0.8811  0.2868
 1557SOL     OW16132   2.776   1.237   3.145 -0.3148 -0.1923 -0.1316
 1557SOL    HW116133   2.812   1.216   3.059  0.2980 -1.7799  0.5218
 1557SOL    HW216134   2.688   1.201   3.135  1.1985 -3.9188  0.2773
 1558SOL     OW16135   3.328   1.819   5.316  0.1856  0.0116  0.2017
 1558SOL    HW116136   3.260   1.861   5.262  0.0044 -0.7925 -0.1923
 1558SOL    HW216137   3.285   1.735   5.330  1.8144 -0.6077  1.4016
 1559SOL     OW16138   3.912   0.511   4.848 -0.5908 -0.7425  0.2858
 1559SOL    HW116139   3.929   0.602   4.872 -0.5335 -0.6679 -0.0351
 1559SOL    HW216140   3.832   0.510   4.795  0.0275 -1.9490 -0.6313
 1560SOL     OW16141   0.233   0.872   1.228  0.2180  0.4425  0.7160
 1560SOL    HW116142   0.198   0.847   1.142 -0.0570  0.3198  0.8620
 1560SOL    HW216143   0.260   0.961   1.204 -1.1758  0.9209  0.8645
 1561SOL     OW16144   0.930   3.350   4.626  0.1733 -0.7287 -0.3769
 1561SOL    HW116145   0.884   3.267   4.636  1.2000 -1.2705 -0.1135
 1561SOL    HW216146   0.943   3.341   4.531 -1.4883 -0.0212 -0.6678
 1562SOL     OW16147   0.560   0.946   3.860 -0.1809  0.0734  0.3558
 1562SOL    HW116148   0.514   0.992   3.930  0.0551  1.1750 -0.2235
 1562SOL    HW216149   0.652   0.971   3.868 -1.1330  4.0941 -1.7331
 1563SOL     OW16150   1.539   3.643   3.417 -0.7270 -0.3107  0.1397
 1563SOL    HW116151   1.515   3.618   3.507  0.0848 -1.5507  0.0119
 1563SOL    HW216152   1.553   3.737   3.419 -1.3838 -0.2277  1.0689
 1564SOL     OW16153   1.080   1.782  17.299  0.2324  0.0578  0.0626
 1564SOL    HW116154   1.058   1.689  17.304  0.0058 -0.0110 -2.0315
 1564SOL    HW216155   1.071   1.786  17.204 -0.3901  0.0091  0.1190
 1565SOL     OW16156   1.114   0.813   8.293 -0.7171 -0.1100 -0.5357
 1565SOL    HW116157   1.143   0.842   8.379 -0.0842  0.2741 -0.8750
 1565SOL    HW216158   1.189   0.846   8.243  0.1201 -0.7031  0.3130
 1566SOL     OW16159   1.611   3.543   7.031  0.4185  0.0947 -0.1717
 1566SOL    HW116160   1.688   3.574   7.079 -0.0657 -0.3355  0.8820
 1566SOL    HW216161   1.652   3.502   6.955 -3.0469  0.1608 -2.1099
 1567SOL     OW16162   2.392   1.338  14.319  0.6833 -0.1474 -0.1810
 1567SOL    HW116163   2.307   1.327  14.276  1.0127  1.5843 -1.2844
 1567SOL    HW216164   2.457   1.347  14.250  0.6454 -0.0637 -0.2053
 1568SOL     OW16165   0.065   2.022   3.886  0.0685  0.7678  0.1484
 1568SOL    HW116166   0.037   2.014   3.978  0.2839 -3.1621 -0.1239
 1568SOL    HW216167   0.158   2.008   3.903 -0.1117  1.9507  2.1168
 1569SOL     OW16168   2.466   2.306   4.883  0.1179  0.2701 -0.0929
 1569SOL    HW116169   2.514   2.258   4.816 -1.7368 -0.4558 -0.9146
 1569SOL    HW216170   2.400   2.342   4.823  0.4199  1.8572  0.5164
 1570SOL     OW16171   1.475   3.132   7.575  0.3807  0.2684  0.0201
 1570SOL    HW116172   1.394   3.085   7.558 -0.0173  2.0965 -3.0036
 1570SOL    HW216173   1.450   3.220   7.604  0.8610  0.5274 -0.3436
 1571SOL     OW16174   4.203   0.053   7.234 -0.2968  0.3959  0.1972
 1571SOL    HW116175   4.289   0.091   7.217  0.9216 -2.7319 -0.5677
 1571SOL    HW216176   4.157   0.086   7.156  0.6926  0.0334 -0.5368
 1572SOL     OW16177   3.424   1.406   4.624 -0.3889  0.3524 -0.3953
 1572SOL    HW116178   3.378   1.435   4.544 -0.8220  0.4667 -0.1058
 1572SOL    HW216179   3.430   1.312   4.613  0.7647  0.2266  1.3484
 1573SOL     OW16180   2.649   4.555  17.204  0.2477  0.4294 -0.0754
 1573SOL    HW116181   2.577   4.582  17.146 -1.2294  1.6892  2.3372
 1573SOL    HW216182   2.599   4.484  17.245  2.6855 -1.6786 -0.7354
 1574SOL     OW16183   1.028   0.415   9.411  0.7151 -0.7750 -0.0774
 1574SOL    HW116184   1.022   0.333   9.362 -3.8412 -0.4009 -0.0956
 1574SOL    HW216185   0.958   0.407   9.476 -0.4941  2.0947 -1.0182
 1575SOL     OW16186   3.401   3.103   9.090 -0.5208 -0.2779 -0.7384
 1575SOL    HW116187   3.438   3.015   9.078  1.0075  0.0921  1.2182
 1575SOL    HW216188   3.320   3.085   9.137 -1.1114  1.6483 -1.0226
 1576SOL     OW16189   4.720   3.325  12.928 -0.1928  0.4400 -0.5826
 1576SOL    HW116190   4.691   3.249  12.980  1.9470 -0.9083 -1.3871
 1576SOL    HW216191   4.630   3.349  12.905  0.2005  0.7913 -1.7009
 1577SOL     OW16192   0.450   4.157   3.665 -0.3913 -0.0529  0.4932
 1577SOL    HW116193   0.414   4.238   3.629  0.8838  1.2397  2.1025
 1577SOL    HW216194   0.473   4.113   3.583 -3.3688  1.0686 -0.9260
 1578SOL     OW16195   1.992   2.610   3.621 -0.6699  0.1252  0.5754
 1578SOL    HW116196   2.006   2.615   3.715 -0.9414  3.0369  0.4421
 1578SOL    HW216197   2.060   2.552   3.584 -0.8035  0.0991  0.3693
 1579SOL     OW16198   2.183   4.677   7.405 -0.9122  0.1591  0.2323
 1579SOL    HW116199   2.109   4.628   7.370 -1.0104  0.9710 -0.7113
 1579SOL    HW216200   2.257   4.637   7.359 -0.2919  1.3397  0.2035
 1580SOL     OW16201   1.123   0.929   6.208 -0.1024  0.2709  0.0634
 1580SOL    HW116202   1.137   0.997   6.273  3.4184  0.5430 -0.9536
 1580SOL    HW216203   1.131   0.985   6.131  1.9742  0.3852  0.3529
 1581SOL     OW16204   3.575   3.171   1.167 -1.0684 -0.2552 -0.5114
 1581SOL    HW116205   3.507   3.141   1.227 -0.9388  0.0606 -0.2068
 1581SOL    HW216206   3.650   3.180   1.226  0.5541  0.8345 -2.7243
 1582SOL     OW16207   0.973   0.517  12.764  0.1906  0.1171  0.0176
 1582SOL    HW116208   1.008   0.486  12.680  0.4686  0.8883 -0.1491
 1582SOL    HW216209   0.905   0.454  12.787 -0.3962 -0.1399 -2.4195
 1583SOL     OW16210   2.357   1.556   8.892 -0.3824 -0.5753  0.4380
 1583SOL    HW116211   2.330   1.494   8.960 -0.8867  0.1055  0.8660
 1583SOL    HW216212   2.282   1.541   8.835 -0.1941 -1.0438  0.3097
 1584SOL     OW16213   3.668   1.585   3.299  0.0822 -0.3660  0.2985
 1584SOL    HW116214   3.625   1.571   3.214 -0.2248  2.3733  0.0179
 1584SOL    HW216215   3.700   1.498   3.321  2.5625  0.3572 -0.4382
 1585SOL     OW16216   4.194   4.097  16.614 -0.3052  0.3976  1.0001
 1585SOL    HW116217   4.107   4.098  16.576  0.4311 -2.4770 -0.8039
 1585SOL    HW216218   4.194   4.179  16.663 -2.9520  0.9959 -0.0057
 1586SOL     OW16219   3.859   4.569   9.241  0.4790  0.1646 -0.0433
 1586SOL    HW116220   3.903   4.615   9.312  1.3409 -0.8449  0.0786
 1586SOL    HW216221   3.934   4.539   9.189 -1.1003 -1.5048 -1.3407
 1587SOL     OW16222   2.688   1.696   1.965 -0.4797  0.4674  0.2378
 1587SOL    HW116223   2.650   1.609   1.952  1.6981 -0.2615 -1.2187
 1587SOL    HW216224   2.612   1.753   1.954 -0.3428  0.6755  0.3671
 1588SOL     OW16225   3.308   2.342   3.922 -0.2508  0.3344 -0.0087
 1588SOL    HW116226   3.330   2.252   3.896 -1.6681 -0.2597  0.8604
 1588SOL    HW216227   3.283   2.378   3.837 -1.5074 -0.6190 -0.0393
 1589SOL     OW16228   3.852   4.196   6.048 -0.1030 -0.1601 -0.3412
 1589SOL    HW116229   3.903   4.249   6.109  1.1286  0.9599 -2.3686
 1589SOL    HW216230   3.922   4.177   5.986 -0.5141  1.8014 -1.3988
 1590SOL     OW16231   3.811   4.343  14.231 -0.4795 -0.0712 -0.1997
 1590SOL    HW116232   3.846   4.385  14.152 -0.2019  0.9974  0.4993
 1590SOL    HW216233   3.722   4.376  14.237 -0.4795  0.0313 -0.7923
 1591SOL     OW16234   2.872   1.342   6.160  0.9092 -0.3274  0.2151
 1591SOL    HW116235   2.833   1.341   6.073 -0.4866  1.4024  0.8187
 1591SOL    HW216236   2.813   1.281   6.205 -1.0304  0.5572 -1.1065
 1592SOL     OW16237   2.344   4.510   2.091  0.2492 -0.0975  0.1596
 1592SOL    HW116238   2.410   4.544   2.031  0.7069  1.3553  1.4889
 1592SOL    HW216239   2.370   4.541   2.178  1.1861  0.8520 -0.4693
 1593SOL     OW16240   2.893   0.409   2.895 -0.3861  0.4183  0.3237
 1593SOL    HW116241   2.863   0.391   2.984 -0.7721  3.6365  0.8485
 1593SOL    HW216242   2.817   0.391   2.840 -0.2088  0.0326  0.2029
 1594SOL     OW16243   2.996   1.733   3.730  0.5781  0.3247 -0.2437
 1594SOL    HW116244   2.923   1.672   3.740 -0.2334  1.3434  0.0392
 1594SOL    HW216245   3.005   1.767   3.819 -0.4708  0.5681 -0.2354
 1595SOL     OW16246   2.991   2.331   8.303 -0.3428 -0.5174 -0.1333
 1595SOL    HW116247   2.954   2.331   8.391 -0.2328  0.8903 -0.0889
 1595SOL    HW216248   2.965   2.242   8.278 -4.2984  0.1981  1.5173
 1596SOL     OW16249   3.143   1.699   1.277 -0.1015  0.3170  0.4298
 1596SOL    HW116250   3.142   1.734   1.188 -0.3446  0.2582  0.4110
 1596SOL    HW216251   3.109   1.775   1.325 -0.5072  0.0743  0.5242
 1597SOL     OW16252   0.888   1.366  15.463 -0.0841  0.3342  0.2185
 1597SOL    HW116253   0.922   1.438  15.516  1.2338 -0.3296  0.2899
 1597SOL    HW216254   0.888   1.412  15.379  0.7171 -0.4286 -0.2074
 1598SOL     OW16255   4.480   2.938   7.583 -0.1043 -0.2592  0.6137
 1598SOL    HW116256   4.507   3.029   7.568 -1.2761  0.0689  0.4642
 1598SOL    HW216257   4.463   2.917   7.491  1.2121 -2.2310  0.8166
 1599SOL     OW16258   4.504   0.149   6.482 -0.4871 -0.4745  1.0422
 1599SOL    HW116259   4.488   0.229   6.433  1.4656 -1.6524 -1.5459
 1599SOL    HW216260   4.493   0.177   6.573  0.3119 -1.0561  1.3214
 1600SOL     OW16261   0.655   2.997   8.874 -0.0505  0.0828  0.2080
 1600SOL    HW116262   0.686   3.075   8.829 -0.6144  1.1521  1.6834
 1600SOL    HW216263   0.677   2.937   8.803  0.1590 -1.1093  1.2800
 1601SOL     OW16264   1.189   4.267   6.222  0.2168 -0.5570  0.6712
 1601SOL    HW116265   1.177   4.352   6.180  2.5309 -0.1104  0.8625
 1601SOL    HW216266   1.280   4.257   6.194 -0.6171 -1.1042 -1.7845
 1602SOL     OW16267   4.057   2.851  16.273 -0.2822 -0.5928 -0.0170
 1602SOL    HW116268   4.050   2.841  16.368  0.0760 -0.1739  0.0557
 1602SOL    HW216269   3.972   2.888  16.251 -0.4355 -1.7608 -1.3621
 1603SOL     OW16270   4.462   3.106   4.507 -0.1991 -0.0354  0.4471
 1603SOL    HW116271   4.491   3.067   4.424 -1.3471  0.8848 -0.3953
 1603SOL    HW216272   4.393   3.044   4.527 -0.4602  0.3936  0.8907
 1604SOL     OW16273   1.956   0.680   3.947  0.3109 -0.0579 -0.2137
 1604SOL    HW116274   2.009   0.750   3.984 -1.0565  0.6644  0.3950
 1604SOL    HW216275   1.951   0.620   4.021 -3.2608 -0.5832 -0.8620
 1605SOL     OW16276   4.405   3.397  10.407 -0.4030 -0.4023  0.6808
 1605SOL    HW116277   4.415   3.483  10.447  0.6163 -0.5413  0.7241
 1605SOL    HW216278   4.484   3.355  10.440 -0.1166  1.2278  2.0088
 1606SOL     OW16279   2.055   2.106   5.132 -0.2192  0.2646 -0.2738
 1606SOL    HW116280   2.096   2.092   5.217 -0.5740  0.3038 -0.0977
 1606SOL    HW216281   1.990   2.175   5.145  0.1350  0.2107  1.7372
 1607SOL     OW16282   4.703   4.287  14.456  0.3606 -0.1487 -0.1556
 1607SOL    HW116283   4.710   4.354  14.524 -0.5330  0.7874 -0.9860
 1607SOL    HW216284   0.066   4.241  14.472 -0.3522 -1.4715 -0.2089
 1608SOL     OW16285   3.097   3.903   3.807 -0.0563  0.0891 -0.1194
 1608SOL    HW116286   3.017   3.870   3.849  1.2562 -1.6396  1.0074
 1608SOL    HW216287   3.077   3.996   3.798 -1.1997 -0.1119  0.2795
 1609SOL     OW16288   1.764   2.427   6.325  0.2473 -0.2317  0.1242
 1609SOL    HW116289   1.674   2.395   6.320  1.0978 -2.2136 -2.6673
 1609SOL    HW216290   1.755   2.508   6.374  0.7236 -0.5607  0.7560
 1610SOL     OW16291   2.193   2.959   5.808 -0.1491 -0.2779 -0.5937
 1610SOL    HW116292   2.179   3.003   5.724 -3.3647  1.3427  0.7934
 1610SOL    HW216293   2.117   2.901   5.810  0.3687 -1.0005 -1.8596
 1611SOL     OW16294   4.250   2.516   6.663  0.3205  0.1712  0.7589
 1611SOL    HW116295   4.275   2.554   6.579 -2.3994 -1.0275 -0.5720
 1611SOL    HW216296   4.287   2.428   6.655  0.7247  0.4761 -0.7848
 1612SOL     OW16297   1.362   3.143   5.040 -0.1230  0.9054 -0.2426
 1612SOL    HW116298   1.340   3.108   4.954 -0.8796 -2.3128  1.2278
 1612SOL    HW216299   1.314   3.225   5.049 -3.2428 -0.8055 -1.5046
 1613SOL     OW16300   3.174   1.961   6.070  0.2561 -0.1968  0.1054
 1613SOL    HW116301   3.119   1.894   6.109 -1.4941  2.3491  1.9979
 1613SOL    HW216302   3.247   1.905   6.045  0.4506  0.4211 -0.7433
 1614SOL     OW16303   3.339   1.899   3.621  0.0441  0.3710  0.1847
 1614SOL    HW116304   3.386   1.880   3.540 -0.6808 -4.4495  0.9076
 1614SOL    HW216305   3.254   1.938   3.598 -0.8412 -1.2006  0.7822
 1615SOL     OW16306   0.071   0.680  12.398 -0.3236 -0.4559 -0.0652
 1615SOL    HW116307   0.130   0.719  12.333 -1.3062 -0.0978 -0.7410
 1615SOL    HW216308   0.002   0.640  12.344 -0.6798 -1.0152  0.8070
 1616SOL     OW16309   2.986   4.677   5.661 -0.0780 -0.2765 -0.0035
 1616SOL    HW116310   3.082   4.684   5.652 -0.3192  1.3701 -1.3767
 1616SOL    HW216311   2.985   4.615   5.733  1.1899  0.2921  0.5142
 1617SOL     OW16312   1.801   3.504  15.384 -0.0399  0.0069 -0.1780
 1617SOL    HW116313   1.871   3.464  15.333  0.4219  0.8061 -0.1694
 1617SOL    HW216314   1.823   3.594  15.361 -1.7059  0.1147 -1.3009
 1618SOL     OW16315   3.925   2.164   4.489  0.5838 -0.4370  0.2962
 1618SOL    HW116316   3.937   2.083   4.439 -3.0553 -0.0974 -1.1552
 1618SOL    HW216317   4.011   2.190   4.522  0.6013  0.8234 -0.7452
 1619SOL     OW16318   1.382   4.187  15.549  0.1825  0.2861 -0.1843
 1619SOL    HW116319   1.308   4.170  15.491 -0.5465  2.0507  0.2341
 1619SOL    HW216320   1.372   4.128  15.623  1.0370 -1.5036 -1.4999
 1620SOL     OW16321   0.485   2.409   4.514 -0.0191 -0.2543  0.1344
 1620SOL    HW116322   0.411   2.449   4.561 -0.5042 -3.5822  2.1318
 1620SOL    HW216323   0.533   2.382   4.591  1.6420  0.0977 -0.7815
 1621SOL     OW16324   2.512   3.988  14.729 -0.2869  0.5032 -0.3111
 1621SOL    HW116325   2.552   4.067  14.694 -0.5468  0.2029 -1.2896
 1621SOL    HW216326   2.420   4.012  14.716 -0.9573 -1.5752  0.5167
 1622SOL     OW16327   3.975   2.767   7.978  0.1285 -0.1231  0.2290
 1622SOL    HW116328   4.028   2.690   7.958 -0.9611 -0.4416 -1.4373
 1622SOL    HW216329   4.044   2.812   8.027 -0.8007 -0.1630  1.5613
 1623SOL     OW16330   0.484   2.719   3.369  0.0993 -0.1947  0.4162
 1623SOL    HW116331   0.519   2.665   3.298 -0.9547 -0.5529  0.1720
 1623SOL    HW216332   0.400   2.673   3.366 -0.0506  0.0168  1.2668
 1624SOL     OW16333   1.960   2.397   4.579  0.0320 -0.0328  0.2128
 1624SOL    HW116334   1.925   2.392   4.490  1.9310  0.1702 -0.5336
 1624SOL    HW216335   1.879   2.420   4.625  1.5896  2.8385  1.5533
 1625SOL     OW16336   0.072   1.924   4.219  0.5268  0.1279 -0.5800
 1625SOL    HW116337   4.710   1.959   4.184  0.0584 -0.2463  0.1597
 1625SOL    HW216338   0.112   2.005   4.253 -0.8385  0.1214  1.0477
 1626SOL     OW16339   2.151   3.982  10.672  0.4184  0.2148 -0.2338
 1626SOL    HW116340   2.216   3.920  10.640  1.3531  1.2886 -0.4371
 1626SOL    HW216341   2.203   4.047  10.719 -0.6314  1.2948 -0.5758
 1627SOL     OW16342   1.980   2.706   2.728  0.1357  0.2648  0.5532
 1627SOL    HW116343   1.997   2.760   2.651  0.6948  1.1345  1.2839
 1627SOL    HW216344   1.951   2.627   2.684  0.9694  0.3332 -0.1129
 1628SOL     OW16345   1.064   0.729  12.880  0.1071 -0.3661 -0.1007
 1628SOL    HW116346   1.054   0.790  12.807 -0.1989  0.0603  0.2924
 1628SOL    HW216347   1.023   0.649  12.847 -0.3959 -0.0957 -0.1348
 1629SOL     OW16348   4.653   3.850   0.209  0.5727  0.0981 -0.3707
 1629SOL    HW116349   4.596   3.916   0.249  2.2507  0.5407  1.2821
 1629SOL    HW216350   4.684   3.818   0.294 -1.3102 -1.6504 -0.3256
 1630SOL     OW16351   0.141   1.521  10.184  0.2212  0.2871 -0.3801
 1630SOL    HW116352   0.079   1.521  10.257 -0.4550 -2.1203 -0.9567
 1630SOL    HW216353   0.082   1.501  10.112 -2.3637 -0.7898  2.0296
 1631SOL     OW16354   1.169   4.580   4.159  0.4275  0.5244 -0.1896
 1631SOL    HW116355   1.233   4.571   4.089 -0.6832 -0.2856 -1.1122
 1631SOL    HW216356   1.099   4.634   4.123 -0.1938  0.2718  0.6023
 1632SOL     OW16357   3.515   3.320   5.079  0.1144 -0.6564 -0.3986
 1632SOL    HW116358   3.597   3.309   5.031  1.1816  0.6834  1.1452
 1632SOL    HW216359   3.513   3.240   5.132  1.6921  0.3648  1.1757
 1633SOL     OW16360   3.816   4.052  16.122  0.1521 -0.1649 -0.2894
 1633SOL    HW116361   3.743   4.014  16.171  0.8108  0.6861  1.3261
 1633SOL    HW216362   3.886   4.014  16.175 -2.0124 -1.5754  1.5623
 1634SOL     OW16363   4.230   1.226   4.253 -0.0896  0.1783 -0.2877
 1634SOL    HW116364   4.151   1.188   4.214  0.1528 -0.3465 -0.2760
 1634SOL    HW216365   4.217   1.204   4.346  1.1176  3.2073  0.6053
 1635SOL     OW16366   0.835   1.457   4.058  0.0453  0.6967  0.1941
 1635SOL    HW116367   0.923   1.471   4.093  0.8232  0.0239 -1.4880
 1635SOL    HW216368   0.780   1.438   4.134  0.3585 -0.0571  0.2349
 1636SOL     OW16369   2.296   3.417   2.545 -0.3456  0.5152  0.2545
 1636SOL    HW116370   2.241   3.478   2.497 -0.4910  1.1277  1.2024
 1636SOL    HW216371   2.354   3.484   2.581  0.3554 -0.0704  0.2104
 1637SOL     OW16372   1.808   1.326   6.721  0.2003 -0.8174  0.2544
 1637SOL    HW116373   1.742   1.341   6.653  0.5044  0.7806  0.2935
 1637SOL    HW216374   1.833   1.235   6.705  1.3286 -0.4960  0.2315
 1638SOL     OW16375   0.205   4.657   6.782  0.4911  0.1289 -0.1025
 1638SOL    HW116376   0.125   4.652   6.730  0.9151 -2.2797 -0.4901
 1638SOL    HW216377   0.208   4.570   6.822 -0.6843  0.1229 -0.0148
 1639SOL     OW16378   0.022   0.742   0.445 -0.2837 -0.1229  0.1189
 1639SOL    HW116379   0.060   0.691   0.517 -0.4499 -0.1636  0.1799
 1639SOL    HW216380   4.695   0.671   0.401  0.4382 -0.3415 -0.2961
 1640SOL     OW16381   0.021   3.151  10.365 -0.0572  0.4680  0.0375
 1640SOL    HW116382   4.712   3.182  10.450  2.3416  0.1509  0.9914
 1640SOL    HW216383   4.656   3.139  10.324 -1.4317  2.6882  2.2267
 1641SOL     OW16384   2.473   2.896   6.752  0.1740  0.2620  0.2094
 1641SOL    HW116385   2.477   2.801   6.766  0.0495  0.3344  0.7283
 1641SOL    HW216386   2.381   2.911   6.771  0.0108  0.4539 -0.7464
 1642SOL     OW16387   1.455   2.976   8.300 -0.1258 -0.6000  0.0715
 1642SOL    HW116388   1.487   2.893   8.333  0.9052 -1.3405 -2.8260
 1642SOL    HW216389   1.540   3.016   8.280 -2.1293  2.8890 -1.3958
 1643SOL     OW16390   1.848   2.996   2.969 -0.2081 -0.0633 -0.0731
 1643SOL    HW116391   1.879   2.941   3.040  0.7085  0.0549 -0.3846
 1643SOL    HW216392   1.907   2.968   2.900  1.4437  1.7244  0.5889
 1644SOL     OW16393   4.375   0.394   6.847 -0.1419 -0.5231  0.0734
 1644SOL    HW116394   4.416   0.480   6.844  2.0505 -1.5880 -1.3495
 1644SOL    HW216395   4.307   0.405   6.913 -0.3465 -2.2653  0.1734
 1645SOL     OW16396   4.465   4.503   7.149  0.5057 -0.7291  0.2210
 1645SOL    HW116397   4.510   4.570   7.098 -0.9926  1.2441  1.4900
 1645SOL    HW216398   4.535   4.440   7.165 -0.7396 -1.2308  3.7502
 1646SOL     OW16399   1.271   1.418   7.688  0.2958 -0.4840  0.4159
 1646SOL    HW116400   1.274   1.512   7.708 -0.1513 -0.3173 -0.2930
 1646SOL    HW216401   1.229   1.423   7.602  2.0630  0.4326 -0.3895
 1647SOL     OW16402   0.119   3.060   9.348 -0.1186 -0.1417 -0.2839
 1647SOL    HW116403   0.139   2.967   9.338  1.2797  0.0456  0.7572
 1647SOL    HW216404   0.154   3.104   9.270  0.5927  2.1756  1.3613
 1648SOL     OW16405   1.863   3.218   4.617  0.4548  0.4090 -0.1175
 1648SOL    HW116406   1.946   3.184   4.650  0.3807  0.0636 -0.2939
 1648SOL    HW216407   1.838   3.154   4.551  1.8911 -2.2876  1.9601
 1649SOL     OW16408   2.129   2.617  13.350  0.2390 -0.3386  0.7944
 1649SOL    HW116409   2.089   2.632  13.435 -1.7123 -0.1741 -0.1599
 1649SOL    HW216410   2.177   2.699  13.335  1.2812 -1.0022  0.5148
 1650SOL     OW16411   2.854   2.388   3.776 -0.3963 -0.2250 -0.2479
 1650SOL    HW116412   2.808   2.337   3.844 -0.1772 -0.6548 -0.4247
 1650SOL    HW216413   2.846   2.330   3.701 -1.8212 -0.7789  0.3293
 1651SOL     OW16414   1.492   2.133   6.088  0.6934  0.1549  0.4438
 1651SOL    HW116415   1.577   2.095   6.063 -0.3368 -1.0650 -1.1560
 1651SOL    HW216416   1.469   2.170   6.003  0.7139  1.1841  0.8797
 1652SOL     OW16417   2.589   2.732  15.405 -0.4691 -0.0272  0.1335
 1652SOL    HW116418   2.593   2.669  15.477  0.6897 -1.6064 -1.3088
 1652SOL    HW216419   2.565   2.809  15.457 -0.0621 -0.4558  0.9511
 1653SOL     OW16420   2.326   3.821  13.416  0.1037  0.3909  0.2252
 1653SOL    HW116421   2.348   3.899  13.467  1.8841 -2.4346  3.7472
 1653SOL    HW216422   2.411   3.796  13.379 -0.7016  0.3943 -1.6531
 1654SOL     OW16423   3.927   3.317   3.833 -0.2068 -0.0589  0.0656
 1654SOL    HW116424   4.001   3.350   3.885 -0.7669  0.8288  0.2898
 1654SOL    HW216425   3.944   3.225   3.852  2.2049  0.3835  0.1388
 1655SOL     OW16426   2.678   4.258   1.693 -0.0703  0.2978  0.0152
 1655SOL    HW116427   2.639   4.179   1.655  0.0238  0.5934 -0.6870
 1655SOL    HW216428   2.620   4.324   1.655 -0.4765 -0.0589  0.0141
 1656SOL     OW16429   4.520   2.006  12.584  0.0102 -0.2410  0.3957
 1656SOL    HW116430   4.592   2.038  12.638  0.8332 -0.3042 -0.6523
 1656SOL    HW216431   4.487   2.087  12.546  2.6466  0.9214  0.5363
 1657SOL     OW16432   2.732   0.924   4.943  0.3385  0.6535  0.3978
 1657SOL    HW116433   2.673   0.933   4.868  2.1204  1.4016 -0.9129
 1657SOL    HW216434   2.682   0.868   5.003  0.0288  2.5245  1.8791
 1658SOL     OW16435   0.148   4.631   6.172 -0.0954  0.3116  0.7271
 1658SOL    HW116436   0.067   4.672   6.201  0.6209  1.9172  0.4207
 1658SOL    HW216437   0.139   4.605   6.081  1.8184  0.2050  0.5606
 1659SOL     OW16438   2.119   4.195   6.787 -0.1818 -0.4885 -0.5855
 1659SOL    HW116439   2.161   4.114   6.816  1.2619  0.1982 -0.7811
 1659SOL    HW216440   2.124   4.256   6.861 -2.4188  1.0814 -1.7247
 1660SOL     OW16441   4.066   4.649   3.711 -0.1572 -0.7253  0.0253
 1660SOL    HW116442   4.156   4.669   3.733 -0.2422 -2.0886  1.5997
 1660SOL    HW216443   4.091   4.600   3.632 -0.2407 -2.8012  1.2867
 1661SOL     OW16444   1.725   3.552   4.891 -0.3113  0.1934 -0.5937
 1661SOL    HW116445   1.747   3.645   4.900  0.4603  0.0317 -0.7821
 1661SOL    HW216446   1.716   3.549   4.796 -0.2297  1.3228 -0.6386
 1662SOL     OW16447   1.581   1.680  10.581  0.0711  0.1949 -0.3204
 1662SOL    HW116448   1.626   1.736  10.644  2.1632 -1.8213 -0.0044
 1662SOL    HW216449   1.536   1.621  10.641  0.4961 -2.3066 -2.4732
 1663SOL     OW16450   3.876   3.787  10.116  0.5380  0.0131  0.4169
 1663SOL    HW116451   3.915   3.873  10.099  0.4965 -0.1338 -0.4602
 1663SOL    HW216452   3.794   3.811  10.158 -0.5094 -0.3917 -1.4007
 1664SOL     OW16453   2.719   3.263   7.063 -0.1230 -0.1328  0.6445
 1664SOL    HW116454   2.751   3.227   6.981 -1.6909  0.3973 -0.2008
 1664SOL    HW216455   2.626   3.242   7.066 -0.7324  2.2765 -1.6995
 1665SOL     OW16456   3.456   4.547  16.797  0.7963  0.8940  0.6135
 1665SOL    HW116457   3.387   4.548  16.864  0.8698 -1.1012  0.7200
 1665SOL    HW216458   3.518   4.599  16.848  0.4890  0.8229  1.0655
 1666SOL     OW16459   4.560   1.724   8.311  1.0065  0.4021 -0.5047
 1666SOL    HW116460   4.639   1.670   8.313  0.5190 -0.3057 -0.4481
 1666SOL    HW216461   4.496   1.662   8.345 -0.9376  2.5427 -0.2810
 1667SOL     OW16462   1.282   1.299   8.883  0.1769 -0.1375 -0.3741
 1667SOL    HW116463   1.241   1.224   8.841 -2.3884  0.9451  0.2085
 1667SOL    HW216464   1.249   1.377   8.840 -0.5069 -0.1914  0.0437
 1668SOL     OW16465   4.560   0.559   1.437  0.5983  0.2301 -0.0662
 1668SOL    HW116466   4.496   0.492   1.414  0.1536  0.0684  1.7192
 1668SOL    HW216467   4.534   0.596   1.521  1.8812  3.0752 -0.8938
 1669SOL     OW16468   1.505   3.538  14.687 -0.5278  0.3381 -0.1461
 1669SOL    HW116469   1.558   3.506  14.614 -0.2876  1.8924 -0.6580
 1669SOL    HW216470   1.425   3.556  14.638 -0.3636 -1.3599 -1.0392
 1670SOL     OW16471   1.160   1.062   8.838  0.0405  0.2493 -0.1263
 1670SOL    HW116472   1.145   0.968   8.845 -0.4560  0.2418 -1.3225
 1670SOL    HW216473   1.069   1.087   8.853  0.1019 -1.0367  2.2756
 1671SOL     OW16474   0.738   0.039   4.182 -0.1752 -0.1579 -0.1104
 1671SOL    HW116475   0.818   0.086   4.159  1.4306 -1.3020  3.0751
 1671SOL    HW216476   0.753   0.022   4.275 -0.7443  0.8665  0.1771
 1672SOL     OW16477   1.769   1.328   8.853 -0.6079  0.3488 -0.4966
 1672SOL    HW116478   1.704   1.293   8.914 -2.0687  1.3489 -1.4812
 1672SOL    HW216479   1.843   1.343   8.911 -0.8550 -1.8766  0.3758
 1673SOL     OW16480   1.029   2.894   9.833 -0.0437  0.1010  0.5012
 1673SOL    HW116481   0.934   2.893   9.820  0.2831 -2.1236 -1.8199
 1673SOL    HW216482   1.046   2.986   9.854  1.5518  0.5897 -2.8632
 1674SOL     OW16483   2.812   3.156   3.303 -0.1300  0.0038  0.6481
 1674SOL    HW116484   2.760   3.098   3.359  0.1975 -0.8048  0.1172
 1674SOL    HW216485   2.861   3.204   3.370  0.5979 -0.9303  0.7953
 1675SOL     OW16486   1.178   2.248  10.215  0.3686  0.0919 -0.1784
 1675SOL    HW116487   1.128   2.321  10.252  0.7997  0.1081  0.3696
 1675SOL    HW216488   1.249   2.296  10.171  1.0156 -0.9630 -0.2845
 1676SOL     OW16489   2.675   1.193  13.446  0.2550  0.0359  0.4020
 1676SOL    HW116490   2.737   1.266  13.437 -0.8962  1.1191  1.2258
 1676SOL    HW216491   2.603   1.247  13.479 -0.6949 -1.2029  0.3348
 1677SOL     OW16492   3.932   4.131  15.885 -0.6178  0.3387  0.0075
 1677SOL    HW116493   3.878   4.089  15.818 -0.4625 -2.4466  1.6401
 1677SOL    HW216494   3.903   4.094  15.968 -2.4081  1.4599 -0.1197
 1678SOL     OW16495   2.883   0.272   7.988 -0.4448  0.5746 -0.4446
 1678SOL    HW116496   2.818   0.234   8.047 -0.9228  1.8779 -0.1264
 1678SOL    HW216497   2.850   0.261   7.899 -0.9837  0.7255 -0.2648
 1679SOL     OW16498   0.889   1.199  13.813 -0.1985 -0.2245 -0.2069
 1679SOL    HW116499   0.796   1.173  13.810 -0.1238 -0.7055  1.5784
 1679SOL    HW216500   0.927   1.131  13.757  1.1432  0.4558 -0.0992
 1680SOL     OW16501   1.025   2.898   2.699 -0.2687  0.3730  0.1047
 1680SOL    HW116502   1.116   2.880   2.722 -1.1691 -1.4321  2.1924
 1680SOL    HW216503   1.009   2.813   2.658  1.2334  0.9507 -1.6646
 1681SOL     OW16504   4.016   0.063   2.814 -0.1606  0.5283  0.2442
 1681SOL    HW116505   4.074   4.708   2.826  1.4840  1.8674  0.7911
 1681SOL    HW216506   4.065   0.125   2.760  0.8748  1.0916  1.8293
 1682SOL     OW16507   3.313   1.343   6.930 -0.1009  0.0258 -0.1088
 1682SOL    HW116508   3.317   1.339   7.026 -1.1503 -3.0396 -0.1976
 1682SOL    HW216509   3.248   1.274   6.915 -0.7912  0.4519  0.8857
 1683SOL     OW16510   2.447   1.480   4.738  0.1182 -0.4686  0.6281
 1683SOL    HW116511   2.481   1.554   4.688 -2.2955 -1.0178 -1.7927
 1683SOL    HW216512   2.462   1.508   4.828  0.1501 -2.2315  1.1766
 1684SOL     OW16513   0.780   4.498   6.214  0.2260  0.5324  1.0456
 1684SOL    HW116514   0.851   4.524   6.156 -1.7463 -2.0133 -2.5248
 1684SOL    HW216515   0.819   4.521   6.298  0.1777  3.0981  0.3564
 1685SOL     OW16516   3.036   3.423   4.953  0.0995  0.0141 -0.1546
 1685SOL    HW116517   3.006   3.353   4.895 -0.3465  0.0661  0.0116
 1685SOL    HW216518   3.087   3.371   5.014  0.4065 -0.0874 -0.4956
 1686SOL     OW16519   2.027   1.372   8.082  0.2114 -0.0091  0.5157
 1686SOL    HW116520   1.987   1.285   8.087  0.8786 -0.0490  5.3294
 1686SOL    HW216521   2.118   1.341   8.080 -0.0082 -0.6887  0.8624
 1687SOL     OW16522   0.666   0.889  13.390 -0.2463 -0.2909  0.2633
 1687SOL    HW116523   0.723   0.964  13.372 -0.4789 -0.2146 -0.1604
 1687SOL    HW216524   0.716   0.833  13.330  1.0964  1.0036  0.1830
 1688SOL     OW16525   0.229   3.926   8.705  0.8077 -0.1800  0.0857
 1688SOL    HW116526   0.287   3.972   8.644  1.6617 -0.1519  0.9007
 1688SOL    HW216527   0.197   3.857   8.647  2.1120 -1.2419  0.6232
 1689SOL     OW16528   2.815   4.210   0.546 -0.2780  0.3623 -0.1808
 1689SOL    HW116529   2.723   4.234   0.534 -0.2920 -0.7124 -2.2237
 1689SOL    HW216530   2.808   4.216   0.641 -1.0808 -2.0907 -0.0793
 1690SOL     OW16531   1.783   2.110  13.196 -0.0138 -0.0163 -0.2387
 1690SOL    HW116532   1.724   2.185  13.195  0.4117  0.3025 -2.1941
 1690SOL    HW216533   1.728   2.042  13.233 -0.7244  0.4944 -0.3634
 1691SOL     OW16534   4.002   1.687   4.507 -0.3397 -0.2578  0.4216
 1691SOL    HW116535   4.087   1.648   4.526  0.4561  0.0651 -2.3553
 1691SOL    HW216536   3.960   1.701   4.592 -2.4758  0.2068 -0.7081
 1692SOL     OW16537   1.172   4.596   5.155 -0.7365 -0.8189  0.3736
 1692SOL    HW116538   1.145   4.541   5.081 -1.6774 -0.8001  0.6965
 1692SOL    HW216539   1.103   4.586   5.221  1.1336 -0.2765  2.3857
 1693SOL     OW16540   0.689   3.900  10.398  0.1175 -0.0909  0.8555
 1693SOL    HW116541   0.761   3.956  10.428  0.6878 -0.7547  0.7394
 1693SOL    HW216542   0.636   3.902  10.478 -0.5452 -2.2381  0.4645
 1694SOL     OW16543   4.357   2.543  16.836  0.2012  0.4807  0.1166
 1694SOL    HW116544   4.282   2.572  16.785 -0.1570  0.1611  0.4566
 1694SOL    HW216545   4.333   2.558  16.928 -1.5515  0.2487 -0.3026
 1695SOL     OW16546   2.913   4.351  12.344 -0.4823 -0.1912 -0.6716
 1695SOL    HW116547   2.971   4.373  12.416 -1.8167 -2.2608  1.0185
 1695SOL    HW216548   2.981   4.358  12.276  0.6396  1.8007  0.6831
 1696SOL     OW16549   0.487   3.958   3.857  1.0648 -0.0494 -0.4614
 1696SOL    HW116550   0.487   4.033   3.797  2.5226  1.0849  0.9786
 1696SOL    HW216551   0.542   3.994   3.926 -0.3912  1.7707 -0.2612
 1697SOL     OW16552   3.042   0.521   7.978 -0.0542  0.4496 -0.0143
 1697SOL    HW116553   2.958   0.476   7.967 -1.2339  2.1146  2.0621
 1697SOL    HW216554   3.100   0.449   8.003  0.6970  0.9817 -0.2301
 1698SOL     OW16555   3.038   2.047   4.685  0.5048 -0.2255  0.1559
 1698SOL    HW116556   3.061   1.955   4.695  0.2970 -0.2069  0.7911
 1698SOL    HW216557   3.017   2.076   4.774  2.5352  0.5539  0.3706
 1699SOL     OW16558   3.935   2.782   8.586  0.3831 -0.3950 -0.4237
 1699SOL    HW116559   3.950   2.687   8.596  3.6893  0.2281  0.5664
 1699SOL    HW216560   3.846   2.778   8.620  0.0078 -3.3610 -1.7026
 1700SOL     OW16561   3.743   0.907   0.113  0.2849 -0.1796  0.2880
 1700SOL    HW116562   3.746   0.998   0.145  1.6540 -1.2742  3.2965
 1700SOL    HW216563   3.715   0.925   0.024  1.0699 -0.3011  0.0237
 1701SOL     OW16564   3.060   3.570   6.381  0.8819  0.0066 -0.5726
 1701SOL    HW116565   2.967   3.551   6.392  0.6837  0.1940 -1.8968
 1701SOL    HW216566   3.104   3.487   6.364  2.3006  0.6773 -0.1792
 1702SOL     OW16567   0.204   0.052  13.791 -0.0034  0.0475  0.2424
 1702SOL    HW116568   0.144   0.048  13.716  0.4775 -1.3432 -0.0684
 1702SOL    HW216569   0.192   0.137  13.834  1.5376  0.2854  0.1844
 1703SOL     OW16570   0.867   4.110  14.840 -0.0744  0.5706  0.1196
 1703SOL    HW116571   0.887   4.028  14.884  0.5561 -0.1144 -1.4328
 1703SOL    HW216572   0.777   4.091  14.813  0.6995  0.6908 -2.5223
 1704SOL     OW16573   3.184   4.693   1.930  0.1643  0.2193 -0.0801
 1704SOL    HW116574   3.225   4.694   1.844 -0.5277  2.2389 -0.4061
 1704SOL    HW216575   3.109   0.033   1.921  0.0027 -0.1457 -1.1682
 1705SOL     OW16576   0.870   2.645  13.533 -0.2013  0.2127  0.1194
 1705SOL    HW116577   0.827   2.590  13.468  0.5966 -0.2740  0.0060
 1705SOL    HW216578   0.943   2.590  13.561 -0.6800 -0.2964  0.3576
 1706SOL     OW16579   1.788   1.901   6.515  0.2395  1.0471  0.5572
 1706SOL    HW116580   1.772   1.916   6.608 -0.8742 -0.5098  0.6199
 1706SOL    HW216581   1.842   1.822   6.515 -0.0229  0.8694 -3.1762
 1707SOL     OW16582   4.143   3.272   8.253  0.6542 -0.2240  0.4773
 1707SOL    HW116583   4.114   3.295   8.165  0.4935 -1.4267  0.2120
 1707SOL    HW216584   4.072   3.317   8.298  1.9501  0.7417  1.5321
 1708SOL     OW16585   3.333   4.066   1.614 -0.1821 -0.0735  0.7290
 1708SOL    HW116586   3.276   4.064   1.537 -0.4423 -0.4977  0.9307
 1708SOL    HW216587   3.311   3.983   1.658  2.1945 -0.3753  1.3199
 1709SOL     OW16588   4.218   0.063   6.930  0.3764 -0.2026 -0.7980
 1709SOL    HW116589   4.240   4.689   6.926  0.4929 -0.1951 -0.3300
 1709SOL    HW216590   4.290   0.112   6.890 -1.0883  0.6766 -2.3195
 1710SOL     OW16591   4.094   0.465   3.301  0.3094  0.1206 -0.1936
 1710SOL    HW116592   4.117   0.546   3.347 -2.2014  0.2595  0.8112
 1710SOL    HW216593   4.181   0.424   3.292  0.5853  0.3584  1.3623
 1711SOL     OW16594   3.822   1.378   5.542  0.4494 -0.0663 -0.1959
 1711SOL    HW116595   3.746   1.381   5.484 -1.2495  0.1605  2.0479
 1711SOL    HW216596   3.885   1.347   5.477  1.0168 -0.0895  0.3669
 1712SOL     OW16597   3.362   3.887  13.505 -0.2607  0.2154 -0.2225
 1712SOL    HW116598   3.346   3.826  13.577 -1.5372 -0.0036 -0.6921
 1712SOL    HW216599   3.374   3.833  13.427  1.5576  1.1768 -0.6163
 1713SOL     OW16600   0.810   0.583   2.432 -0.6011 -0.2892  0.3436
 1713SOL    HW116601   0.785   0.527   2.358  0.8648 -2.6402  1.6352
 1713SOL    HW216602   0.867   0.520   2.477  3.2025  1.5830 -1.8845
 1714SOL     OW16603   2.227   3.911   8.408 -0.1303  0.3456  0.2097
 1714SOL    HW116604   2.281   3.842   8.447  0.6384  0.1620 -1.2020
 1714SOL    HW216605   2.224   3.883   8.317 -0.4572  1.0530  0.0072
 1715SOL     OW16606   4.709   3.392  11.703 -0.1372  0.7605  1.0761
 1715SOL    HW116607   4.664   3.475  11.722  0.2687  0.6257  2.5996
 1715SOL    HW216608   4.642   3.326  11.721  0.6493 -0.6080 -0.9882
 1716SOL     OW16609   3.752   4.191   5.217 -0.1838  0.1055  0.5729
 1716SOL    HW116610   3.671   4.218   5.261 -0.0569 -1.9626  2.0341
 1716SOL    HW216611   3.761   4.097   5.230  2.2946 -0.1457 -2.8851
 1717SOL     OW16612   4.700   3.177   4.313  0.1323 -0.4198 -0.0751
 1717SOL    HW116613   0.075   3.170   4.323  0.1760  2.1069  1.1831
 1717SOL    HW216614   4.672   3.086   4.313 -2.6202  0.4396 -0.2791
 1718SOL     OW16615   3.712   0.571   2.012  0.1632 -1.0221  0.6790
 1718SOL    HW116616   3.677   0.510   1.947  1.5942 -1.9201  0.7369
 1718SOL    HW216617   3.711   0.654   1.965 -1.1680 -3.0325 -2.8033
 1719SOL     OW16618   0.903   2.113  15.528 -0.2373  0.1995 -0.0915
 1719SOL    HW116619   0.969   2.180  15.513 -0.4177  0.4521  0.2486
 1719SOL    HW216620   0.825   2.154  15.490 -0.4040 -0.6758 -0.6960
 1720SOL     OW16621   0.514   4.264   8.698  0.9416 -0.4632 -0.5431
 1720SOL    HW116622   0.551   4.244   8.784  1.9108  2.4147 -0.2884
 1720SOL    HW216623   0.593   4.288   8.649  1.6557 -0.7887  0.4602
 1721SOL     OW16624   2.148   4.351  16.401 -0.1982 -0.7248 -0.1589
 1721SOL    HW116625   2.161   4.366  16.307 -1.0715 -1.4405 -0.4043
 1721SOL    HW216626   2.238   4.326  16.422  0.0348  0.3268  0.0943
 1722SOL     OW16627   2.083   0.691  10.117  0.2207  0.1200 -0.0146
 1722SOL    HW116628   2.124   0.752  10.056 -1.5878  0.1209 -1.2003
 1722SOL    HW216629   2.131   0.708  10.198 -1.0854 -0.1352  0.8131
 1723SOL     OW16630   3.622   2.234   8.821  0.2132  0.0261 -0.8545
 1723SOL    HW116631   3.615   2.310   8.764 -0.0276 -0.3069 -1.2709
 1723SOL    HW216632   3.716   2.242   8.837 -0.0127  0.3217  0.3430
 1724SOL     OW16633   2.857   3.526   1.901 -0.2518 -0.2159 -0.1099
 1724SOL    HW116634   2.951   3.539   1.888 -0.7488  0.8786 -2.6065
 1724SOL    HW216635   2.848   3.444   1.852 -0.9325  0.8401 -1.7021
 1725SOL     OW16636   1.490   3.617  10.140  0.0657 -0.2764  0.6799
 1725SOL    HW116637   1.494   3.712  10.143 -1.5549 -0.1446 -1.0303
 1725SOL    HW216638   1.583   3.594  10.140  0.1094 -0.0944  0.7749
 1726SOL     OW16639   2.290   1.091  13.334 -0.0243  0.4160  0.1764
 1726SOL    HW116640   2.244   1.090  13.250 -1.8545  0.0468  1.1795
 1726SOL    HW216641   2.355   1.022  13.320 -2.4164 -1.8388  0.2843
 1727SOL     OW16642   0.905   1.635   6.219  0.3579 -0.8008 -0.5036
 1727SOL    HW116643   0.914   1.542   6.237 -2.7073 -0.7567  1.2384
 1727SOL    HW216644   0.860   1.638   6.134  2.6087  0.0806 -1.6861
 1728SOL     OW16645   0.821   3.013  10.948  0.3992 -0.0807 -0.6922
 1728SOL    HW116646   0.785   3.010  11.037  1.1526  1.6264 -0.3329
 1728SOL    HW216647   0.801   2.925  10.915  1.0258 -0.2165 -0.7157
 1729SOL     OW16648   0.799   2.344   6.387 -0.4959  0.1640 -0.1798
 1729SOL    HW116649   0.705   2.348   6.403 -0.3511  1.9672  0.2275
 1729SOL    HW216650   0.816   2.259   6.427 -0.1100  0.7355  0.8668
 1730SOL     OW16651   0.698   2.334  14.391 -0.1864  0.6552 -0.4184
 1730SOL    HW116652   0.724   2.245  14.415 -0.0469  0.3870 -1.5995
 1730SOL    HW216653   0.700   2.324  14.296  0.2837 -1.9802 -0.1145
 1731SOL     OW16654   0.465   1.956   6.012  0.2394 -0.1793 -0.1754
 1731SOL    HW116655   0.378   1.936   5.978  0.2309 -1.8148  0.8222
 1731SOL    HW216656   0.525   1.920   5.948  0.4991 -1.6822  0.9016
 1732SOL     OW16657   4.357   1.270  12.572  0.4586 -1.0648  0.0028
 1732SOL    HW116658   4.313   1.311  12.646 -0.8990 -2.5990  0.0420
 1732SOL    HW216659   4.288   1.265  12.506  1.2195  0.3633 -0.9165
 1733SOL     OW16660   4.641   1.287  16.494  0.0134 -0.0564 -0.1986
 1733SOL    HW116661   4.586   1.264  16.420 -1.1543  0.9049  0.3660
 1733SOL    HW216662   4.668   1.376  16.472 -2.3026  0.2667 -1.7055
 1734SOL     OW16663   1.802   0.956   6.981  0.1418  0.0343  0.0597
 1734SOL    HW116664   1.793   0.873   6.933 -0.0744  1.3707 -2.2179
 1734SOL    HW216665   1.708   0.974   6.979  0.0161 -0.3571  2.1940
 1735SOL     OW16666   2.814   0.885   9.261 -0.5781  0.2144 -0.3202
 1735SOL    HW116667   2.856   0.969   9.280 -0.1090 -0.0662 -0.1395
 1735SOL    HW216668   2.872   0.823   9.305  0.9995  0.4688 -2.0771
 1736SOL     OW16669   2.766   3.191  13.398  0.1927  0.6331  0.3557
 1736SOL    HW116670   2.816   3.144  13.464 -0.5653 -0.3386  0.2392
 1736SOL    HW216671   2.763   3.131  13.323 -1.1043  0.1181  0.8182
 1737SOL     OW16672   1.645   3.772  11.087  0.0052  0.3224 -0.1354
 1737SOL    HW116673   1.637   3.832  11.012  1.4503 -0.2614 -0.7746
 1737SOL    HW216674   1.697   3.703  11.045 -0.3633 -1.1480  1.8726
 1738SOL     OW16675   0.051   3.104   2.474  0.4003 -0.4813 -0.2055
 1738SOL    HW116676   0.140   3.089   2.442 -0.7415 -1.1390 -3.0465
 1738SOL    HW216677   0.017   3.015   2.477 -1.6724  0.3507  0.6141
 1739SOL     OW16678   3.928   2.615   3.642 -0.4419 -0.7175  0.3051
 1739SOL    HW116679   3.844   2.597   3.599 -0.3687  1.4935 -0.7406
 1739SOL    HW216680   3.991   2.547   3.618  0.3857 -0.1781  0.9762
 1740SOL     OW16681   3.288   2.430   8.283 -0.3268  0.0063  0.2517
 1740SOL    HW116682   3.302   2.432   8.188  0.3755 -1.3202  0.3262
 1740SOL    HW216683   3.199   2.397   8.295 -0.8603  0.5827 -2.0689
 1741SOL     OW16684   0.551   4.206  15.119  0.3652 -0.6289  1.0237
 1741SOL    HW116685   0.490   4.220  15.192  0.0835  1.4830  0.3679
 1741SOL    HW216686   0.502   4.263  15.060 -1.7745 -2.3019  1.1655
 1742SOL     OW16687   3.524   4.381  11.478 -0.5780 -0.1447 -0.0001
 1742SOL    HW116688   3.438   4.392  11.519 -1.7077  0.0031 -2.4096
 1742SOL    HW216689   3.573   4.324  11.538 -1.4814 -0.9067  0.0284
 1743SOL     OW16690   2.873   2.844   5.164 -0.3084 -0.1138 -0.1661
 1743SOL    HW116691   2.934   2.883   5.226 -0.4933  0.3876 -0.3036
 1743SOL    HW216692   2.847   2.764   5.210 -0.0844  0.8714  1.6443
 1744SOL     OW16693   1.809   0.509  15.267 -0.6190 -0.0472  0.1293
 1744SOL    HW116694   1.716   0.491  15.279 -1.0213  2.0760  0.2618
 1744SOL    HW216695   1.842   0.432  15.314 -0.0165 -0.4041 -0.8812
 1745SOL     OW16696   3.593   2.886  17.494 -0.4845 -0.4885 -0.0131
 1745SOL    HW116697   3.614   2.968  17.540 -0.5780  0.1881 -1.1681
 1745SOL    HW216698   3.587   2.825  17.567  0.7042 -0.5454  0.0360
 1746SOL     OW16699   1.578   2.626  15.214 -0.2597 -0.5932 -0.3441
 1746SOL    HW116700   1.580   2.555  15.151  2.8912 -1.3609  0.6214
 1746SOL    HW216701   1.521   2.580  15.276 -0.3343 -1.2548 -0.9107
 1747SOL     OW16702   4.076   2.106  14.603  0.7656  0.1705 -0.0947
 1747SOL    HW116703   4.143   2.056  14.650 -0.1801  0.0338  1.1345
 1747SOL    HW216704   4.006   2.095  14.668  1.5017 -0.1491  0.6535
 1748SOL     OW16705   1.755   3.379   6.087 -0.1651 -0.3823  0.4215
 1748SOL    HW116706   1.795   3.446   6.033 -0.8982  0.2221  0.6274
 1748SOL    HW216707   1.780   3.300   6.039 -1.0691 -0.4537  0.0600
 1749SOL     OW16708   2.970   4.018   2.821  0.3502 -0.1033  0.3539
 1749SOL    HW116709   3.061   3.992   2.811  0.5445  0.5824  0.3835
 1749SOL    HW216710   2.948   4.078   2.750 -0.9159 -0.0393  0.7974
 1750SOL     OW16711   4.703   2.862   6.237  0.6201 -0.4047 -0.2270
 1750SOL    HW116712   0.031   2.844   6.157 -0.6114 -1.5905 -0.7051
 1750SOL    HW216713   0.038   2.914   6.295  2.4003 -0.8314 -1.5538
 1751SOL     OW16714   2.623   2.322   1.342 -0.2103  0.0250 -0.0512
 1751SOL    HW116715   2.562   2.320   1.416  0.0294  0.9060  0.1737
 1751SOL    HW216716   2.658   2.411   1.334 -0.9766  0.3633  0.3580
 1752SOL     OW16717   1.240   2.406   5.031  0.3335  0.1944  0.4805
 1752SOL    HW116718   1.191   2.437   4.955 -0.0973  0.0982  0.7243
 1752SOL    HW216719   1.235   2.471   5.101  1.4321  0.9899 -0.1691
 1753SOL     OW16720   2.901   1.575  11.553 -0.2859 -0.2493  0.5981
 1753SOL    HW116721   2.958   1.633  11.603 -1.1429  0.6448  0.5333
 1753SOL    HW216722   2.938   1.488  11.568  1.6693  0.5408  0.3983
 1754SOL     OW16723   0.365   2.870   0.501  0.4474  0.8826  0.2130
 1754SOL    HW116724   0.366   2.807   0.429  0.1966 -1.7674  2.5227
 1754SOL    HW216725   0.367   2.811   0.576 -0.2727  1.1064  0.4114
 1755SOL     OW16726   2.439   2.990  17.477 -0.6805 -0.0815 -0.1861
 1755SOL    HW116727   2.373   3.051  17.445 -0.1751  0.3818 -0.3412
 1755SOL    HW216728   2.520   3.040  17.473 -1.6154  1.4888  0.8613
 1756SOL     OW16729   3.451   2.181   5.657  0.1160 -0.5889  0.3789
 1756SOL    HW116730   3.487   2.130   5.730 -1.1597  1.1726  2.2096
 1756SOL    HW216731   3.380   2.119   5.641 -1.7329  1.6289  0.0211
 1757SOL     OW16732   0.303   1.161   9.731  0.1777  0.1783 -0.2442
 1757SOL    HW116733   0.212   1.133   9.720  0.5023 -0.4892 -1.1742
 1757SOL    HW216734   0.290   1.253   9.705  1.9092  0.9141  1.4609
 1758SOL     OW16735   2.886   4.474  14.279 -0.2405 -0.1110  0.8126
 1758SOL    HW116736   2.868   4.485  14.186  1.5773  1.6461  0.6771
 1758SOL    HW216737   2.853   4.558  14.313  0.3627  1.1646 -1.7837
 1759SOL     OW16738   1.928   1.161  11.934  0.6013  0.0063  0.1104
 1759SOL    HW116739   2.001   1.160  11.873  1.7815 -0.3994  1.5418
 1759SOL    HW216740   1.873   1.228  11.892  1.7820  1.1669  0.4087
 1760SOL     OW16741   4.133   3.593   5.741  0.4340 -0.6895 -0.3224
 1760SOL    HW116742   4.064   3.527   5.733  0.6193 -0.7951 -1.0384
 1760SOL    HW216743   4.098   3.682   5.737 -1.1718 -1.3144 -0.0790
 1761SOL     OW16744   2.292   2.857   3.334  0.3420 -0.4658 -0.9055
 1761SOL    HW116745   2.245   2.774   3.330 -1.3131  0.3372  1.4369
 1761SOL    HW216746   2.273   2.874   3.426 -0.8653 -1.5713 -0.9495
 1762SOL     OW16747   4.069   3.648   9.584 -0.4313 -0.2982  0.4333
 1762SOL    HW116748   4.019   3.697   9.649  0.1361  2.2971 -1.0684
 1762SOL    HW216749   4.155   3.670   9.620 -1.2274  2.7370  0.4482
 1763SOL     OW16750   0.086   0.595   0.013  0.0613 -0.1296  0.1869
 1763SOL    HW116751   0.038   0.641   0.082 -1.2938 -2.7182  0.9849
 1763SOL    HW216752   0.170   0.590   0.059 -0.3318 -2.7563  0.6230
 1764SOL     OW16753   2.812   3.610   2.148 -0.1273  0.1554 -0.3739
 1764SOL    HW116754   2.799   3.562   2.066  2.0566 -0.9993 -0.0407
 1764SOL    HW216755   2.741   3.673   2.138 -0.5611 -0.1330  0.8792
 1765SOL     OW16756   2.607   1.130   5.979  0.1441  0.2588  0.8067
 1765SOL    HW116757   2.641   1.214   5.949 -0.1484  0.3946  0.8562
 1765SOL    HW216758   2.666   1.111   6.052  0.8999  0.0096  0.1393
 1766SOL     OW16759   1.188   3.427  11.516 -0.1174 -0.4255 -0.6160
 1766SOL    HW116760   1.181   3.522  11.531  0.7900 -0.2228 -1.4798
 1766SOL    HW216761   1.249   3.395  11.583 -0.9657  4.3646  2.4710
 1767SOL     OW16762   0.104   1.578   4.633 -0.3966 -0.5596  0.3778
 1767SOL    HW116763   0.159   1.546   4.562  0.1500  0.9862  0.1015
 1767SOL    HW216764   0.045   1.627   4.576 -2.6592 -0.9218  2.4027
 1768SOL     OW16765   2.702   4.503   1.451 -0.4751  0.5873 -0.2299
 1768SOL    HW116766   2.666   4.549   1.375 -0.0388  1.2246 -0.0510
 1768SOL    HW216767   2.620   4.460   1.477  1.0236 -1.9082  0.3939
 1769SOL     OW16768   3.067   1.481  12.957  0.2431  0.1417 -0.2958
 1769SOL    HW116769   2.976   1.503  12.940 -0.0510  1.3017  2.7799
 1769SOL    HW216770   3.072   1.392  12.924  0.0176  0.7478 -1.9725
 1770SOL     OW16771   2.913   0.277  11.615 -0.2670  0.4670  0.2630
 1770SOL    HW116772   2.925   0.231  11.532  0.6366 -0.3388  0.8371
 1770SOL    HW216773   2.921   0.203  11.675 -1.3442 -0.5946 -0.8835
 1771SOL     OW16774   0.611   3.692   1.223  0.5404  0.2148  0.1760
 1771SOL    HW116775   0.664   3.732   1.292  1.4326  1.3472 -1.1391
 1771SOL    HW216776   0.647   3.605   1.238  1.1887  0.5086  0.3321
 1772SOL     OW16777   0.912   1.697  13.376  0.1736  0.5707 -0.1730
 1772SOL    HW116778   0.929   1.652  13.459 -1.1306  0.1902 -0.1071
 1772SOL    HW216779   0.843   1.759  13.402 -0.0710  0.3307 -0.2542
 1773SOL     OW16780   4.490   1.058   2.446 -0.0389 -0.2280 -0.4904
 1773SOL    HW116781   4.444   1.069   2.363 -0.2244  1.6974 -0.1373
 1773SOL    HW216782   4.578   1.039   2.414 -0.6880 -1.0335 -1.7973
 1774SOL     OW16783   0.898   2.284  16.655 -0.7567  0.6997  0.2090
 1774SOL    HW116784   0.887   2.299  16.749 -0.3125  2.5451 -0.0328
 1774SOL    HW216785   0.936   2.196  16.652 -0.5825  0.8294 -1.2347
 1775SOL     OW16786   3.407   0.557   6.911 -0.0405  0.2548 -0.1538
 1775SOL    HW116787   3.449   0.510   6.983  1.1658 -2.0088 -2.3523
 1775SOL    HW216788   3.360   0.627   6.956 -0.9540 -0.6045  0.2211
 1776SOL     OW16789   1.103   0.940   8.574  0.2995  0.2491 -0.5901
 1776SOL    HW116790   1.106   1.019   8.628 -0.8693  1.1117 -1.7800
 1776SOL    HW216791   1.011   0.938   8.548  0.8965  1.9103 -2.7965
 1777SOL     OW16792   0.230   1.732   5.309  0.1754  0.9724 -0.2205
 1777SOL    HW116793   0.317   1.751   5.345  0.7200 -0.4288 -0.7441
 1777SOL    HW216794   0.255   1.750   5.218  0.0374  0.9831 -0.2557
 1778SOL     OW16795   3.156   0.572   2.455 -0.4742  0.2582  0.1902
 1778SOL    HW116796   3.072   0.617   2.453 -0.3213  0.6107  1.8263
 1778SOL    HW216797   3.186   0.599   2.368 -2.0527  2.6515  0.3935
 1779SOL     OW16798   0.440   3.459   9.681 -0.0416  0.7263 -0.3586
 1779SOL    HW116799   0.438   3.554   9.671 -0.9854  0.8686  1.2096
 1779SOL    HW216800   0.355   3.443   9.723  0.3150 -0.6130 -0.1564
 1780SOL     OW16801   1.375   2.529  14.169 -0.2347  0.0349  0.0412
 1780SOL    HW116802   1.315   2.494  14.234  0.4457  0.5720  0.9616
 1780SOL    HW216803   1.430   2.453  14.152 -0.1290  0.2912 -0.7618
 1781SOL     OW16804   4.144   0.086  11.248  0.1294 -0.3882 -0.9569
 1781SOL    HW116805   4.107   0.068  11.334 -1.2698  2.5932 -0.9386
 1781SOL    HW216806   4.134   0.181  11.244  0.5486 -0.3872 -2.0673
 1782SOL     OW16807   1.754   0.083   7.413  0.4764 -0.2861 -0.0318
 1782SOL    HW116808   1.764   4.720   7.459  0.6019  0.4363  1.2456
 1782SOL    HW216809   1.821   0.082   7.345 -0.3586  1.0144 -0.8795
 1783SOL     OW16810   4.362   2.964   3.453  0.3539  0.1983 -0.1045
 1783SOL    HW116811   4.298   2.893   3.462  0.4920  0.2271  1.1892
 1783SOL    HW216812   4.358   2.995   3.544 -1.1388  1.3560 -0.5616
 1784SOL     OW16813   4.064   3.987   3.674  0.0519 -0.3510  0.1084
 1784SOL    HW116814   4.091   3.899   3.649 -0.9356 -1.0052  1.3392
 1784SOL    HW216815   4.050   4.033   3.591 -2.3455 -0.2836  0.5509
 1785SOL     OW16816   2.649   1.673  12.289  0.3722  0.2139 -0.7375
 1785SOL    HW116817   2.636   1.700  12.198 -1.0351 -1.0595 -0.9185
 1785SOL    HW216818   2.564   1.708  12.317 -0.1704  1.6248 -4.0538
 1786SOL     OW16819   3.391   0.034  15.047 -0.0177  0.6199  0.3285
 1786SOL    HW116820   3.453   4.694  15.006 -0.9015  0.3462 -0.5979
 1786SOL    HW216821   3.312   0.030  14.993 -0.6618 -1.9540  1.4564
 1787SOL     OW16822   3.829   1.275   5.859  0.1972  0.0929 -0.7455
 1787SOL    HW116823   3.879   1.194   5.847  0.2739  0.2013 -1.1692
 1787SOL    HW216824   3.911   1.323   5.848  0.7011 -0.8817 -1.2607
 1788SOL     OW16825   3.721   3.051   7.745 -0.2957  0.5919  0.0533
 1788SOL    HW116826   3.721   3.137   7.788  0.9702  0.5946  0.0415
 1788SOL    HW216827   3.724   2.992   7.820  0.4361  1.0874  0.4152
 1789SOL     OW16828   2.799   4.617   0.020 -0.3774  0.0189  0.6327
 1789SOL    HW116829   2.885   4.656   0.036 -1.1209  1.8956  0.0879
 1789SOL    HW216830   2.753   4.693  17.666 -0.6015  0.3599  1.6373
 1790SOL     OW16831   3.946   4.155   5.473  0.2795  0.0429 -0.1116
 1790SOL    HW116832   3.971   4.207   5.396 -0.2220 -1.0997 -1.0550
 1790SOL    HW216833   3.886   4.098   5.425  0.3701 -0.1237 -0.0271
 1791SOL     OW16834   4.069   3.362   0.935 -0.1849 -0.1033  0.7378
 1791SOL    HW116835   4.107   3.275   0.947 -0.5730 -0.5139 -1.1493
 1791SOL    HW216836   3.976   3.343   0.941 -0.3678  0.0859 -1.7014
 1792SOL     OW16837   1.163   0.664   9.552 -0.4146  0.6302  0.5581
 1792SOL    HW116838   1.202   0.585   9.514 -2.1417 -0.6503  1.4378
 1792SOL    HW216839   1.200   0.660   9.640 -0.1860 -1.9522  0.3401
 1793SOL     OW16840   3.141   3.747  13.693  0.1034  0.4418 -0.3224
 1793SOL    HW116841   3.090   3.812  13.645  0.9291  0.3156 -1.3755
 1793SOL    HW216842   3.163   3.692  13.618  0.7142  2.0060 -1.2916
 1794SOL     OW16843   0.735   2.328   5.495 -0.1656  0.0182 -0.1307
 1794SOL    HW116844   0.666   2.380   5.536  0.5286 -0.4096  1.6116
 1794SOL    HW216845   0.725   2.253   5.554  1.2159  1.4125  1.8915
 1795SOL     OW16846   3.114   0.479  14.913 -0.4326 -0.6993  0.3452
 1795SOL    HW116847   3.181   0.423  14.955  0.5917  0.0736 -0.2603
 1795SOL    HW216848   3.073   0.421  14.849  2.0751 -1.3461 -0.6931
 1796SOL     OW16849   4.303   1.165   5.012 -1.1516 -0.7120 -0.8965
 1796SOL    HW116850   4.379   1.126   5.056  0.2457  1.9822 -0.9489
 1796SOL    HW216851   4.283   1.112   4.935  0.5529 -0.2648 -1.6369
 1797SOL     OW16852   4.325   0.685   8.588  0.3985  0.0699 -0.1309
 1797SOL    HW116853   4.281   0.651   8.511  1.1364  0.2650 -0.6413
 1797SOL    HW216854   4.255   0.720   8.643  1.0362 -1.3628  1.6003
 1798SOL     OW16855   3.649   4.661   6.039 -0.6473 -0.4541 -0.0009
 1798SOL    HW116856   3.708   4.695   5.972  0.4933 -0.7862  0.8367
 1798SOL    HW216857   3.564   4.687   6.004 -1.2481 -0.8730  1.1263
 1799SOL     OW16858   4.168   2.259   7.953 -0.3100 -0.0606  0.5053
 1799SOL    HW116859   4.208   2.173   7.941  0.7113  0.3874  0.7038
 1799SOL    HW216860   4.199   2.279   8.042  1.2059  0.6215 -0.1723
 1800SOL     OW16861   3.087   0.911  16.459  0.1300  0.5573  0.0219
 1800SOL    HW116862   3.012   0.970  16.467  1.5322  2.5992 -1.8816
 1800SOL    HW216863   3.098   0.897  16.553 -0.2691  0.6691  0.0877
 1801SOL     OW16864   0.100   3.012  11.337 -0.2836  0.2397  0.0412
 1801SOL    HW116865   0.123   2.951  11.407  1.1180  1.4478  0.6076
 1801SOL    HW216866   0.027   3.066  11.367 -0.0104  1.7890 -2.0939
 1802SOL     OW16867   3.341   3.051   8.622 -0.1847  0.0530 -0.2147
 1802SOL    HW116868   3.382   3.055   8.708  2.5636  0.2763 -1.5220
 1802SOL    HW216869   3.256   3.094   8.629 -0.1924  0.1656 -1.0137
 1803SOL     OW16870   1.246   2.340   5.708 -0.7605  0.1007 -0.2371
 1803SOL    HW116871   1.318   2.402   5.714 -1.8074  1.2109  0.8297
 1803SOL    HW216872   1.170   2.398   5.713 -0.9627 -0.0512 -1.5197
 1804SOL     OW16873   2.253   3.570   5.869 -0.0914  0.2501  0.0252
 1804SOL    HW116874   2.314   3.638   5.840 -0.5268  0.8221  0.4669
 1804SOL    HW216875   2.318   3.503   5.893 -1.9669 -1.5387  0.1275
 1805SOL     OW16876   1.443   0.808   9.639  0.3461  0.2747 -0.8436
 1805SOL    HW116877   1.414   0.784   9.551 -0.9002  0.4072 -0.4725
 1805SOL    HW216878   1.426   0.901   9.626 -0.9779  0.5764  2.8039
 1806SOL     OW16879   0.670   3.017   4.330  0.4178 -0.6295 -0.4537
 1806SOL    HW116880   0.602   2.949   4.336  0.0119 -0.3560 -1.8385
 1806SOL    HW216881   0.641   3.056   4.412  1.3045  0.6076 -0.7386
 1807SOL     OW16882   2.344   4.030   2.311 -0.5176 -0.4719  0.2243
 1807SOL    HW116883   2.366   4.052   2.402  1.1374 -0.8671 -0.0759
 1807SOL    HW216884   2.351   3.935   2.324  0.8274 -0.5903 -1.3860
 1808SOL     OW16885   3.400   2.285   7.027  0.1023 -0.1159 -0.3273
 1808SOL    HW116886   3.360   2.217   6.973 -1.2338  1.2787 -1.0921
 1808SOL    HW216887   3.320   2.328   7.058 -1.0041 -1.3461 -1.4689
 1809SOL     OW16888   1.242   0.588   3.916 -0.6214  0.5028  0.1410
 1809SOL    HW116889   1.201   0.556   3.996 -1.1625  1.1853  0.1299
 1809SOL    HW216890   1.168   0.614   3.861 -1.0796  0.9176  0.9566
 1810SOL     OW16891   2.970   3.442  10.415  0.2152 -0.3004 -0.4951
 1810SOL    HW116892   2.895   3.387  10.396 -1.9741  1.4729  2.9953
 1810SOL    HW216893   2.933   3.492  10.488 -0.3550 -0.3552 -0.7545
 1811SOL     OW16894   1.804   1.560   5.832  0.0547 -0.1043  0.5166
 1811SOL    HW116895   1.887   1.570   5.784 -1.1735  1.4523 -1.2973
 1811SOL    HW216896   1.784   1.654   5.838  0.7510  0.0394  0.7050
 1812SOL     OW16897   3.429   2.673   2.518  0.1993 -0.3202 -0.1455
 1812SOL    HW116898   3.395   2.584   2.515 -1.9049  0.4734 -0.0275
 1812SOL    HW216899   3.487   2.658   2.443  0.2234 -0.0349 -0.1831
 1813SOL     OW16900   3.759   3.693   3.729 -0.5526  0.4324  0.2315
 1813SOL    HW116901   3.797   3.719   3.813  0.0534 -1.0625  0.4155
 1813SOL    HW216902   3.717   3.607   3.734  1.4824 -0.5614  0.1966
 1814SOL     OW16903   2.805   3.838  13.210  0.1898  0.5041  0.5784
 1814SOL    HW116904   2.793   3.758  13.159  0.4564  0.5353  0.4656
 1814SOL    HW216905   2.894   3.828  13.246  0.6558  2.4447 -0.0130
 1815SOL     OW16906   0.320   0.792   2.375 -0.3800  0.1727 -0.4884
 1815SOL    HW116907   0.276   0.788   2.290 -0.2136  0.0730 -0.5714
 1815SOL    HW216908   0.242   0.781   2.429 -0.3276  2.6272  0.0620
 1816SOL     OW16909   0.177   3.134   1.751  0.0445 -0.0189  0.4590
 1816SOL    HW116910   0.199   3.109   1.661  0.7507  1.9644  0.0918
 1816SOL    HW216911   0.123   3.057   1.771 -1.5403  0.5623 -1.5656
 1817SOL     OW16912   0.832   0.913   8.306 -0.0228 -0.5780  0.0357
 1817SOL    HW116913   0.917   0.869   8.304 -0.6423 -1.7373 -0.7211
 1817SOL    HW216914   0.844   0.986   8.367 -0.0710 -0.0194 -0.6163
 1818SOL     OW16915   0.751   0.636   8.293 -0.1016 -0.0473  0.7091
 1818SOL    HW116916   0.657   0.617   8.299  0.0309 -0.9964 -0.3058
 1818SOL    HW216917   0.746   0.731   8.297  0.1450  0.0703 -2.0543
 1819SOL     OW16918   0.727   4.078   5.058 -0.1068  0.5260 -0.5969
 1819SOL    HW116919   0.708   4.155   5.005 -1.1625  0.2535 -0.6195
 1819SOL    HW216920   0.648   4.057   5.106  0.8665 -2.1631 -0.1435
 1820SOL     OW16921   2.056   0.663   5.797 -0.2097  0.2763  0.3236
 1820SOL    HW116922   2.062   0.631   5.707 -0.9609 -0.1746  0.4319
 1820SOL    HW216923   2.107   0.744   5.795  2.6199 -1.5098  0.8643
 1821SOL     OW16924   2.801   2.074   2.555  0.4653  0.7860 -0.4252
 1821SOL    HW116925   2.740   2.043   2.622  1.0977 -0.8515 -0.6010
 1821SOL    HW216926   2.737   2.086   2.485  1.3824  2.5896 -0.9533
 1822SOL     OW16927   2.823   3.412   2.426  0.3066 -0.2442  0.6391
 1822SOL    HW116928   2.858   3.413   2.337  1.2528 -0.5744  1.0209
 1822SOL    HW216929   2.852   3.324   2.448  1.6012  0.3955  1.4955
 1823SOL     OW16930   4.437   1.820   5.077  0.4758 -0.1040  0.3233
 1823SOL    HW116931   4.493   1.749   5.108 -0.2233 -0.2891  1.1614
 1823SOL    HW216932   4.454   1.878   5.151  2.0560  1.2957 -1.1252
 1824SOL     OW16933   2.106   4.528   4.693  0.7565  0.2225 -0.5193
 1824SOL    HW116934   2.089   4.619   4.667  2.6559  1.1419  1.4816
 1824SOL    HW216935   2.042   4.480   4.640  0.4794 -0.3448  0.3377
 1825SOL     OW16936   1.461   4.362   1.099 -0.1227 -0.4669  0.3760
 1825SOL    HW116937   1.483   4.413   1.021  0.8635 -0.1796  0.8372
 1825SOL    HW216938   1.383   4.313   1.073 -0.3923  0.5005 -0.5907
 1826SOL     OW16939   3.632   1.610   2.303 -0.5310  0.3105  0.0985
 1826SOL    HW116940   3.582   1.550   2.247 -1.0852  0.8826 -0.0155
 1826SOL    HW216941   3.691   1.538   2.327  0.4344  0.7231 -1.0480
 1827SOL     OW16942   0.172   1.864   7.217  0.1891 -0.5434  0.3691
 1827SOL    HW116943   0.159   1.802   7.289 -2.0519 -2.5698 -1.7253
 1827SOL    HW216944   0.152   1.800   7.148  0.1466  2.1282 -2.0814
 1828SOL     OW16945   0.995   4.423   3.868  0.7424 -0.7310 -0.1262
 1828SOL    HW116946   1.012   4.381   3.952 -2.4701 -0.8052  0.4845
 1828SOL    HW216947   0.900   4.413   3.860  0.8423 -0.8546 -1.1086
 1829SOL     OW16948   2.458   2.731  13.560  0.4500 -0.3256 -0.3354
 1829SOL    HW116949   2.391   2.754  13.496  0.0564  1.0183  0.5588
 1829SOL    HW216950   2.491   2.818  13.582  1.4673 -0.7493 -0.1757
 1830SOL     OW16951   1.477   4.027  11.987 -0.3301 -0.2198  0.4601
 1830SOL    HW116952   1.470   4.053  12.079  1.6279 -0.4883  0.6895
 1830SOL    HW216953   1.415   3.954  11.987  0.8335 -1.1974 -2.9840
 1831SOL     OW16954   2.890   4.552  16.828  0.0285  0.0421 -0.8050
 1831SOL    HW116955   2.921   4.470  16.865  0.3244  0.0351 -1.0702
 1831SOL    HW216956   2.889   4.607  16.907  1.9088 -1.4929  0.2906
 1832SOL     OW16957   1.196   1.723   9.950  0.4447  0.1523  0.0440
 1832SOL    HW116958   1.242   1.641   9.969  0.6382  0.5308  1.2181
 1832SOL    HW216959   1.177   1.745  10.042  1.1414  0.5742  0.0865
 1833SOL     OW16960   1.899   2.417   0.625  0.4341 -0.2388 -0.2604
 1833SOL    HW116961   1.856   2.335   0.648  1.5035 -0.5549  0.6630
 1833SOL    HW216962   1.965   2.379   0.567 -0.4297  2.0395 -2.7195
 1834SOL     OW16963   0.534   4.294   4.994  0.1396 -0.0080 -0.5500
 1834SOL    HW116964   0.487   4.211   4.980  1.2573 -0.8033  0.4729
 1834SOL    HW216965   0.473   4.359   5.028  1.0161  0.6563 -0.2623
 1835SOL     OW16966   0.453   1.341   7.373 -0.6375 -0.4255  0.0603
 1835SOL    HW116967   0.411   1.405   7.431 -1.0689 -1.9770  1.4637
 1835SOL    HW216968   0.387   1.342   7.304 -0.3984 -2.4023 -0.2175
 1836SOL     OW16969   0.415   0.779  13.443 -0.7750  0.7796 -0.3428
 1836SOL    HW116970   0.504   0.812  13.440 -0.2200 -0.4145  4.0725
 1836SOL    HW216971   0.383   0.791  13.353  0.8899  2.2376 -0.7282
 1837SOL     OW16972   3.962   0.980  16.099  0.4093 -0.3036 -0.1685
 1837SOL    HW116973   3.952   0.969  16.194  1.5446  2.5661  0.2985
 1837SOL    HW216974   3.871   0.961  16.078 -0.3822  1.6108  1.4477
 1838SOL     OW16975   0.569   1.141  15.159 -0.0938 -0.2220 -0.4941
 1838SOL    HW116976   0.624   1.152  15.236 -1.1303 -0.4000  0.2780
 1838SOL    HW216977   0.601   1.206  15.097  0.4853  0.8324  0.9172
 1839SOL     OW16978   0.065   2.725   3.530 -0.1718  0.3992 -0.2305
 1839SOL    HW116979   0.078   2.818   3.513 -0.4788  0.2499 -1.3024
 1839SOL    HW216980   4.705   2.712   3.581 -1.0076  0.5498 -1.5133
 1840SOL     OW16981   3.473   4.500  14.868 -0.0663  0.1743 -0.6265
 1840SOL    HW116982   3.503   4.437  14.934 -3.1324  1.0048  1.5618
 1840SOL    HW216983   3.380   4.504  14.891 -0.4742 -0.4284 -2.1901
 1841SOL     OW16984   3.340   1.148   2.563  0.2561 -0.4648 -0.6257
 1841SOL    HW116985   3.338   1.227   2.509  1.1792  0.0097  0.0572
 1841SOL    HW216986   3.318   1.085   2.493 -2.9856 -0.9799  0.8449
 1842SOL     OW16987   2.804   2.721   3.166 -0.1287 -0.1244 -0.5455
 1842SOL    HW116988   2.737   2.656   3.188  2.1973 -3.4201 -3.0818
 1842SOL    HW216989   2.824   2.753   3.254  0.8216 -0.6659 -0.5575
 1843SOL     OW16990   2.658   0.595   7.830 -0.6518  0.2949  0.3612
 1843SOL    HW116991   2.696   0.510   7.807 -1.1831 -0.4647  2.2206
 1843SOL    HW216992   2.673   0.589   7.925  1.6974  1.4419  0.0628
 1844SOL     OW16993   0.186   3.730   5.331  0.2312  0.3529 -0.7319
 1844SOL    HW116994   0.184   3.740   5.426  3.1452  2.5261 -0.9149
 1844SOL    HW216995   0.150   3.642   5.318 -1.4065  1.1700 -1.7930
 1845SOL     OW16996   2.848   3.092  10.008 -0.1907 -0.3924 -0.0443
 1845SOL    HW116997   2.888   3.141   9.937 -0.1611  0.3587  0.4838
 1845SOL    HW216998   2.773   3.054   9.963 -0.6015  1.2918 -0.7843
 1846SOL     OW16999   4.015   4.616   7.318 -0.4843  0.0133 -0.2437
 1846SOL    HW117000   3.964   4.655   7.389 -0.1670  1.4372 -0.7969
 1846SOL    HW217001   4.084   4.676   7.291 -0.9335  0.9420  0.6722
 1847SOL     OW17002   1.950   0.318   2.423  0.0814 -0.0213 -0.2778
 1847SOL    HW117003   2.036   0.285   2.396  0.7935  2.0773 -0.5387
 1847SOL    HW217004   1.932   0.363   2.340  0.2561  1.6517  0.5942
 1848SOL     OW17005   1.766   2.439  11.000 -0.6125 -0.1344  0.0659
 1848SOL    HW117006   1.782   2.351  10.965 -0.4047 -0.3968  0.8197
 1848SOL    HW217007   1.850   2.480  11.021  0.0162 -0.5646 -1.5812
 1849SOL     OW17008   1.957   4.374   3.339  0.3538 -0.2582 -0.4702
 1849SOL    HW117009   1.991   4.290   3.370 -1.1103 -0.3346  0.9528
 1849SOL    HW217010   1.946   4.365   3.244 -2.8196  2.8095 -0.4222
 1850SOL     OW17011   0.472   0.896   3.611 -0.1387  0.3419 -0.2851
 1850SOL    HW117012   0.506   0.928   3.694 -0.0669  1.7014 -0.8440
 1850SOL    HW217013   0.379   0.894   3.633  0.4193 -0.6470  1.9763
 1851SOL     OW17014   2.437   3.476   1.809  0.2884 -0.0923  0.1076
 1851SOL    HW117015   2.421   3.564   1.774  1.6890  0.9800  2.1571
 1851SOL    HW217016   2.525   3.460   1.774 -0.2978 -1.0130 -0.9476
 1852SOL     OW17017   3.735   4.428   7.990  0.5137  0.1327  0.5173
 1852SOL    HW117018   3.692   4.365   8.048 -1.3139  0.9560  0.0741
 1852SOL    HW217019   3.665   4.486   7.961  1.8008  1.2689 -0.3078
 1853SOL     OW17020   3.152   4.539  17.615 -0.0078 -0.1834  0.7691
 1853SOL    HW117021   3.193   4.595  17.682 -1.6454 -0.2907  1.8754
 1853SOL    HW217022   3.227   4.534  17.557 -1.3246  1.0481 -1.0364
 1854SOL     OW17023   4.648   1.169   3.932 -0.0058  0.5825  0.1576
 1854SOL    HW117024   4.607   1.181   4.018  1.5483  0.5738  0.9075
 1854SOL    HW217025   4.671   1.254   3.896  2.2375 -0.2791 -0.4909
 1855SOL     OW17026   4.013   3.582   7.864 -0.3640 -0.2792  0.1033
 1855SOL    HW117027   4.046   3.624   7.784 -0.2254  1.5486  1.1271
 1855SOL    HW217028   3.919   3.583   7.845 -0.5897 -0.2324  1.2491
 1856SOL     OW17029   0.069   3.395   7.497 -0.4245 -0.0704 -0.7220
 1856SOL    HW117030   0.053   3.489   7.483 -0.3347 -0.4138 -3.2151
 1856SOL    HW217031   0.035   3.365   7.412 -2.3819  1.8092 -0.6252
 1857SOL     OW17032   0.307   4.336   4.455 -0.7069 -0.5110 -0.3555
 1857SOL    HW117033   0.293   4.292   4.539  0.2760 -2.4595 -1.2421
 1857SOL    HW217034   0.359   4.270   4.410 -1.8485 -1.3915 -0.4008
 1858SOL     OW17035   1.781   4.496   3.751  0.4377 -0.6985  0.6838
 1858SOL    HW117036   1.782   4.402   3.773  1.2934 -1.6280 -3.3635
 1858SOL    HW217037   1.740   4.540   3.825  0.5812  2.7349 -1.3150
 1859SOL     OW17038   0.871   4.520   6.482 -0.0166  0.1624 -0.0871
 1859SOL    HW117039   0.951   4.468   6.474 -0.2773 -0.2135 -0.2340
 1859SOL    HW217040   0.857   4.507   6.576  1.8051 -0.3245  0.1155
 1860SOL     OW17041   4.371   2.727  13.449 -0.2053 -0.0129  0.1141
 1860SOL    HW117042   4.424   2.801  13.478 -1.9336  1.5195 -0.5977
 1860SOL    HW217043   4.305   2.769  13.393  0.1576  0.7979  0.2891
 1861SOL     OW17044   1.918   3.814   9.079 -0.6580  0.8624  0.8934
 1861SOL    HW117045   1.949   3.805   9.169 -0.2251  0.9623  0.7531
 1861SOL    HW217046   1.831   3.773   9.084 -0.5702  0.5130 -0.4807
 1862SOL     OW17047   3.097   2.969   1.188 -0.4702 -0.2947  0.0444
 1862SOL    HW117048   3.119   2.936   1.276  0.5038  0.5245  0.1052
 1862SOL    HW217049   3.005   2.995   1.192 -1.3027 -2.9590 -1.9074
 1863SOL     OW17050   2.097   2.364   3.904  0.4282 -0.2280  0.6834
 1863SOL    HW117051   2.119   2.360   3.997  3.5619  1.4583  0.0119
 1863SOL    HW217052   2.059   2.277   3.895 -0.4742 -0.0468  2.8471
 1864SOL     OW17053   3.078   4.011  12.493  0.5220 -0.4503  0.2702
 1864SOL    HW117054   3.122   3.949  12.551 -0.7956 -1.5098  0.1378
 1864SOL    HW217055   2.988   4.002  12.522  0.9712 -0.4288  1.6617
 1865SOL     OW17056   3.544   3.098   3.117 -0.0512 -0.1883 -0.0850
 1865SOL    HW117057   3.469   3.150   3.088  1.1108  1.0877 -0.8168
 1865SOL    HW217058   3.585   3.074   3.033  0.9873 -1.1735  0.7020
 1866SOL     OW17059   0.136   2.554   7.050 -0.1317  0.8225  0.4933
 1866SOL    HW117060   0.145   2.462   7.073  0.3101  0.6697 -0.2882
 1866SOL    HW217061   0.044   2.553   7.026  0.5129 -0.7671 -1.9171
 1867SOL     OW17062   3.732   2.533   7.335  0.0551 -0.2552  0.0093
 1867SOL    HW117063   3.686   2.498   7.260 -1.2526  0.5146  0.4550
 1867SOL    HW217064   3.721   2.628   7.325 -0.2785 -0.4608 -1.4827
 1868SOL     OW17065   1.267   2.006   1.754 -0.2363 -1.0847  0.4574
 1868SOL    HW117066   1.315   1.953   1.817  2.0003  0.6817  0.2458
 1868SOL    HW217067   1.209   1.936   1.725 -0.4214 -1.0355  0.7154
 1869SOL     OW17068   2.633   2.683   2.767 -0.0892 -0.4103  0.3904
 1869SOL    HW117069   2.643   2.731   2.685  2.2146 -0.6308  0.5395
 1869SOL    HW217070   2.717   2.638   2.776  0.7445  1.0190 -0.2886
 1870SOL     OW17071   4.358   4.147   2.477 -0.0241 -0.6400 -0.1072
 1870SOL    HW117072   4.290   4.144   2.411  1.3650 -0.2341 -1.5604
 1870SOL    HW217073   4.396   4.060   2.466  3.2724  0.6191  1.2748
 1871SOL     OW17074   2.368   0.943  10.578  0.4022  0.3929  0.4383
 1871SOL    HW117075   2.435   0.877  10.597 -0.2989 -0.9627 -1.7312
 1871SOL    HW217076   2.420   1.020  10.557  3.0576 -2.1395 -2.3159
 1872SOL     OW17077   0.889   4.280   1.536  0.0432  0.0557 -0.1280
 1872SOL    HW117078   0.806   4.300   1.492 -0.7213 -2.3435  0.2532
 1872SOL    HW217079   0.869   4.288   1.629 -1.0173  1.0873 -0.4402
 1873SOL     OW17080   1.616   0.019  16.346 -0.6004 -0.1457  0.0155
 1873SOL    HW117081   1.638   4.665  16.290  0.5901  0.8579 -0.8397
 1873SOL    HW217082   1.658   4.716  16.429  0.8691 -1.3081 -1.0761
 1874SOL     OW17083   2.198   1.581   1.858 -0.3786  0.7732  0.1104
 1874SOL    HW117084   2.271   1.580   1.796 -0.7999  0.7668 -0.3966
 1874SOL    HW217085   2.147   1.646   1.809  1.9441  0.6795 -2.4639
 1875SOL     OW17086   0.607   4.686   8.454  0.0185 -0.0511 -0.0460
 1875SOL    HW117087   0.702   4.676   8.464  0.0402  0.1197 -0.0785
 1875SOL    HW217088   0.594   4.670   8.361  0.7598 -0.3166 -0.1088
 1876SOL     OW17089   0.500   3.228   4.760 -0.3320  0.2325  0.6453
 1876SOL    HW117090   0.523   3.302   4.817 -0.2631  0.0942  0.7954
 1876SOL    HW217091   0.579   3.231   4.706 -0.9503 -2.1677 -0.3835
 1877SOL     OW17092   4.155   0.597   6.655  0.2140 -0.3888  0.2540
 1877SOL    HW117093   4.077   0.591   6.600 -0.0412 -1.5978  0.7519
 1877SOL    HW217094   4.133   0.577   6.746 -1.4473  1.6377  0.2933
 1878SOL     OW17095   2.308   3.054   1.533 -0.0924  0.1185  0.2500
 1878SOL    HW117096   2.323   3.028   1.443  2.2496 -2.3531  1.3596
 1878SOL    HW217097   2.344   2.979   1.581 -1.7403  0.4655  2.0331
 1879SOL     OW17098   1.715   4.403  15.591  0.5133  0.7274  0.2411
 1879SOL    HW117099   1.792   4.426  15.540  0.8634  0.6114  0.7265
 1879SOL    HW217100   1.685   4.482  15.635 -0.7027  0.2951  0.1907
 1880SOL     OW17101   1.074   3.576  11.176  0.3873  0.8176  0.2249
 1880SOL    HW117102   1.146   3.614  11.126  0.2234  0.7112 -0.0971
 1880SOL    HW217103   1.000   3.615  11.129  2.0454  1.6707 -1.6958
 1881SOL     OW17104   2.363   3.881   5.139 -0.3336  0.4809 -0.1841
 1881SOL    HW117105   2.284   3.891   5.086 -0.9256 -0.6192  0.4968
 1881SOL    HW217106   2.406   3.966   5.134 -3.4307  2.0235 -0.4107
 1882SOL     OW17107   4.010   1.962  13.195  0.4493 -0.2348 -0.0883
 1882SOL    HW117108   3.978   2.052  13.184 -0.4876 -0.5762 -0.1053
 1882SOL    HW217109   4.094   1.983  13.238  1.0134 -1.5201 -0.5765
 1883SOL     OW17110   0.878   1.588   1.283 -0.0682  0.5963 -0.1653
 1883SOL    HW117111   0.945   1.556   1.223  2.6305  0.1263  3.1094
 1883SOL    HW217112   0.808   1.619   1.227 -0.4541  1.0226  0.5475
 1884SOL     OW17113   4.257   2.986   0.154 -0.6740 -0.3522 -0.0001
 1884SOL    HW117114   4.213   3.057   0.200 -0.4467 -0.4998  0.4477
 1884SOL    HW217115   4.279   3.028   0.071 -0.9440 -1.5477 -0.6854
 1885SOL     OW17116   4.344   1.626   6.047  0.1137  0.0900 -0.3662
 1885SOL    HW117117   4.335   1.538   6.083 -1.0544  0.0563 -0.7346
 1885SOL    HW217118   4.431   1.618   6.008 -0.7325 -1.6889 -1.8737
 1886SOL     OW17119   1.776   3.954   3.578 -0.5615 -0.0841  0.3244
 1886SOL    HW117120   1.721   3.998   3.643 -1.4277 -1.8960  0.8230
 1886SOL    HW217121   1.707   3.920   3.521 -1.6518 -1.1989  2.2816
 1887SOL     OW17122   4.231   0.031   1.880  0.4410  0.2489 -0.2721
 1887SOL    HW117123   4.202   4.685   1.818  1.9364 -0.9724  0.3266
 1887SOL    HW217124   4.320   0.042   1.846  0.2839 -1.3111 -1.1479
 1888SOL     OW17125   4.434   0.419   0.765  0.0205  0.6910 -0.3383
 1888SOL    HW117126   4.367   0.415   0.833  0.9300 -0.2921  0.4811
 1888SOL    HW217127   4.467   0.329   0.768  1.9577  1.4823  1.4395
 1889SOL     OW17128   2.185   4.296   2.048 -0.3354  0.1626  0.6696
 1889SOL    HW117129   2.256   4.235   2.069 -0.7319  0.1806  2.0744
 1889SOL    HW217130   2.236   4.377   2.040 -0.6691  0.3204  0.1959
 1890SOL     OW17131   2.496   4.600  17.482  0.0295 -0.2316  0.5873
 1890SOL    HW117132   2.417   4.624  17.434  0.8599  0.5268 -0.3895
 1890SOL    HW217133   2.536   4.686  17.497 -0.6955  0.0611  0.8339
 1891SOL     OW17134   0.377   2.591   6.530  0.6498  0.3192 -0.3335
 1891SOL    HW117135   0.312   2.626   6.592  2.2864  0.3445  1.3620
 1891SOL    HW217136   0.414   2.673   6.496  0.0931  0.8589  0.3427
 1892SOL     OW17137   0.888   4.382   9.754  0.6794 -0.0874 -0.6307
 1892SOL    HW117138   0.933   4.331   9.821  0.0279  1.3462  0.9199
 1892SOL    HW217139   0.852   4.304   9.711 -1.5187  1.3794 -1.4659
 1893SOL     OW17140   2.035   2.020   1.223 -0.1679  0.4440  0.3059
 1893SOL    HW117141   1.962   2.068   1.184  0.2169  1.3286  0.6918
 1893SOL    HW217142   2.103   2.086   1.234  1.5115 -0.9478 -1.7070
 1894SOL     OW17143   1.348   0.402   4.756 -0.2187 -0.3540 -0.1572
 1894SOL    HW117144   1.256   0.421   4.738  0.5972  0.2340 -3.6618
 1894SOL    HW217145   1.325   0.364   4.841  1.2457  0.9328  0.8228
 1895SOL     OW17146   0.508   3.998  15.509 -0.0441  0.0176  0.1439
 1895SOL    HW117147   0.578   4.042  15.558  0.3131 -0.8926  0.4398
 1895SOL    HW217148   0.476   3.934  15.572  6.2366 -1.7529  1.6106
 1896SOL     OW17149   1.782   3.485   6.327 -0.2293  0.2653 -0.0277
 1896SOL    HW117150   1.769   3.432   6.249 -1.3268  0.5361 -0.0248
 1896SOL    HW217151   1.845   3.547   6.289 -0.0764 -0.8997 -1.6320
 1897SOL     OW17152   3.757   2.303   3.380 -0.4409 -0.1075 -0.1262
 1897SOL    HW117153   3.682   2.299   3.439  2.3979 -1.7144  3.3605
 1897SOL    HW217154   3.749   2.392   3.347 -0.4543 -0.2718 -0.5677
 1898SOL     OW17155   3.358   4.088   6.434 -0.6314  0.2848 -0.1063
 1898SOL    HW117156   3.309   4.130   6.505  1.2828  1.3598  0.5723
 1898SOL    HW217157   3.290   4.088   6.366 -0.0931 -2.9321 -0.6444
 1899SOL     OW17158   3.798   2.657  12.746  0.1056 -0.2981 -0.1687
 1899SOL    HW117159   3.773   2.643  12.655 -1.5634 -0.2536  0.2743
 1899SOL    HW217160   3.797   2.570  12.786 -1.5449  0.2836  1.0477
 1900SOL     OW17161   1.794   1.525   9.233 -0.6220 -0.1030 -0.0289
 1900SOL    HW117162   1.747   1.579   9.168 -0.6368 -0.0169  0.0535
 1900SOL    HW217163   1.804   1.584   9.307 -0.3997  0.5004 -0.5405
 1901SOL     OW17164   2.786   0.378   2.278 -0.3940  0.0273  0.2636
 1901SOL    HW117165   2.786   0.454   2.221  0.3040 -0.5637 -0.5243
 1901SOL    HW217166   2.709   0.385   2.334 -0.8812  1.0565 -0.5549
 1902SOL     OW17167   0.541   3.344   8.156  0.2449 -0.0307  0.3497
 1902SOL    HW117168   0.505   3.289   8.087  2.0099  1.1368 -1.5323
 1902SOL    HW217169   0.465   3.398   8.177  0.2478  0.3408 -0.5729
 1903SOL     OW17170   3.268   0.492   9.128  0.0119 -0.1286  0.7123
 1903SOL    HW117171   3.336   0.535   9.076  1.4238 -1.5989  1.3364
 1903SOL    HW217172   3.234   0.566   9.178  1.1774  0.7253  0.2241
 1904SOL     OW17173   3.612   0.503   6.033  0.4100 -0.2521  0.2772
 1904SOL    HW117174   3.583   0.452   6.109  2.2475 -1.0408  0.4640
 1904SOL    HW217175   3.550   0.484   5.964  0.5006  1.0166 -0.1524
 1905SOL     OW17176   3.885   2.554   3.299  0.1791  0.2955 -0.5364
 1905SOL    HW117177   3.902   2.648   3.286 -1.6008  0.7591  0.6136
 1905SOL    HW217178   3.901   2.508   3.216 -3.9064 -2.4630  0.2391
 1906SOL     OW17179   3.636   3.533   7.985  0.1500  0.4413 -0.2378
 1906SOL    HW117180   3.653   3.516   8.078  1.0421  0.6922 -0.3604
 1906SOL    HW217181   3.675   3.455   7.947 -0.9586  0.5569 -1.6093
 1907SOL     OW17182   1.268   2.332   3.980  0.0468  0.5812  0.0104
 1907SOL    HW117183   1.273   2.383   3.900 -0.2647 -0.0534 -0.4118
 1907SOL    HW217184   1.294   2.252   3.935 -1.2572  0.1182  0.0741
 1908SOL     OW17185   3.017   1.476   8.238 -0.6505 -0.0042  0.5605
 1908SOL    HW117186   3.009   1.545   8.173  0.5503  0.0801  0.4947
 1908SOL    HW217187   2.923   1.475   8.253 -1.0354  1.1829 -1.7844
 1909SOL     OW17188   1.183   0.513   8.542  0.1070 -0.1102 -0.5966
 1909SOL    HW117189   1.089   0.530   8.533 -0.1892 -1.7174 -0.6106
 1909SOL    HW217190   1.197   0.534   8.634  1.2364 -3.2247 -0.0606
 1910SOL     OW17191   1.480   1.530   6.351 -0.0659  0.2392  0.1035
 1910SOL    HW117192   1.484   1.586   6.429 -0.8793  0.8138 -0.2649
 1910SOL    HW217193   1.386   1.530   6.336 -0.1078 -0.3201  0.3598
 1911SOL     OW17194   0.668   1.250   3.226 -0.7476  0.4176 -0.1387
 1911SOL    HW117195   0.616   1.199   3.287  0.4825  0.5673  1.0431
 1911SOL    HW217196   0.616   1.222   3.150 -2.4344  0.0314  1.1665
 1912SOL     OW17197   4.027   3.828  11.580 -0.1126  0.1537  0.1179
 1912SOL    HW117198   4.009   3.739  11.611 -0.6569  0.1062 -0.3285
 1912SOL    HW217199   4.018   3.885  11.657  1.0411 -0.0559  0.4059
 1913SOL     OW17200   3.189   3.227   6.504  0.0418  0.4613  0.0805
 1913SOL    HW117201   3.194   3.136   6.530 -0.9624  0.3481 -0.1476
 1913SOL    HW217202   3.095   3.239   6.513 -0.0312 -0.5939  0.6169
 1914SOL     OW17203   0.036   2.016   7.047  0.2940  0.1210 -0.3689
 1914SOL    HW117204   0.085   1.976   7.119  0.5852 -0.4864 -0.9055
 1914SOL    HW217205   0.064   1.967   6.970  0.4214 -1.8074  0.8922
 1915SOL     OW17206   3.879   1.837   2.647  0.0266  0.1713  0.1144
 1915SOL    HW117207   3.812   1.899   2.621  1.0944  1.3812  0.2338
 1915SOL    HW217208   3.965   1.879   2.644  0.2426 -0.3344 -0.8019
 1916SOL     OW17209   1.862   1.869   6.969  0.4214  0.9447 -0.7758
 1916SOL    HW117210   1.798   1.858   7.039  1.0317  2.8473  0.0731
 1916SOL    HW217211   1.806   1.906   6.900 -0.1336 -0.0941 -0.8866
 1917SOL     OW17212   1.327   4.696   7.063  0.2005 -0.0961 -0.1388
 1917SOL    HW117213   1.343   4.622   7.123 -0.3304  0.3362  0.5396
 1917SOL    HW217214   1.329   4.647   6.981  1.3062  0.5226 -0.4745
 1918SOL     OW17215   0.873   4.593   5.683  0.3000  0.0244  0.1311
 1918SOL    HW117216   0.780   4.571   5.679  0.2336  0.0931  1.2317
 1918SOL    HW217217   0.890   4.666   5.623 -2.3144  2.1417  1.9695
 1919SOL     OW17218   1.939   1.826   7.825 -0.5746  0.8166  0.0986
 1919SOL    HW117219   1.916   1.907   7.871 -3.3887  0.1906 -0.2286
 1919SOL    HW217220   2.034   1.841   7.827 -0.5579  0.8929 -1.5197
 1920SOL     OW17221   3.041   1.113   7.494  0.0660 -0.6057 -0.5005
 1920SOL    HW117222   3.046   1.038   7.435 -0.1339 -0.3550 -0.8413
 1920SOL    HW217223   2.948   1.133   7.501 -0.4417 -3.0051 -0.2560
 1921SOL     OW17224   3.928   4.606  16.500 -0.7725  0.2094  0.4039
 1921SOL    HW117225   3.894   4.654  16.576  0.5961 -2.0197  2.4281
 1921SOL    HW217226   3.862   4.537  16.508 -1.3022  0.6065 -0.5013
 1922SOL     OW17227   4.164   2.572   2.037  0.2688 -0.0885 -0.2536
 1922SOL    HW117228   4.232   2.506   2.047  0.1258 -0.3799 -1.1800
 1922SOL    HW217229   4.149   2.595   2.129 -1.0898 -0.7066 -0.3105
 1923SOL     OW17230   2.111   4.655   7.028  0.2581 -0.3996  0.0075
 1923SOL    HW117231   2.065   4.702   6.959  1.7801 -1.8918 -2.0341
 1923SOL    HW217232   2.202   4.682   7.014  0.7010 -1.4942  0.7121
 1924SOL     OW17233   1.098   1.619   9.553  0.6480  0.1841 -0.6884
 1924SOL    HW117234   1.062   1.615   9.465  0.0003  0.3770 -0.4288
 1924SOL    HW217235   1.185   1.593   9.523  1.5010  1.1664  0.9075
 1925SOL     OW17236   4.656   1.787   5.721  0.0063 -0.0416 -0.4482
 1925SOL    HW117237   4.644   1.717   5.658  0.4587  0.1489 -0.7429
 1925SOL    HW217238   4.584   1.838   5.686  0.0607  1.3711  1.4857
 1926SOL     OW17239   1.855   0.941   1.333  0.0219  0.2514 -0.4009
 1926SOL    HW117240   1.937   0.977   1.367  1.8988 -1.0560 -3.5490
 1926SOL    HW217241   1.887   0.874   1.273  1.3358 -0.6061  1.2433
 1927SOL     OW17242   2.530   1.054  10.848 -0.0356  0.2654 -0.4391
 1927SOL    HW117243   2.501   1.029  10.935 -1.8975  1.4098 -0.7261
 1927SOL    HW217244   2.596   0.985  10.838  0.1932  0.1536  1.9826
 1928SOL     OW17245   2.290   3.743   2.271  0.0947 -0.8193  0.1631
 1928SOL    HW117246   2.242   3.677   2.320  1.1155 -0.4482  1.6740
 1928SOL    HW217247   2.274   3.718   2.180 -2.3914  2.2034 -0.2446
 1929SOL     OW17248   1.791   4.089   6.114 -0.2540  0.0376 -0.2331
 1929SOL    HW117249   1.714   4.074   6.168 -2.1480  2.1842 -2.3534
 1929SOL    HW217250   1.861   4.043   6.160 -0.6130  0.6813  0.9521
 1930SOL     OW17251   0.107   3.006   5.743  0.6215 -0.4541  0.3297
 1930SOL    HW117252   0.105   3.070   5.814  0.6185 -0.5345  0.4026
 1930SOL    HW217253   0.071   3.054   5.669 -0.5504  1.4484  2.1363
 1931SOL     OW17254   3.027   3.703   2.719 -0.3085  0.4537 -0.6602
 1931SOL    HW117255   3.085   3.758   2.771  0.0061 -0.9310  0.4707
 1931SOL    HW217256   3.020   3.758   2.641  0.1125  0.3676 -0.7577
 1932SOL     OW17257   2.763   1.104  16.789  0.0685  0.2705 -0.4367
 1932SOL    HW117258   2.761   1.189  16.832  1.5821  1.6328 -3.0379
 1932SOL    HW217259   2.704   1.055  16.846  1.2803 -0.4628  0.1576
 1933SOL     OW17260   0.306   4.535   7.814  0.5604 -0.2344  0.1639
 1933SOL    HW117261   0.223   4.558   7.856  1.6816 -0.8560  2.7100
 1933SOL    HW217262   0.294   4.564   7.723  0.3860  1.3828  0.6992
 1934SOL     OW17263   0.763   2.336   0.958 -0.4591 -0.4525 -0.8457
 1934SOL    HW117264   0.679   2.323   0.915 -0.4849 -0.3184 -0.8383
 1934SOL    HW217265   0.808   2.385   0.889 -0.2379 -1.2256 -1.2487
 1935SOL     OW17266   3.887   4.718   7.993 -0.1395 -0.1478  0.2992
 1935SOL    HW117267   3.800   0.039   7.996  0.4956  0.9802  3.7177
 1935SOL    HW217268   3.900   4.685   7.904 -1.0996 -0.0364  0.1233
 1936SOL     OW17269   3.355   2.520  15.012 -0.3405  0.3192  0.4093
 1936SOL    HW117270   3.333   2.456  15.079 -2.0953  0.0113 -0.4348
 1936SOL    HW217271   3.328   2.477  14.931  1.1056 -2.0053  1.1805
 1937SOL     OW17272   3.807   3.349   7.461  0.0422  0.4474  0.5364
 1937SOL    HW117273   3.783   3.421   7.403 -0.1269  0.3067  0.4296
 1937SOL    HW217274   3.742   3.282   7.437  0.3848  1.5123 -3.2168
 1938SOL     OW17275   0.270   3.930  15.294 -0.9238 -0.3583 -0.0139
 1938SOL    HW117276   0.365   3.928  15.300 -0.9484 -1.6962 -0.1718
 1938SOL    HW217277   0.258   3.902  15.204  0.9197 -0.5927 -0.1732
 1939SOL     OW17278   1.331   0.523   2.055  0.2857 -0.1988 -0.1644
 1939SOL    HW117279   1.397   0.533   2.124  0.2236  0.9209 -0.2641
 1939SOL    HW217280   1.320   0.617   2.036  0.8642 -0.1092 -0.0611
 1940SOL     OW17281   2.560   0.054   3.215 -0.0647  0.1619  0.3922
 1940SOL    HW117282   2.496   0.100   3.161 -0.1013 -0.0847  0.2262
 1940SOL    HW217283   2.560   4.686   3.178 -0.3172  1.5718 -2.9218
 1941SOL     OW17284   3.218   0.925   1.223 -0.7535  0.1609 -0.2783
 1941SOL    HW117285   3.188   0.855   1.164 -1.2152  1.2028 -1.2749
 1941SOL    HW217286   3.146   0.931   1.286 -0.9205 -1.9528 -0.2689
 1942SOL     OW17287   4.022   3.638   0.210 -0.4416  0.2373  0.3816
 1942SOL    HW117288   4.003   3.635   0.116  0.1480  0.7260  0.2479
 1942SOL    HW217289   4.031   3.545   0.227 -0.7632 -0.0398 -0.9428
 1943SOL     OW17290   2.533   2.878   5.964 -0.7349 -0.7341 -0.6883
 1943SOL    HW117291   2.594   2.883   5.891  0.2992 -0.7520  0.1789
 1943SOL    HW217292   2.582   2.922   6.033  0.5597 -1.6605 -1.0306
 1944SOL     OW17293   1.483   4.104   6.968  0.4737  0.8233  0.1531
 1944SOL    HW117294   1.394   4.129   6.992  0.2227 -0.5959  0.7321
 1944SOL    HW217295   1.463   4.015   6.938 -1.5164  0.6381  2.0146
 1945SOL     OW17296   2.129   1.633   6.723  0.5819 -0.3510  0.0481
 1945SOL    HW117297   2.065   1.587   6.779  0.3334 -0.8835 -0.6726
 1945SOL    HW217298   2.209   1.591   6.755 -0.2638 -0.7455  1.6664
 1946SOL     OW17299   2.877   1.464   4.496  0.0887 -0.3106  0.1410
 1946SOL    HW117300   2.831   1.458   4.580 -1.7142  0.2101 -0.8039
 1946SOL    HW217301   2.806   1.469   4.432 -0.2073  1.2775  0.5715
 1947SOL     OW17302   3.935   0.856  17.573  0.2386  0.7630  0.1250
 1947SOL    HW117303   3.842   0.852  17.552 -0.0351  0.3635  1.4412
 1947SOL    HW217304   3.937   0.791  17.643  0.9140  1.2891  0.5972
 1948SOL     OW17305   0.312   1.842   0.013  0.4481 -0.4314 -0.0159
 1948SOL    HW117306   0.322   1.764  17.641 -2.5738  1.3816 -3.1752
 1948SOL    HW217307   0.343   1.905  17.631 -0.9083 -1.2450 -1.4578
 1949SOL     OW17308   1.925   1.680   1.640 -0.3515 -0.0816  0.3241
 1949SOL    HW117309   1.964   1.653   1.557  0.7881  0.3757  0.7179
 1949SOL    HW217310   1.974   1.759   1.662 -1.1719  0.8016 -0.9829
 1950SOL     OW17311   0.809   2.761   4.179 -0.6814 -0.3310  0.3510
 1950SOL    HW117312   0.729   2.808   4.203 -0.2022 -0.4992  2.2578
 1950SOL    HW217313   0.799   2.687   4.239  2.6438 -1.8515 -0.9948
 1951SOL     OW17314   1.644   1.522   1.547  0.0288 -0.2527 -0.2586
 1951SOL    HW117315   1.671   1.456   1.610 -0.9251 -0.7678 -0.3920
 1951SOL    HW217316   1.582   1.570   1.603 -0.4693  0.3034 -1.2732
 1952SOL     OW17317   3.535   0.253  13.450  0.7914  0.4716  0.0349
 1952SOL    HW117318   3.443   0.226  13.446 -0.2327  3.6431  1.7762
 1952SOL    HW217319   3.570   0.220  13.367  1.9555  1.1325  0.2630
 1953SOL     OW17320   3.408   4.577   2.507  0.2876  0.1021 -0.0132
 1953SOL    HW117321   3.398   4.650   2.568  1.6439 -1.9028  2.5838
 1953SOL    HW217322   3.503   4.574   2.506  0.2375 -1.7831  1.4324
 1954SOL     OW17323   4.112   1.580   3.932 -0.0143 -0.1211  0.0310
 1954SOL    HW117324   4.101   1.487   3.909 -0.4397 -0.3509  1.1475
 1954SOL    HW217325   4.164   1.575   4.012 -1.4059  4.1710  1.1995
 1955SOL     OW17326   2.268   0.378   6.171 -0.3332  0.0758  0.3454
 1955SOL    HW117327   2.330   0.421   6.230  0.7057  1.7065 -1.9381
 1955SOL    HW217328   2.189   0.420   6.207  0.4760  0.6736  1.4239
 1956SOL     OW17329   1.692   0.786   3.995  0.0151 -0.3933  0.2411
 1956SOL    HW117330   1.634   0.748   3.929 -0.5705 -0.4434  0.7901
 1956SOL    HW217331   1.781   0.763   3.967 -0.4269  2.1069 -3.1734
 1957SOL     OW17332   0.429   1.015   4.480 -0.9563  0.2221 -0.1732
 1957SOL    HW117333   0.415   0.922   4.499  1.3163 -0.1063 -0.2091
 1957SOL    HW217334   0.346   1.036   4.436 -1.8475 -1.1345  0.8532
 1958SOL     OW17335   4.635   1.202   5.446  0.2324 -0.7516  0.0282
 1958SOL    HW117336   4.685   1.271   5.489 -0.4479 -0.0208 -0.3550
 1958SOL    HW217337   4.580   1.181   5.522 -0.9085  0.1323 -0.5437
 1959SOL     OW17338   4.255   1.383   1.629 -0.7143  0.4292 -0.3284
 1959SOL    HW117339   4.238   1.340   1.713  1.9649  0.7314  0.3736
 1959SOL    HW217340   4.279   1.472   1.656  0.7195 -0.4433  1.2369
 1960SOL     OW17341   1.539   2.124   7.596  0.4156 -0.3699 -0.6828
 1960SOL    HW117342   1.563   2.144   7.505 -2.1613  1.5571 -0.9607
 1960SOL    HW217343   1.461   2.068   7.591  0.5344 -0.6821  1.1529
 1961SOL     OW17344   3.848   3.022   5.199  0.2242  0.1669  0.0493
 1961SOL    HW117345   3.895   2.980   5.127  0.4970 -1.6925  1.3043
 1961SOL    HW217346   3.797   2.951   5.238  0.4844 -0.5622 -0.9447
 1962SOL     OW17347   3.176   1.306  15.828 -0.4049  0.1462  0.5186
 1962SOL    HW117348   3.191   1.396  15.855  1.9464  0.4005 -1.6559
 1962SOL    HW217349   3.152   1.318  15.736 -1.9713 -1.4220  0.7110
 1963SOL     OW17350   0.052   4.066   8.863  0.1037 -0.2180 -0.3168
 1963SOL    HW117351   0.106   4.144   8.873  1.5298 -0.9353 -2.3904
 1963SOL    HW217352   0.117   4.012   8.818 -0.3412 -2.3357  1.5341
 1964SOL     OW17353   4.615   3.433   5.472  0.1884  0.0645  0.4008
 1964SOL    HW117354   4.548   3.394   5.415  0.0779 -0.0362  0.6007
 1964SOL    HW217355   4.555   3.493   5.517 -0.4082 -0.6290  0.5336
 1965SOL     OW17356   2.988   0.776  13.605 -0.9226 -0.2179 -0.7171
 1965SOL    HW117357   2.956   0.756  13.516  1.7064  0.6057 -1.8360
 1965SOL    HW217358   2.910   0.746  13.651  0.9193  0.1389  2.6014
 1966SOL     OW17359   3.487   4.282   5.302  0.3999  0.4743  0.1463
 1966SOL    HW117360   3.413   4.254   5.356 -0.1299  0.2448 -0.6984
 1966SOL    HW217361   3.447   4.263   5.218  0.2250 -1.3405  0.6356
 1967SOL     OW17362   2.025   1.455   7.285 -0.6877 -0.1544 -0.5141
 1967SOL    HW117363   1.940   1.472   7.246  0.2187  1.3672 -1.8250
 1967SOL    HW217364   2.083   1.412   7.222 -0.2957  2.2457 -1.7881
 1968SOL     OW17365   3.716   3.484   9.616 -0.3982  0.0084 -0.0749
 1968SOL    HW117366   3.684   3.543   9.685  1.7181  2.5958 -1.3032
 1968SOL    HW217367   3.774   3.426   9.664  0.6617  1.9403  0.9902
 1969SOL     OW17368   4.070   3.849  12.397 -0.3391 -0.2733 -0.2942
 1969SOL    HW117369   4.009   3.903  12.447 -1.2122 -1.9742  0.5037
 1969SOL    HW217370   4.030   3.763  12.410 -0.3932 -0.3306 -0.8355
 1970SOL     OW17371   3.985   4.083   3.432  0.7167  0.0137 -0.0937
 1970SOL    HW117372   3.928   4.159   3.423 -0.6234 -0.7129  2.1844
 1970SOL    HW217373   3.959   4.017   3.368  3.3319 -2.2060  1.1403
 1971SOL     OW17374   4.167   2.546   5.426  0.1455  0.3350 -0.1889
 1971SOL    HW117375   4.085   2.505   5.453 -0.2357 -0.4030 -2.5058
 1971SOL    HW217376   4.189   2.491   5.351 -1.0190  0.5038 -0.6541
 1972SOL     OW17377   2.437   1.556   5.952 -0.2808  0.3049 -0.0803
 1972SOL    HW117378   2.427   1.644   5.918 -0.3239  0.0927 -0.6172
 1972SOL    HW217379   2.406   1.560   6.043  0.2041 -0.7020  0.1349
 1973SOL     OW17380   1.315   0.790   8.083 -0.3841  0.1282  0.2359
 1973SOL    HW117381   1.352   0.705   8.105  0.3119  0.2944 -0.3350
 1973SOL    HW217382   1.228   0.774   8.045 -0.9142 -0.2210  1.5774
 1974SOL     OW17383   4.027   3.787   7.656 -1.0981 -0.0716  0.2852
 1974SOL    HW117384   3.972   3.842   7.713  0.5126 -0.7067  2.4486
 1974SOL    HW217385   4.000   3.823   7.571  0.5763  2.1253  0.6690
 1975SOL     OW17386   4.443   1.481   1.931  0.0129  0.5201 -0.0870
 1975SOL    HW117387   4.358   1.440   1.917  2.3676 -4.8610  1.6612
 1975SOL    HW217388   4.506   1.410   1.924 -0.1325  0.2273  1.6596
 1976SOL     OW17389   3.379   1.904   1.114 -0.3225 -0.3621  0.6287
 1976SOL    HW117390   3.311   1.947   1.166 -0.7246 -3.0013  2.3182
 1976SOL    HW217391   3.335   1.841   1.056  1.3377 -0.3625 -0.6280
 1977SOL     OW17392   1.129   4.109   8.420 -0.6108 -0.7269 -0.3068
 1977SOL    HW117393   1.113   4.057   8.498  0.9442  0.2288  0.6408
 1977SOL    HW217394   1.164   4.189   8.458  0.0999 -0.9426 -0.5174
 1978SOL     OW17395   3.618   1.175   7.660 -0.6042  0.6681  0.2202
 1978SOL    HW117396   3.538   1.127   7.639 -0.0400  1.2853 -3.4338
 1978SOL    HW217397   3.683   1.108   7.642  0.2292  2.3591 -3.1953
 1979SOL     OW17398   1.250   3.072   1.929  0.0654  0.0305 -0.5228
 1979SOL    HW117399   1.326   3.092   1.875  1.6671  2.2033  2.5208
 1979SOL    HW217400   1.267   3.128   2.005 -0.3398  1.9786 -1.8800
 1980SOL     OW17401   3.720   2.376   7.889  0.6490 -0.0110  0.5136
 1980SOL    HW117402   3.713   2.471   7.879 -0.4422 -0.1626 -0.1919
 1980SOL    HW217403   3.632   2.345   7.868  0.8132 -1.4155  1.8497
 1981SOL     OW17404   2.122   1.315  11.143 -0.8234 -0.7099 -0.3046
 1981SOL    HW117405   2.154   1.391  11.192 -1.4857 -0.1367 -0.7828
 1981SOL    HW217406   2.093   1.352  11.060 -0.0233 -0.0058 -0.2740
 1982SOL     OW17407   0.780   2.918   3.121  0.2283  0.4109 -0.5060
 1982SOL    HW117408   0.873   2.923   3.102  0.1369 -0.7253 -1.2588
 1982SOL    HW217409   0.772   2.885   3.210  0.5892  0.8339 -0.3182
 1983SOL     OW17410   1.968   4.615   2.200 -0.1406 -0.1962  0.1584
 1983SOL    HW117411   2.031   4.654   2.139  0.2454  1.4100  1.5694
 1983SOL    HW217412   1.885   4.643   2.162  0.3430  1.4067  0.2794
 1984SOL     OW17413   4.439   3.004   3.739  0.0827  0.4515  0.0989
 1984SOL    HW117414   4.522   3.049   3.752  2.4680 -3.8225 -0.4195
 1984SOL    HW217415   4.432   2.958   3.823  2.5590  0.4995  0.3314
 1985SOL     OW17416   0.758   0.487  10.052  0.6505 -0.0516 -0.5152
 1985SOL    HW117417   0.690   0.528  10.000  0.8407  0.2342 -0.5400
 1985SOL    HW217418   0.706   0.476  10.132  1.2088 -1.4568 -0.3367
 1986SOL     OW17419   0.328   1.563   8.644 -0.3915  0.0832  0.2661
 1986SOL    HW117420   0.237   1.534   8.644 -0.4565  0.2835 -0.1136
 1986SOL    HW217421   0.321   1.658   8.638 -0.1816  0.1000  0.2754
 1987SOL     OW17422   4.032   3.118   0.274  0.5281  0.2815 -0.2467
 1987SOL    HW117423   4.112   3.129   0.325 -0.1504  5.0851 -0.2444
 1987SOL    HW217424   3.971   3.106   0.347  0.3513 -0.5970 -0.5401
 1988SOL     OW17425   1.087   2.765   8.507  0.3634 -0.0407 -0.2357
 1988SOL    HW117426   1.047   2.759   8.421  0.2085 -0.9285 -0.0947
 1988SOL    HW217427   1.146   2.690   8.499  1.6644  1.1780 -2.0013
 1989SOL     OW17428   2.660   1.792   4.049 -0.5740 -0.3724 -0.2580
 1989SOL    HW117429   2.703   1.811   3.966  1.1483 -0.7301  0.5502
 1989SOL    HW217430   2.686   1.870   4.098 -0.4624 -0.2007 -0.5969
 1990SOL     OW17431   2.734   0.874   6.139 -0.3957  0.8432  0.3593
 1990SOL    HW117432   2.770   0.889   6.226 -1.9739 -0.1763  1.1863
 1990SOL    HW217433   2.812   0.868   6.083 -0.6809 -0.4334  0.0933
 1991SOL     OW17434   2.798   2.562   0.886  0.1048  0.0806  0.1015
 1991SOL    HW117435   2.708   2.579   0.856 -0.0411 -1.8643 -0.5690
 1991SOL    HW217436   2.785   2.484   0.939  0.0007 -0.4150 -0.6558
 1992SOL     OW17437   2.767   2.227   3.983  0.6126 -0.2521  0.9209
 1992SOL    HW117438   2.810   2.142   3.989 -2.1814 -1.6537  1.2072
 1992SOL    HW217439   2.770   2.271   4.068 -0.7499 -0.3629  1.0334
 1993SOL     OW17440   2.702   0.627   4.540  0.4850 -0.0725  0.6363
 1993SOL    HW117441   2.769   0.561   4.522  1.0729  1.0347 -1.2665
 1993SOL    HW217442   2.722   0.682   4.464  2.7349  0.1127  1.3744
 1994SOL     OW17443   3.541   4.292   0.899 -0.4782  0.2862 -0.1349
 1994SOL    HW117444   3.614   4.244   0.936 -1.3163 -1.0136 -0.1811
 1994SOL    HW217445   3.473   4.230   0.925 -0.2783  0.3183  0.4595
 1995SOL     OW17446   0.897   3.096   4.182 -0.5409  0.4758 -0.4323
 1995SOL    HW117447   0.805   3.081   4.206 -0.0780 -1.6633  0.0809
 1995SOL    HW217448   0.915   3.018   4.129  0.5783  0.0817  0.5469
 1996SOL     OW17449   1.148   2.917  12.726  1.0345  0.1705 -0.2510
 1996SOL    HW117450   1.224   2.966  12.694 -0.0614  1.8903 -0.2381
 1996SOL    HW217451   1.075   2.979  12.720  0.5463 -0.3589  0.2080
 1997SOL     OW17452   2.091   4.039  14.069  0.2171 -0.2524  0.3802
 1997SOL    HW117453   2.033   4.115  14.060  0.1409 -0.4022 -0.4748
 1997SOL    HW217454   2.142   4.050  13.988 -2.6877 -2.5118 -1.7378
 1998SOL     OW17455   2.920   2.962   7.285 -0.5425 -0.3184 -0.2784
 1998SOL    HW117456   3.000   3.003   7.319 -1.7539  0.4301  1.6633
 1998SOL    HW217457   2.917   2.877   7.329 -1.9210  0.6969  1.5389
 1999SOL     OW17458   1.037   1.906   2.473  0.2175  0.0035  0.0840
 1999SOL    HW117459   1.097   1.870   2.407  1.3805 -0.3139  1.3181
 1999SOL    HW217460   1.006   1.988   2.434 -1.0845  0.3559  1.8633
 2000SOL     OW17461   1.825   4.182   8.966 -0.5066  0.1139  0.3518
 2000SOL    HW117462   1.733   4.182   8.993 -0.8532 -0.0748 -0.8173
 2000SOL    HW217463   1.862   4.134   9.040  1.7800  0.5150 -0.5358
 2001SOL     OW17464   3.723   2.641   7.825  0.2343  0.1250 -0.3974
 2001SOL    HW117465   3.641   2.686   7.843  0.2444  0.1817 -0.4925
 2001SOL    HW217466   3.788   2.711   7.836 -0.1911  0.5423 -0.5339
 2002SOL     OW17467   3.099   4.296   4.940  0.0896 -0.1912 -0.2231
 2002SOL    HW117468   3.017   4.284   4.892  0.6226 -0.3733 -1.0879
 2002SOL    HW217469   3.072   4.317   5.029  1.7778 -1.9868  0.7069
 2003SOL     OW17470   3.008   2.706   6.630 -0.0215 -0.0073 -0.2356
 2003SOL    HW117471   2.918   2.740   6.631  0.9535  2.4928  0.6676
 2003SOL    HW217472   3.042   2.750   6.707  0.9939 -0.7661 -0.2524
 2004SOL     OW17473   3.741   4.638  13.274 -0.1325  0.5726 -0.4402
 2004SOL    HW117474   3.671   4.634  13.338 -0.1100  0.8618 -0.3998
 2004SOL    HW217475   3.813   4.619  13.335 -0.6482  2.2208  0.6786
 2005SOL     OW17476   1.005   0.754  14.538  0.3894 -0.0512 -0.4904
 2005SOL    HW117477   1.044   0.672  14.509  0.9350  0.1523 -0.3180
 2005SOL    HW217478   1.018   0.811  14.462 -0.6544  1.9294  0.7963
 2006SOL     OW17479   3.689   1.369   7.444 -0.2558  0.4607 -0.3980
 2006SOL    HW117480   3.689   1.309   7.519  2.6275 -1.0181 -1.5955
 2006SOL    HW217481   3.630   1.442   7.465 -1.2946 -0.5070  0.0827
 2007SOL     OW17482   4.566   0.596   6.293  0.1414 -0.3594 -0.5609
 2007SOL    HW117483   4.580   0.517   6.240  1.2036 -1.5375  1.5004
 2007SOL    HW217484   4.579   0.561   6.381  3.0627  0.9421 -0.4865
 2008SOL     OW17485   0.747   3.778   4.844 -0.0912 -0.4442  0.4938
 2008SOL    HW117486   0.813   3.735   4.790  1.3653  1.0694  1.0446
 2008SOL    HW217487   0.669   3.734   4.811 -0.7233  0.9984  0.0523
 2009SOL     OW17488   2.918   3.883   0.461  0.3661  0.2540  0.1348
 2009SOL    HW117489   2.860   3.900   0.386 -0.9818 -2.1341  0.6554
 2009SOL    HW217490   2.924   3.788   0.467  0.6499  0.2442 -0.2709
 2010SOL     OW17491   3.168   3.426  11.853 -0.3185  0.2583  0.0989
 2010SOL    HW117492   3.083   3.393  11.826 -0.0287 -1.5216  1.3512
 2010SOL    HW217493   3.185   3.371  11.930 -0.3327 -0.1032 -0.1599
 2011SOL     OW17494   1.483   0.736   3.604  0.4662  0.3846 -0.2713
 2011SOL    HW117495   1.407   0.780   3.566 -0.3103 -0.1205  0.6965
 2011SOL    HW217496   1.530   0.698   3.530  0.7218 -0.4435  0.3244
 2012SOL     OW17497   1.254   4.117   3.945  0.2545  0.2305 -0.3438
 2012SOL    HW117498   1.301   4.118   4.028 -0.2848 -0.4340 -0.0372
 2012SOL    HW217499   1.305   4.044   3.910 -0.0612 -1.1633  2.1224
 2013SOL     OW17500   2.581   3.823   4.459 -0.5625 -0.1202  0.8736
 2013SOL    HW117501   2.588   3.777   4.375 -1.3304 -0.7925  1.1853
 2013SOL    HW217502   2.516   3.891   4.437  0.1426 -0.0780 -1.0477
 2014SOL     OW17503   3.819   0.208   7.238 -0.0273  0.5094 -0.1089
 2014SOL    HW117504   3.753   0.277   7.225  0.2919  1.2166  2.0958
 2014SOL    HW217505   3.799   0.151   7.164 -0.9201 -2.2727  2.2905
 2015SOL     OW17506   1.565   4.454   6.022  0.6191 -0.3167  0.2233
 2015SOL    HW117507   1.640   4.400   5.997  0.6101 -0.0469 -0.4051
 2015SOL    HW217508   1.506   4.379   6.015 -0.9261  0.9527 -0.4475
 2016SOL     OW17509   3.314   2.125  15.923  0.4549 -0.2533 -0.3807
 2016SOL    HW117510   3.368   2.193  15.884  0.4285 -1.0382 -1.7857
 2016SOL    HW217511   3.228   2.136  15.881  0.3225 -2.4394 -0.7204
 2017SOL     OW17512   1.482   2.316   7.957  0.4459  0.7636 -1.5244
 2017SOL    HW117513   1.495   2.230   7.917 -0.2695 -0.9641  1.9674
 2017SOL    HW217514   1.572   2.347   7.964  0.6294 -0.3010  0.7564
 2018SOL     OW17515   0.227   2.708   2.365 -0.3440  0.0712  0.1222
 2018SOL    HW117516   0.239   2.633   2.423 -0.8961  1.3060  1.8420
 2018SOL    HW217517   0.288   2.690   2.294  0.4878 -0.2206  0.9052
 2019SOL     OW17518   4.209   0.543  15.256  0.3904 -0.2306  0.9192
 2019SOL    HW117519   4.232   0.451  15.248 -0.3330 -0.2723 -0.8367
 2019SOL    HW217520   4.257   0.584  15.184  2.1754 -1.9752  1.1280
 2020SOL     OW17521   3.819   3.087   0.774  0.1772 -0.5891 -0.5583
 2020SOL    HW117522   3.800   3.140   0.851 -0.3294  2.5287 -2.8049
 2020SOL    HW217523   3.909   3.067   0.799 -0.7431 -1.7728  1.8245
 2021SOL     OW17524   0.512   1.211   4.251 -0.5206 -1.0343  0.6215
 2021SOL    HW117525   0.572   1.239   4.320 -2.0657  1.8554  0.7690
 2021SOL    HW217526   0.491   1.294   4.210 -0.1101 -0.0944  2.3210
 2022SOL     OW17527   0.409   3.339   4.305 -0.0943  0.4783 -0.3082
 2022SOL    HW117528   0.376   3.418   4.349 -1.0856  0.8204 -1.6810
 2022SOL    HW217529   0.394   3.369   4.215 -1.0720 -0.2479 -0.3819
 2023SOL     OW17530   4.562   4.168   7.374 -0.7530  0.0752 -0.0584
 2023SOL    HW117531   4.539   4.079   7.346  0.3184 -0.3611  0.4273
 2023SOL    HW217532   4.565   4.176   7.469  1.5802 -0.2752 -0.1062
 2024SOL     OW17533   0.533   1.269   1.397 -0.0704  0.1444 -0.1472
 2024SOL    HW117534   0.627   1.284   1.383  0.2141  0.1925  1.7687
 2024SOL    HW217535   0.529   1.333   1.467 -0.2428 -0.8262  0.7346
 2025SOL     OW17536   3.545   1.326   5.466 -0.7419 -0.1585  0.0484
 2025SOL    HW117537   3.515   1.243   5.430  0.2964 -0.8840  0.8519
 2025SOL    HW217538   3.571   1.296   5.553  1.3131  2.3059  0.3001
 2026SOL     OW17539   0.364   0.428   2.345  0.4171 -0.6988  0.2449
 2026SOL    HW117540   0.281   0.475   2.335  0.2098 -1.1267 -0.0645
 2026SOL    HW217541   0.410   0.477   2.413 -0.5813  0.9928 -0.2982
 2027SOL     OW17542   3.349   1.474   5.902  0.2020 -0.1286 -0.5012
 2027SOL    HW117543   3.399   1.444   5.978 -1.7556 -0.5868  0.6164
 2027SOL    HW217544   3.421   1.513   5.853  0.4249  0.6022  0.4200
 2028SOL     OW17545   0.540   0.744   8.773 -0.8074  0.3253  0.8510
 2028SOL    HW117546   0.451   0.771   8.752 -0.4726  0.0887 -0.8465
 2028SOL    HW217547   0.533   0.670   8.834  0.0860 -0.3102  0.1885
 2029SOL     OW17548   1.329   0.101   3.142 -0.2272 -0.6151  0.2479
 2029SOL    HW117549   1.419   0.121   3.168 -0.8439  1.3106  0.9541
 2029SOL    HW217550   1.342   0.113   3.048 -2.7980  0.3938  0.0074
 2030SOL     OW17551   2.304   2.757   8.666 -0.4546 -0.2873 -0.4192
 2030SOL    HW117552   2.395   2.732   8.685 -0.8365 -1.5246 -0.2298
 2030SOL    HW217553   2.308   2.848   8.636  0.5886 -0.1089  0.2810
 2031SOL     OW17554   3.197   0.252  15.863 -0.1399 -0.3114  0.9032
 2031SOL    HW117555   3.194   0.170  15.913  1.2722  0.1396  1.7154
 2031SOL    HW217556   3.292   0.265  15.861 -0.6531  2.7522 -2.8569
 2032SOL     OW17557   1.525   4.209   8.472 -0.5069 -0.0197  0.0796
 2032SOL    HW117558   1.459   4.217   8.402  0.3890  2.2240 -0.5189
 2032SOL    HW217559   1.583   4.145   8.432 -0.0255  0.1749  0.4710
 2033SOL     OW17560   3.865   1.434   7.014 -0.2586 -0.3848 -0.0749
 2033SOL    HW117561   3.801   1.412   7.081  0.5523  0.8746  1.0981
 2033SOL    HW217562   3.923   1.358   7.023  0.4973  0.4406  2.0751
 2034SOL     OW17563   3.428   1.243  10.463 -0.2640  0.2944  0.5953
 2034SOL    HW117564   3.363   1.175  10.445 -0.5012  0.5791  0.3632
 2034SOL    HW217565   3.446   1.274  10.375 -1.9542 -1.1934 -0.2701
 2035SOL     OW17566   0.799   3.804   6.869 -0.0282 -0.4562 -0.0532
 2035SOL    HW117567   0.778   3.717   6.835  1.4012 -0.8144  0.0184
 2035SOL    HW217568   0.720   3.833   6.915 -0.5393  0.3842 -1.4751
 2036SOL     OW17569   2.917   0.567   1.584  0.0962  0.0893 -0.2123
 2036SOL    HW117570   2.847   0.629   1.606 -0.3483 -0.2229 -0.7559
 2036SOL    HW217571   2.891   0.487   1.629 -1.9603  1.7025  1.4571
 2037SOL     OW17572   1.060   3.469   5.308 -0.2370 -0.0861  0.2803
 2037SOL    HW117573   0.997   3.524   5.354  0.9804  2.0137 -0.6200
 2037SOL    HW217574   1.034   3.481   5.216  0.2497 -3.4181 -0.2981
 2038SOL     OW17575   3.977   2.050   1.025  0.3867 -0.0218  0.0329
 2038SOL    HW117576   3.925   2.009   0.955  3.6115 -0.3057 -2.1770
 2038SOL    HW217577   4.059   2.051   0.977  0.2725  0.2616 -0.1582
 2039SOL     OW17578   3.553   2.066   5.071 -0.3176  0.0702  0.5559
 2039SOL    HW117579   3.620   2.001   5.049  0.7451  2.3277 -2.9118
 2039SOL    HW217580   3.580   2.100   5.157 -0.1139 -1.0802  0.9470
 2040SOL     OW17581   2.855   3.469   5.463  0.1343  0.2299 -0.0303
 2040SOL    HW117582   2.770   3.512   5.455  1.5634  3.2314  1.0400
 2040SOL    HW217583   2.910   3.534   5.506 -1.4876  1.4373  0.2274
 2041SOL     OW17584   0.678   4.228   8.454 -1.1542  0.2012 -0.3570
 2041SOL    HW117585   0.727   4.226   8.536  1.1521 -0.3604 -1.7679
 2041SOL    HW217586   0.740   4.185   8.396  1.4116  1.5163  1.4206
 2042SOL     OW17587   2.285   2.536   5.489  0.3078  0.4539  0.0812
 2042SOL    HW117588   2.251   2.542   5.579  0.6869 -1.2003  0.3349
 2042SOL    HW217589   2.228   2.474   5.445 -2.6838  2.6837  0.8077
 2043SOL     OW17590   2.756   4.605   5.537 -0.2828 -0.0990  0.5622
 2043SOL    HW117591   2.731   4.539   5.602 -0.6267 -0.6912 -0.1739
 2043SOL    HW217592   2.841   4.637   5.569  0.3544 -2.0453  0.8495
 2044SOL     OW17593   3.245   4.527  16.963 -0.3167  0.3158 -0.1234
 2044SOL    HW117594   3.164   4.478  16.974 -0.1936  1.0841  4.3350
 2044SOL    HW217595   3.260   4.551  17.055 -0.8521  1.3219 -0.2953
 2045SOL     OW17596   2.246   3.714   2.736  0.1769  0.1000  0.1216
 2045SOL    HW117597   2.296   3.689   2.659  0.7880  0.9020  0.2606
 2045SOL    HW217598   2.321   3.720   2.795 -1.4290 -2.9010  2.4986
 2046SOL     OW17599   1.070   3.537   8.709  0.4623 -0.0331 -0.1948
 2046SOL    HW117600   1.071   3.554   8.803  1.3363 -1.7284  0.1065
 2046SOL    HW217601   1.131   3.464   8.694  0.9333  0.5379 -1.0697
 2047SOL     OW17602   4.338   3.878   8.960  0.2832  0.4686  0.1615
 2047SOL    HW117603   4.406   3.838   9.015  0.0947 -0.2158 -0.1133
 2047SOL    HW217604   4.259   3.879   9.014  0.5576 -1.6219  0.5887
 2048SOL     OW17605   0.246   0.661  16.162 -0.1017 -0.1474 -0.8453
 2048SOL    HW117606   0.262   0.569  16.141 -2.5167 -0.9723  0.9940
 2048SOL    HW217607   0.287   0.687  16.079 -0.9286  0.7663 -0.9580
 2049SOL     OW17608   0.079   2.049   9.922 -0.3545 -0.0535 -0.1116
 2049SOL    HW117609   4.707   2.051   9.896 -0.1928 -1.5670 -0.7962
 2049SOL    HW217610   0.093   1.954   9.921 -1.7717 -0.2794  1.0994
 2050SOL     OW17611   4.300   1.274  13.090 -0.6084 -0.2649  0.0490
 2050SOL    HW117612   4.330   1.362  13.112  0.2479 -0.6647  0.4830
 2050SOL    HW217613   4.213   1.271  13.129 -0.1306 -0.6024  1.0921
 2051SOL     OW17614   2.846   3.309  17.290  0.1947  0.2335 -0.1398
 2051SOL    HW117615   2.923   3.325  17.344 -0.5368  1.9019  0.4011
 2051SOL    HW217616   2.862   3.351  17.205 -1.2090  0.4272 -0.3135
 2052SOL     OW17617   0.001   2.918   7.665 -0.8162 -0.6623 -0.0136
 2052SOL    HW117618   0.038   2.834   7.637  1.8603  0.3238  0.6284
 2052SOL    HW217619   4.627   2.908   7.647 -0.7049 -0.9978 -0.4156
 2053SOL     OW17620   3.393   0.172   4.948  0.6409  0.0822  0.7556
 2053SOL    HW117621   3.393   0.077   4.934  1.3291  0.2100 -0.1107
 2053SOL    HW217622   3.326   0.199   4.885  1.8947  1.6419  0.0940
 2054SOL     OW17623   1.856   0.897   3.675 -0.6025  0.6386 -0.6749
 2054SOL    HW117624   1.806   0.979   3.679 -1.4001  0.1799 -1.4104
 2054SOL    HW217625   1.816   0.826   3.725  2.8859 -0.7177  0.1565
 2055SOL     OW17626   3.992   2.111   2.758 -0.0739  0.0123 -0.6181
 2055SOL    HW117627   4.076   2.157   2.766  0.4817 -1.0899 -0.0481
 2055SOL    HW217628   4.003   2.032   2.812 -1.6630  0.8948  0.9788
 2056SOL     OW17629   1.267   0.974   9.337 -0.0810  0.4538  0.0223
 2056SOL    HW117630   1.345   0.923   9.360 -1.1781 -0.3892  1.9104
 2056SOL    HW217631   1.257   0.933   9.251 -0.4687 -1.0702  0.7885
 2057SOL     OW17632   0.068   2.078   4.973  0.3288 -0.4253 -0.1375
 2057SOL    HW117633   4.708   2.056   4.925 -0.6078 -0.5941  1.4948
 2057SOL    HW217634   0.058   2.033   5.057 -1.9046 -0.5543 -0.4821
 2058SOL     OW17635   3.227   2.527   5.364  0.2939 -0.4195 -0.8506
 2058SOL    HW117636   3.307   2.476   5.378  0.4017 -0.2753 -0.9501
 2058SOL    HW217637   3.199   2.501   5.276 -0.2588 -0.4273 -0.6738
 2059SOL     OW17638   2.198   2.207   8.252  0.0073  0.4024  0.2622
 2059SOL    HW117639   2.269   2.143   8.256 -0.3543 -0.1055 -1.4505
 2059SOL    HW217640   2.159   2.196   8.339 -0.1715  1.1491  0.2781
 2060SOL     OW17641   4.525   2.035   5.245  0.2297  0.5442 -0.7045
 2060SOL    HW117642   4.515   2.115   5.192  0.0531  0.7645 -0.3354
 2060SOL    HW217643   4.619   2.020   5.237 -0.0095 -2.2585  1.9511
 2061SOL     OW17644   2.766   0.583   8.663 -1.1458  0.4918 -0.5367
 2061SOL    HW117645   2.712   0.615   8.736 -0.6532  0.6110 -0.2214
 2061SOL    HW217646   2.714   0.610   8.588 -0.1351 -1.1852 -1.8310
 2062SOL     OW17647   1.979   0.141   7.257  0.0648 -0.6342 -0.0504
 2062SOL    HW117648   2.056   0.183   7.219  0.1441  0.8045  1.6805
 2062SOL    HW217649   1.915   0.170   7.192  0.6887  0.1755 -0.2981
 2063SOL     OW17650   1.466   4.387  16.749 -0.2168 -0.3377  0.5188
 2063SOL    HW117651   1.495   4.410  16.661 -2.0888  2.8175  0.7114
 2063SOL    HW217652   1.477   4.473  16.791  0.2099 -0.4625  0.6552
 2064SOL     OW17653   3.878   4.515  13.478  0.5809  0.2651 -0.0630
 2064SOL    HW117654   3.855   4.544  13.566 -1.2105  0.9808 -0.7631
 2064SOL    HW217655   3.857   4.422  13.481  3.2076 -0.3301 -0.1904
 2065SOL     OW17656   1.693   0.290   8.627 -0.1898 -0.0131 -0.1945
 2065SOL    HW117657   1.605   0.255   8.643  0.4957 -2.0242 -0.8274
 2065SOL    HW217658   1.735   0.214   8.587  0.6540  0.9562 -1.1629
 2066SOL     OW17659   2.639   4.371   2.182 -0.2449  0.1513  0.5321
 2066SOL    HW117660   2.623   4.280   2.208  1.2490  0.0863  1.2302
 2066SOL    HW217661   2.563   4.400   2.133  0.4353  1.4153  0.2342
 2067SOL     OW17662   4.388   3.732  16.854 -0.3651 -0.5667  0.2833
 2067SOL    HW117663   4.438   3.812  16.836  0.2905 -1.0488 -0.0392
 2067SOL    HW217664   4.401   3.670  16.782  1.2032  1.6025 -1.3247
 2068SOL     OW17665   1.657   0.765  14.758 -0.1369 -0.0037  0.7731
 2068SOL    HW117666   1.647   0.728  14.670 -0.6882  1.8503  0.0525
 2068SOL    HW217667   1.579   0.817  14.775 -0.2759  0.4605 -1.2159
 2069SOL     OW17668   3.573   0.280   9.267 -0.1282  0.1885 -0.2469
 2069SOL    HW117669   3.618   0.318   9.192  1.6784  0.9237  1.1809
 2069SOL    HW217670   3.647   0.247   9.318  0.3119  3.7504  1.4426
 2070SOL     OW17671   1.524   3.470   3.186 -0.0297 -0.2734 -0.4338
 2070SOL    HW117672   1.478   3.539   3.138  0.9955  1.0492  0.4891
 2070SOL    HW217673   1.513   3.504   3.275 -2.0454 -0.0365 -0.7565
 2071SOL     OW17674   0.692   0.014  11.828  0.1528 -0.5128  0.1874
 2071SOL    HW117675   0.680   4.687  11.745  0.5380  0.0333 -0.1790
 2071SOL    HW217676   0.771   4.691  11.861 -1.2688 -2.8446  0.5618
 2072SOL     OW17677   1.774   4.269   2.913  0.4550  0.1648  0.4000
 2072SOL    HW117678   1.694   4.307   2.949  0.9932  0.8413  0.8845
 2072SOL    HW217679   1.758   4.275   2.819 -0.4492 -0.8635  0.4946
 2073SOL     OW17680   1.852   1.309   4.765  0.2855 -0.2240  0.1235
 2073SOL    HW117681   1.809   1.267   4.689  1.5234  1.5535 -1.5528
 2073SOL    HW217682   1.828   1.261   4.844  1.7823 -1.0980  0.0511
 2074SOL     OW17683   2.412   4.462   8.406 -0.0873  0.4368  0.7192
 2074SOL    HW117684   2.435   4.498   8.321 -0.6893  2.3686  1.3760
 2074SOL    HW217685   2.319   4.444   8.393  0.5568 -1.8078 -0.6865
 2075SOL     OW17686   4.286   3.599   1.915 -0.4202  0.6112 -0.0374
 2075SOL    HW117687   4.194   3.595   1.941 -0.9497  0.0494 -2.0004
 2075SOL    HW217688   4.331   3.585   1.998 -0.0740  1.0435 -0.1521
 2076SOL     OW17689   4.217   1.862  11.308  0.2171 -0.2488  0.0510
 2076SOL    HW117690   4.145   1.849  11.369  1.0281 -1.2196  0.8103
 2076SOL    HW217691   4.181   1.893  11.225 -3.0239  0.4024  1.7273
 2077SOL     OW17692   3.886   0.421   2.271  0.5610  0.3800  0.0372
 2077SOL    HW117693   3.804   0.380   2.298 -0.7439  2.3768 -0.9088
 2077SOL    HW217694   3.947   0.384   2.335  0.0899  0.1760  0.3712
 2078SOL     OW17695   2.638   0.525   5.086  0.2234  0.3419  0.4365
 2078SOL    HW117696   2.697   0.471   5.034  0.0500  0.8513 -0.2912
 2078SOL    HW217697   2.591   0.563   5.011  2.8131  1.6357 -0.5102
 2079SOL     OW17698   1.684   1.668  12.028 -0.3348 -0.0620  0.0795
 2079SOL    HW117699   1.627   1.623  12.090 -0.4552 -0.9587 -0.6888
 2079SOL    HW217700   1.670   1.611  11.952 -2.2616  0.0890  0.3324
 2080SOL     OW17701   0.328   2.524  17.151  0.1519 -0.5502 -0.3026
 2080SOL    HW117702   0.363   2.611  17.132 -1.6113 -0.2662 -2.2045
 2080SOL    HW217703   0.235   2.542  17.138  0.5429  1.2359 -0.6314
 2081SOL     OW17704   1.493   2.701   8.204  0.0551 -0.0434 -0.3166
 2081SOL    HW117705   1.449   2.641   8.143 -2.6798  1.0089  0.6228
 2081SOL    HW217706   1.561   2.734   8.145  0.0009 -1.0260 -0.9359
 2082SOL     OW17707   1.807   2.044   2.923 -0.0431  0.3525  0.2948
 2082SOL    HW117708   1.770   1.966   2.964 -0.0571 -0.5701 -1.4448
 2082SOL    HW217709   1.766   2.022   2.839 -0.2104  0.3122  0.3877
 2083SOL     OW17710   0.106   2.455   7.908 -0.3106 -0.1210 -0.3127
 2083SOL    HW117711   0.171   2.473   7.976  0.6385 -0.9940 -1.0066
 2083SOL    HW217712   0.034   2.416   7.958  0.8240 -0.0955  1.3427
 2084SOL     OW17713   0.710   3.847   5.659 -0.5096 -0.4203 -0.1650
 2084SOL    HW117714   0.789   3.871   5.610  0.2008 -0.3467  1.0218
 2084SOL    HW217715   0.726   3.768   5.710 -0.7934  0.6879  1.6765
 2085SOL     OW17716   3.768   1.137  16.692  0.7069  0.0178 -0.3881
 2085SOL    HW117717   3.843   1.186  16.659  2.4382 -2.3207  0.1434
 2085SOL    HW217718   3.713   1.129  16.613 -1.1600 -2.1922  1.1529
 2086SOL     OW17719   2.107   3.515   6.451 -0.0128 -0.0305 -0.8866
 2086SOL    HW117720   2.129   3.425   6.426 -1.7410 -0.5234 -0.6290
 2086SOL    HW217721   2.096   3.549   6.363  0.4144 -0.3541 -1.0624
 2087SOL     OW17722   0.684   4.255   8.965  0.4754  0.1521 -0.9923
 2087SOL    HW117723   0.633   4.174   8.964  2.7563 -1.3307  2.0138
 2087SOL    HW217724   0.720   4.260   9.054  2.4603 -1.3381 -1.7075
 2088SOL     OW17725   1.831   0.420  10.857  0.2309  0.0758 -0.0312
 2088SOL    HW117726   1.766   0.485  10.828 -0.5010 -1.0704 -0.9355
 2088SOL    HW217727   1.772   0.347  10.874  1.8609 -0.8667  1.5446
 2089SOL     OW17728   2.100   2.818   4.581 -0.0875 -0.4196  0.1900
 2089SOL    HW117729   2.158   2.861   4.518 -0.0436  0.0117  0.5271
 2089SOL    HW217730   2.016   2.835   4.539  0.1002  2.3905  0.9388
 2090SOL     OW17731   1.037   2.446   5.593  0.4774  0.3993  0.7842
 2090SOL    HW117732   0.950   2.443   5.631  0.6422  1.5039  1.2293
 2090SOL    HW217733   1.039   2.397   5.511  1.3533  0.6455  0.6502
 2091SOL     OW17734   4.567   3.330   2.276 -0.2462 -0.6714 -0.2612
 2091SOL    HW117735   4.612   3.268   2.218  2.1581  0.9881 -0.1849
 2091SOL    HW217736   4.555   3.284   2.358  2.1399  0.9241  0.9657
 2092SOL     OW17737   3.581   1.427   3.714  0.0977 -0.5053  0.1596
 2092SOL    HW117738   3.625   1.501   3.756  0.1895 -0.0013 -0.8245
 2092SOL    HW217739   3.515   1.466   3.657  0.2196  1.2687  1.2212
 2093SOL     OW17740   0.530   0.291   4.323 -0.0318 -0.1385  0.7974
 2093SOL    HW117741   0.612   0.307   4.276 -0.0644 -2.4009 -0.0342
 2093SOL    HW217742   0.482   0.231   4.267 -0.7414  1.1731  0.0035
 2094SOL     OW17743   2.394   4.144   3.062  0.1579 -0.2877 -0.4865
 2094SOL    HW117744   2.482   4.146   3.098  0.3088 -0.6414 -0.8355
 2094SOL    HW217745   2.408   4.074   2.998 -0.5089 -1.6205  0.8056
 2095SOL     OW17746   1.271   0.898  10.943 -0.3915  0.1540  0.3653
 2095SOL    HW117747   1.209   0.932  11.008  0.8652  1.4943  0.8541
 2095SOL    HW217748   1.347   0.923  10.995 -0.3946  2.1147 -0.5934
 2096SOL     OW17749   2.261   0.636   2.009 -0.0700 -0.0654 -0.4719
 2096SOL    HW117750   2.217   0.660   1.927  3.0213  2.9516 -1.2843
 2096SOL    HW217751   2.197   0.665   2.074  1.5210  1.5734  0.3533
 2097SOL     OW17752   3.112   2.357   3.003  0.1499 -0.0499 -0.2076
 2097SOL    HW117753   3.093   2.443   3.040 -1.6707 -0.1038 -1.0374
 2097SOL    HW217754   3.138   2.293   3.070  0.0113 -0.1311 -0.2318
 2098SOL     OW17755   4.354   4.163  13.707 -0.0713  0.5738  0.1918
 2098SOL    HW117756   4.343   4.113  13.788  0.6425  0.1142  0.0045
 2098SOL    HW217757   4.444   4.144  13.681 -0.3198 -0.2039 -0.1062
 2099SOL     OW17758   2.712   1.017  16.334  0.4593 -0.3111 -0.0754
 2099SOL    HW117759   2.782   1.038  16.273  0.1929 -0.5840 -0.4767
 2099SOL    HW217760   2.745   1.050  16.417  3.2558 -2.2612 -0.3955
 2100SOL     OW17761   4.554   1.033  10.896 -0.0938 -0.0946  0.3557
 2100SOL    HW117762   4.589   1.025  10.808  0.1062  1.4949  0.2875
 2100SOL    HW217763   4.488   1.101  10.887 -0.8710 -1.0326 -0.9467
 2101SOL     OW17764   2.549   3.217   2.541  0.4026 -0.0123  0.0408
 2101SOL    HW117765   2.631   3.179   2.511 -0.5833 -1.8608 -0.2717
 2101SOL    HW217766   2.498   3.231   2.461  1.0359  1.3590 -0.1149
 2102SOL     OW17767   0.230   4.339   5.195 -0.6915  0.6961 -0.4948
 2102SOL    HW117768   0.237   4.376   5.107 -0.9230  0.8052 -0.4684
 2102SOL    HW217769   0.157   4.393   5.226 -1.7322 -0.1461 -1.5139
 2103SOL     OW17770   0.588   4.674   6.548  0.2203 -0.5084  0.2662
 2103SOL    HW117771   0.683   4.675   6.535  0.1922  2.0376  0.3139
 2103SOL    HW217772   0.570   4.584   6.522 -0.1380 -0.4958  0.4745
 2104SOL     OW17773   0.389   3.984   5.524  0.0191 -0.2602  0.5957
 2104SOL    HW117774   0.399   4.026   5.610  1.6433 -0.6104  0.5776
 2104SOL    HW217775   0.382   4.059   5.465  1.0801 -1.4235 -1.0091
 2105SOL     OW17776   1.742   3.232   0.904  0.4706  0.3462  0.4307
 2105SOL    HW117777   1.805   3.304   0.912  1.6836 -0.6817  0.1086
 2105SOL    HW217778   1.744   3.192   0.991 -2.3756  0.1435  0.4050
 2106SOL     OW17779   2.859   4.621   2.827  0.0290  0.0869  0.0273
 2106SOL    HW117780   2.904   4.619   2.912 -1.8606  0.3331  1.0281
 2106SOL    HW217781   2.766   4.628   2.848  0.1272  2.3648 -0.3199
 2107SOL     OW17782   1.289   2.123   4.325  0.6091 -0.5134 -0.0914
 2107SOL    HW117783   1.279   2.029   4.343  0.1143 -0.7862 -1.8493
 2107SOL    HW217784   1.278   2.117   4.231 -2.2705 -3.5795  0.4294
 2108SOL     OW17785   1.076   0.939  11.128  0.2292 -0.0749  0.3671
 2108SOL    HW117786   1.013   0.977  11.066 -0.4997  2.3966  2.6095
 2108SOL    HW217787   1.092   1.017  11.182 -0.7412  0.0247  0.5237
 2109SOL     OW17788   4.518   3.381   3.728 -0.3758  0.2015 -0.0531
 2109SOL    HW117789   4.477   3.364   3.812 -3.2092 -1.3455 -1.7474
 2109SOL    HW217790   4.555   3.298   3.698 -1.6479 -0.3283 -0.1529
 2110SOL     OW17791   0.188   2.847   0.194 -0.0375  0.0597 -0.4173
 2110SOL    HW117792   0.245   2.770   0.189  0.0004 -0.1006  2.7726
 2110SOL    HW217793   0.247   2.912   0.231 -0.2102 -0.8693  1.4669
 2111SOL     OW17794   1.324   3.089   2.797  0.0187  0.5743  0.2452
 2111SOL    HW117795   1.326   3.169   2.849  1.0412 -0.2971  1.5715
 2111SOL    HW217796   1.412   3.084   2.760  0.2903 -1.1772  1.1129
 2112SOL     OW17797   3.212   0.700   5.799 -0.3552  0.4164  0.2353
 2112SOL    HW117798   3.246   0.781   5.838  1.5305 -1.3314  2.1861
 2112SOL    HW217799   3.222   0.729   5.708  1.5823  0.3755  0.4329
 2113SOL     OW17800   2.630   0.803   6.498  0.1076 -0.2438  0.3142
 2113SOL    HW117801   2.687   0.839   6.565 -0.9574  0.9716  0.5599
 2113SOL    HW217802   2.563   0.753   6.546 -0.5366  0.5899  0.2800
 2114SOL     OW17803   2.628   1.142   5.110  0.2489 -0.0163 -0.1375
 2114SOL    HW117804   2.607   1.057   5.148  0.9855 -0.1202  0.0348
 2114SOL    HW217805   2.578   1.128   5.030  0.2508 -1.9524  0.2175
 2115SOL     OW17806   2.831   3.914  12.610 -0.2540 -0.0520  0.1915
 2115SOL    HW117807   2.808   3.827  12.578  1.3372 -0.2725 -0.3808
 2115SOL    HW217808   2.773   3.966  12.555 -0.2845 -1.3095 -0.9642
 2116SOL     OW17809   4.108   2.445  11.950 -0.3435 -0.2111  0.1035
 2116SOL    HW117810   4.189   2.476  11.910  0.8975 -0.9491  2.0307
 2116SOL    HW217811   4.053   2.435  11.872  1.5281  2.4518 -1.5611
 2117SOL     OW17812   0.286   1.087   6.879 -0.2561 -0.4431 -0.0019
 2117SOL    HW117813   0.294   1.086   6.974 -0.8010 -0.6926  0.0420
 2117SOL    HW217814   0.340   1.163   6.857 -1.8641  0.5607 -0.4891
 2118SOL     OW17815   1.478   3.481   7.543  0.5885  0.7049 -0.6777
 2118SOL    HW117816   1.513   3.444   7.462  1.3349 -2.2870  1.0109
 2118SOL    HW217817   1.406   3.419   7.557  0.7671  0.3190 -1.4856
 2119SOL     OW17818   3.397   2.268  16.893 -0.6006 -0.1291 -0.0694
 2119SOL    HW117819   3.364   2.210  16.961  0.4463 -0.3994  0.2002
 2119SOL    HW217820   3.379   2.352  16.935  0.9635 -0.1435  0.6337
 2120SOL     OW17821   3.775   0.811   6.099  0.0127 -0.6428  0.1984
 2120SOL    HW117822   3.711   0.758   6.147  0.4383 -0.4930  0.9355
 2120SOL    HW217823   3.726   0.889   6.071  3.6543  1.0912 -1.3055
 2121SOL     OW17824   4.445   2.979   6.578  0.1092 -0.2489  0.0420
 2121SOL    HW117825   4.351   2.982   6.561 -0.1971 -0.0496  1.7541
 2121SOL    HW217826   4.450   3.069   6.611  0.9908  0.6513 -2.5171
 2122SOL     OW17827   3.787   4.680   9.019 -0.0132  0.5014  0.1167
 2122SOL    HW117828   3.810   4.663   9.111 -0.0560 -0.9423 -0.1360
 2122SOL    HW217829   3.710   4.624   9.005  1.8152 -1.2104 -3.0159
 2123SOL     OW17830   2.786   0.527   3.393  0.6299  0.0247 -0.0369
 2123SOL    HW117831   2.835   0.492   3.467  2.5150 -2.0630 -2.2433
 2123SOL    HW217832   2.814   0.619   3.391  1.7877 -0.2986  1.6118
 2124SOL     OW17833   0.003   4.065  14.714 -0.0971  0.2646 -0.1139
 2124SOL    HW117834   4.670   3.985  14.720  0.2968 -0.1616 -2.1898
 2124SOL    HW217835   4.697   4.119  14.788  4.0409  0.2742  1.3217
 2125SOL     OW17836   2.044   1.548  16.847 -0.4019  0.5191 -0.5964
 2125SOL    HW117837   1.954   1.522  16.826 -0.7087  1.0499  0.0867
 2125SOL    HW217838   2.074   1.473  16.899 -0.1083 -0.1963 -1.7774
 2126SOL     OW17839   2.686   4.110   2.257  0.0493  0.6804 -0.7601
 2126SOL    HW117840   2.779   4.095   2.237  0.1533 -1.5315  1.4386
 2126SOL    HW217841   2.643   4.026   2.244  1.4056 -0.0618 -0.4561
 2127SOL     OW17842   3.102   0.929   0.342 -0.0261 -0.0855 -0.4311
 2127SOL    HW117843   3.011   0.920   0.370  0.6190 -1.4502  1.2493
 2127SOL    HW217844   3.144   0.876   0.410 -1.3943 -2.6719 -1.5771
 2128SOL     OW17845   4.605   2.950   0.088 -0.0767 -0.2573 -0.3216
 2128SOL    HW117846   4.587   2.953   0.182 -2.4411 -0.1603 -0.7920
 2128SOL    HW217847   4.588   2.856   0.079  0.4938 -0.6501  2.3848
 2129SOL     OW17848   0.843   2.792   8.239  0.2350 -0.0000  0.4880
 2129SOL    HW117849   0.761   2.839   8.227  0.7327 -0.1198 -3.4716
 2129SOL    HW217850   0.901   2.841   8.180  0.5907  1.1886  1.8434
 2130SOL     OW17851   3.004   4.645   3.777  0.3856  0.0232 -0.6548
 2130SOL    HW117852   2.952   4.601   3.710 -1.1222 -3.0087  2.5157
 2130SOL    HW217853   3.061   4.700   3.723 -0.0463  2.3060  1.2523
 2131SOL     OW17854   3.169   1.385   9.608  0.8772 -0.2624 -0.3239
 2131SOL    HW117855   3.110   1.422   9.543 -0.0356 -0.4330  0.4014
 2131SOL    HW217856   3.120   1.306   9.635  0.7456  0.4659  1.5691
 2132SOL     OW17857   3.966   1.926   4.364 -0.3062  0.6421  0.2897
 2132SOL    HW117858   3.959   1.843   4.411  1.1308 -0.2461 -1.0434
 2132SOL    HW217859   3.973   1.897   4.273 -1.8907 -0.8393  0.6329
 2133SOL     OW17860   4.595   3.435   8.482  0.1065  0.1595 -0.3896
 2133SOL    HW117861   4.546   3.378   8.541  0.9433  0.2345  0.3874
 2133SOL    HW217862   4.589   3.386   8.400 -0.6654  1.2925 -0.9968
 2134SOL     OW17863   2.545   1.388   3.511 -0.5195  0.0188 -0.2915
 2134SOL    HW117864   2.472   1.450   3.516 -1.2009 -0.9279  1.5156
 2134SOL    HW217865   2.555   1.360   3.602  1.6034  1.9507  0.0805
 2135SOL     OW17866   0.867   3.993   1.603 -0.5660 -0.7506  0.4304
 2135SOL    HW117867   0.923   4.043   1.545  2.3786 -1.7136  2.4682
 2135SOL    HW217868   0.935   3.969   1.666 -0.4782 -0.6222  0.3838
 2136SOL     OW17869   0.448   3.477   6.816  0.6766  0.2153  0.2745
 2136SOL    HW117870   0.520   3.527   6.853  0.1332 -0.4877  2.2720
 2136SOL    HW217871   0.428   3.427   6.895 -0.5085  1.3085  0.6712
 2137SOL     OW17872   2.307   3.349   7.032  0.1442 -0.0250 -0.0783
 2137SOL    HW117873   2.230   3.372   6.980  0.7764 -2.2957 -2.0514
 2137SOL    HW217874   2.291   3.405   7.108 -0.1162  0.8314 -0.7596
 2138SOL     OW17875   0.392   2.210   7.637  0.4493 -0.0938  0.3578
 2138SOL    HW117876   0.307   2.254   7.638 -0.7099 -2.3104 -0.0952
 2138SOL    HW217877   0.370   2.120   7.611  1.4206 -0.0042 -0.7840
 2139SOL     OW17878   3.043   4.310   7.088  0.1470 -0.0436  0.1698
 2139SOL    HW117879   3.064   4.217   7.096  3.2735  0.7419  0.9176
 2139SOL    HW217880   3.136   4.331   7.086  0.2249 -0.4255 -0.2159
 2140SOL     OW17881   0.048   3.575   7.226  0.9768 -0.5211  0.2285
 2140SOL    HW117882   0.133   3.602   7.192 -0.3863  2.0195 -1.1457
 2140SOL    HW217883   4.710   3.638   7.183  0.6640 -0.6255  0.4995
 2141SOL     OW17884   0.371   0.534   7.723 -0.1217  0.1098  0.0841
 2141SOL    HW117885   0.393   0.608   7.779  0.8848  0.5015 -0.8137
 2141SOL    HW217886   0.428   0.552   7.648 -2.8676  2.4879 -1.4276
 2142SOL     OW17887   4.422   3.080  17.620 -0.1410  0.0147 -0.2632
 2142SOL    HW117888   4.491   3.052  17.680  0.1996 -0.0809 -0.6941
 2142SOL    HW217889   4.473   3.147  17.573 -1.1335  1.5370  0.8023
 2143SOL     OW17890   0.764   1.639   0.163 -0.1297 -0.3377 -0.2367
 2143SOL    HW117891   0.684   1.688   0.181  1.0305  1.7740 -0.8503
 2143SOL    HW217892   0.766   1.627   0.068  1.7004 -4.0117  0.2479
 2144SOL     OW17893   0.908   2.502   6.223 -0.2886  0.1881 -0.3860
 2144SOL    HW117894   0.874   2.442   6.289  2.4209  0.4758  1.2779
 2144SOL    HW217895   0.999   2.475   6.234 -0.4249  0.2835  0.9324
 2145SOL     OW17896   1.180   0.352  10.191  0.3181 -0.1780 -0.1045
 2145SOL    HW117897   1.249   0.286  10.179 -0.7553 -1.1371 -1.0532
 2145SOL    HW217898   1.212   0.396  10.269 -1.7387  2.7025 -0.8479
 2146SOL     OW17899   3.733   4.445  15.863 -0.0282  0.3131  0.0401
 2146SOL    HW117900   3.681   4.493  15.799 -0.2809  0.5831  0.4450
 2146SOL    HW217901   3.663   4.381  15.876 -1.1250  1.5500  0.2136
 2147SOL     OW17902   3.692   3.875  16.957 -0.0452 -0.0545  0.0108
 2147SOL    HW117903   3.705   3.857  17.050 -0.7490  1.1682  0.3624
 2147SOL    HW217904   3.776   3.914  16.933  0.2478  0.0286  1.1852
 2148SOL     OW17905   0.811   4.096   6.510  0.1818  0.2573 -0.4059
 2148SOL    HW117906   0.859   4.049   6.578 -1.8464 -1.7201 -0.3685
 2148SOL    HW217907   0.877   4.108   6.441  1.0687  0.7100  0.5199
 2149SOL     OW17908   2.256   1.218   7.955 -0.2877 -0.1733 -0.3054
 2149SOL    HW117909   2.169   1.179   7.949 -1.2562  2.1159 -1.5416
 2149SOL    HW217910   2.292   1.195   7.869  3.9051 -2.5065  2.0941
 2150SOL     OW17911   2.241   1.209   6.855 -0.1370  0.9253 -0.4053
 2150SOL    HW117912   2.322   1.157   6.853  0.2505  1.4978  0.3210
 2150SOL    HW217913   2.176   1.145   6.829  0.3735  0.2963 -0.1365
 2151SOL     OW17914   1.827   2.618   2.950 -0.6715  0.0449  0.3929
 2151SOL    HW117915   1.870   2.533   2.940 -0.0117  0.2341  1.6107
 2151SOL    HW217916   1.858   2.662   2.871 -0.3286  1.1956  1.1706
 2152SOL     OW17917   2.134   0.718   4.988 -0.3744  0.5080 -0.3269
 2152SOL    HW117918   2.205   0.658   5.013  0.7031  1.9895  0.1457
 2152SOL    HW217919   2.062   0.674   5.032  0.9052  0.1692  1.4198
 2153SOL     OW17920   2.956   3.183   2.806 -0.0507 -0.1498  0.0618
 2153SOL    HW117921   2.939   3.189   2.900 -0.4513 -1.3251  0.0552
 2153SOL    HW217922   3.034   3.239   2.798 -1.0001  1.1007 -0.5675
 2154SOL     OW17923   3.698   3.213  13.450 -0.0971 -0.0442 -0.3164
 2154SOL    HW117924   3.701   3.156  13.527  1.1061 -2.0105 -1.8511
 2154SOL    HW217925   3.631   3.169  13.398 -1.7346  2.7660 -0.5904
 2155SOL     OW17926   3.269   0.804   9.204  0.6853  0.1004 -0.0608
 2155SOL    HW117927   3.293   0.894   9.225  2.0471 -0.0318 -1.0510
 2155SOL    HW217928   3.198   0.791   9.268 -0.4817 -0.4642 -1.4727
 2156SOL     OW17929   3.512   3.913  14.618 -0.0862 -0.1297  0.0945
 2156SOL    HW117930   3.460   3.887  14.542  0.5273 -2.4180  0.4725
 2156SOL    HW217931   3.526   4.006  14.600 -1.1313 -0.1296 -0.7242
 2157SOL     OW17932   1.926   1.295   4.294 -0.3834 -0.0619 -0.2407
 2157SOL    HW117933   1.853   1.348   4.261  0.7846  0.5098 -1.8864
 2157SOL    HW217934   1.874   1.253   4.363  1.2620 -1.4076  0.1742
 2158SOL     OW17935   4.155   0.786   2.346  0.0845  0.1814  0.3259
 2158SOL    HW117936   4.135   0.728   2.272  0.6880  1.4287 -0.8150
 2158SOL    HW217937   4.098   0.857   2.316 -0.0771 -0.1688 -0.2081
 2159SOL     OW17938   2.522   3.494   6.633 -0.2347  0.0736  0.5645
 2159SOL    HW117939   2.471   3.536   6.564 -0.0495 -1.4605 -0.5103
 2159SOL    HW217940   2.445   3.494   6.691 -1.3250  0.9631 -0.8857
 2160SOL     OW17941   0.271   2.910   5.366  0.1571 -0.0536  0.0635
 2160SOL    HW117942   0.279   2.985   5.306 -1.2871  0.9007  1.0839
 2160SOL    HW217943   0.256   2.840   5.302  3.2845  0.5802 -1.3976
 2161SOL     OW17944   2.005   1.954  11.017 -0.1127 -0.4037 -0.4616
 2161SOL    HW117945   2.022   1.901  10.939  5.1064 -1.2329  1.2405
 2161SOL    HW217946   1.992   1.870  11.062  2.9709 -1.2757 -1.2254
 2162SOL     OW17947   1.972   0.207  17.342  0.5406  0.5296 -0.2479
 2162SOL    HW117948   1.938   0.214  17.431  1.0113  0.7747 -0.0899
 2162SOL    HW217949   1.954   0.296  17.312 -0.8619  0.7835  1.3127
 2163SOL     OW17950   0.493   4.489   5.379 -0.1117 -0.6994 -0.0778
 2163SOL    HW117951   0.460   4.579   5.383  1.2344 -0.3331  2.3679
 2163SOL    HW217952   0.545   4.487   5.298  1.0559  0.6597  0.6391
 2164SOL     OW17953   4.444   1.980  10.983 -0.2631 -0.2310  0.4466
 2164SOL    HW117954   4.505   2.053  10.974 -0.3197 -0.8467 -4.8169
 2164SOL    HW217955   4.506   1.911  10.958 -1.3675 -1.2725  0.5689
 2165SOL     OW17956   0.220   0.219   2.131 -0.8293 -0.5493  0.4257
 2165SOL    HW117957   0.131   0.236   2.100 -0.3356  0.0001 -0.7058
 2165SOL    HW217958   0.196   0.142   2.182  3.8338 -2.5226 -0.3129
 2166SOL     OW17959   0.316   0.487   5.823  0.2587  0.0336 -0.3331
 2166SOL    HW117960   0.380   0.504   5.754  0.0501  0.1237 -0.5035
 2166SOL    HW217961   0.376   0.477   5.897  0.2928  1.3986 -0.1750
 2167SOL     OW17962   0.593   2.130  11.522  0.2547 -0.0264  0.1508
 2167SOL    HW117963   0.608   2.065  11.454  1.0037  1.0424 -0.7095
 2167SOL    HW217964   0.641   2.206  11.489 -3.1817  1.3123 -1.8407
 2168SOL     OW17965   3.341   1.570   9.583 -0.0387  0.4763 -0.0063
 2168SOL    HW117966   3.266   1.522   9.619  2.1006 -3.7502 -1.0768
 2168SOL    HW217967   3.305   1.584   9.496  0.4436 -1.3657 -0.5055
 2169SOL     OW17968   0.322   4.641   5.893  0.8107  0.1743  0.4327
 2169SOL    HW117969   0.261   4.705   5.929  0.2894 -0.1157  0.0779
 2169SOL    HW217970   0.278   4.556   5.899  2.7009 -1.1581 -4.2988
 2170SOL     OW17971   4.132   0.082   8.070 -0.3329  0.1166  0.4914
 2170SOL    HW117972   4.048   0.048   8.038 -0.6916  0.3460  1.1888
 2170SOL    HW217973   4.156   0.158   8.016  1.1699 -0.9852 -0.4042
 2171SOL     OW17974   0.285   4.072   4.265  0.1615 -0.0713 -0.3357
 2171SOL    HW117975   0.243   4.015   4.330  0.7369 -0.3254 -0.1822
 2171SOL    HW217976   0.370   4.071   4.311 -0.2666  1.3652  0.4757
 2172SOL     OW17977   2.616   1.959   4.493  0.2851 -0.5666  0.2227
 2172SOL    HW117978   2.642   1.891   4.431  2.3034 -0.0354  0.4791
 2172SOL    HW217979   2.550   2.001   4.437 -0.2503  0.0829  1.3309
 2173SOL     OW17980   3.455   3.273  17.660 -0.1829 -0.3163 -0.5958
 2173SOL    HW117981   3.450   3.294   0.070  1.7515 -0.3818 -0.4689
 2173SOL    HW217982   3.523   3.206  17.670 -0.4651 -0.7757 -1.7504
 2174SOL     OW17983   1.910   3.498   4.304 -0.1234  0.0227 -0.7753
 2174SOL    HW117984   1.862   3.429   4.258 -0.6701  0.7559 -1.3159
 2174SOL    HW217985   1.986   3.444   4.322  0.2504  0.6947 -0.3257
 2175SOL     OW17986   1.116   0.109   3.356  0.6570 -0.2248  0.2421
 2175SOL    HW117987   1.180   0.109   3.284  1.1008 -0.7804  0.6398
 2175SOL    HW217988   1.128   0.018   3.383  0.3423 -0.6701 -1.1361
 2176SOL     OW17989   0.439   3.728   2.399 -0.0757  0.1512  0.3301
 2176SOL    HW117990   0.400   3.701   2.482  0.2712 -1.7083 -0.1096
 2176SOL    HW217991   0.514   3.668   2.399 -0.0735  0.1688  2.8474
 2177SOL     OW17992   1.911   1.478   8.520  0.8318  0.3438  0.0777
 2177SOL    HW117993   1.919   1.387   8.549  1.1823  0.0545 -0.9270
 2177SOL    HW217994   1.945   1.484   8.431  0.1338  0.4631 -0.1830
 2178SOL     OW17995   2.012   3.836   2.523 -0.2548 -0.4886 -0.4069
 2178SOL    HW117996   2.035   3.895   2.594 -0.6777  0.7615 -1.3211
 2178SOL    HW217997   1.929   3.876   2.497 -1.4827 -1.2924  2.2816
 2179SOL     OW17998   2.527   2.026  12.919 -0.3757  0.2333 -0.6474
 2179SOL    HW117999   2.578   1.967  12.974 -0.9932  0.1238 -0.1918
 2179SOL    HW218000   2.505   1.958  12.855 -1.2873  0.2871 -0.3842
 2180SOL     OW18001   1.883   1.899   5.065  0.5791  0.6701  0.2072
 2180SOL    HW118002   1.798   1.936   5.041  0.2550  0.7546  1.4975
 2180SOL    HW218003   1.941   1.974   5.077  0.4789  0.5410  1.4384
 2181SOL     OW18004   1.982   4.433  13.447 -0.7075  0.5276 -0.8181
 2181SOL    HW118005   1.936   4.359  13.488  2.5450 -1.1387 -0.1969
 2181SOL    HW218006   1.963   4.425  13.353 -0.7672 -0.3544 -0.7283
 2182SOL     OW18007   1.944   2.239   2.517 -0.3549 -0.4782  0.2854
 2182SOL    HW118008   1.884   2.252   2.590 -0.3459  1.8975 -0.1453
 2182SOL    HW218009   2.010   2.184   2.559  0.5799 -0.5846 -1.3270
 2183SOL     OW18010   2.300   0.117   3.556  0.0139 -0.1696 -0.0390
 2183SOL    HW118011   2.263   0.206   3.556 -1.2424 -0.6925  0.2894
 2183SOL    HW218012   2.278   0.098   3.464  1.1905 -1.4929 -0.0341
 2184SOL     OW18013   1.336   2.274   1.918 -0.4511  0.0983  0.0585
 2184SOL    HW118014   1.315   2.223   1.840 -0.5636 -0.0027  0.1549
 2184SOL    HW218015   1.409   2.327   1.887  0.0023 -1.7614 -2.0410
 2185SOL     OW18016   2.887   2.959   6.453 -0.3266 -0.2722 -0.9759
 2185SOL    HW118017   2.884   2.945   6.548  0.5648 -1.9134 -1.1969
 2185SOL    HW218018   2.795   2.933   6.444 -0.7852  0.6498  1.0376
 2186SOL     OW18019   3.952   3.882   2.753 -0.1945 -0.5442 -0.0128
 2186SOL    HW118020   4.038   3.843   2.737  0.4412  0.4781  0.8768
 2186SOL    HW218021   3.975   3.964   2.708  0.4700 -0.6405  0.1394
 2187SOL     OW18022   4.249   1.972  13.299 -0.1667  0.1997 -0.4245
 2187SOL    HW118023   4.313   1.915  13.342  0.9797  1.5185 -0.3847
 2187SOL    HW218024   4.304   2.050  13.288  1.7444 -0.9147  1.1881
 2188SOL     OW18025   0.743   0.302   4.910  0.3017  0.1535 -0.3367
 2188SOL    HW118026   0.667   0.251   4.940 -0.4062  2.0680  1.1151
 2188SOL    HW218027   0.720   0.304   4.818  0.0916  0.5839 -0.2735
 2189SOL     OW18028   3.059   1.787  11.711  0.2062  0.1078  0.1259
 2189SOL    HW118029   2.984   1.846  11.702  2.6107  3.2676  0.8887
 2189SOL    HW218030   3.051   1.767  11.804 -0.2729  1.0948  0.2929
 2190SOL     OW18031   1.599   2.748   0.715  0.0685  0.3833 -0.3305
 2190SOL    HW118032   1.545   2.793   0.779 -1.5719 -1.5404 -0.3513
 2190SOL    HW218033   1.534   2.745   0.644  1.0413  1.3938 -1.2655
 2191SOL     OW18034   1.593   4.421   8.167 -0.3801 -0.4569  0.4801
 2191SOL    HW118035   1.628   4.469   8.243  0.2703  0.8044 -0.6253
 2191SOL    HW218036   1.669   4.365   8.151 -0.8256 -0.2269 -2.4484
 2192SOL     OW18037   4.129   0.764   5.675  0.0463  0.1681  0.2939
 2192SOL    HW118038   4.038   0.792   5.674  1.5249  5.0106  0.1578
 2192SOL    HW218039   4.141   0.732   5.764  0.0690  0.6709  0.4731
 2193SOL     OW18040   3.562   3.612   0.568 -0.6301  0.0440 -0.5004
 2193SOL    HW118041   3.483   3.631   0.618 -0.1392 -2.2646  1.1639
 2193SOL    HW218042   3.615   3.686   0.596 -1.2764  0.5243 -0.5479
 2194SOL     OW18043   1.594   1.137   1.912 -0.5042  0.5425 -0.0491
 2194SOL    HW118044   1.569   1.228   1.925  0.8854  0.4772  3.0794
 2194SOL    HW218045   1.655   1.125   1.985 -0.7160 -0.3919 -0.0260
 2195SOL     OW18046   4.494   3.993  10.038 -0.1517  0.6817 -0.1327
 2195SOL    HW118047   4.491   3.984   9.942  0.7501  0.7670 -0.1719
 2195SOL    HW218048   4.559   4.061  10.055  1.1691 -0.7095  0.4210
 2196SOL     OW18049   0.215   4.279   8.885 -0.1185  0.4359 -0.1817
 2196SOL    HW118050   0.238   4.361   8.929  2.4435 -0.1924 -0.3718
 2196SOL    HW218051   0.301   4.241   8.868 -0.8745 -0.8342 -1.1566
 2197SOL     OW18052   3.871   0.184  15.271 -0.2335  0.2513  0.5000
 2197SOL    HW118053   3.879   0.265  15.320  1.3302  0.5668 -0.2713
 2197SOL    HW218054   3.839   0.215  15.186  0.7524 -2.9162 -1.0329
 2198SOL     OW18055   2.350   0.220   4.751  0.1501 -0.0853  0.7512
 2198SOL    HW118056   2.415   0.249   4.688  1.3168 -0.9706  1.5598
 2198SOL    HW218057   2.268   0.256   4.716  0.0384 -1.9947 -0.9254
 2199SOL     OW18058   0.318   2.237   5.820  0.6239 -1.2774 -0.3763
 2199SOL    HW118059   0.299   2.239   5.914 -1.0367  1.8193 -0.7975
 2199SOL    HW218060   0.254   2.169   5.798 -1.8487  1.1741 -0.7832
 2200SOL     OW18061   2.550   1.737   8.883 -0.5249  0.5847 -0.4530
 2200SOL    HW118062   2.511   1.650   8.894 -1.9948  1.4346  0.9896
 2200SOL    HW218063   2.474   1.789   8.860 -1.4899 -0.1144  1.1362
 2201SOL     OW18064   3.164   1.935  14.936 -0.0482 -0.2178 -0.2318
 2201SOL    HW118065   3.165   1.984  15.018 -0.9147  0.8637 -0.8741
 2201SOL    HW218066   3.196   2.005  14.879  1.3124  0.6223  1.5572
 2202SOL     OW18067   4.622   2.232   4.716 -0.1733 -0.6248  0.3086
 2202SOL    HW118068   4.717   2.228   4.721 -0.3388  0.7615  4.1606
 2202SOL    HW218069   4.610   2.181   4.635 -1.2897 -0.8088  0.5894
 2203SOL     OW18070   2.379   4.274  11.880  0.5936 -0.3428  0.8090
 2203SOL    HW118071   2.338   4.360  11.887 -0.5021 -0.9635  1.9542
 2203SOL    HW218072   2.397   4.293  11.788 -0.3822 -1.2405  0.4350
 2204SOL     OW18073   1.798   0.747   6.804 -0.1689  0.0328 -0.1268
 2204SOL    HW118074   1.873   0.742   6.745 -1.8479 -2.5955 -2.0533
 2204SOL    HW218075   1.739   0.682   6.766  0.3455  0.2681 -1.3260
 2205SOL     OW18076   2.657   3.607   1.040  0.0802  0.4264 -0.4943
 2205SOL    HW118077   2.663   3.513   1.058 -1.9113  0.5065  0.6951
 2205SOL    HW218078   2.659   3.646   1.128 -0.1725  1.2560 -0.8581
 2206SOL     OW18079   0.462   0.543  13.565  0.6569  0.3553  1.0783
 2206SOL    HW118080   0.448   0.629  13.524  1.4359 -0.6491 -1.3093
 2206SOL    HW218081   0.516   0.498  13.500 -0.4707  1.9126 -0.9623
 2207SOL     OW18082   2.389   4.211  12.378  0.5599  0.5072 -0.0545
 2207SOL    HW118083   2.343   4.164  12.308  0.2115  1.9779 -0.8145
 2207SOL    HW218084   2.480   4.187  12.362  0.1615 -1.2750  0.3505
 2208SOL     OW18085   2.731   2.404   0.038  0.1346  0.2675  0.0896
 2208SOL    HW118086   2.735   2.308   0.047  2.8482  0.4189  0.3143
 2208SOL    HW218087   2.737   2.422  17.627 -0.3533  2.3396  0.4567
 2209SOL     OW18088   2.853   1.212  10.135 -0.4248  0.1352 -0.1209
 2209SOL    HW118089   2.814   1.293  10.102 -1.4782  0.0058  0.8271
 2209SOL    HW218090   2.772   1.163  10.146 -0.7855  1.2309  1.9805
 2210SOL     OW18091   1.747   2.093   4.757  0.1421  0.5935  0.2358
 2210SOL    HW118092   1.734   2.187   4.762 -0.4973  0.5252 -0.1410
 2210SOL    HW218093   1.722   2.070   4.846 -0.7926  2.2988  0.4084
 2211SOL     OW18094   3.009   1.908   1.433 -0.0362  0.0202  0.4684
 2211SOL    HW118095   2.916   1.906   1.457 -0.5124  1.5150 -1.3307
 2211SOL    HW218096   3.033   1.994   1.466 -1.8606  0.6889  0.0331
 2212SOL     OW18097   3.239   4.506   5.856 -0.3978 -0.7142  0.0291
 2212SOL    HW118098   3.171   4.469   5.800 -0.8569  0.7595 -0.4066
 2212SOL    HW218099   3.211   4.461   5.936 -0.0839 -0.6401  0.1809
 2213SOL     OW18100   4.171   4.361   5.737  0.2522  0.2693  0.0004
 2213SOL    HW118101   4.104   4.429   5.731  0.6531  0.7483  0.9442
 2213SOL    HW218102   4.189   4.351   5.643 -0.3860  1.1345 -0.2143
 2214SOL     OW18103   3.047   3.231   2.197 -0.3493  0.0550 -0.0163
 2214SOL    HW118104   2.975   3.167   2.197  0.6657 -1.1016  1.1912
 2214SOL    HW218105   3.106   3.196   2.130 -0.5070  1.0229 -0.6558
 2215SOL     OW18106   2.633   0.991   0.085  0.0354 -0.3563  0.0447
 2215SOL    HW118107   2.539   0.970   0.087  0.2485 -1.1317  1.3515
 2215SOL    HW218108   2.665   0.931   0.151 -0.9157  1.4028  2.1242
 2216SOL     OW18109   0.321   1.009   8.810 -0.5183  0.0555 -0.2651
 2216SOL    HW118110   0.295   0.923   8.778 -0.4824  0.8411 -2.4112
 2216SOL    HW218111   0.268   1.009   8.890 -1.3711  0.5149 -0.8192
 2217SOL     OW18112   3.976   1.133   2.565  0.4420  0.1950  0.0035
 2217SOL    HW118113   3.881   1.131   2.552  0.4179 -1.5605  0.4385
 2217SOL    HW218114   3.998   1.040   2.565  0.2167  0.1348  1.3088
 2218SOL     OW18115   0.634   1.219  10.409  0.9611  0.0964  0.1819
 2218SOL    HW118116   0.574   1.185  10.342  0.4450  2.3208 -0.4893
 2218SOL    HW218117   0.710   1.164  10.389  0.3825 -0.3511 -0.7527
 2219SOL     OW18118   0.171   4.374   6.299 -0.0121 -0.5307 -0.7217
 2219SOL    HW118119   0.260   4.406   6.282  0.9397 -1.8637  1.7419
 2219SOL    HW218120   0.122   4.452   6.274  0.6224  0.0762 -0.0860
 2220SOL     OW18121   2.448   1.897   3.016 -0.5958  0.5368  0.0127
 2220SOL    HW118122   2.436   1.811   3.056  0.3280  0.0817 -0.6834
 2220SOL    HW218123   2.543   1.894   3.002 -0.8039  2.8993 -1.8090
 2221SOL     OW18124   0.675   4.148   7.034  0.2157  0.2219 -0.0548
 2221SOL    HW118125   0.646   4.151   6.943 -0.4822  0.4129  0.1754
 2221SOL    HW218126   0.685   4.241   7.053 -2.2553  0.3044  0.8240
 2222SOL     OW18127   3.703   0.258  15.053  0.6314  0.0973 -0.3397
 2222SOL    HW118128   3.662   0.200  14.989 -0.8362 -0.3928  1.0492
 2222SOL    HW218129   3.665   0.343  15.028  0.1504 -1.2547 -4.1759
 2223SOL     OW18130   1.172   3.129  14.373  0.2372 -0.1852 -0.0619
 2223SOL    HW118131   1.152   3.087  14.456 -0.1627 -1.2365 -0.6914
 2223SOL    HW218132   1.091   3.107  14.327  1.3171 -0.1993 -1.9860
 2224SOL     OW18133   0.673   3.673  13.624  0.2713 -0.3809  0.2489
 2224SOL    HW118134   0.641   3.659  13.535 -0.3681 -1.8597  0.7003
 2224SOL    HW218135   0.642   3.762  13.639 -0.5394 -0.6130 -0.0098
 2225SOL     OW18136   0.710   2.995  12.589 -0.0730 -0.1506  0.0306
 2225SOL    HW118137   0.713   2.943  12.509  2.1509  0.1446 -0.0592
 2225SOL    HW218138   0.648   3.067  12.572 -1.4075 -1.7190 -1.7721
 2226SOL     OW18139   1.729   2.380   2.705  0.2535  0.2198 -0.2810
 2226SOL    HW118140   1.795   2.419   2.762 -0.7692 -1.3393  2.0069
 2226SOL    HW218141   1.713   2.460   2.655  1.8293  1.3862  1.0881
 2227SOL     OW18142   2.605   2.144   6.354  0.2848  0.3468 -0.4222
 2227SOL    HW118143   2.632   2.206   6.286  2.1502 -1.8207 -1.6750
 2227SOL    HW218144   2.691   2.148   6.395 -0.5830  0.9815  1.3196
 2228SOL     OW18145   2.955   1.158   7.922 -0.2320  0.6611 -0.5490
 2228SOL    HW118146   2.876   1.209   7.905 -2.3641 -2.2772  0.4791
 2228SOL    HW218147   3.022   1.205   7.873 -2.3570  3.6915 -0.4901
 2229SOL     OW18148   2.501   4.170   7.683  0.6313 -0.5988 -0.2043
 2229SOL    HW118149   2.423   4.223   7.669 -1.4848 -3.2911  1.2864
 2229SOL    HW218150   2.543   4.210   7.759 -1.3564 -0.1649  0.6515
 2230SOL     OW18151   1.363   3.917   9.646  0.2073 -0.6855 -0.0456
 2230SOL    HW118152   1.414   3.930   9.566 -1.5306  0.4449 -0.9742
 2230SOL    HW218153   1.298   3.853   9.615 -1.1779  0.1675  1.1109
 2231SOL     OW18154   2.695   1.111   2.083  0.0713 -0.1381 -0.1679
 2231SOL    HW118155   2.707   1.201   2.111  1.4414 -0.7065  1.0686
 2231SOL    HW218156   2.703   1.078   2.173  0.2767  0.0556 -0.1164
 2232SOL     OW18157   0.639   4.507   5.598 -0.0549 -0.2954 -0.7808
 2232SOL    HW118158   0.570   4.466   5.650  0.4841 -2.0707 -1.4782
 2232SOL    HW218159   0.598   4.508   5.512 -0.4020  0.2917 -0.6114
 2233SOL     OW18160   2.731   0.910  15.129 -0.3149 -0.2595 -0.8393
 2233SOL    HW118161   2.824   0.930  15.121 -1.2551  3.8216 -1.6178
 2233SOL    HW218162   2.704   0.870  15.046 -0.5992 -1.6302 -0.0818
 2234SOL     OW18163   3.222   2.152   2.635  0.0310  0.0155  0.1448
 2234SOL    HW118164   3.299   2.117   2.588 -0.5144  0.6585 -1.2399
 2234SOL    HW218165   3.173   2.071   2.646  1.0998 -0.7199 -0.4659
 2235SOL     OW18166   1.945   2.434   0.895  0.2299  0.5948  0.3460
 2235SOL    HW118167   1.853   2.417   0.915  0.8153 -3.6657 -0.6510
 2235SOL    HW218168   1.943   2.420   0.800  2.1515 -1.2244  0.5839
 2236SOL     OW18169   4.486   0.885   8.773  0.0534 -0.6644 -0.4503
 2236SOL    HW118170   4.395   0.860   8.789 -0.5600  0.7280 -1.7291
 2236SOL    HW218171   4.515   0.951   8.836  0.2500  0.0910 -1.3249
 2237SOL     OW18172   0.462   0.137  10.147 -0.0333  0.2933  0.7218
 2237SOL    HW118173   0.480   0.154  10.054 -2.3138 -3.5595 -0.4198
 2237SOL    HW218174   0.534   0.076  10.160  1.3489  1.2532 -2.3719
 2238SOL     OW18175   4.519   1.337   7.318  0.6285 -0.7259  0.6043
 2238SOL    HW118176   4.463   1.329   7.241  0.1079 -1.6373  1.0767
 2238SOL    HW218177   4.481   1.410   7.367  0.4744  1.1325 -2.3440
 2239SOL     OW18178   2.769   2.791   6.691 -0.1592 -0.6896  0.2452
 2239SOL    HW118179   2.739   2.700   6.692  1.9835 -1.4008  0.4013
 2239SOL    HW218180   2.697   2.845   6.724  0.2345  0.3120 -0.5662
 2240SOL     OW18181   2.764   2.379   4.222  0.0735 -0.5635  0.0088
 2240SOL    HW118182   2.674   2.410   4.231  0.4635  0.1181  1.6091
 2240SOL    HW218183   2.771   2.339   4.309 -0.3609 -2.7941 -0.9923
 2241SOL     OW18184   1.309   3.709   2.507  0.3452 -0.4599 -0.4223
 2241SOL    HW118185   1.396   3.673   2.490  0.0366 -0.2582 -2.4281
 2241SOL    HW218186   1.250   3.642   2.474 -0.9700  0.4486  0.1021
 2242SOL     OW18187   1.613   0.905   8.548  0.0816  0.1501  0.4712
 2242SOL    HW118188   1.529   0.873   8.580  0.5683 -0.9980  0.5971
 2242SOL    HW218189   1.657   0.962   8.613  1.6816  0.3549 -0.7870
 2243SOL     OW18190   0.642   0.552   0.809 -0.3097 -0.1945  0.1510
 2243SOL    HW118191   0.673   0.465   0.834 -1.7367 -0.7803 -0.0839
 2243SOL    HW218192   0.724   0.596   0.827  1.2657 -1.5405 -3.7651
 2244SOL     OW18193   1.333   0.962   3.187  0.5290  0.7078  0.2585
 2244SOL    HW118194   1.347   0.993   3.277  0.8946 -0.2175  0.5213
 2244SOL    HW218195   1.278   1.028   3.146 -0.4140 -0.9846 -1.2112
 2245SOL     OW18196   2.062   0.421  12.880 -0.3528 -0.8697 -0.2595
 2245SOL    HW118197   2.012   0.498  12.908 -0.8869 -1.2093 -0.2759
 2245SOL    HW218198   2.034   0.414  12.789 -0.9571  1.7382 -0.2712
 2246SOL     OW18199   1.731   1.109   8.701 -0.4758 -0.0542  0.0478
 2246SOL    HW118200   1.748   1.187   8.754 -0.9172  0.7361 -0.9588
 2246SOL    HW218201   1.792   1.124   8.629  0.5536 -0.3806  0.8576
 2247SOL     OW18202   2.354   1.510   6.234  0.3977  0.1134  0.2525
 2247SOL    HW118203   2.338   1.533   6.325 -0.7555 -2.0753  0.6061
 2247SOL    HW218204   2.426   1.448   6.245  1.5264  1.4442  0.3641
 2248SOL     OW18205   3.867   2.079   8.285  0.2746 -0.5918 -0.0021
 2248SOL    HW118206   3.850   2.033   8.368 -0.7129 -1.2291 -0.5571
 2248SOL    HW218207   3.823   2.163   8.296 -1.0763 -0.9893 -2.3622
 2249SOL     OW18208   0.050   1.452  17.071 -0.4090  0.1658 -0.0207
 2249SOL    HW118209   0.126   1.452  17.014 -0.4869  0.0803 -0.1247
 2249SOL    HW218210   4.707   1.502  17.020  0.1993  0.6774 -0.2538
 2250SOL     OW18211   3.844   0.059   5.904 -0.2470  0.0097  0.0702
 2250SOL    HW118212   3.872   0.072   5.813 -1.5824  2.0469 -0.0621
 2250SOL    HW218213   3.858   0.150   5.932  0.1256  0.0983 -0.3993
 2251SOL     OW18214   2.854   0.975  17.603  0.3782  0.7166 -0.0520
 2251SOL    HW118215   2.930   0.949  17.656  0.7909 -0.8704 -1.4347
 2251SOL    HW218216   2.783   0.966  17.666  1.1823  0.3097  0.8013
 2252SOL     OW18217   0.198   2.894  16.284  0.3001  0.2115 -0.8122
 2252SOL    HW118218   0.205   2.990  16.281 -1.4840  0.3652  0.1909
 2252SOL    HW218219   0.102   2.889  16.285  0.3440 -0.8160 -2.2860
 2253SOL     OW18220   3.913   1.585   9.492  0.1687  0.2646  0.0351
 2253SOL    HW118221   3.919   1.670   9.449 -0.0288  0.6343  0.7248
 2253SOL    HW218222   3.985   1.598   9.554 -0.4189 -2.0903  1.1899
 2254SOL     OW18223   1.095   3.281   2.189  0.1257 -0.4378 -0.5375
 2254SOL    HW118224   1.156   3.219   2.229 -0.8579 -1.9482 -1.3861
 2254SOL    HW218225   1.106   3.358   2.246  0.1979 -0.1546 -0.9347
 2255SOL     OW18226   4.508   3.698   8.458  0.1171 -0.3445 -0.0737
 2255SOL    HW118227   4.431   3.664   8.413  0.3409 -1.3014  0.2648
 2255SOL    HW218228   4.549   3.617   8.488 -0.4940 -0.7547 -0.3410
 2256SOL     OW18229   2.794   3.847   8.668  0.7255  0.0238 -0.1726
 2256SOL    HW118230   2.855   3.775   8.681  0.1237 -0.5740 -0.6607
 2256SOL    HW218231   2.822   3.879   8.582 -0.0996  1.4826  0.0917
 2257SOL     OW18232   0.472   3.285   5.057 -0.1299 -0.0951  0.2642
 2257SOL    HW118233   0.522   3.265   5.136  1.5421 -0.7867 -0.9865
 2257SOL    HW218234   0.476   3.380   5.062  1.8346 -0.1806  0.3806
 2258SOL     OW18235   0.100   3.618   5.965  0.3655  0.3731 -0.0320
 2258SOL    HW118236   0.123   3.553   6.032  1.0599 -0.8904 -1.4983
 2258SOL    HW218237   0.113   3.567   5.886  1.5830 -1.0323  1.0620
 2259SOL     OW18238   1.918   2.137  16.285 -0.0944 -0.8385  0.0739
 2259SOL    HW118239   1.966   2.170  16.208  0.0307 -4.0878 -1.2392
 2259SOL    HW218240   1.974   2.065  16.315 -1.7442 -2.2060 -0.1696
 2260SOL     OW18241   0.608   2.201   1.936 -0.1633  0.1340 -0.3477
 2260SOL    HW118242   0.671   2.228   1.869  0.7560  1.0135  0.8772
 2260SOL    HW218243   0.537   2.265   1.941  0.3287  0.7737 -1.4251
 2261SOL     OW18244   1.974   2.686   5.151 -0.2159  0.3419 -0.1465
 2261SOL    HW118245   1.925   2.717   5.074  1.1132 -1.6359 -1.8129
 2261SOL    HW218246   2.040   2.627   5.114 -1.0769 -0.0988 -0.9933
 2262SOL     OW18247   2.386   0.907   7.912  0.2067 -0.4518 -0.2065
 2262SOL    HW118248   2.317   0.893   7.977  0.3218 -1.1351 -0.2414
 2262SOL    HW218249   2.363   0.985   7.862 -2.1896 -0.9608  0.0951
 2263SOL     OW18250   0.093   0.353  17.044 -1.0362 -0.0109  0.1429
 2263SOL    HW118251   0.004   0.319  17.031 -0.7821  0.2520 -2.3295
 2263SOL    HW218252   0.091   0.338  17.138  0.4254 -1.0748  0.0039
 2264SOL     OW18253   3.517   3.904   2.632 -0.0534 -0.1600  0.0791
 2264SOL    HW118254   3.584   3.926   2.697 -0.5286 -1.1001  0.8991
 2264SOL    HW218255   3.514   3.808   2.632 -0.6352 -0.1227 -2.7299
 2265SOL     OW18256   2.544   1.964   7.520  0.2785 -0.1805  0.1137
 2265SOL    HW118257   2.518   1.926   7.436 -1.9913  0.0036  0.7423
 2265SOL    HW218258   2.461   1.975   7.565 -0.1832 -0.0315 -0.7689
 2266SOL     OW18259   3.541   0.644   8.121  0.1807 -0.2524 -0.5380
 2266SOL    HW118260   3.466   0.651   8.180  1.8658 -1.0537  1.6677
 2266SOL    HW218261   3.491   0.644   8.039 -0.2435 -1.9562 -0.2908
 2267SOL     OW18262   3.846   0.232  12.298  0.1269  0.1513 -0.1786
 2267SOL    HW118263   3.890   0.178  12.365  0.1212 -1.3811 -1.3939
 2267SOL    HW218264   3.842   0.169  12.226  0.3317  2.0879 -1.8713
 2268SOL     OW18265   1.916   3.305   1.146  0.2690  0.0688 -0.0640
 2268SOL    HW118266   1.897   3.237   1.210  3.0683 -0.4517  0.2435
 2268SOL    HW218267   1.980   3.267   1.085  1.4709 -0.9354  1.8060
 2269SOL     OW18268   4.534   3.858  11.368 -0.4921 -0.0086  0.0223
 2269SOL    HW118269   4.628   3.861  11.384 -0.6980  1.1729  0.9973
 2269SOL    HW218270   4.539   3.893  11.279  0.1001  0.2863  0.1720
 2270SOL     OW18271   2.830   1.130  10.408  0.3373  0.2010 -0.0411
 2270SOL    HW118272   2.832   1.168  10.320 -0.9822  0.7018  0.1518
 2270SOL    HW218273   2.823   1.210  10.460  2.7130  0.1623  0.3572
 2271SOL     OW18274   0.765   3.054   5.087 -0.5259 -1.0703  0.0413
 2271SOL    HW118275   0.693   3.075   5.146 -0.7560 -0.9332 -0.2866
 2271SOL    HW218276   0.804   3.135   5.053  0.8244 -1.5068  0.5234
 2272SOL     OW18277   4.450   0.911  11.124  0.0978 -0.1607  0.0118
 2272SOL    HW118278   4.495   0.828  11.112  0.3036  0.2938 -2.3764
 2272SOL    HW218279   4.511   0.962  11.071  0.3747 -2.4171 -1.8247
 2273SOL     OW18280   0.455   3.072   0.853  0.2487 -1.0568 -0.8671
 2273SOL    HW118281   0.425   3.098   0.766  1.1975  2.4630 -0.1190
 2273SOL    HW218282   0.507   3.149   0.877 -2.7570  0.7213 -0.1451
 2274SOL     OW18283   3.989   2.367   8.862  0.2377  0.0574 -0.2460
 2274SOL    HW118284   3.941   2.303   8.811  0.7799 -1.9186  1.7202
 2274SOL    HW218285   3.965   2.448   8.818  2.7170  1.8807  1.6968
 2275SOL     OW18286   4.040   3.044   4.424  0.3334  0.2434 -0.1009
 2275SOL    HW118287   3.949   3.023   4.401  0.9896 -2.0304 -0.5705
 2275SOL    HW218288   4.044   3.134   4.390  2.6541  0.6012  1.1971
 2276SOL     OW18289   0.766   1.331   5.107  0.3672  0.2292  0.1079
 2276SOL    HW118290   0.763   1.292   5.194 -0.6505 -1.1443 -0.5383
 2276SOL    HW218291   0.851   1.374   5.099  0.6956 -0.1665  1.4613
 2277SOL     OW18292   4.490   0.051   4.473 -0.4992  0.3554 -0.5170
 2277SOL    HW118293   4.417   0.007   4.518  0.5679 -0.3961  0.4791
 2277SOL    HW218294   4.529   0.087   4.552 -0.8852 -0.4639  0.0522
 2278SOL     OW18295   3.925   3.943   1.876 -0.2903  0.2542  0.0216
 2278SOL    HW118296   3.976   3.863   1.881  0.3334  0.7487  1.4613
 2278SOL    HW218297   3.920   3.954   1.781  2.2328 -1.0364 -0.2525
 2279SOL     OW18298   2.904   3.914   5.829 -0.4858 -0.0491  0.4954
 2279SOL    HW118299   2.996   3.917   5.856 -0.1265 -0.8550 -0.6545
 2279SOL    HW218300   2.921   3.897   5.736 -1.4925 -0.6839  0.4276
 2280SOL     OW18301   3.045   1.395  11.714  0.7407 -0.5417 -0.1221
 2280SOL    HW118302   3.013   1.313  11.675 -0.6115 -0.3427  0.5788
 2280SOL    HW218303   3.026   1.369  11.804 -1.1038  1.2128 -0.0023
 2281SOL     OW18304   1.310   3.646   4.028 -0.0641 -0.2898  0.0728
 2281SOL    HW118305   1.258   3.671   4.104  0.2235 -0.1377  0.2192
 2281SOL    HW218306   1.391   3.617   4.068 -1.0244 -0.9805  1.5285
 2282SOL     OW18307   1.866   2.969   5.183 -0.3187 -0.2111  0.2393
 2282SOL    HW118308   1.938   3.026   5.157  1.4873 -2.0129  1.3184
 2282SOL    HW218309   1.915   2.889   5.203  0.7593  0.5210  0.4818
 2283SOL     OW18310   2.325   3.516   8.494 -0.0320  0.0189 -0.2404
 2283SOL    HW118311   2.351   3.608   8.503 -0.6667  0.1178  0.6339
 2283SOL    HW218312   2.405   3.474   8.524  0.0407  0.0420 -0.4023
 2284SOL     OW18313   0.531   1.766   0.233 -0.1809  0.2500  0.3584
 2284SOL    HW118314   0.441   1.757   0.202 -0.8049  1.4521  1.8333
 2284SOL    HW218315   0.568   1.841   0.186 -2.5580  2.1298  1.4834
 2285SOL     OW18316   1.966   0.421  15.474 -0.0338 -0.3886  0.5237
 2285SOL    HW118317   2.015   0.502  15.484 -1.7180  0.6586  0.3366
 2285SOL    HW218318   2.020   0.359  15.524  1.7208  0.2271 -0.6085
 2286SOL     OW18319   1.029   1.716   5.279 -0.2827  0.2700 -0.4227
 2286SOL    HW118320   1.122   1.715   5.255 -0.1343  1.4818  0.1378
 2286SOL    HW218321   0.996   1.796   5.239 -0.8230  1.0613  1.6262
 2287SOL     OW18322   3.621   1.891   2.789 -0.3784 -0.1696 -0.2490
 2287SOL    HW118323   3.533   1.859   2.767 -0.0336 -0.2255 -1.5366
 2287SOL    HW218324   3.603   1.982   2.815  1.5647  0.9271 -2.7623
 2288SOL     OW18325   2.952   1.559   4.208 -0.0257 -0.0515  0.5474
 2288SOL    HW118326   3.027   1.513   4.245 -0.4534 -0.2678  1.1400
 2288SOL    HW218327   2.957   1.633   4.269 -0.9534 -0.2972  0.9131
 2289SOL     OW18328   2.578   0.542  13.294  0.7957  0.1723  0.2617
 2289SOL    HW118329   2.592   0.453  13.326  0.3481 -0.2745 -0.8141
 2289SOL    HW218330   2.483   0.548  13.304  0.6059  0.0445 -1.4784
 2290SOL     OW18331   4.411   3.574   5.811 -0.5321 -0.0307 -0.1016
 2290SOL    HW118332   4.316   3.563   5.818 -0.6002  0.3919 -0.3950
 2290SOL    HW218333   4.426   3.575   5.717  0.1862 -2.0754 -0.0176
 2291SOL     OW18334   0.518   0.385   2.929  0.1089  0.3933 -0.1150
 2291SOL    HW118335   0.459   0.338   2.989  0.3587  0.2134 -0.0089
 2291SOL    HW218336   0.449   0.405   2.866  0.8806 -2.2871 -1.8342
 2292SOL     OW18337   4.472   2.500   2.534 -0.0868 -0.2156 -0.2769
 2292SOL    HW118338   4.476   2.595   2.524 -0.5265 -0.2928 -1.1898
 2292SOL    HW218339   4.561   2.495   2.568 -0.4192  1.5856  0.8533
 2293SOL     OW18340   2.164   0.450   8.106 -0.2380 -0.2295 -0.3517
 2293SOL    HW118341   2.257   0.455   8.129 -0.5913  0.5781  0.8531
 2293SOL    HW218342   2.154   0.526   8.049 -0.9296 -1.6549 -2.1366
 2294SOL     OW18343   1.082   1.578   7.588  0.0399 -0.4807  0.2502
 2294SOL    HW118344   1.033   1.616   7.661  0.9321  2.5032 -0.7129
 2294SOL    HW218345   1.011   1.577   7.523 -0.5861 -0.4528  0.9409
 2295SOL     OW18346   4.152   3.117  10.061 -0.3897 -0.4240 -0.3061
 2295SOL    HW118347   4.103   3.045  10.102 -0.2291  0.0033  0.6322
 2295SOL    HW218348   4.207   3.153  10.130  1.7328 -2.5946 -0.8742
 2296SOL     OW18349   0.950   0.905  15.945  0.1065  0.1626  0.2845
 2296SOL    HW118350   0.881   0.940  16.002  0.6621  2.5388 -0.4799
 2296SOL    HW218351   0.956   0.984  15.892 -1.0182  0.5687  0.7652
 2297SOL     OW18352   1.875   2.892  11.171  0.1151 -0.0773  0.2413
 2297SOL    HW118353   1.964   2.902  11.207  0.4109  0.1043 -0.5334
 2297SOL    HW218354   1.842   2.974  11.208 -2.2761  0.0970 -2.3237
 2298SOL     OW18355   3.671   0.389  12.170  0.1279  0.2370 -0.1993
 2298SOL    HW118356   3.737   0.336  12.213  1.3392 -0.4522 -2.8668
 2298SOL    HW218357   3.619   0.406  12.249  0.3164 -0.7992  0.1428
 2299SOL     OW18358   2.052   1.842  16.845 -0.3005 -0.0992 -0.5422
 2299SOL    HW118359   2.146   1.850  16.858 -0.7303  3.3347  0.4946
 2299SOL    HW218360   2.030   1.751  16.867 -0.0371 -0.3042 -1.1256
 2300SOL     OW18361   2.057   3.807   6.100  0.3413  0.2858 -0.5171
 2300SOL    HW118362   2.044   3.883   6.157 -0.9721 -0.8066  0.6524
 2300SOL    HW218363   2.117   3.840   6.034 -1.8030  0.4324 -2.3892
 2301SOL     OW18364   1.353   4.567   6.835  0.2998 -0.0393 -0.1302
 2301SOL    HW118365   1.398   4.485   6.813  1.6953 -0.2833  3.6594
 2301SOL    HW218366   1.361   4.610   6.750 -1.0278 -1.4660 -0.9894
 2302SOL     OW18367   1.400   3.477   9.682 -0.4324  0.0700 -0.0447
 2302SOL    HW118368   1.319   3.525   9.667 -0.6418 -0.6050 -1.0769
 2302SOL    HW218369   1.462   3.548   9.698  2.7046 -2.8221  0.7051
 2303SOL     OW18370   2.909   4.595   6.555 -0.2957 -0.0716  0.3008
 2303SOL    HW118371   2.898   4.635   6.641  0.3064 -0.8549  0.7474
 2303SOL    HW218372   2.996   4.558   6.569 -0.3180 -0.6864 -1.1952
 2304SOL     OW18373   0.211   0.147   2.830  0.0316  0.5040 -0.2336
 2304SOL    HW118374   0.199   0.211   2.760 -3.3453 -0.3061 -0.4047
 2304SOL    HW218375   0.127   0.136   2.874  0.3176 -0.0757  0.1625
 2305SOL     OW18376   0.477   2.371  14.686 -1.1305  0.0214 -0.1193
 2305SOL    HW118377   0.464   2.370  14.781  3.4720 -1.0146  0.4637
 2305SOL    HW218378   0.570   2.393  14.678 -1.3503  0.3434 -1.8260
 2306SOL     OW18379   0.102   3.606   3.444 -0.5084  0.3439 -0.6362
 2306SOL    HW118380   0.019   3.637   3.409  0.1824  0.6158 -2.0250
 2306SOL    HW218381   0.091   3.634   3.535 -1.5476  1.2601 -1.0514
 2307SOL     OW18382   0.408   2.298   6.657 -0.1781 -0.4350  0.2142
 2307SOL    HW118383   0.355   2.327   6.583  0.9316 -0.3095 -0.5333
 2307SOL    HW218384   0.338   2.278   6.719 -0.0394 -0.7269  0.2783
 2308SOL     OW18385   2.574   0.779  14.908  0.1249  0.1964 -0.2926
 2308SOL    HW118386   2.561   0.776  14.813  0.6488  0.2392 -0.3692
 2308SOL    HW218387   2.525   0.700  14.929  0.2031  0.1229 -0.3835
 2309SOL     OW18388   3.228   2.980   6.596  0.0825 -0.1326  0.5558
 2309SOL    HW118389   3.310   2.954   6.637  0.3518 -2.4077 -1.4315
 2309SOL    HW218390   3.161   2.973   6.664  1.5890 -1.6951  1.8798
 2310SOL     OW18391   0.182   2.655   6.728  0.0356  0.6261 -0.3123
 2310SOL    HW118392   0.168   2.737   6.775  0.7493 -0.6692  2.1847
 2310SOL    HW218393   0.219   2.602   6.799 -1.2003  0.4298  0.1858
 2311SOL     OW18394   1.754   3.117   9.328  0.2772 -0.2406  0.6688
 2311SOL    HW118395   1.658   3.115   9.331  0.2087  2.8041  0.1985
 2311SOL    HW218396   1.771   3.084   9.416 -0.0873 -0.2765  0.7273
 2312SOL     OW18397   3.942   1.027   5.789  0.4204  0.0259 -0.0875
 2312SOL    HW118398   3.900   0.953   5.745  0.0293 -0.8202  1.7102
 2312SOL    HW218399   3.978   0.981   5.864  1.0125  1.4339  0.4919
 2313SOL     OW18400   2.605   3.718   7.716  0.1117  0.1761 -0.0007
 2313SOL    HW118401   2.598   3.683   7.627 -3.0637 -2.8079  1.4259
 2313SOL    HW218402   2.609   3.641   7.772 -0.2683  0.4103  0.3522
 2314SOL     OW18403   4.242   1.967  12.689 -0.1990  0.2758  0.1403
 2314SOL    HW118404   4.319   1.985  12.635  0.1685 -0.8750  0.2839
 2314SOL    HW218405   4.289   1.911  12.751 -0.5214  1.4508  1.4699
 2315SOL     OW18406   3.909   3.160   2.474  0.2336  0.3788  0.6478
 2315SOL    HW118407   3.833   3.215   2.452 -0.3988  0.3061  2.6312
 2315SOL    HW218408   3.924   3.108   2.395 -0.4196  2.3104 -0.7650
 2316SOL     OW18409   1.036   2.190   6.058 -0.4063 -0.4253  0.3435
 2316SOL    HW118410   0.947   2.202   6.092 -0.8335 -0.2186 -0.8474
 2316SOL    HW218411   1.085   2.165   6.137 -0.2344  0.3044  0.4659
 2317SOL     OW18412   4.574   3.725   6.808  0.3970  1.0392 -0.6723
 2317SOL    HW118413   4.667   3.741   6.818  0.4961 -0.1272  0.3435
 2317SOL    HW218414   4.556   3.691   6.720 -2.3182 -1.4920  0.8432
 2318SOL     OW18415   2.233   1.780   5.901  0.1090 -0.4088 -0.5074
 2318SOL    HW118416   2.208   1.726   5.977  3.2256  0.6145  1.2578
 2318SOL    HW218417   2.255   1.860   5.949  1.7276 -1.2364  0.1196
 2319SOL     OW18418   1.664   0.154   3.686 -0.0401 -0.5428 -0.0653
 2319SOL    HW118419   1.619   0.178   3.605  0.8922 -1.1071 -0.7617
 2319SOL    HW218420   1.653   0.233   3.738 -0.8497 -0.5364 -0.2533
 2320SOL     OW18421   3.084   4.285   0.449  0.2060 -0.5973 -0.7088
 2320SOL    HW118422   2.992   4.262   0.456  0.7462 -1.8427  2.3863
 2320SOL    HW218423   3.119   4.206   0.490  1.1527 -0.1853 -0.7289
 2321SOL     OW18424   4.602   0.825   2.212  0.1643 -0.4348  0.5538
 2321SOL    HW118425   4.659   0.892   2.251 -1.0966  0.7107  0.4160
 2321SOL    HW218426   4.667   0.761   2.183 -0.7958  0.4050 -3.3886
 2322SOL     OW18427   1.048   0.616   5.112 -0.2836 -0.2552  0.5125
 2322SOL    HW118428   1.027   0.706   5.138  0.5013  0.4785 -1.4300
 2322SOL    HW218429   0.968   0.577   5.079  0.6846 -1.7381 -0.0364
 2323SOL     OW18430   4.011   1.503  12.120  0.5383 -0.0031 -0.1404
 2323SOL    HW118431   3.924   1.480  12.153  1.6069 -3.7180 -0.0112
 2323SOL    HW218432   4.069   1.491  12.195  1.9149 -0.9367 -1.3770
 2324SOL     OW18433   2.693   2.959  14.954  0.5680  0.2830 -0.3246
 2324SOL    HW118434   2.710   2.938  15.046  1.5707 -1.4249 -0.9005
 2324SOL    HW218435   2.599   2.969  14.974 -0.0540  0.7780 -3.5404
 2325SOL     OW18436   2.924   0.023  12.668  0.2527 -0.3927 -0.4304
 2325SOL    HW118437   2.837   0.056  12.645  0.4050  1.1417  1.1073
 2325SOL    HW218438   2.949   0.091  12.731 -1.9068 -1.6418  1.8176
 2326SOL     OW18439   2.815   4.196   4.033  0.0931  0.4441 -0.2997
 2326SOL    HW118440   2.773   4.221   3.951 -0.5361  0.0031 -0.1081
 2326SOL    HW218441   2.798   4.274   4.086  1.2470  2.3585 -2.7203
 2327SOL     OW18442   0.353   3.327   6.223 -0.2246 -0.1688 -0.4092
 2327SOL    HW118443   0.409   3.270   6.171 -0.4979  0.4013 -1.3148
 2327SOL    HW218444   0.412   3.402   6.238  0.2493 -0.3927 -1.1557
 2328SOL     OW18445   4.084   2.845   4.123  0.3857 -0.3460  0.4315
 2328SOL    HW118446   3.995   2.845   4.159  0.5588  0.4528  0.8813
 2328SOL    HW218447   4.103   2.753   4.106  0.4040 -0.0654 -1.0643
 2329SOL     OW18448   1.370   0.311   3.389  0.1098 -0.2102 -0.5165
 2329SOL    HW118449   1.334   0.256   3.319 -0.9986  1.1328 -1.0018
 2329SOL    HW218450   1.309   0.385   3.382  2.6276  1.9956  1.1064
 2330SOL     OW18451   1.210   0.855  13.085  0.3014 -0.4054 -0.0390
 2330SOL    HW118452   1.151   0.811  13.024 -0.7212 -0.3029  0.8961
 2330SOL    HW218453   1.270   0.904  13.027  0.1398 -0.4691 -0.2584
 2331SOL     OW18454   3.576   1.358   4.915 -0.2735 -0.3863  0.4057
 2331SOL    HW118455   3.554   1.298   4.986 -0.1943  0.8341  1.4671
 2331SOL    HW218456   3.642   1.305   4.871 -0.8203 -1.0615  0.4037
 2332SOL     OW18457   2.925   2.365   8.025  0.2642  0.0446 -0.1140
 2332SOL    HW118458   2.888   2.279   8.002 -0.4753 -0.0571  1.4600
 2332SOL    HW218459   2.942   2.354   8.118 -0.2445  2.2613  0.2309
 2333SOL     OW18460   0.612   1.618   6.571  0.3539  0.0950  0.3856
 2333SOL    HW118461   0.599   1.710   6.548 -1.5566 -0.1161  0.6166
 2333SOL    HW218462   0.540   1.579   6.522  0.7502 -1.1409  0.7936
 2334SOL     OW18463   1.565   0.139  14.767 -0.6844  0.1983  0.5443
 2334SOL    HW118464   1.576   0.176  14.854  0.4607 -1.4738  1.1009
 2334SOL    HW218465   1.596   0.050  14.781  1.2740  0.9524  0.9216
 2335SOL     OW18466   2.235   3.136   6.496 -0.5125 -0.4248 -0.2103
 2335SOL    HW118467   2.295   3.130   6.421  0.7164 -1.5924  0.8673
 2335SOL    HW218468   2.148   3.161   6.465 -0.4353  0.6399  0.4333
 2336SOL     OW18469   0.611   2.540   1.757 -0.0521 -0.1540  0.0498
 2336SOL    HW118470   0.704   2.566   1.756 -0.2517  0.5927  0.9993
 2336SOL    HW218471   0.576   2.563   1.672 -1.3751 -0.9900  0.3754
 2337SOL     OW18472   0.693   4.430   3.857 -0.0338 -0.5783 -0.4127
 2337SOL    HW118473   0.668   4.464   3.943  0.2878 -0.9510 -0.1727
 2337SOL    HW218474   0.688   4.336   3.875  1.0315 -0.9224 -1.9173
 2338SOL     OW18475   3.528   4.599   6.275 -0.1058  0.4987  0.6075
 2338SOL    HW118476   3.580   4.631   6.202 -0.8052  1.8559  0.7038
 2338SOL    HW218477   3.539   4.504   6.277 -1.5214  0.3241 -0.1519
 2339SOL     OW18478   1.966   3.360  12.125  0.2725  0.0898  0.6217
 2339SOL    HW118479   1.905   3.340  12.054  1.2204  0.1110 -0.2099
 2339SOL    HW218480   2.029   3.420  12.084 -0.5178  1.1036  0.9023
 2340SOL     OW18481   3.869   1.245   8.623 -0.2123 -0.4129  0.2300
 2340SOL    HW118482   3.803   1.228   8.556  1.0473 -1.5634 -0.7141
 2340SOL    HW218483   3.902   1.156   8.631  0.9349  0.0209  0.3291
 2341SOL     OW18484   0.499   4.072   2.486 -0.2376 -0.0248 -0.0426
 2341SOL    HW118485   0.543   4.135   2.430 -0.2214 -0.3277 -0.3729
 2341SOL    HW218486   0.463   4.009   2.423  3.1933  2.3516 -4.4127
 2342SOL     OW18487   2.441   3.981  13.040  0.0835 -0.0842 -0.5531
 2342SOL    HW118488   2.475   3.996  13.128  5.0031 -1.6185 -2.2328
 2342SOL    HW218489   2.383   3.907  13.061 -1.7876  1.5764  0.1386
 2343SOL     OW18490   3.179   0.053   4.462  0.1756 -0.2101  0.1002
 2343SOL    HW118491   3.166   0.147   4.454  2.9851  0.1540 -0.2847
 2343SOL    HW218492   3.225   0.029   4.381 -0.0706  1.3458 -0.4973
 2344SOL     OW18493   2.139   2.083   5.420  0.3148  0.5864  0.1492
 2344SOL    HW118494   2.152   2.122   5.507 -1.7477 -1.7876  1.5401
 2344SOL    HW218495   2.053   2.043   5.428  1.3725 -2.0253 -1.5412
 2345SOL     OW18496   4.662   3.827   1.848  0.5185  0.2860  0.2043
 2345SOL    HW118497   4.702   3.914   1.858  0.7483  0.6657 -3.9895
 2345SOL    HW218498   4.655   3.798   1.939 -1.0722  0.5767  0.1699
 2346SOL     OW18499   3.653   3.254   0.257 -0.1346 -0.0022  0.3691
 2346SOL    HW118500   3.699   3.322   0.306 -1.7505  0.4997  1.1681
 2346SOL    HW218501   3.684   3.179   0.307 -2.2391 -1.0235  0.1093
 2347SOL     OW18502   2.599   4.342  17.402 -0.3988  0.2424 -0.0330
 2347SOL    HW118503   2.572   4.422  17.447  0.0693  0.1993  0.3243
 2347SOL    HW218504   2.686   4.339  17.442 -0.4986  1.1211  0.2477
 2348SOL     OW18505   0.640   2.331   3.703  0.3470 -0.4365  0.3140
 2348SOL    HW118506   0.728   2.369   3.698  0.5848 -0.6338  2.9025
 2348SOL    HW218507   0.584   2.408   3.713 -1.4029 -1.3615 -2.5884
 2349SOL     OW18508   4.083   2.080   6.653  0.4978  0.1968 -0.8743
 2349SOL    HW118509   4.043   1.999   6.684 -1.1699  0.9448 -1.0977
 2349SOL    HW218510   4.021   2.107   6.585 -1.8735  0.3118  1.3517
 2350SOL     OW18511   1.995   3.775   9.348  0.4345  0.0047  0.0564
 2350SOL    HW118512   2.067   3.732   9.301  0.4826  0.7467 -0.5542
 2350SOL    HW218513   1.932   3.705   9.367  0.0251 -0.1705 -1.9366
 2351SOL     OW18514   2.160   0.678   2.479 -0.5911  0.6598 -0.5745
 2351SOL    HW118515   2.094   0.746   2.464 -0.2452  1.0564 -0.3358
 2351SOL    HW218516   2.187   0.661   2.389  0.6584 -2.4852  0.3965
 2352SOL     OW18517   1.433   1.711   4.991 -0.2921  0.3785  0.4263
 2352SOL    HW118518   1.399   1.801   4.990  1.9544  1.1686 -3.0443
 2352SOL    HW218519   1.353   1.671   5.024 -0.1387  0.8552  1.3803
 2353SOL     OW18520   2.781   4.139   8.398  0.3978  0.1051 -0.0757
 2353SOL    HW118521   2.787   4.235   8.404  1.8524 -0.1691  2.9725
 2353SOL    HW218522   2.686   4.124   8.405  0.4046  0.9598  2.0644
 2354SOL     OW18523   1.898   4.133  16.360 -0.2107  0.0685 -0.8770
 2354SOL    HW118524   1.980   4.153  16.407 -0.8297 -0.3108  0.3739
 2354SOL    HW218525   1.871   4.220  16.331  1.9858  1.7915  2.1888
 2355SOL     OW18526   2.222   2.109  13.092 -0.6401  0.2731  0.3088
 2355SOL    HW118527   2.292   2.103  13.027 -1.1862  1.8530 -0.4175
 2355SOL    HW218528   2.144   2.120  13.038 -1.4465  2.4099  1.9239
 2356SOL     OW18529   2.026   1.380  16.223 -0.3175  0.1795 -0.7101
 2356SOL    HW118530   1.942   1.393  16.178 -1.0766  0.2010  0.7357
 2356SOL    HW218531   2.067   1.461  16.192 -0.3272  0.6134  0.4410
 2357SOL     OW18532   3.809   1.266   8.216 -0.2861 -0.8593 -0.7883
 2357SOL    HW118533   3.874   1.297   8.153  0.6809 -1.5628 -0.1511
 2357SOL    HW218534   3.870   1.240   8.285 -0.6475  0.2229 -0.0551
 2358SOL     OW18535   0.376   4.695   7.110 -0.5218 -0.7266  0.3786
 2358SOL    HW118536   0.392   0.031   7.034 -0.0776  1.0371  1.7614
 2358SOL    HW218537   0.409   4.607   7.092  1.3710 -0.2612  1.4721
 2359SOL     OW18538   3.057   1.092   5.507 -0.6465 -0.3412 -0.4813
 2359SOL    HW118539   2.989   1.112   5.443 -2.1029  3.0018  2.1113
 2359SOL    HW218540   3.017   1.131   5.585  0.5432  0.6924 -0.3794
 2360SOL     OW18541   1.552   3.145   0.715  0.4733 -0.4134  0.0135
 2360SOL    HW118542   1.619   3.142   0.783  0.5753 -0.5612 -0.0940
 2360SOL    HW218543   1.470   3.171   0.758 -0.0503  0.7029 -1.6869
 2361SOL     OW18544   2.182   1.980   6.377 -0.1502 -0.7036  0.1120
 2361SOL    HW118545   2.195   1.889   6.400 -1.7233 -0.9386  0.0713
 2361SOL    HW218546   2.270   2.014   6.358 -0.3995 -2.2564 -3.9165
 2362SOL     OW18547   1.536   4.400   3.009  0.2294 -0.9280 -0.0396
 2362SOL    HW118548   1.468   4.374   3.072 -0.6018 -1.6829 -1.2512
 2362SOL    HW218549   1.548   4.493   3.027  1.2934 -0.7639 -1.5954
 2363SOL     OW18550   3.374   1.689   3.793 -0.0107  0.3351 -0.1521
 2363SOL    HW118551   3.422   1.737   3.860 -0.5623  0.5788  0.0714
 2363SOL    HW218552   3.345   1.762   3.739  1.4889  1.1388  0.1483
 2364SOL     OW18553   1.986   3.233  14.995 -0.4055 -0.0091  0.0326
 2364SOL    HW118554   1.905   3.242  14.946  0.5596  0.0774 -1.5473
 2364SOL    HW218555   2.043   3.221  14.919 -0.6815  0.5333 -0.2563
 2365SOL     OW18556   0.455   1.667   5.524 -0.9481  0.8552  0.3487
 2365SOL    HW118557   0.413   1.745   5.560 -2.4863  0.3016 -0.2112
 2365SOL    HW218558   0.544   1.692   5.503 -0.2315 -1.7785  0.2463
 2366SOL     OW18559   4.504   3.973   9.748  0.1166 -0.0420  0.0337
 2366SOL    HW118560   4.578   3.918   9.723 -0.5296 -1.1997  0.6927
 2366SOL    HW218561   4.531   4.061   9.719 -1.9671 -0.1119 -2.0194
 2367SOL     OW18562   2.280   4.527   9.116  0.3760 -0.3143 -0.9836
 2367SOL    HW118563   2.336   4.469   9.065 -0.1258 -0.6941 -1.1023
 2367SOL    HW218564   2.229   4.457   9.157 -0.7628  1.2880  0.3423
 2368SOL     OW18565   3.561   0.965   3.314  0.0365  0.2715  0.3529
 2368SOL    HW118566   3.613   0.931   3.241 -2.7355 -1.9134 -0.6007
 2368SOL    HW218567   3.625   1.018   3.362 -0.9640  1.2316  0.6098
 2369SOL     OW18568   0.177   1.882   6.822 -0.1878  0.0958  0.0135
 2369SOL    HW118569   0.249   1.822   6.841 -1.1464 -1.1022 -0.1344
 2369SOL    HW218570   0.232   1.941   6.770 -0.1705 -0.5265 -0.6721
 2370SOL     OW18571   0.575   3.400  14.496 -0.2467  0.6481 -0.2786
 2370SOL    HW118572   0.630   3.390  14.574 -0.3143 -0.0089 -0.3155
 2370SOL    HW218573   0.485   3.383  14.523  0.2274 -0.4265  0.6621
 2371SOL     OW18574   3.347   3.917   7.870  0.2494  0.2994  0.4939
 2371SOL    HW118575   3.304   3.954   7.946 -0.6230 -1.0557  0.6586
 2371SOL    HW218576   3.397   3.989   7.830 -1.1256 -0.1212 -2.0066
 2372SOL     OW18577   3.202   3.559   3.546 -0.1484 -0.1954  0.4462
 2372SOL    HW118578   3.199   3.529   3.637  0.4982 -1.8112 -0.0512
 2372SOL    HW218579   3.215   3.651   3.566  0.5722 -0.0468 -0.7113
 2373SOL     OW18580   0.042   0.521  15.318  0.5918 -0.0864  0.1289
 2373SOL    HW118581   0.044   0.428  15.341 -1.3681 -0.3935 -0.9550
 2373SOL    HW218582   0.119   0.566  15.352  0.9017  1.5158 -2.7209
 2374SOL     OW18583   1.382   4.560   6.390 -0.3593  0.3219  0.1622
 2374SOL    HW118584   1.390   4.469   6.419 -1.9659  0.3199  0.5896
 2374SOL    HW218585   1.473   4.578   6.367 -0.2930  0.2761  0.3828
 2375SOL     OW18586   4.624   0.994   9.092 -0.1696  0.3311  0.0817
 2375SOL    HW118587   4.578   1.036   9.166 -2.1555  0.4856 -1.2229
 2375SOL    HW218588   4.592   1.050   9.020  1.6716  0.0845 -0.9285
 2376SOL     OW18589   3.650   4.240   8.359  0.2764 -0.1281  1.0117
 2376SOL    HW118590   3.615   4.198   8.438  0.3305 -2.1628 -0.0635
 2376SOL    HW218591   3.590   4.203   8.294  0.9012  0.1896  0.2670
 2377SOL     OW18592   2.185   0.404  10.073  0.2271  0.1442 -0.2102
 2377SOL    HW118593   2.204   0.467  10.143  2.2447 -1.2596  0.4857
 2377SOL    HW218594   2.150   0.335  10.130  2.6398  0.1705  1.2713
 2378SOL     OW18595   3.711   3.999   2.795  0.5348  0.5984 -0.0696
 2378SOL    HW118596   3.738   4.090   2.794  2.2286  0.1042  0.1435
 2378SOL    HW218597   3.796   3.958   2.777 -0.0357 -0.9599  0.6987
 2379SOL     OW18598   2.640   1.508   8.025  0.0732 -0.0123 -0.3416
 2379SOL    HW118599   2.551   1.482   8.001 -0.1096 -0.8449  1.2419
 2379SOL    HW218600   2.655   1.593   7.982  0.3158  0.3347  0.4292
 2380SOL     OW18601   4.219   1.016   4.821 -0.3501  0.2143 -1.2068
 2380SOL    HW118602   4.214   0.937   4.875  1.1741 -0.8465 -2.5850
 2380SOL    HW218603   4.127   1.027   4.796 -0.7545 -0.8258 -0.1445
 2381SOL     OW18604   3.062   3.553   7.290  0.0154  0.0001 -0.3081
 2381SOL    HW118605   3.076   3.488   7.358  3.1852  1.2714  0.2756
 2381SOL    HW218606   3.031   3.618   7.352 -2.4877 -2.0948  0.5890
 2382SOL     OW18607   2.904   3.462   9.954 -0.8632 -0.4804 -0.2996
 2382SOL    HW118608   2.850   3.531   9.915 -2.8232 -1.1443  1.2342
 2382SOL    HW218609   2.891   3.389   9.893 -1.2291  0.2879 -1.1430
 2383SOL     OW18610   3.600   3.705   0.318  0.2223  0.1138 -0.2178
 2383SOL    HW118611   3.595   3.670   0.408 -1.7222  2.6849  0.6454
 2383SOL    HW218612   3.539   3.647   0.272 -0.2729  0.5435 -0.0900
 2384SOL     OW18613   2.867   0.879   7.213 -0.1462 -0.0633  0.5784
 2384SOL    HW118614   2.821   0.819   7.272  0.8554 -1.8567 -0.4484
 2384SOL    HW218615   2.804   0.889   7.142 -1.4643 -1.2671  1.5648
 2385SOL     OW18616   2.756   3.657  13.535 -0.2224  0.0221  0.2482
 2385SOL    HW118617   2.681   3.694  13.582 -0.3700  1.3737 -1.0784
 2385SOL    HW218618   2.830   3.686  13.588 -0.1316  2.6695 -1.3428
 2386SOL     OW18619   0.318   3.379   7.606  0.1731 -0.3156 -0.3745
 2386SOL    HW118620   0.344   3.300   7.558 -0.9721 -0.4194 -0.8297
 2386SOL    HW218621   0.238   3.404   7.558  0.1779  0.1771 -0.1199
 2387SOL     OW18622   1.020   0.202   4.882 -0.3203  0.0109  0.1072
 2387SOL    HW118623   1.088   0.212   4.949  1.0148 -0.3125 -1.1979
 2387SOL    HW218624   0.962   0.277   4.890  0.3928  0.6117 -0.3924
 2388SOL     OW18625   1.330   0.932   4.791 -0.5334  0.2025  0.2324
 2388SOL    HW118626   1.337   0.870   4.863 -0.0873  0.9505  0.8230
 2388SOL    HW218627   1.275   0.882   4.731  0.3698 -0.4568 -0.0405
 2389SOL     OW18628   0.227   0.687   7.435  0.7103  0.6429  0.4316
 2389SOL    HW118629   0.278   0.632   7.495  0.0945  3.7400  3.8256
 2389SOL    HW218630   0.293   0.718   7.374  0.1528 -0.6505 -0.8307
 2390SOL     OW18631   3.333   0.617   2.660  0.1083 -0.2888  0.4513
 2390SOL    HW118632   3.306   0.569   2.581  1.4703 -0.0028 -0.1759
 2390SOL    HW218633   3.410   0.661   2.627 -0.3973 -0.0965 -0.4594
 2391SOL     OW18634   2.048   0.469   6.311  0.3234  0.6262 -0.1190
 2391SOL    HW118635   1.974   0.416   6.341  0.6403 -0.2861 -0.9429
 2391SOL    HW218636   2.008   0.546   6.272  0.2087  0.4821 -0.2890
 2392SOL     OW18637   3.362   1.064   7.609 -0.2843 -0.0859  0.2069
 2392SOL    HW118638   3.325   1.115   7.681 -0.5965  0.5170 -0.3816
 2392SOL    HW218639   3.289   1.060   7.546  1.8468 -1.2534 -2.1879
 2393SOL     OW18640   0.581   1.913  15.452  0.1603  0.2229 -0.2940
 2393SOL    HW118641   0.531   1.831  15.449  1.6011 -0.6493 -0.2657
 2393SOL    HW218642   0.609   1.909  15.543  2.6822  1.1937 -1.0305
 2394SOL     OW18643   1.672   3.698   7.521  0.6004  0.2708  0.7600
 2394SOL    HW118644   1.622   3.705   7.603 -0.7911  4.9594 -0.4705
 2394SOL    HW218645   1.612   3.677   7.451  1.7478  1.6807 -0.6516
 2395SOL     OW18646   2.296   3.554   7.367 -0.4002  0.2906  0.1446
 2395SOL    HW118647   2.338   3.493   7.427  2.2765  0.7358 -1.3098
 2395SOL    HW218648   2.349   3.632   7.385 -0.6093  0.2989  0.7435
 2396SOL     OW18649   2.846   4.230  13.606  0.3268 -0.1986 -0.6099
 2396SOL    HW118650   2.937   4.259  13.599 -0.3548  2.0172 -0.1305
 2396SOL    HW218651   2.835   4.235  13.701 -0.5997 -0.6443 -0.6918
 2397SOL     OW18652   1.299   4.187  10.335  0.5238 -0.1008 -0.8466
 2397SOL    HW118653   1.265   4.119  10.276  0.4782 -0.0176 -0.9180
 2397SOL    HW218654   1.291   4.270  10.288 -0.4243  0.8066  0.9288
 2398SOL     OW18655   3.976   0.183   7.461 -0.0180 -0.2783 -0.1630
 2398SOL    HW118656   3.924   0.109   7.494 -1.4975  0.4038 -0.9688
 2398SOL    HW218657   3.919   0.214   7.390  0.0228 -2.0840 -0.9933
 2399SOL     OW18658   4.716   1.132   6.327 -0.2087  0.0917 -0.1845
 2399SOL    HW118659   4.687   1.128   6.235 -0.3145 -1.8722 -0.0836
 2399SOL    HW218660   0.069   1.070   6.318  0.6422  1.2072 -0.9672
 2400SOL     OW18661   0.852   0.128   6.457  0.1953 -0.2808 -0.2210
 2400SOL    HW118662   0.859   0.109   6.550 -0.9767 -0.3475 -0.1423
 2400SOL    HW218663   0.916   0.065   6.424 -0.7337 -0.8047 -1.0079
 2401SOL     OW18664   2.686   3.091  15.951  0.4936  0.5153  0.0740
 2401SOL    HW118665   2.692   3.140  15.869  2.5413  0.0945 -0.0100
 2401SOL    HW218666   2.768   3.119  15.991 -0.0477 -0.6566  2.0244
 2402SOL     OW18667   3.616   2.540   8.732  0.4208  0.5369  0.0929
 2402SOL    HW118668   3.536   2.533   8.680 -1.3123  1.1114  2.7122
 2402SOL    HW218669   3.639   2.632   8.718  2.4216  0.0231 -0.0344
 2403SOL     OW18670   2.480   3.780   7.309 -0.7501  0.1814 -0.1402
 2403SOL    HW118671   2.539   3.779   7.234  0.2360  0.9855  0.6234
 2403SOL    HW218672   2.546   3.805   7.374 -0.7773 -2.1015  0.7560
 2404SOL     OW18673   3.054   4.444   7.749  0.0707  0.2004 -0.2198
 2404SOL    HW118674   3.028   4.389   7.823  2.6521  0.2421  0.7235
 2404SOL    HW218675   3.045   4.387   7.672  0.2111 -0.8140  0.5112
 2405SOL     OW18676   0.802   4.183   3.176  0.9774 -0.3194 -0.2233
 2405SOL    HW118677   0.806   4.135   3.093 -1.4403 -2.7688  1.1045
 2405SOL    HW218678   0.857   4.259   3.153  1.0503  0.5076  2.7161
 2406SOL     OW18679   2.946   2.446   6.273  0.1679  0.0493 -0.0537
 2406SOL    HW118680   2.873   2.504   6.250  1.0345  1.5375  0.9518
 2406SOL    HW218681   3.005   2.515   6.303 -0.6930 -0.0217  1.8088
 2407SOL     OW18682   3.611   0.007   6.532  0.2762 -0.3089  0.2843
 2407SOL    HW118683   3.704   0.032   6.526  0.1971  0.1384  0.9632
 2407SOL    HW218684   3.583   0.005   6.440  1.6464 -0.4600 -0.1299
 2408SOL     OW18685   3.507   4.133  17.598 -0.4505  0.0986  0.2628
 2408SOL    HW118686   3.489   4.045  17.565  2.0253 -0.1148 -0.5576
 2408SOL    HW218687   3.597   4.116  17.627  0.1072  1.3429 -0.7545
 2409SOL     OW18688   2.679   1.391   5.915 -0.3799  0.3088  0.2753
 2409SOL    HW118689   2.738   1.433   5.853  0.8990 -1.3988  0.3198
 2409SOL    HW218690   2.610   1.456   5.930 -2.6824 -1.6128 -2.0020
 2410SOL     OW18691   1.963   3.930   6.983  0.5466  0.0758 -0.4495
 2410SOL    HW118692   1.978   3.896   7.071  0.7943  1.7817  0.1781
 2410SOL    HW218693   2.043   3.976   6.957  1.2453 -1.0153 -0.2200
 2411SOL     OW18694   0.898   0.910   2.642 -0.3555 -0.1045 -0.2087
 2411SOL    HW118695   0.964   0.924   2.573  0.9133  1.8414  1.3874
 2411SOL    HW218696   0.882   0.816   2.638 -0.9671  0.0901 -2.7159
 2412SOL     OW18697   0.634   1.683   8.176  0.4807 -0.0697 -0.3157
 2412SOL    HW118698   0.676   1.675   8.262  0.5173  2.6843 -0.1019
 2412SOL    HW218699   0.546   1.705   8.206  0.7734  0.6538  0.0187
 2413SOL     OW18700   4.124   3.985  10.003  0.7665 -0.5386  0.1252
 2413SOL    HW118701   4.046   4.040  10.010  0.7986 -0.3864 -0.6933
 2413SOL    HW218702   4.164   4.019   9.923  0.4076 -4.1389 -1.6041
 2414SOL     OW18703   0.080   0.051   5.923 -0.0581 -1.2465 -0.4040
 2414SOL    HW118704   4.719   0.087   5.959  0.7312  1.1867 -1.0519
 2414SOL    HW218705   0.108   0.126   5.871 -0.6180 -0.4801  0.4042
 2415SOL     OW18706   4.663   0.112   2.939  0.2171 -0.4157 -0.0604
 2415SOL    HW118707   4.631   0.124   3.028  2.2430 -1.0029  0.7639
 2415SOL    HW218708   4.630   0.023   2.928  2.3662 -1.3766  1.2859
 2416SOL     OW18709   3.633   2.046   3.266  0.4097  0.3697  0.1418
 2416SOL    HW118710   3.666   2.133   3.289  0.6332  0.3011  0.0809
 2416SOL    HW218711   3.540   2.069   3.265  0.9613  2.5256 -0.5841
 2417SOL     OW18712   2.792   3.785   1.861 -0.1014  0.2136 -0.5517
 2417SOL    HW118713   2.862   3.830   1.814  0.9803 -1.9302 -0.9741
 2417SOL    HW218714   2.819   3.694   1.853 -0.7429  0.0739 -1.0485
 2418SOL     OW18715   3.870   4.455   5.555  0.7453  0.1530 -0.0614
 2418SOL    HW118716   3.909   4.510   5.622  1.7571 -0.1268 -0.4226
 2418SOL    HW218717   3.904   4.480   5.469 -0.7415 -0.7700 -0.9312
 2419SOL     OW18718   3.873   0.865   8.327  0.2320  0.0591 -0.2132
 2419SOL    HW118719   3.808   0.925   8.291 -0.6585  0.4846  2.0739
 2419SOL    HW218720   3.806   0.818   8.376  0.6950 -2.3837 -1.9850
 2420SOL     OW18721   3.906   2.745   7.606  0.1276 -0.1727  0.3078
 2420SOL    HW118722   3.989   2.747   7.557  0.5462 -2.0058  0.9577
 2420SOL    HW218723   3.905   2.656   7.640  0.4894 -0.7863 -1.2701
 2421SOL     OW18724   3.046   3.655   5.878  0.0215  0.2004 -0.5054
 2421SOL    HW118725   2.981   3.644   5.947 -2.2288  1.5578 -2.4225
 2421SOL    HW218726   3.110   3.713   5.920  2.7545 -3.3367  0.2307
 2422SOL     OW18727   2.533   1.367  16.646 -0.3424  0.0364  0.2684
 2422SOL    HW118728   2.476   1.418  16.590 -1.6830 -1.2441  0.4681
 2422SOL    HW218729   2.530   1.418  16.727  0.8260  0.8412 -0.1946
 2423SOL     OW18730   2.975   2.644   7.676 -0.0995 -0.4208  0.7164
 2423SOL    HW118731   2.891   2.606   7.702 -0.4753  0.1232  0.2952
 2423SOL    HW218732   2.974   2.623   7.583  2.0929 -0.8206  0.7898
 2424SOL     OW18733   1.759   3.033  12.192 -0.6413 -0.6000  0.1790
 2424SOL    HW118734   1.824   2.963  12.195 -1.2857 -1.1291  1.8342
 2424SOL    HW218735   1.779   3.087  12.116 -0.6741  0.8417  1.2047
 2425SOL     OW18736   2.945   0.090   1.883 -0.0179  0.1100  0.6098
 2425SOL    HW118737   2.873   0.122   1.937 -1.2937 -1.3128 -0.2364
 2425SOL    HW218738   2.906   0.092   1.796  1.0258 -0.5610  0.1226
 2426SOL     OW18739   0.255   4.378  15.761  0.0271  0.1111  0.0333
 2426SOL    HW118740   0.182   4.439  15.747  0.7521  1.0818  0.4632
 2426SOL    HW218741   0.324   4.430  15.720  0.2865 -0.7556 -0.6077
 2427SOL     OW18742   0.578   4.651   2.568 -0.2495 -0.3280 -0.3514
 2427SOL    HW118743   0.503   4.653   2.628 -0.6075  1.2250 -0.8623
 2427SOL    HW218744   0.620   4.571   2.600  2.0831  0.2486 -2.0401
 2428SOL     OW18745   3.870   0.678  16.093  0.7902  0.0149  0.7837
 2428SOL    HW118746   3.877   0.668  16.188 -0.8011 -1.8838  0.6906
 2428SOL    HW218747   3.826   0.595  16.075 -1.0974  1.3860 -0.8192
 2429SOL     OW18748   2.663   1.249   8.908 -0.1485  0.0132 -0.2470
 2429SOL    HW118749   2.654   1.331   8.859 -1.1182  0.4314  0.6287
 2429SOL    HW218750   2.572   1.226   8.927  0.0081 -0.7153 -0.3847
 2430SOL     OW18751   4.162   4.187  10.977  0.2751  0.0245 -0.4181
 2430SOL    HW118752   4.186   4.108  11.025 -0.0083  0.0520 -0.2327
 2430SOL    HW218753   4.188   4.258  11.036 -1.4507  0.4949 -0.2172
 2431SOL     OW18754   2.846   1.160   5.335  0.0687  0.1151 -0.4947
 2431SOL    HW118755   2.779   1.157   5.267 -1.3076 -0.1852  0.8661
 2431SOL    HW218756   2.915   1.122   5.281 -0.5288  0.0329 -1.2007
 2432SOL     OW18757   4.655   3.598   2.316  0.2328  0.7589  0.0691
 2432SOL    HW118758   4.674   3.632   2.229 -0.4908 -1.1850 -0.8346
 2432SOL    HW218759   4.605   3.518   2.300  2.2710 -0.4416 -0.3250
 2433SOL     OW18760   0.657   2.490   7.122 -0.7479 -0.2766 -0.2006
 2433SOL    HW118761   0.721   2.430   7.161  1.2848  1.0750 -1.4866
 2433SOL    HW218762   0.650   2.452   7.034 -2.4673  0.0901 -0.2116
 2434SOL     OW18763   1.029   1.823  17.029 -0.0753  0.3628 -0.2953
 2434SOL    HW118764   1.041   1.744  16.975  0.9248  1.3030 -1.4600
 2434SOL    HW218765   0.956   1.863  16.982 -0.8963 -2.1504 -1.1904
 2435SOL     OW18766   3.960   0.484   3.579 -0.2344 -0.6685 -0.3941
 2435SOL    HW118767   4.042   0.439   3.601  1.2129  1.9460 -0.4486
 2435SOL    HW218768   3.987   0.555   3.521  0.6301 -0.5575  0.1369
 2436SOL     OW18769   4.547   1.492  11.194 -0.5202  0.1832  0.0446
 2436SOL    HW118770   4.484   1.548  11.239 -2.0196 -2.5925  1.4220
 2436SOL    HW218771   4.488   1.424  11.161  0.8254 -0.5648 -0.8224
 2437SOL     OW18772   3.387   1.702   7.270  0.0444 -0.1699  0.0365
 2437SOL    HW118773   3.459   1.731   7.326 -0.8122  2.0457 -0.0089
 2437SOL    HW218774   3.322   1.690   7.340  2.2905 -1.8707  1.8122
 2438SOL     OW18775   0.559   3.093   0.491 -0.3595 -0.3317 -0.9582
 2438SOL    HW118776   0.509   3.146   0.554 -0.7201 -0.8983 -0.7677
 2438SOL    HW218777   0.492   3.026   0.475  1.8041 -2.1326 -2.3928
 2439SOL     OW18778   0.310   1.278   8.109 -0.0020  0.2655  0.4688
 2439SOL    HW118779   0.292   1.234   8.026 -0.1100  2.5785 -0.7566
 2439SOL    HW218780   0.224   1.318   8.127 -0.2329 -0.2880  0.5904
 2440SOL     OW18781   3.263   0.222   6.856  0.1426  0.1801  0.0544
 2440SOL    HW118782   3.300   0.149   6.807 -0.8151  0.5417 -1.1953
 2440SOL    HW218783   3.318   0.239   6.933 -1.6543 -0.4323  1.4532
 2441SOL     OW18784   3.193   0.145  17.521  0.5781 -0.1848 -0.3065
 2441SOL    HW118785   3.110   0.170  17.562  0.8838 -1.3939  1.0343
 2441SOL    HW218786   3.164   0.109  17.438 -0.7313  0.6783 -0.2202
 2442SOL     OW18787   3.281   2.495   7.703 -0.2367 -0.1257  0.5150
 2442SOL    HW118788   3.272   2.517   7.796  1.7182 -0.5969  0.8173
 2442SOL    HW218789   3.195   2.472   7.669 -0.7397  2.7359 -0.2021
 2443SOL     OW18790   1.106   2.698   7.608 -0.9728 -0.4794 -0.1470
 2443SOL    HW118791   1.137   2.623   7.659  4.0862 -0.4472 -3.1899
 2443SOL    HW218792   1.039   2.725   7.670  0.0728 -1.0531  1.2327
 2444SOL     OW18793   1.712   3.677   5.262  0.0718 -0.3932 -0.6028
 2444SOL    HW118794   1.750   3.749   5.313 -1.7117 -0.5495  0.9655
 2444SOL    HW218795   1.763   3.608   5.303  2.8916  0.6726 -2.3264
 2445SOL     OW18796   3.095   2.660   6.362  0.2478 -0.2322  0.2083
 2445SOL    HW118797   3.106   2.742   6.313 -2.3239 -0.6673 -1.1135
 2445SOL    HW218798   3.064   2.679   6.450 -1.0838 -0.7776 -0.1401
 2446SOL     OW18799   1.831   2.685   1.689  0.2720 -0.2585 -0.7008
 2446SOL    HW118800   1.747   2.656   1.652  0.1794  0.8499 -1.3807
 2446SOL    HW218801   1.832   2.621   1.760 -2.3985  0.8315  0.3098
 2447SOL     OW18802   0.864   0.930   0.883  0.7050  0.1704  0.1099
 2447SOL    HW118803   0.846   0.845   0.842 -0.1509  0.8629 -0.9648
 2447SOL    HW218804   0.958   0.925   0.895  0.7310 -0.0105 -0.1539
 2448SOL     OW18805   0.650   1.049   2.609 -0.0258  0.2096 -0.0608
 2448SOL    HW118806   0.680   0.960   2.589 -2.1080 -0.6214  0.5223
 2448SOL    HW218807   0.711   1.072   2.680  1.6688 -0.0811 -1.4332
 2449SOL     OW18808   4.590   1.224   2.186  0.0070  0.4239 -0.3460
 2449SOL    HW118809   4.580   1.319   2.177 -2.0950  0.3416  1.2308
 2449SOL    HW218810   4.502   1.189   2.177  0.9973 -1.9486 -0.8523
 2450SOL     OW18811   3.209   1.612   8.630 -0.3922  0.1164  0.1888
 2450SOL    HW118812   3.278   1.593   8.694 -0.1235 -2.6919 -0.9687
 2450SOL    HW218813   3.139   1.641   8.689  1.0955 -0.3902  2.1946
 2451SOL     OW18814   0.619   1.877   2.341 -0.8282  0.5104  0.4170
 2451SOL    HW118815   0.710   1.903   2.326 -1.0675  2.5957  2.4818
 2451SOL    HW218816   0.596   1.838   2.257  0.0926 -3.1020  1.8403
 2452SOL     OW18817   1.705   0.642  14.500  0.2914 -1.0894 -0.2266
 2452SOL    HW118818   1.713   0.628  14.405 -0.5162  1.2105 -0.6460
 2452SOL    HW218819   1.725   0.554  14.532  2.3531 -0.4407  0.2620
 2453SOL     OW18820   4.226   2.652   8.547  0.0737  0.0067  0.6596
 2453SOL    HW118821   4.161   2.587   8.519  0.6287 -0.1312 -0.2832
 2453SOL    HW218822   4.202   2.725   8.490 -3.9811 -2.1412 -0.4408
 2454SOL     OW18823   2.244   3.990   6.946  0.6109 -0.4974  0.1790
 2454SOL    HW118824   2.304   4.008   7.018  0.2825 -0.5377  0.4635
 2454SOL    HW218825   2.270   3.899   6.937  1.1461 -0.5006  1.7922
 2455SOL     OW18826   4.464   3.962   6.453  0.2048 -0.0892 -0.0694
 2455SOL    HW118827   4.379   3.920   6.461  0.0056  0.7974  2.5051
 2455SOL    HW218828   4.526   3.893   6.428 -0.5639 -0.4230 -1.0356
 2456SOL     OW18829   0.897   0.593   0.865  1.2162  0.1048  0.5013
 2456SOL    HW118830   0.947   0.661   0.820  0.5912  1.3980  1.7862
 2456SOL    HW218831   0.946   0.516   0.836  1.1031  0.0605  0.4280
 2457SOL     OW18832   2.054   1.406   4.952  0.1356 -0.3284  0.2091
 2457SOL    HW118833   2.058   1.493   4.991 -1.1916  0.1735 -0.7710
 2457SOL    HW218834   1.985   1.410   4.886 -2.5772 -3.2935  2.8947
 2458SOL     OW18835   1.454   2.321   4.414 -0.0731 -1.3786 -0.0460
 2458SOL    HW118836   1.457   2.375   4.335 -1.7073 -1.9822 -0.5070
 2458SOL    HW218837   1.378   2.268   4.388  0.8302 -2.9385  0.5105
 2459SOL     OW18838   4.310   0.042   3.728  0.5726  0.5235  0.7403
 2459SOL    HW118839   4.353   0.002   3.653  0.5855  0.7004  0.6539
 2459SOL    HW218840   4.352   0.127   3.735  0.5160  0.6531 -0.4792
 2460SOL     OW18841   0.384   0.540   8.990 -0.4162  0.2085  0.2755
 2460SOL    HW118842   0.301   0.548   8.942 -0.1741 -0.0177 -0.1843
 2460SOL    HW218843   0.342   0.505   9.068 -0.4579  1.5904  0.8736
 2461SOL     OW18844   0.973   0.360   9.890  1.1976  0.5409  0.0065
 2461SOL    HW118845   0.992   0.267   9.879  0.3801  0.3565  0.1886
 2461SOL    HW218846   0.899   0.365   9.950  1.6880  1.4782  0.5447
 2462SOL     OW18847   1.959   2.708   8.385 -0.2833  0.5454 -0.3412
 2462SOL    HW118848   1.993   2.771   8.322  0.9277 -0.8619 -1.0861
 2462SOL    HW218849   2.008   2.732   8.464  0.9306 -0.2957 -0.8481
 2463SOL     OW18850   1.115   0.346   5.934  0.2522 -0.0278  0.2986
 2463SOL    HW118851   1.122   0.257   5.902  1.2234  2.0073 -5.1370
 2463SOL    HW218852   1.141   0.407   5.865 -2.5388  0.1343 -0.5727
 2464SOL     OW18853   1.393   4.392   2.695  0.1388  0.2468  0.1334
 2464SOL    HW118854   1.328   4.438   2.641 -0.6293  2.6204  3.1076
 2464SOL    HW218855   1.455   4.459   2.720 -0.0145  0.1402  0.7896
 2465SOL     OW18856   0.858   2.563   3.459  0.2418 -0.7358  0.1465
 2465SOL    HW118857   0.803   2.613   3.520  0.6514 -0.1092 -0.0011
 2465SOL    HW218858   0.927   2.628   3.451  1.3064 -1.9533 -0.5840
 2466SOL     OW18859   2.025   2.917   6.529  0.4469 -0.2861 -0.4224
 2466SOL    HW118860   2.003   2.899   6.438  0.2591 -2.1128 -0.0104
 2466SOL    HW218861   2.108   2.964   6.520 -0.2880  0.7943 -1.6251
 2467SOL     OW18862   3.837   2.192   2.558 -0.4222  0.7965  0.8142
 2467SOL    HW118863   3.897   2.155   2.624  0.9126  1.4403 -0.0390
 2467SOL    HW218864   3.810   2.113   2.511 -1.5561  1.3858  0.4805
 2468SOL     OW18865   1.613   4.044  17.116 -0.5775  0.4575 -0.0487
 2468SOL    HW118866   1.650   4.006  17.196 -1.3658  0.3877  0.2868
 2468SOL    HW218867   1.564   3.965  17.092  3.7770 -1.3328 -3.0476
 2469SOL     OW18868   2.805   3.323   8.284 -0.6583  0.2221  0.1081
 2469SOL    HW118869   2.841   3.395   8.232 -0.4012  1.0716  1.4729
 2469SOL    HW218870   2.881   3.290   8.331 -1.0863  2.3402  2.2431
 2470SOL     OW18871   1.156   3.682   4.881 -0.7256 -0.2600 -0.1200
 2470SOL    HW118872   1.106   3.668   4.800 -1.7642  1.7195  0.1934
 2470SOL    HW218873   1.206   3.761   4.862  1.4112 -1.5252  0.1467
 2471SOL     OW18874   1.246   2.792  15.388 -0.0365 -0.6026  0.0743
 2471SOL    HW118875   1.269   2.732  15.459 -1.3956 -2.8865 -1.3768
 2471SOL    HW218876   1.152   2.806  15.399  0.3518  0.5550  1.8602
 2472SOL     OW18877   3.761   3.684   7.741 -0.1819  0.5086  0.2861
 2472SOL    HW118878   3.678   3.643   7.765  1.1614 -1.6065  1.4235
 2472SOL    HW218879   3.733   3.737   7.666 -2.3285  0.1527  0.8364
 2473SOL     OW18880   3.014   0.933   2.229 -0.3096  0.0584 -0.1536
 2473SOL    HW118881   3.045   1.010   2.181 -3.2384  0.6721 -1.0951
 2473SOL    HW218882   3.046   0.869   2.166  1.8295  1.7598 -0.8315
 2474SOL     OW18883   2.078   2.259   4.830 -0.0125  0.0957  0.0117
 2474SOL    HW118884   2.048   2.189   4.772 -2.5537 -1.3378  3.0576
 2474SOL    HW218885   2.095   2.329   4.766  1.5881  0.4022  0.7592
 2475SOL     OW18886   4.320   2.603   2.895  0.1928  0.1566  0.0210
 2475SOL    HW118887   4.401   2.568   2.933  0.0564  1.3536  1.3757
 2475SOL    HW218888   4.288   2.534   2.837  2.5898 -1.1734  0.2650
 2476SOL     OW18889   2.365   0.450  15.407 -0.2180  0.1998 -0.0537
 2476SOL    HW118890   2.443   0.424  15.358  0.7028  0.8178  1.0898
 2476SOL    HW218891   2.395   0.529  15.452  2.1691  0.3023 -1.7771
 2477SOL     OW18892   0.951   2.427  16.876  0.0777 -0.0108  0.5680
 2477SOL    HW118893   0.933   2.520  16.885  0.5818 -0.0333  1.8568
 2477SOL    HW218894   1.046   2.416  16.881  0.1828  0.9196  0.4800
 2478SOL     OW18895   0.466   1.130   5.306  0.3419 -0.1112 -0.0478
 2478SOL    HW118896   0.427   1.141   5.219 -2.0180 -0.1284  1.0298
 2478SOL    HW218897   0.538   1.069   5.288  0.4897 -0.0012  0.1719
 2479SOL     OW18898   2.089   0.138   7.573  1.2261 -0.2306 -0.0374
 2479SOL    HW118899   2.122   0.224   7.546 -0.1720 -0.1475 -1.5237
 2479SOL    HW218900   2.119   0.079   7.504  0.8149 -1.2727  0.6902
 2480SOL     OW18901   3.613   2.049   6.716 -0.5361  0.0555  0.5428
 2480SOL    HW118902   3.582   2.138   6.706  1.6035  0.9277  1.6709
 2480SOL    HW218903   3.546   2.000   6.668 -0.0322  0.4585 -0.5626
 2481SOL     OW18904   2.489   2.430  17.526  0.4837  0.4950  0.0675
 2481SOL    HW118905   2.522   2.389  17.607 -0.1442  1.0231  0.5858
 2481SOL    HW218906   2.492   2.523  17.548  1.6520  0.6356 -0.6506
 2482SOL     OW18907   3.399   4.398   7.324  0.2334  0.6628  0.2859
 2482SOL    HW118908   3.313   4.429   7.352  0.2154 -0.0776  1.0688
 2482SOL    HW218909   3.405   4.326   7.388  0.5358 -0.5663 -1.1315
 2483SOL     OW18910   1.417   3.037  14.648  0.6939  0.2518  0.2116
 2483SOL    HW118911   1.472   2.965  14.679  1.3994  0.2738 -1.0261
 2483SOL    HW218912   1.341   2.991  14.613  1.3216 -1.7692  1.4618
 2484SOL     OW18913   3.653   1.854   4.160  0.1548 -0.4251 -0.0924
 2484SOL    HW118914   3.673   1.777   4.214  0.9536  2.2334  3.3655
 2484SOL    HW218915   3.666   1.926   4.221 -0.2305 -1.3697  1.1225
 2485SOL     OW18916   0.385   3.752   3.379  0.5562  0.5246 -0.4394
 2485SOL    HW118917   0.294   3.735   3.402  0.8659 -2.5569 -1.5846
 2485SOL    HW218918   0.420   3.802   3.453  0.2530 -1.9626  1.4053
 2486SOL     OW18919   1.106   1.459   4.566  0.3624  0.7144 -0.0989
 2486SOL    HW118920   1.193   1.420   4.566  0.6113  1.2594 -0.2683
 2486SOL    HW218921   1.056   1.392   4.520  1.1598 -0.5578  0.8908
 2487SOL     OW18922   3.175   1.041   3.819 -0.3985  0.0189 -0.4851
 2487SOL    HW118923   3.131   1.123   3.840  0.9247 -0.0515  2.5145
 2487SOL    HW218924   3.098   0.991   3.794 -0.8237  0.2598  0.3436
 2488SOL     OW18925   1.795   4.001   5.535 -0.6456  0.0595  0.7966
 2488SOL    HW118926   1.710   3.957   5.544 -0.8258  0.5039  1.2573
 2488SOL    HW218927   1.791   4.046   5.619 -2.6425  0.7138  0.3451
 2489SOL     OW18928   3.190   2.839   5.271  0.1809 -0.2458  0.1029
 2489SOL    HW118929   3.196   2.911   5.209 -2.6607  0.0976  0.2313
 2489SOL    HW218930   3.184   2.768   5.207  0.2448 -1.3418  1.3059
 2490SOL     OW18931   3.868   3.328   6.606  0.1819  0.3911 -0.1058
 2490SOL    HW118932   3.955   3.350   6.575 -0.0080 -1.0779 -1.7162
 2490SOL    HW218933   3.881   3.238   6.636 -1.6543  1.0602  2.7637
 2491SOL     OW18934   3.708   2.946   8.249  0.3920  0.1714 -0.0371
 2491SOL    HW118935   3.669   2.994   8.322 -2.3858 -0.9160 -0.7871
 2491SOL    HW218936   3.669   2.859   8.255  0.7425 -0.0222 -0.5162
 2492SOL     OW18937   4.095   0.583   0.868 -0.4738  0.7144 -0.2989
 2492SOL    HW118938   4.057   0.661   0.829 -0.0880  1.6182  1.1364
 2492SOL    HW218939   4.083   0.514   0.802  0.0714  0.9237 -0.6249
 2493SOL     OW18940   4.525   2.694   0.765  1.7290 -0.3573 -0.0759
 2493SOL    HW118941   4.468   2.619   0.783 -2.2229  2.2942 -1.5630
 2493SOL    HW218942   4.613   2.657   0.770  3.0256  2.6129 -0.8191
 2494SOL     OW18943   1.604   1.483  10.161  0.3844  0.1111 -1.1150
 2494SOL    HW118944   1.567   1.560  10.204 -2.6525 -0.8294 -2.0431
 2494SOL    HW218945   1.534   1.419  10.158 -1.2266  1.7555  1.2849
 2495SOL     OW18946   3.042   2.343   7.579  0.1245  0.2561  0.0253
 2495SOL    HW118947   3.079   2.289   7.509 -3.9254 -1.9339 -0.4445
 2495SOL    HW218948   2.972   2.383   7.527  0.1542  0.2819  0.0056
 2496SOL     OW18949   0.098   2.899   2.107 -0.1651 -0.1054  0.9201
 2496SOL    HW118950   0.170   2.840   2.081 -1.3533 -1.8561  1.5784
 2496SOL    HW218951   0.035   2.832   2.081  1.6610 -0.7241 -1.9867
 2497SOL     OW18952   1.169   4.283   3.461  0.1761 -0.3743 -0.7422
 2497SOL    HW118953   1.081   4.274   3.423 -0.5899  3.2765  0.2041
 2497SOL    HW218954   1.156   4.288   3.556 -2.7716 -0.2838 -1.1527
 2498SOL     OW18955   3.546   3.504  11.582 -0.3185  0.3833 -0.1895
 2498SOL    HW118956   3.515   3.495  11.672  1.0475 -1.2131  0.1185
 2498SOL    HW218957   3.470   3.480  11.530 -1.2555 -0.3345  1.5159
 2499SOL     OW18958   3.172   4.555  15.153 -0.1938 -0.0574 -0.2506
 2499SOL    HW118959   3.252   4.607  15.162 -1.1347  1.2090  0.6567
 2499SOL    HW218960   3.170   4.545  15.058  0.1438 -2.8354  0.0301
 2500SOL     OW18961   2.532   1.194  10.567  0.6283  0.3911  0.3084
 2500SOL    HW118962   2.593   1.267  10.566  0.9184  0.1358 -0.7694
 2500SOL    HW218963   2.540   1.154  10.653  0.2184 -2.7359 -1.0874
 2501SOL     OW18964   0.461   3.789   5.338 -0.3891  0.0673  0.1824
 2501SOL    HW118965   0.455   3.841   5.418  0.4671  0.2137  0.1574
 2501SOL    HW218966   0.369   3.764   5.332 -0.2197 -0.2098 -1.2475
 2502SOL     OW18967   0.189   4.108   8.287  0.5615 -0.1953 -0.1949
 2502SOL    HW118968   0.275   4.095   8.246  0.8711 -2.5439  1.2090
 2502SOL    HW218969   0.172   4.202   8.277  1.0584  0.0479  1.3871
 2503SOL     OW18970   0.106   0.151   9.620 -0.2506 -0.3550  0.2961
 2503SOL    HW118971   0.141   0.062   9.627  0.2985 -0.1515  0.0930
 2503SOL    HW218972   0.017   0.123   9.645 -0.7464  2.0291  1.1650
 2504SOL     OW18973   3.411   4.040   4.565 -0.0647  0.5647  0.5575
 2504SOL    HW118974   3.427   4.063   4.474 -0.7184 -0.5950  0.1470
 2504SOL    HW218975   3.331   3.987   4.558 -0.5583  1.7424 -2.5733
 2505SOL     OW18976   3.956   0.174   4.087  0.6417  0.5659 -0.0904
 2505SOL    HW118977   3.970   0.193   3.994 -1.6378 -2.3787 -1.0629
 2505SOL    HW218978   4.042   0.204   4.117  0.3129  2.4336 -0.9990
 2506SOL     OW18979   2.470   1.224   5.450  0.6669  0.0784 -0.0664
 2506SOL    HW118980   2.408   1.233   5.378  0.1543 -0.7977  0.2746
 2506SOL    HW218981   2.461   1.131   5.468 -2.4106  0.2852 -0.5429
 2507SOL     OW18982   2.237   2.445   8.388 -0.3316  0.2943 -0.3199
 2507SOL    HW118983   2.296   2.381   8.428  0.2550  1.5290  0.8098
 2507SOL    HW218984   2.179   2.382   8.345 -0.3082 -1.5234  2.2682
 2508SOL     OW18985   4.184   2.249  10.314  0.5472  0.8080 -0.0330
 2508SOL    HW118986   4.171   2.306  10.390 -1.3326  0.7527 -0.3096
 2508SOL    HW218987   4.095   2.237  10.279  0.4462  0.0284  0.4990
 2509SOL     OW18988   1.366   3.370   4.779  0.1277 -0.1300 -0.4640
 2509SOL    HW118989   1.283   3.335   4.745 -0.0630  0.4129 -0.5584
 2509SOL    HW218990   1.343   3.381   4.871  1.2202 -1.9405  0.0255
 2510SOL     OW18991   4.526   3.056  10.800  0.2865 -0.1902 -0.5157
 2510SOL    HW118992   4.445   3.019  10.765  0.0240 -1.8894  1.8576
 2510SOL    HW218993   4.550   2.987  10.862  1.0772  3.8685  3.6897
 2511SOL     OW18994   3.486   3.548   3.693 -0.1269  0.0526 -0.0928
 2511SOL    HW118995   3.570   3.501   3.689 -0.3974 -0.4400  0.0244
 2511SOL    HW218996   3.485   3.577   3.602  2.1082 -2.4603 -0.9379
 2512SOL     OW18997   2.415   0.312   8.839  0.5584 -0.0642  0.6341
 2512SOL    HW118998   2.394   0.219   8.829 -0.2882  0.3986 -1.9715
 2512SOL    HW218999   2.325   0.336   8.857  1.3400  2.3364  1.3369
 2513SOL     OW19000   2.387   1.841   8.682 -0.0564  0.3096 -0.0140
 2513SOL    HW119001   2.298   1.807   8.692  1.1883 -3.1345 -0.6889
 2513SOL    HW219002   2.420   1.778   8.618  1.1165 -0.7563  1.6081
 2514SOL     OW19003   4.511   4.199   0.598  0.1421 -0.0172  0.6090
 2514SOL    HW119004   4.483   4.109   0.614 -1.3076  0.6812  1.9397
 2514SOL    HW219005   4.428   4.245   0.587 -0.9800 -2.4194 -1.0348
 2515SOL     OW19006   4.374   3.362   8.912 -0.4827  0.5355  0.0401
 2515SOL    HW119007   4.365   3.268   8.899 -0.5484  0.7169 -1.2349
 2515SOL    HW219008   4.375   3.399   8.823  3.2098  1.0854  0.2896
 2516SOL     OW19009   0.678   3.457   2.735  0.3519 -0.0462 -0.0800
 2516SOL    HW119010   0.590   3.431   2.709  0.8968  0.7551 -2.7495
 2516SOL    HW219011   0.666   3.551   2.742 -1.1983 -0.1322 -1.7234
 2517SOL     OW19012   3.951   0.771  10.273  0.5679  0.1399 -0.1894
 2517SOL    HW119013   3.867   0.727  10.286  0.2952  1.1186  1.2137
 2517SOL    HW219014   3.996   0.702  10.223  0.7705  0.9854 -1.1936
 2518SOL     OW19015   1.916   2.883  10.132  0.0811 -0.1963 -0.2416
 2518SOL    HW119016   1.866   2.963  10.115 -1.1477 -0.8182  0.4738
 2518SOL    HW219017   1.905   2.883  10.227 -0.3824  0.7257 -0.2974
 2519SOL     OW19018   3.796   0.283   2.011  0.0443  0.4454 -0.0895
 2519SOL    HW119019   3.891   0.274   2.003 -0.1030 -1.1969  0.0108
 2519SOL    HW219020   3.794   0.366   2.059  2.5394  0.7123 -0.4421
 2520SOL     OW19021   2.449   2.702  17.224  0.0171  0.3903 -0.1955
 2520SOL    HW119022   2.482   2.616  17.198 -0.2023 -0.0266  0.8820
 2520SOL    HW219023   2.356   2.701  17.200 -0.0103 -1.5010 -0.0100
 2521SOL     OW19024   4.608   3.994   3.245  0.4504  0.8146  0.2822
 2521SOL    HW119025   4.691   3.967   3.207  0.1776 -0.8996  0.9117
 2521SOL    HW219026   4.615   3.956   3.333 -1.1043  0.4842  0.2664
 2522SOL     OW19027   0.726   0.712   2.919  0.0872 -0.1475 -0.5361
 2522SOL    HW119028   0.805   0.699   2.866  0.0803 -0.0167 -0.5786
 2522SOL    HW219029   0.726   0.629   2.968  0.0898 -1.0936 -2.1194
 2523SOL     OW19030   3.193   2.440   5.134  0.0855 -0.4271  0.0463
 2523SOL    HW119031   3.183   2.413   5.043 -0.2397 -0.0867 -0.0198
 2523SOL    HW219032   3.282   2.474   5.130 -1.0811  2.7266  0.6867
 2524SOL     OW19033   4.258   4.349   3.660  0.1320 -0.2380  0.3038
 2524SOL    HW119034   4.304   4.268   3.639  2.1009  1.4908 -2.0329
 2524SOL    HW219035   4.202   4.362   3.584 -0.3600  1.5153  0.9540
 2525SOL     OW19036   1.056   4.444   4.922  0.4683  0.1708 -0.4361
 2525SOL    HW119037   0.995   4.518   4.919 -1.2422 -1.1228  1.5329
 2525SOL    HW219038   1.009   4.375   4.876 -1.0046  1.9248 -1.5558
 2526SOL     OW19039   2.075   0.518   5.492 -0.0109 -0.6338 -0.4411
 2526SOL    HW119040   2.167   0.539   5.509  0.1230 -1.4096 -0.2274
 2526SOL    HW219041   2.073   0.541   5.399  0.7454  0.8032 -0.1120
 2527SOL     OW19042   0.395   0.236  15.876 -0.1103  0.3472 -0.7544
 2527SOL    HW119043   0.436   0.322  15.874  1.3421 -0.3191  0.4941
 2527SOL    HW219044   0.474   0.185  15.890 -0.9854 -0.3662  1.6264
 2528SOL     OW19045   3.652   4.194  12.688  0.0683  0.4734  0.2651
 2528SOL    HW119046   3.745   4.176  12.670  0.1726 -0.9471  2.2080
 2528SOL    HW219047   3.631   4.140  12.764 -0.7246  0.2456 -0.1164
 2529SOL     OW19048   3.480   3.495   3.420  0.2596  0.1441 -0.0346
 2529SOL    HW119049   3.520   3.423   3.370 -1.5288 -1.2725  0.5589
 2529SOL    HW219050   3.392   3.456   3.422  0.2289  0.2795  0.9438
 2530SOL     OW19051   3.184   0.275  13.433  0.0279 -0.0889 -0.1207
 2530SOL    HW119052   3.169   0.283  13.528  1.1737 -1.9193  0.2075
 2530SOL    HW219053   3.208   0.184  13.416  0.7173 -0.3383  2.1672
 2531SOL     OW19054   3.056   4.534   5.349  0.2510 -0.0897 -0.6191
 2531SOL    HW119055   3.068   4.625   5.321 -0.2375  0.3879  0.6933
 2531SOL    HW219056   3.117   4.527   5.423 -0.1413 -1.0238 -0.3835
 2532SOL     OW19057   1.000   3.878   7.153  0.1815  0.7412 -0.4816
 2532SOL    HW119058   0.980   3.952   7.211  1.1757  0.8525 -0.2778
 2532SOL    HW219059   1.024   3.925   7.074  1.8871  2.5641  1.1241
 2533SOL     OW19060   2.502   0.277   6.452  0.0404  0.1034  0.0536
 2533SOL    HW119061   2.483   0.202   6.395 -0.5963 -0.0436  0.4667
 2533SOL    HW219062   2.598   0.274   6.454  0.1225  0.6391 -3.0043
 2534SOL     OW19063   3.595   3.826   7.971 -0.7482 -0.2951  0.1858
 2534SOL    HW119064   3.509   3.840   7.931 -0.0184 -1.8830 -1.9489
 2534SOL    HW219065   3.608   3.736   7.940  0.5744 -0.7122  1.9666
 2535SOL     OW19066   0.674   0.956  15.348  0.3284  0.7152 -0.0434
 2535SOL    HW119067   0.597   0.929  15.398  0.5614  1.2029  0.5659
 2535SOL    HW219068   0.749   0.918  15.393 -1.5856 -0.5838  2.0263
 2536SOL     OW19069   3.476   0.641   9.006  0.4933 -0.6207  0.3230
 2536SOL    HW119070   3.417   0.710   8.978 -0.4035 -0.9985  1.2501
 2536SOL    HW219071   3.515   0.694   9.076  2.4026 -0.5134 -0.8184
 2537SOL     OW19072   0.183   1.864   0.265  0.1689  0.1070  0.0862
 2537SOL    HW119073   0.211   1.830   0.179  0.4528 -0.2187  0.3055
 2537SOL    HW219074   0.198   1.957   0.252 -0.2862  0.1157 -0.3742
 2538SOL     OW19075   1.439   0.185   8.686  0.1249  0.2814 -0.1586
 2538SOL    HW119076   1.392   0.202   8.604  0.4107  1.4567 -0.0767
 2538SOL    HW219077   1.447   0.090   8.685  2.3852  0.4844 -2.2990
 2539SOL     OW19078   0.196   1.171  16.996  0.0526 -0.1244  0.5912
 2539SOL    HW119079   0.160   1.181  16.908 -0.6747 -0.2256  0.8757
 2539SOL    HW219080   0.146   1.099  17.034 -0.4978 -0.9771 -1.7707
 2540SOL     OW19081   3.633   0.169  13.204 -0.0052  0.1550 -0.3392
 2540SOL    HW119082   3.615   0.144  13.114  0.9618 -2.6644  0.2665
 2540SOL    HW219083   3.682   0.088  13.210  3.2791  2.1132 -0.8552
 2541SOL     OW19084   1.504   0.639   3.838 -0.1015 -0.4876 -0.8571
 2541SOL    HW119085   1.496   0.669   3.747  2.9131  1.9175 -0.3345
 2541SOL    HW219086   1.420   0.610   3.871 -0.4409  2.1629  0.5533
 2542SOL     OW19087   3.257   3.124   4.768  0.4197  0.2283  0.4377
 2542SOL    HW119088   3.326   3.190   4.766 -0.0398  0.6540 -0.8078
 2542SOL    HW219089   3.294   3.057   4.711  1.4665  2.2775 -1.2811
 2543SOL     OW19090   4.368   2.440  16.117  0.1627 -0.1448 -0.5642
 2543SOL    HW119091   4.338   2.384  16.046 -0.9776 -0.1289 -0.0868
 2543SOL    HW219092   4.294   2.493  16.144 -1.0223 -2.4425  0.7068
 2544SOL     OW19093   0.377   1.090   0.294 -0.1594  0.3354 -0.4227
 2544SOL    HW119094   0.305   1.037   0.327  0.4039  0.3294  0.7912
 2544SOL    HW219095   0.413   1.039   0.221  2.0484 -1.5568  1.9587
 2545SOL     OW19096   0.639   0.228   5.357 -0.0797 -0.0360  0.9222
 2545SOL    HW119097   0.581   0.231   5.433  0.7147 -0.6153  1.5357
 2545SOL    HW219098   0.636   0.315   5.316  0.1901 -0.6615 -0.4135
 2546SOL     OW19099   3.635   1.186   8.462 -0.4573  0.7358 -0.2031
 2546SOL    HW119100   3.587   1.104   8.477 -1.3232  0.9672 -1.7135
 2546SOL    HW219101   3.569   1.255   8.466 -0.1044  0.7805  5.4462
 2547SOL     OW19102   2.611   0.825   5.158  0.0833  0.4576  0.3377
 2547SOL    HW119103   2.555   0.839   5.234 -0.1655 -1.9241  0.6139
 2547SOL    HW219104   2.558   0.754   5.120 -2.6857  2.2116  0.9183
 2548SOL     OW19105   2.073   0.962   6.895  0.2247  0.6287  0.4890
 2548SOL    HW119106   2.066   0.889   6.957 -1.6317  0.1088 -0.3377
 2548SOL    HW219107   1.993   1.006   6.925  1.0304  1.9606  0.6757
 2549SOL     OW19108   2.575   2.432  14.858 -0.0300 -0.3358 -0.0006
 2549SOL    HW119109   2.608   2.512  14.816 -0.2874 -0.8712 -1.2225
 2549SOL    HW219110   2.570   2.476  14.943 -1.2234  0.7921 -0.6506
 2550SOL     OW19111   3.168   0.315   4.435  0.2331 -0.7936  0.3042
 2550SOL    HW119112   3.093   0.372   4.450  0.1858 -0.0285 -2.8054
 2550SOL    HW219113   3.181   0.318   4.340 -0.7165 -0.0854  0.1933
 2551SOL     OW19114   1.357   0.421   1.737  0.2937 -0.0525 -0.5576
 2551SOL    HW119115   1.439   0.404   1.690  1.4893 -0.6821  1.7656
 2551SOL    HW219116   1.304   0.343   1.718 -1.2505  0.7104  0.6617
 2552SOL     OW19117   0.314   4.417   6.538  0.4701  0.3587 -0.0408
 2552SOL    HW119118   0.384   4.424   6.473  0.8608  2.0508  0.5813
 2552SOL    HW219119   0.240   4.381   6.488  0.4080  0.0481  0.2725
 2553SOL     OW19120   4.700   2.505   5.872  0.6667  0.0928  0.6471
 2553SOL    HW119121   0.058   2.531   5.822 -1.7201  0.7040 -2.8056
 2553SOL    HW219122   4.658   2.450   5.806  1.1873  1.1160 -0.5550
 2554SOL     OW19123   0.176   3.871   5.835 -0.2075 -0.0517 -0.4848
 2554SOL    HW119124   0.143   3.799   5.889  0.7568  1.6389  2.3611
 2554SOL    HW219125   0.266   3.844   5.852 -0.6944 -1.7668 -0.5958
 2555SOL     OW19126   2.852   0.641  16.697 -0.1136 -0.2042  0.0169
 2555SOL    HW119127   2.807   0.686  16.626 -0.1364 -0.2661 -0.0079
 2555SOL    HW219128   2.788   0.656  16.766 -2.0265 -1.4996 -1.4783
 2556SOL     OW19129   0.173   4.480   1.335 -0.6086 -0.2831  0.0805
 2556SOL    HW119130   0.212   4.394   1.320 -0.4042 -0.7064  2.9186
 2556SOL    HW219131   0.081   4.458   1.351 -0.2109  0.4672  3.5723
 2557SOL     OW19132   1.334   0.019   9.075 -0.6083 -0.0351 -0.2071
 2557SOL    HW119133   1.368   4.649   9.073 -0.7446 -0.0936  0.1060
 2557SOL    HW219134   1.410   0.064   9.038 -0.6302 -1.0955 -1.5556
 2558SOL     OW19135   4.001   2.798  16.900  0.6294  0.5466  0.0255
 2558SOL    HW119136   4.028   2.856  16.971 -0.9953 -1.1188  2.0027
 2558SOL    HW219137   3.917   2.765  16.932  1.0153 -0.5039 -0.0317
 2559SOL     OW19138   3.647   1.020   8.236 -0.5226 -0.2075  0.0752
 2559SOL    HW119139   3.552   1.025   8.226 -0.7462 -3.3138  0.5161
 2559SOL    HW219140   3.679   1.109   8.221 -0.7662 -0.1539 -0.1329
 2560SOL     OW19141   1.418   1.459   6.749  0.0544 -0.2331 -0.2749
 2560SOL    HW119142   1.433   1.528   6.684  0.1334 -0.8481 -0.9138
 2560SOL    HW219143   1.399   1.524   6.817  2.6318  0.7756 -0.5171
 2561SOL     OW19144   2.382   3.095   7.241  0.5860  0.2902  0.1134
 2561SOL    HW119145   2.326   3.144   7.301 -0.3342  0.2951 -0.7505
 2561SOL    HW219146   2.463   3.092   7.292 -1.3756 -2.1266  3.0567
 2562SOL     OW19147   0.894   1.652   3.430 -0.1342  0.0478 -0.4829
 2562SOL    HW119148   0.823   1.682   3.486  0.5323  0.4532  0.1372
 2562SOL    HW219149   0.852   1.572   3.399  4.0746 -2.4801  0.2381
 2563SOL     OW19150   0.098   4.435  16.700 -0.2024 -0.7156  0.2639
 2563SOL    HW119151   0.148   4.387  16.767 -0.1720 -3.5721 -1.7742
 2563SOL    HW219152   0.042   4.370  16.658 -1.8007  0.8363  0.0249
 2564SOL     OW19153   3.894   3.282   5.247  0.0626 -0.0135 -0.0696
 2564SOL    HW119154   3.902   3.188   5.236  2.4919  0.1809  0.0394
 2564SOL    HW219155   3.859   3.305   5.160 -1.6851 -0.6071  0.4710
 2565SOL     OW19156   3.398   1.598   8.816  0.0398  0.4606  0.0092
 2565SOL    HW119157   3.450   1.610   8.896 -2.0787  1.3161  1.2357
 2565SOL    HW219158   3.473   1.628   8.764 -0.3512  0.5072 -0.5241
 2566SOL     OW19159   1.118   2.000   0.331  0.0999 -0.4459 -0.0324
 2566SOL    HW119160   1.209   1.993   0.303  0.7860 -0.2817  2.1496
 2566SOL    HW219161   1.096   1.912   0.304  2.9762 -0.1633 -3.2714
 2567SOL     OW19162   3.416   3.243  12.766 -0.3120 -0.1050  0.3725
 2567SOL    HW119163   3.335   3.295  12.771 -1.3478 -1.7486  0.6058
 2567SOL    HW219164   3.378   3.157  12.782  3.2641 -1.8400 -0.3529
 2568SOL     OW19165   3.070   2.260   0.101  0.3096  0.2184 -0.0163
 2568SOL    HW119166   3.020   2.196   0.049 -0.8694  0.7089  0.5147
 2568SOL    HW219167   3.000   2.321   0.124 -1.6756 -0.7566 -3.4466
 2569SOL     OW19168   1.383   4.067   2.977  0.1979 -0.4504 -0.4515
 2569SOL    HW119169   1.317   4.136   2.968  1.6476  1.2418  2.1265
 2569SOL    HW219170   1.437   4.079   2.899 -0.9099  1.5113 -0.9358
 2570SOL     OW19171   0.426   4.083  16.161  0.1610  1.1167  0.1895
 2570SOL    HW119172   0.356   4.113  16.220 -1.1695  0.0432 -0.8425
 2570SOL    HW219173   0.396   4.126  16.080  0.8293  2.6124  0.7290
 2571SOL     OW19174   3.784   0.493  10.040 -0.2903  0.0340  0.7097
 2571SOL    HW119175   3.726   0.440  10.095 -2.1615  0.5639 -0.7789
 2571SOL    HW219176   3.727   0.497   9.964 -1.7520  1.4783  1.8827
 2572SOL     OW19177   3.396   0.248   1.627 -0.2061  0.5579 -0.3452
 2572SOL    HW119178   3.413   0.154   1.622  0.5764  0.6779 -0.0384
 2572SOL    HW219179   3.303   0.245   1.651  0.3734 -2.1966  1.6147
 2573SOL     OW19180   3.252   2.111   1.344  0.0289 -0.0447  0.3131
 2573SOL    HW119181   3.293   2.053   1.409  1.1634  0.8331  0.3899
 2573SOL    HW219182   3.288   2.198   1.363  2.0380 -0.5289 -1.2415
 2574SOL     OW19183   0.879   1.895  12.565  0.0041  0.3707 -0.3639
 2574SOL    HW119184   0.897   1.802  12.575 -0.8514  0.3515  1.0856
 2574SOL    HW219185   0.963   1.918  12.525 -0.3573  0.5403 -1.0194
 2575SOL     OW19186   0.653   0.089   9.178  0.3869 -0.2958  0.2626
 2575SOL    HW119187   0.558   0.078   9.174  0.4506 -0.6363 -0.4833
 2575SOL    HW219188   0.654   0.176   9.217  1.0723 -2.5623  5.3082
 2576SOL     OW19189   3.634   1.568  17.619 -0.1979  0.1826 -0.3279
 2576SOL    HW119190   3.570   1.518  17.670  1.9481 -1.6906  0.5444
 2576SOL    HW219191   3.642   1.519  17.537 -2.2144 -0.3563 -0.2061
 2577SOL     OW19192   1.888   4.153  12.382  0.2556 -0.0336  0.7775
 2577SOL    HW119193   1.899   4.200  12.300 -2.6052  0.2067  0.5397
 2577SOL    HW219194   1.867   4.065  12.351 -2.0777  0.1672  1.7976
 2578SOL     OW19195   1.950   2.071  15.412  0.2404 -0.1635 -0.1458
 2578SOL    HW119196   1.919   2.009  15.478  1.3933 -2.0351 -1.3618
 2578SOL    HW219197   2.044   2.077  15.428  0.4160 -0.0402 -1.2017
 2579SOL     OW19198   3.895   1.963   0.257 -0.3873 -0.4277  0.6259
 2579SOL    HW119199   3.857   1.956   0.169  1.0640  0.1045 -0.0510
 2579SOL    HW219200   3.989   1.951   0.245 -0.1017  1.0459  1.4044
 2580SOL     OW19201   0.973   3.634   2.725  0.1182  0.4833  0.0339
 2580SOL    HW119202   0.978   3.729   2.715 -3.1697  0.8285  1.7594
 2580SOL    HW219203   0.884   3.619   2.755  0.6564 -1.8181  0.4869
 2581SOL     OW19204   2.576   4.383   5.324 -0.0109 -0.2534 -0.3001
 2581SOL    HW119205   2.520   4.380   5.246 -0.9430 -1.7217  0.4199
 2581SOL    HW219206   2.518   4.372   5.399  1.9231 -0.7837  1.1328
 2582SOL     OW19207   1.232   3.524  12.474 -0.5651 -0.3159  0.4543
 2582SOL    HW119208   1.204   3.441  12.434 -0.1965  1.4093 -3.3534
 2582SOL    HW219209   1.272   3.489  12.554 -0.2765  1.3031  1.0083
 2583SOL     OW19210   0.482   0.786   3.365 -0.5682 -0.3964  0.1883
 2583SOL    HW119211   0.460   0.828   3.448 -0.3434 -0.7881  0.4474
 2583SOL    HW219212   0.445   0.697   3.363  0.5511 -0.8796  1.2785
 2584SOL     OW19213   0.734   3.852   3.566 -0.0006  0.3233 -0.0704
 2584SOL    HW119214   0.721   3.784   3.499  0.1421 -1.6412  1.8752
 2584SOL    HW219215   0.688   3.920   3.516 -0.7350  0.0134  0.1766
 2585SOL     OW19216   0.913   0.257   2.555 -0.3149  0.5479  0.1306
 2585SOL    HW119217   0.907   0.284   2.647  0.4550 -1.9390  0.9104
 2585SOL    HW219218   0.821   0.242   2.533 -0.4957  2.2814 -0.3342
 2586SOL     OW19219   0.310   2.753   3.085  0.3206 -0.1839 -0.2203
 2586SOL    HW119220   0.338   2.820   3.147  0.8365 -2.3838  1.9514
 2586SOL    HW219221   0.267   2.693   3.147 -0.1708  0.9553  0.5564
 2587SOL     OW19222   1.162   3.274  10.695  0.1302  0.2295 -0.3196
 2587SOL    HW119223   1.248   3.317  10.695  1.0299 -1.5829  1.3816
 2587SOL    HW219224   1.114   3.352  10.667 -0.4684  0.3836  1.1925
 2588SOL     OW19225   1.656   2.275   3.043  0.7320  0.4299  0.0765
 2588SOL    HW119226   1.726   2.339   3.050  0.8427  0.4067 -0.9385
 2588SOL    HW219227   1.692   2.189   3.022 -0.3481  0.9393 -3.8394
 2589SOL     OW19228   2.963   4.231  10.238 -0.1284 -0.5998  0.0015
 2589SOL    HW119229   2.971   4.169  10.166 -0.7835  0.5319 -1.0520
 2589SOL    HW219230   2.880   4.271  10.214  1.5356  1.8418 -1.7698
 2590SOL     OW19231   0.912   2.913   2.306  0.5420  0.2643 -0.6165
 2590SOL    HW119232   0.973   2.880   2.373  1.8189  1.2689 -1.2766
 2590SOL    HW219233   0.886   2.999   2.337  1.3950  0.0806  0.6314
 2591SOL     OW19234   0.645   0.412   3.648 -0.4094  0.0403  0.2252
 2591SOL    HW119235   0.651   0.329   3.601 -2.6733  0.1667 -0.2611
 2591SOL    HW219236   0.552   0.431   3.642 -0.9266 -2.4839  0.2968
 2592SOL     OW19237   1.686   3.105   7.410 -0.2772 -1.0850  0.1979
 2592SOL    HW119238   1.660   3.179   7.356  0.4118 -1.4853 -0.6709
 2592SOL    HW219239   1.619   3.112   7.479 -0.2073  2.0616 -0.0332
 2593SOL     OW19240   0.530   1.641   4.142 -0.2702 -0.0041  0.6272
 2593SOL    HW119241   0.593   1.660   4.073 -2.1873 -0.1170 -1.1632
 2593SOL    HW219242   0.467   1.710   4.124 -1.2417 -1.1488 -0.3224
 2594SOL     OW19243   3.839   3.804   3.490  0.6822 -0.5981 -0.2061
 2594SOL    HW119244   3.831   3.710   3.477 -2.5434 -0.3046 -0.3686
 2594SOL    HW219245   3.827   3.796   3.585 -2.4167 -0.8910 -0.6125
 2595SOL     OW19246   3.852   0.140   6.503 -0.2854  0.0674  0.1094
 2595SOL    HW119247   3.833   0.231   6.522  1.5088  0.2844  0.7705
 2595SOL    HW219248   3.939   0.132   6.541 -1.4504  0.9757  2.9387
 2596SOL     OW19249   4.619   2.609  14.560  0.6146 -0.3346 -0.0901
 2596SOL    HW119250   4.712   2.628  14.548  0.3330  1.8063  1.1524
 2596SOL    HW219251   4.590   2.630  14.471 -1.8749 -1.1464  0.5326
 2597SOL     OW19252   4.109   4.291  16.805 -0.0026 -0.0446 -0.5541
 2597SOL    HW119253   4.032   4.345  16.791 -1.2122 -1.7421 -0.5603
 2597SOL    HW219254   4.170   4.335  16.864  1.1717 -0.6363 -1.3106
 2598SOL     OW19255   2.185   4.484   6.234  0.1955 -0.6029  0.5396
 2598SOL    HW119256   2.164   4.514   6.145 -0.7926  1.0155  1.3250
 2598SOL    HW219257   2.275   4.515   6.243  0.4054 -1.0640  0.0896
 2599SOL     OW19258   1.261   1.947   6.892  0.6529  0.7444 -0.3322
 2599SOL    HW119259   1.319   2.001   6.945  0.2963 -0.2858  1.0924
 2599SOL    HW219260   1.180   1.993   6.913  0.9137  0.8552  0.4062
 2600SOL     OW19261   0.497   1.850   1.455 -0.5154 -0.1003  0.6148
 2600SOL    HW119262   0.479   1.885   1.368  0.6114 -1.0511 -0.0146
 2600SOL    HW219263   0.410   1.846   1.493 -1.2468  2.2460 -0.8324
 2601SOL     OW19264   4.354   3.919   4.118 -0.4148  0.1158  0.0487
 2601SOL    HW119265   4.260   3.936   4.121 -0.3447 -0.4407  4.8723
 2601SOL    HW219266   4.366   3.882   4.030 -1.0628 -1.0951  0.4589
 2602SOL     OW19267   3.910   3.724   4.008 -0.0293  0.6282 -0.0505
 2602SOL    HW119268   3.852   3.649   4.019 -1.6289  1.8743 -0.1310
 2602SOL    HW219269   3.885   3.783   4.079  0.1139 -0.2390  0.7286
 2603SOL     OW19270   0.354   0.585   4.237 -0.5436  0.2123  0.6836
 2603SOL    HW119271   0.337   0.667   4.191 -2.0988 -0.1998  0.5218
 2603SOL    HW219272   0.449   0.585   4.248 -0.4798  0.6854  0.1486
 2604SOL     OW19273   0.837   2.697   5.680  0.1997 -0.2400 -0.5197
 2604SOL    HW119274   0.747   2.666   5.669 -0.4021  1.5289 -0.5629
 2604SOL    HW219275   0.842   2.750   5.601 -1.2840  0.8219  0.1147
 2605SOL     OW19276   2.018   1.696   4.512  0.1425  0.0966  0.1388
 2605SOL    HW119277   2.087   1.633   4.533  0.9667  0.5390 -1.2570
 2605SOL    HW219278   1.948   1.651   4.560  0.7602 -1.1719 -0.1500
 2606SOL     OW19279   3.439   1.836   5.630  0.1024 -0.6666  0.2248
 2606SOL    HW119280   3.415   1.798   5.546 -0.2062  1.6957 -0.7692
 2606SOL    HW219281   3.365   1.889   5.660  0.3329 -0.1648 -0.0926
 2607SOL     OW19282   1.448   0.235  14.016 -0.0249  0.2441  0.1257
 2607SOL    HW119283   1.512   0.307  14.020 -1.3674  1.5018 -0.9390
 2607SOL    HW219284   1.383   0.270  13.955 -1.5904  1.4305  2.4603
 2608SOL     OW19285   2.357   1.409  13.132 -0.2069 -0.2946  0.0276
 2608SOL    HW119286   2.274   1.437  13.092 -1.0904 -0.2363  1.9325
 2608SOL    HW219287   2.413   1.416  13.055  0.1793  1.2732  0.4463
 2609SOL     OW19288   0.769   1.515   2.310 -0.1864  0.8011 -0.3601
 2609SOL    HW119289   0.836   1.574   2.275 -0.1581  0.8308 -0.2536
 2609SOL    HW219290   0.790   1.435   2.262  0.6365  1.6100 -1.3766
 2610SOL     OW19291   1.655   2.673   2.057  0.3004 -0.8427  0.5083
 2610SOL    HW119292   1.567   2.642   2.034  0.5834 -1.9438  0.9299
 2610SOL    HW219293   1.693   2.671   1.969 -0.1725  2.8465  0.2449
 2611SOL     OW19294   1.177   4.452  12.840 -0.0249 -0.4442  0.2973
 2611SOL    HW119295   1.190   4.411  12.754 -0.7511  1.4253 -0.6883
 2611SOL    HW219296   1.180   4.546  12.825  1.3834 -0.4008  0.8364
 2612SOL     OW19297   0.832   2.925   0.941  0.0332 -0.0846  0.1466
 2612SOL    HW119298   0.786   2.954   0.862  0.2546 -2.1080 -0.7331
 2612SOL    HW219299   0.834   3.005   0.993  0.7138 -0.7578  1.1585
 2613SOL     OW19300   0.817   2.328   2.970 -0.1948 -0.4530 -0.4251
 2613SOL    HW119301   0.722   2.326   2.957 -0.1185  0.6992 -1.2108
 2613SOL    HW219302   0.837   2.267   3.040  1.0297  0.7589  0.2842
 2614SOL     OW19303   3.919   2.414   2.395  0.1871  0.2287 -0.0844
 2614SOL    HW119304   3.894   2.329   2.432 -0.6833 -1.4570 -4.5724
 2614SOL    HW219305   3.950   2.403   2.305  1.4552 -1.5703  0.5751
 2615SOL     OW19306   3.924   1.030   9.276 -0.8729  0.3817 -0.0072
 2615SOL    HW119307   3.907   1.079   9.357  1.2533  3.6856 -1.5701
 2615SOL    HW219308   3.901   0.939   9.294  0.3147  0.6172  2.7735
 2616SOL     OW19309   3.076   2.846  12.186  0.3426 -0.1675 -0.2925
 2616SOL    HW119310   3.002   2.791  12.214  0.0059 -0.4428 -1.7288
 2616SOL    HW219311   3.148   2.797  12.225 -1.2477 -0.4648  2.3378
 2617SOL     OW19312   1.783   1.226  11.577  0.3785  0.0178 -0.2045
 2617SOL    HW119313   1.805   1.139  11.611  0.2048 -0.0677 -0.3106
 2617SOL    HW219314   1.784   1.283  11.654 -0.4164 -1.1170  0.6467
 2618SOL     OW19315   4.030   1.087  16.550  0.2623 -0.2273 -0.3801
 2618SOL    HW119316   4.039   1.160  16.612 -0.1858 -0.7894  0.3417
 2618SOL    HW219317   4.086   1.024  16.594  1.8024  0.7356 -0.9469
 2619SOL     OW19318   2.891   0.912  12.198  0.4342  0.1099 -0.0314
 2619SOL    HW119319   2.963   0.898  12.259 -0.5072  0.3577  1.1400
 2619SOL    HW219320   2.819   0.876  12.250 -0.5520  1.8143 -0.1988
 2620SOL     OW19321   4.134   1.050  15.348  0.6901 -0.3893 -0.7265
 2620SOL    HW119322   4.188   1.017  15.277  0.2721  0.1356 -1.2943
 2620SOL    HW219323   4.183   1.016  15.423 -0.4321 -0.7184 -0.1427
 2621SOL     OW19324   3.598   1.829   5.319  0.3135  0.5896  0.3938
 2621SOL    HW119325   3.503   1.835   5.313  0.3333  1.6628  1.2011
 2621SOL    HW219326   3.615   1.735   5.317 -1.9400  0.2596 -2.3449
 2622SOL     OW19327   2.241   1.566  14.137 -0.0612 -0.5011 -0.4077
 2622SOL    HW119328   2.159   1.567  14.187 -0.2525 -2.4883 -0.6852
 2622SOL    HW219329   2.248   1.472  14.120 -1.5796 -0.8540  0.9376
 2623SOL     OW19330   1.242   3.899   3.155 -0.0764  0.9888  0.3135
 2623SOL    HW119331   1.257   3.940   3.069 -0.7217 -0.7472 -0.6330
 2623SOL    HW219332   1.284   3.957   3.218  1.1639 -0.0898  0.4711
 2624SOL     OW19333   4.091   3.879   2.491  0.9730  0.2574  0.3237
 2624SOL    HW119334   4.118   3.827   2.566  1.5128  0.2207  0.1053
 2624SOL    HW219335   4.133   3.962   2.513 -0.1040  0.3695  1.9021
 2625SOL     OW19336   3.293   1.446   5.274 -0.0828  0.8073 -0.3522
 2625SOL    HW119337   3.201   1.437   5.302 -0.2866 -0.7896 -1.5326
 2625SOL    HW219338   3.339   1.413   5.351 -0.2416 -0.1269 -0.6597
 2626SOL     OW19339   3.598   1.869   7.545 -0.2274 -0.1612 -0.4022
 2626SOL    HW119340   3.669   1.926   7.574  0.2438 -0.4755 -0.9295
 2626SOL    HW219341   3.584   1.883   7.452  2.3837 -0.8613 -0.9075
 2627SOL     OW19342   1.477   2.337  16.381 -0.0131 -0.1508  0.3305
 2627SOL    HW119343   1.549   2.301  16.433 -1.6925 -0.3952  2.5057
 2627SOL    HW219344   1.523   2.406  16.333 -1.3618  0.3545 -0.2220
 2628SOL     OW19345   3.176   3.343   2.793  0.4507  0.3785  0.0755
 2628SOL    HW119346   3.173   3.424   2.845 -2.7030  0.9094 -0.9765
 2628SOL    HW219347   3.213   3.377   2.712  0.1687 -0.1156 -0.2533
 2629SOL     OW19348   1.902   3.688  10.699 -0.8291  0.2110  0.0757
 2629SOL    HW119349   1.992   3.713  10.682 -1.6744  3.0685 -0.1809
 2629SOL    HW219350   1.887   3.631  10.623 -2.1923  1.9221 -0.9453
 2630SOL     OW19351   2.787   4.624   4.948  0.5179 -0.1255  0.1654
 2630SOL    HW119352   2.817   4.540   4.982  1.1152 -0.3093 -0.8066
 2630SOL    HW219353   2.691   4.620   4.951  0.5412 -1.4828 -1.1979
 2631SOL     OW19354   1.566   0.739   4.575 -0.3588 -0.1539  0.1517
 2631SOL    HW119355   1.580   0.657   4.527 -1.4157 -0.3585  0.1926
 2631SOL    HW219356   1.485   0.767   4.533  0.0904 -0.0353 -0.6398
 2632SOL     OW19357   1.542   2.758   5.851  0.0134  0.1254 -0.1053
 2632SOL    HW119358   1.585   2.828   5.801 -0.8665  0.7294 -0.0053
 2632SOL    HW219359   1.576   2.771   5.940  2.1295 -1.5391 -0.6575
 2633SOL     OW19360   2.388   4.074   8.066  0.2700  0.1349  0.2807
 2633SOL    HW119361   2.389   3.980   8.088 -0.8522 -0.6748 -3.0610
 2633SOL    HW219362   2.353   4.075   7.977  0.0698 -0.4492  0.3520
 2634SOL     OW19363   2.650   0.265   2.863  0.6021 -0.4631  0.3041
 2634SOL    HW119364   2.594   0.342   2.871  0.0829 -0.9326  1.2238
 2634SOL    HW219365   2.600   0.199   2.816  1.6898  0.0677 -1.5714
 2635SOL     OW19366   1.071   1.542   4.177  0.0728  0.2319 -0.0821
 2635SOL    HW119367   1.065   1.614   4.240  1.2114  2.5692 -2.6654
 2635SOL    HW219368   1.156   1.506   4.202  0.1660  0.1025 -0.5893
 2636SOL     OW19369   1.615   0.338   4.103  0.0459  0.1928  0.4549
 2636SOL    HW119370   1.537   0.370   4.149 -0.3281 -1.0328  0.6774
 2636SOL    HW219371   1.668   0.313   4.179 -0.4700  0.6165  0.9535
 2637SOL     OW19372   0.428   4.024  12.102 -0.0924  0.1949 -0.2783
 2637SOL    HW119373   0.397   3.979  12.181  0.0864 -0.3272 -0.5071
 2637SOL    HW219374   0.511   3.977  12.098  1.2999  2.7444 -1.7770
 2638SOL     OW19375   3.810   3.188   5.525  1.0651 -0.7433 -0.1076
 2638SOL    HW119376   3.824   3.166   5.433 -1.3094 -0.4140 -0.5539
 2638SOL    HW219377   3.900   3.186   5.558  0.8985 -1.5374  0.3093
 2639SOL     OW19378   3.713   4.313   8.696  0.1168 -0.3094  0.1089
 2639SOL    HW119379   3.673   4.245   8.642 -0.4546 -1.3767  1.8738
 2639SOL    HW219380   3.803   4.284   8.713 -0.2349 -1.1915  0.4342
 2640SOL     OW19381   2.759   1.055  12.554  0.2010 -0.2209 -0.1182
 2640SOL    HW119382   2.760   1.103  12.472 -0.1258 -0.6126 -0.3548
 2640SOL    HW219383   2.848   1.022  12.545 -0.2651 -1.7321  0.7551
 2641SOL     OW19384   0.291   1.693   5.857  0.5082 -0.5652 -0.5608
 2641SOL    HW119385   0.291   1.635   5.781 -0.5204 -0.7127 -0.4567
 2641SOL    HW219386   0.301   1.642   5.938 -4.5207 -2.7541 -1.3311
 2642SOL     OW19387   1.075   3.126   7.367 -0.1712  0.3050 -0.0807
 2642SOL    HW119388   1.087   3.212   7.326 -1.4250  0.5320  0.0495
 2642SOL    HW219389   1.015   3.144   7.439 -1.5641 -2.8106 -0.4704
 2643SOL     OW19390   3.052   3.111   0.652 -0.3568  0.9702  0.1767
 2643SOL    HW119391   3.036   3.113   0.746 -0.0331  0.2392  0.2452
 2643SOL    HW219392   3.140   3.074   0.652 -0.7775 -0.0227 -1.1714
 2644SOL     OW19393   3.181   0.371  13.116  0.1226 -0.2378  0.4261
 2644SOL    HW119394   3.217   0.371  13.027 -0.2592  1.8558  0.2563
 2644SOL    HW219395   3.125   0.294  13.121  2.4530 -1.9003  0.6534
 2645SOL     OW19396   0.444   3.159   6.008  0.3647 -0.5718  0.1540
 2645SOL    HW119397   0.515   3.110   5.966 -0.4506 -2.3065  0.7831
 2645SOL    HW219398   0.423   3.219   5.937  1.3776  1.0344  1.2197
 2646SOL     OW19399   2.974   3.317   5.282  0.0103  0.2681  0.1295
 2646SOL    HW119400   2.923   3.352   5.355  1.0863  2.3554 -0.1052
 2646SOL    HW219401   3.063   3.343   5.307  0.0959  0.8096 -0.7567
 2647SOL     OW19402   1.996   0.721   8.776  0.2640 -0.3372 -0.7337
 2647SOL    HW119403   2.077   0.672   8.761  1.0727  0.6556  0.3739
 2647SOL    HW219404   1.946   0.719   8.695  0.7254 -0.3423 -1.0179
 2648SOL     OW19405   1.306   0.100  10.141  0.6250 -0.0652 -0.8837
 2648SOL    HW119406   1.295   0.012  10.106 -0.2499  0.4715 -1.9811
 2648SOL    HW219407   1.340   0.085  10.229 -1.1722  0.2747 -0.1338
 2649SOL     OW19408   0.013   1.339   7.906  0.0304  0.1173  0.6008
 2649SOL    HW119409   0.039   1.343   7.998  1.7611  0.1819  0.0973
 2649SOL    HW219410   4.639   1.350   7.919  0.1669  0.1514  1.5804
 2650SOL     OW19411   0.712   1.820  12.035 -0.0354  0.1175  0.1823
 2650SOL    HW119412   0.800   1.835  12.067  0.4527 -0.7500 -0.7582
 2650SOL    HW219413   0.678   1.793  12.120 -2.2799  1.5840 -0.2357
 2651SOL     OW19414   3.101   2.924   6.827 -0.3137 -0.3586 -0.5476
 2651SOL    HW119415   3.027   2.939   6.886  0.5586 -0.2886  0.5371
 2651SOL    HW219416   3.124   3.016   6.829 -0.2330 -0.3844 -0.3310
 2652SOL     OW19417   3.541   0.837   2.452 -0.1123  0.4931 -0.2993
 2652SOL    HW119418   3.592   0.914   2.427 -0.6542  0.8170 -0.4001
 2652SOL    HW219419   3.563   0.787   2.373  0.7904 -1.0783  0.9464
 2653SOL     OW19420   3.968   4.638  16.215 -0.0443 -0.1210  0.2881
 2653SOL    HW119421   3.920   4.607  16.138 -0.0967 -0.5828  0.5096
 2653SOL    HW219422   3.898   4.638  16.280 -0.4007  0.3984 -0.0847
 2654SOL     OW19423   0.191   4.123   5.742 -0.4222  0.2294  0.1472
 2654SOL    HW119424   0.169   4.044   5.793  0.3295  1.1630  1.9087
 2654SOL    HW219425   0.114   4.179   5.743  0.6165  1.6576 -1.6050
 2655SOL     OW19426   1.719   2.043  12.928  0.1395 -0.4157 -0.2098
 2655SOL    HW119427   1.689   2.081  12.846 -2.6046  0.4048  1.1868
 2655SOL    HW219428   1.675   2.096  12.995  0.4627 -1.4817  0.8579
 2656SOL     OW19429   4.248   0.160   2.721  0.1606 -0.2566 -0.2505
 2656SOL    HW119430   4.309   0.206   2.663  2.0260  0.5368  2.3574
 2656SOL    HW219431   4.238   0.080   2.670  1.1446 -0.8805  0.5386
 2657SOL     OW19432   2.510   3.961   9.053 -0.2130  0.0132 -0.1494
 2657SOL    HW119433   2.524   3.983   9.145  1.5807  0.0625 -0.4337
 2657SOL    HW219434   2.419   3.933   9.052  0.1591 -1.1907 -0.2838
 2658SOL     OW19435   4.033   1.200   8.405 -0.0838  0.3719 -0.1099
 2658SOL    HW119436   3.990   1.136   8.462 -1.9077 -0.5073 -2.5104
 2658SOL    HW219437   4.066   1.259   8.473  0.5280 -1.3015  1.0562
 2659SOL     OW19438   0.806   3.869   8.008  0.0026 -0.0105  0.2682
 2659SOL    HW119439   0.752   3.901   7.936 -0.7274 -1.6057  0.1202
 2659SOL    HW219440   0.769   3.785   8.033  2.1783 -0.9267  0.4246
 2660SOL     OW19441   3.993   0.255  16.075 -0.3656 -0.1376 -0.1830
 2660SOL    HW119442   4.059   0.187  16.060  1.5397  1.5181  0.6795
 2660SOL    HW219443   4.049   0.316  16.027 -0.9017  1.0463  0.6924
 2661SOL     OW19444   2.205   1.884   6.880  0.0538  0.1034  0.4400
 2661SOL    HW119445   2.213   1.836   6.798  0.4744 -0.2211  0.6705
 2661SOL    HW219446   2.151   1.959   6.855 -1.5174 -1.6164 -1.3944
 2662SOL     OW19447   1.667   1.770  17.325  0.0895  0.4454  0.3740
 2662SOL    HW119448   1.700   1.755  17.237 -2.3748  0.6413 -0.5838
 2662SOL    HW219449   1.595   1.708  17.313  0.8336 -0.4688  0.6676
 2663SOL     OW19450   2.196   3.654   7.979 -0.2718  0.9134  0.0825
 2663SOL    HW119451   2.242   3.708   7.915  0.2849  1.7076  1.1494
 2663SOL    HW219452   2.111   3.648   7.936 -1.1614 -1.2138  2.0985
 2664SOL     OW19453   3.664   3.547  16.297  0.0296 -0.5591  0.0308
 2664SOL    HW119454   3.599   3.477  16.288 -1.7362  0.9245  1.4496
 2664SOL    HW219455   3.699   3.539  16.385  0.4055 -0.4746 -0.1095
 2665SOL     OW19456   0.388   0.444   9.843  0.6388  0.3577 -0.6489
 2665SOL    HW119457   0.379   0.539   9.834 -1.3517  0.2081 -0.2839
 2665SOL    HW219458   0.323   0.416   9.779 -0.5450  2.0361 -0.1917
 2666SOL     OW19459   3.060   1.773   4.029  0.2096 -0.3894 -0.2939
 2666SOL    HW119460   2.997   1.719   4.076  1.3254  0.9727  2.7932
 2666SOL    HW219461   3.136   1.715   4.029  0.4017 -0.1284  1.3127
 2667SOL     OW19462   3.834   3.014  16.193 -0.7644 -0.1348 -0.3806
 2667SOL    HW119463   3.800   2.958  16.122  1.3559 -0.6810 -0.9778
 2667SOL    HW219464   3.873   3.087  16.146  0.8154 -0.8304 -0.1386
 2668SOL     OW19465   1.594   1.147   2.738  0.5819 -0.0805 -0.1091
 2668SOL    HW119466   1.623   1.163   2.648  0.2973 -0.1298 -0.2089
 2668SOL    HW219467   1.676   1.107   2.769  1.8663  1.2643 -1.7988
 2669SOL     OW19468   1.652   0.721   3.004  0.4206  0.6889 -0.7002
 2669SOL    HW119469   1.742   0.750   3.020  0.0342  1.8080 -0.5791
 2669SOL    HW219470   1.642   0.733   2.910  4.2738  2.6481 -0.8958
 2670SOL     OW19471   3.690   2.491   4.975 -0.0316  0.1497 -0.4606
 2670SOL    HW119472   3.712   2.405   4.939  0.2167  0.1671 -0.3526
 2670SOL    HW219473   3.726   2.489   5.063 -2.1014 -1.0712  0.3344
 2671SOL     OW19474   3.017   0.992   1.830 -0.2045 -0.0964  0.0776
 2671SOL    HW119475   3.054   1.032   1.908 -0.6197 -1.0586  0.7681
 2671SOL    HW219476   3.001   0.905   1.867  0.2370 -1.0011 -1.8470
 2672SOL     OW19477   3.911   1.899   7.096 -0.1723 -0.7278  0.4732
 2672SOL    HW119478   3.969   1.824   7.081 -1.6373 -1.6335 -0.8300
 2672SOL    HW219479   3.978   1.965   7.112 -0.0172 -1.1692  1.6383
 2673SOL     OW19480   4.058   1.921   3.859  0.6848 -0.2796 -0.2380
 2673SOL    HW119481   4.145   1.885   3.844  0.8805  0.9687 -2.1538
 2673SOL    HW219482   4.017   1.903   3.774 -1.2290  1.8155  0.2559
 2674SOL     OW19483   3.880   3.456   5.434 -0.1488 -0.5295 -0.0742
 2674SOL    HW119484   3.899   3.375   5.387 -0.7582 -1.0955  0.6615
 2674SOL    HW219485   3.886   3.436   5.527  0.9511 -0.6486 -0.1783
 2675SOL     OW19486   1.705   4.224   4.827 -0.7526  0.2952 -0.3458
 2675SOL    HW119487   1.779   4.175   4.789  1.7195  3.7734 -0.0287
 2675SOL    HW219488   1.657   4.151   4.866  1.9816 -0.0622  2.3042
 2676SOL     OW19489   2.497   0.600   7.358  0.6042  0.3876  0.0732
 2676SOL    HW119490   2.471   0.536   7.292 -1.6935  0.9494  0.4272
 2676SOL    HW219491   2.529   0.550   7.432 -2.7398 -2.5711 -0.4802
 2677SOL     OW19492   3.650   2.475  11.373 -0.5151  0.2472  0.0815
 2677SOL    HW119493   3.619   2.552  11.325 -0.0869 -0.4279 -1.2795
 2677SOL    HW219494   3.590   2.469  11.447 -2.4398  2.5429 -1.3056
 2678SOL     OW19495   3.193   4.278   9.400  0.4194  0.5259 -0.3143
 2678SOL    HW119496   3.147   4.251   9.479  1.4183 -1.1428 -0.3022
 2678SOL    HW219497   3.267   4.217   9.399  0.0963  0.1205  1.6800
 2679SOL     OW19498   4.415   0.934   5.950  0.3837 -0.3686 -0.1238
 2679SOL    HW119499   4.339   0.985   5.922 -2.2016 -1.2495  5.1392
 2679SOL    HW219500   4.379   0.903   6.033  0.6861 -0.3164  0.0283
 2680SOL     OW19501   3.594   3.971   3.465  0.1713  0.3060  0.6616
 2680SOL    HW119502   3.537   3.894   3.460  0.6209  0.0753 -0.8763
 2680SOL    HW219503   3.679   3.934   3.486 -0.8383 -1.0036  2.4731
 2681SOL     OW19504   0.564   0.224  13.618 -0.2141 -0.3660  0.4189
 2681SOL    HW119505   0.501   0.266  13.676  1.1603  0.7320  1.1029
 2681SOL    HW219506   0.611   0.298  13.581  0.0975 -2.0339 -2.5973
 2682SOL     OW19507   3.188   1.982   7.788  0.5243  0.3500 -0.1234
 2682SOL    HW119508   3.159   2.027   7.708  0.6880 -0.3597 -0.5812
 2682SOL    HW219509   3.259   1.928   7.753 -1.9945 -1.7054 -2.0432
 2683SOL     OW19510   0.490   2.497   5.599  0.3160 -0.0102  0.1914
 2683SOL    HW119511   0.448   2.570   5.553  1.6241  1.5950  1.5886
 2683SOL    HW219512   0.454   2.425   5.546  3.0835  0.4278 -2.2678
 2684SOL     OW19513   1.850   2.280   3.624 -0.3810 -0.3459  0.3646
 2684SOL    HW119514   1.929   2.270   3.570 -0.3911  1.2708  0.0327
 2684SOL    HW219515   1.788   2.274   3.552 -0.1511  2.0418 -0.0438
 2685SOL     OW19516   2.011   4.186   4.576 -0.1350 -0.1300  0.5022
 2685SOL    HW119517   2.087   4.210   4.629  0.1565 -0.6017  0.3017
 2685SOL    HW219518   1.979   4.268   4.540 -0.6892  0.5339  2.5162
 2686SOL     OW19519   0.407   1.753   6.874  0.1091  0.2075  0.4690
 2686SOL    HW119520   0.432   1.797   6.956 -1.4617  0.3861  0.8425
 2686SOL    HW219521   0.489   1.704   6.869 -0.1591 -0.2148  0.2364
 2687SOL     OW19522   2.754   2.574   8.099  0.1176 -0.4829  0.4860
 2687SOL    HW119523   2.806   2.617   8.167  1.4421  0.3074 -1.0181
 2687SOL    HW219524   2.810   2.498   8.083 -0.6412 -0.2804 -3.0923
 2688SOL     OW19525   0.364   3.067   4.574  0.5173 -0.2255 -0.2310
 2688SOL    HW119526   0.379   2.988   4.625  1.1885  0.3560  0.4744
 2688SOL    HW219527   0.417   3.130   4.624  1.3058 -1.0107 -0.0830
 2689SOL     OW19528   4.607   2.926   4.341 -0.7220  0.1642  0.5040
 2689SOL    HW119529   4.593   2.854   4.403 -0.6969  0.0600  0.3898
 2689SOL    HW219530   4.606   2.867   4.265  0.2661  0.1441  0.5013
 2690SOL     OW19531   1.881   1.881  16.003  0.3458 -0.4903 -0.0458
 2690SOL    HW119532   1.932   1.861  16.081  1.1738  2.7481  0.2449
 2690SOL    HW219533   1.797   1.858  16.042  0.8931 -1.3372  0.6342
 2691SOL     OW19534   4.222   3.958  11.404  0.1605  0.0834  0.3505
 2691SOL    HW119535   4.239   4.042  11.446  0.4813 -0.0025  0.3908
 2691SOL    HW219536   4.150   3.927  11.458 -0.9803  1.8227 -0.1604
 2692SOL     OW19537   1.023   2.400   7.961  0.5651  0.2126  0.2132
 2692SOL    HW119538   1.043   2.393   8.054 -0.0998  0.3683  0.3691
 2692SOL    HW219539   0.929   2.412   7.974  0.5340  0.8127 -0.5379
 2693SOL     OW19540   2.803   1.366   3.395 -0.3231 -0.4851  0.4388
 2693SOL    HW119541   2.717   1.372   3.436 -1.0201  2.9503 -1.5216
 2693SOL    HW219542   2.787   1.303   3.324 -1.9756 -0.4729  0.8124
 2694SOL     OW19543   0.347   0.746   5.922  0.3890 -0.1760  0.4431
 2694SOL    HW119544   0.274   0.747   5.983  0.6211 -1.5005  0.7408
 2694SOL    HW219545   0.353   0.655   5.893 -0.9806 -0.1487  0.0539
 2695SOL     OW19546   4.200   2.206   5.649  0.2092  0.0601 -0.6188
 2695SOL    HW119547   4.191   2.209   5.554 -0.7792  1.2929 -0.4886
 2695SOL    HW219548   4.176   2.114   5.664  0.1292 -0.1809 -2.2552
 2696SOL     OW19549   1.806   4.633   7.829  0.1775  0.5157 -0.2392
 2696SOL    HW119550   1.754   4.632   7.909 -0.0065  0.8896 -0.3556
 2696SOL    HW219551   1.827   0.007   7.823 -2.6602  1.1164 -0.6150
 2697SOL     OW19552   3.496   3.467   0.213 -0.6169 -0.5270  0.1491
 2697SOL    HW119553   3.541   3.396   0.259  2.8144  0.6124 -1.3837
 2697SOL    HW219554   3.568   3.499   0.158 -0.7014 -1.4358 -0.4866
 2698SOL     OW19555   1.090   2.001   8.083 -0.0330  0.4203  0.0331
 2698SOL    HW119556   1.142   2.065   8.132  1.0456 -0.7975  0.4797
 2698SOL    HW219557   1.066   1.943   8.155 -0.9436  0.0244 -0.5962
 2699SOL     OW19558   3.619   0.538  14.988  0.1032  0.5307  0.2296
 2699SOL    HW119559   3.624   0.629  14.959 -2.2331  0.6242  0.1397
 2699SOL    HW219560   3.545   0.535  15.048  0.1762  1.0984  0.3518
 2700SOL     OW19561   0.856   1.082   1.848 -0.4215 -0.8268 -0.3853
 2700SOL    HW119562   0.864   0.994   1.884  1.1198 -0.7583 -0.5751
 2700SOL    HW219563   0.897   1.140   1.913 -1.7344 -0.6379  0.2872
 2701SOL     OW19564   0.014   0.834   6.288  0.2223 -0.4179  0.0356
 2701SOL    HW119565   4.652   0.785   6.279 -0.7153  1.2796 -0.6167
 2701SOL    HW219566   0.064   0.776   6.345  1.4367 -0.3065 -0.9191
 2702SOL     OW19567   0.507   2.526   7.344 -0.3075 -0.1656  0.6632
 2702SOL    HW119568   0.572   2.528   7.274 -2.0319  0.2287 -0.9170
 2702SOL    HW219569   0.486   2.617   7.365  1.4977 -0.0369  1.9462
 2703SOL     OW19570   2.296   0.493   6.482 -1.0296 -0.1192  0.3788
 2703SOL    HW119571   2.368   0.432   6.466 -0.8766  0.1810 -0.0819
 2703SOL    HW219572   2.227   0.457   6.426 -1.4991 -3.1970  2.9934
 2704SOL     OW19573   2.574   1.342   6.420  0.5496  0.1140 -0.1184
 2704SOL    HW119574   2.632   1.287   6.473 -1.1980  0.9474  2.6802
 2704SOL    HW219575   2.500   1.358   6.479  3.3098  3.2633  2.4486
 2705SOL     OW19576   1.225   4.550   6.134  0.4829  0.3980  0.0885
 2705SOL    HW119577   1.281   4.613   6.089  2.2743 -1.2085  0.0621
 2705SOL    HW219578   1.255   4.565   6.224 -2.0255 -0.5829  1.0860
 2706SOL     OW19579   0.846   3.472   5.593 -0.3209 -0.1456 -0.4220
 2706SOL    HW119580   0.844   3.526   5.672  0.4057 -2.1496  0.9803
 2706SOL    HW219581   0.780   3.520   5.544 -0.3048 -0.4064 -0.7034
 2707SOL     OW19582   0.471   3.820  14.880 -0.4845 -0.0265 -0.5344
 2707SOL    HW119583   0.507   3.735  14.902  0.7567  0.5432 -0.3837
 2707SOL    HW219584   0.507   3.874  14.951 -0.8101  0.0810 -0.4491
 2708SOL     OW19585   3.533   1.607   5.763 -0.0391  0.0810 -0.4302
 2708SOL    HW119586   3.519   1.687   5.712 -2.1791 -1.4013 -2.1969
 2708SOL    HW219587   3.620   1.585   5.731 -0.8477 -1.4766 -1.5980
 2709SOL     OW19588   3.900   2.214  10.205 -0.6539 -0.3987 -0.0364
 2709SOL    HW119589   3.919   2.133  10.158 -1.5880 -1.0724  0.7372
 2709SOL    HW219590   3.805   2.211  10.191 -0.7732  2.7048 -0.0631
 2710SOL     OW19591   0.447   3.010   4.884 -0.1178 -0.1246  0.9301
 2710SOL    HW119592   0.476   3.016   4.975  2.4934 -1.9343  0.2221
 2710SOL    HW219593   0.443   3.104   4.868  1.0636  0.0338  1.6162
 2711SOL     OW19594   1.401   2.781   0.502  0.7612  1.1739  0.4132
 2711SOL    HW119595   1.465   2.751   0.437 -0.8162  0.9816 -1.0515
 2711SOL    HW219596   1.346   2.839   0.450  2.0753  1.5596 -0.5640
 2712SOL     OW19597   3.359   0.231   0.040 -0.2836 -0.1534 -0.3174
 2712SOL    HW119598   3.295   0.300   0.058 -1.0550 -0.2192 -2.7751
 2712SOL    HW219599   3.328   0.200  17.638  1.1085  0.3837 -1.0154
 2713SOL     OW19600   4.523   3.199  13.085 -0.7996 -0.3881  0.3749
 2713SOL    HW119601   4.435   3.171  13.111 -1.3387  1.6734  0.8004
 2713SOL    HW219602   4.568   3.115  13.093 -0.8586 -0.4037  0.5485
 2714SOL     OW19603   3.752   0.838   2.182  0.5545 -0.1096 -0.5174
 2714SOL    HW119604   3.684   0.771   2.186  1.2241 -0.7445  0.3484
 2714SOL    HW219605   3.702   0.916   2.205  0.4389 -0.8827  1.9339
 2715SOL     OW19606   3.305   4.172  12.461  0.0173  0.5488  0.3909
 2715SOL    HW119607   3.222   4.129  12.442  0.1352  1.5318 -2.4215
 2715SOL    HW219608   3.263   4.246  12.506 -1.1288  0.8446 -1.1484
 2716SOL     OW19609   3.023   3.739   9.945  0.0001  0.4178 -0.6861
 2716SOL    HW119610   3.081   3.701   9.879  0.2435  2.6236 -1.7715
 2716SOL    HW219611   3.038   3.673  10.012  2.6647  0.8325 -0.8637
 2717SOL     OW19612   4.668   1.062   0.923 -0.8150  0.1385 -0.0837
 2717SOL    HW119613   4.574   1.045   0.927 -0.3495 -2.5451 -0.3122
 2717SOL    HW219614   4.679   1.062   0.828  0.0908 -0.9726  0.0211
 2718SOL     OW19615   3.389   2.740  16.507  0.4650 -0.0294  0.1397
 2718SOL    HW119616   3.440   2.803  16.558 -0.0793 -0.7796  1.5820
 2718SOL    HW219617   3.421   2.656  16.538  0.6443  0.3611  1.0164
 2719SOL     OW19618   2.762   0.449  14.844 -0.2674  0.6837 -0.0394
 2719SOL    HW119619   2.761   0.501  14.764  3.8831 -0.1705 -0.6574
 2719SOL    HW219620   2.707   0.377  14.812 -1.0462  2.0469 -1.7536
 2720SOL     OW19621   3.833   0.823  13.711 -0.2474  0.1468  0.1926
 2720SOL    HW119622   3.834   0.897  13.772  0.8421  2.4874 -2.6442
 2720SOL    HW219623   3.794   0.751  13.760 -0.7894  1.6621  1.9857
 2721SOL     OW19624   0.366   2.922  14.071  0.2421  0.1875  0.1583
 2721SOL    HW119625   0.365   2.892  14.162  2.2872  0.5516  0.3081
 2721SOL    HW219626   0.432   2.991  14.086 -0.1549  0.6928 -0.3931
 2722SOL     OW19627   2.620   3.817   7.058  0.5817  0.5122 -0.1137
 2722SOL    HW119628   2.589   3.792   6.971 -0.3880  2.4058 -0.3336
 2722SOL    HW219629   2.694   3.761   7.079 -1.8763 -3.0773 -1.1231
 2723SOL     OW19630   1.481   1.374   4.864 -0.2887  0.5830  0.0649
 2723SOL    HW119631   1.515   1.310   4.801 -0.6633 -0.4373  0.8996
 2723SOL    HW219632   1.544   1.446   4.857  1.6371 -1.2552 -1.3656
 2724SOL     OW19633   3.616   0.397  10.602  0.1967  0.0760 -0.3917
 2724SOL    HW119634   3.702   0.366  10.573  0.8922  2.4386 -0.8048
 2724SOL    HW219635   3.601   0.362  10.690  1.6325  0.7878  0.1386
 2725SOL     OW19636   1.296   3.117   2.331  0.8097 -0.0114 -0.2213
 2725SOL    HW119637   1.248   3.140   2.410  0.5647 -1.4574  0.0643
 2725SOL    HW219638   1.356   3.046   2.354  2.2931  1.1188 -0.6076
 2726SOL     OW19639   2.190   3.206  12.196 -0.0816  0.1485  0.3042
 2726SOL    HW119640   2.110   3.258  12.182  0.9536  1.9319  0.9935
 2726SOL    HW219641   2.164   3.120  12.164  0.0955  0.2651 -0.1503
 2727SOL     OW19642   1.453   2.624   2.605  0.0034  0.0104 -0.1137
 2727SOL    HW119643   1.538   2.667   2.609 -0.0441  0.0321  0.6388
 2727SOL    HW219644   1.454   2.585   2.518  0.6749 -0.1635 -0.0303
 2728SOL     OW19645   2.324   1.558   6.511  0.1845 -0.2035  0.0083
 2728SOL    HW119646   2.346   1.571   6.603  0.6828  0.7376 -0.2454
 2728SOL    HW219647   2.333   1.650   6.486  0.6944  0.0098  1.0070
 2729SOL     OW19648   0.972   1.396   6.322 -0.4608  0.0272 -0.2170
 2729SOL    HW119649   0.942   1.367   6.408  1.4469  1.8015  1.0649
 2729SOL    HW219650   0.927   1.329   6.270  0.3283 -0.8353  0.2003
 2730SOL     OW19651   1.729   2.277  16.527  0.0518 -0.3729  0.4627
 2730SOL    HW119652   1.693   2.260  16.614 -3.8971  0.9057 -0.9235
 2730SOL    HW219653   1.771   2.193  16.507  1.4199 -0.0084  1.7900
 2731SOL     OW19654   3.663   1.860   2.231 -0.1992 -0.9077  0.4468
 2731SOL    HW119655   3.570   1.875   2.218 -0.2278 -0.5233  1.1295
 2731SOL    HW219656   3.663   1.767   2.253 -0.0491 -1.1332 -0.4919
 2732SOL     OW19657   1.629   3.839   8.856 -0.5391 -0.0490  1.1260
 2732SOL    HW119658   1.622   3.775   8.927  1.0132 -0.9391  0.4744
 2732SOL    HW219659   1.716   3.827   8.818 -1.9043 -1.1771 -1.5978
 2733SOL     OW19660   1.952   0.066   6.777  0.1400 -0.5087 -0.1364
 2733SOL    HW119661   2.038   0.105   6.759  0.4942 -1.0888  0.2905
 2733SOL    HW219662   1.972   4.700   6.740 -0.7064 -1.3084  1.2655
 2734SOL     OW19663   3.095   4.275   1.649  0.0606 -0.1525  0.8728
 2734SOL    HW119664   3.084   4.367   1.626 -0.3177 -0.0188  1.5839
 2734SOL    HW219665   3.027   4.242   1.591  0.9510 -0.8923  0.2452
 2735SOL     OW19666   0.730   3.806   3.837 -0.0040  0.2096  0.2049
 2735SOL    HW119667   0.637   3.827   3.837 -0.4410 -1.5904 -3.4819
 2735SOL    HW219668   0.757   3.842   3.752  0.0490 -0.9408 -0.2752
 2736SOL     OW19669   2.169   4.249  11.566  0.2984 -0.6703 -0.0183
 2736SOL    HW119670   2.085   4.254  11.520 -0.5752 -0.2544  1.6594
 2736SOL    HW219671   2.159   4.168  11.616 -1.3256 -0.7798 -0.5053
 2737SOL     OW19672   3.959   1.457   4.897  0.2289 -0.6981 -0.5274
 2737SOL    HW119673   4.051   1.458   4.923  0.3594 -1.5369 -0.9754
 2737SOL    HW219674   3.924   1.441   4.985 -1.7927 -0.9657 -1.3762
 2738SOL     OW19675   3.001   3.754   4.384 -0.7471  0.4969 -0.2692
 2738SOL    HW119676   2.933   3.743   4.318 -0.2765 -0.2148 -0.6284
 2738SOL    HW219677   3.077   3.744   4.327 -1.0457  0.1176 -0.6013
 2739SOL     OW19678   0.528   4.060   9.011 -0.1493 -0.2167  0.2486
 2739SOL    HW119679   0.482   3.982   8.980 -0.3893 -0.0981  0.3097
 2739SOL    HW219680   0.535   4.033   9.103  0.3672 -1.6802 -0.2176
 2740SOL     OW19681   3.506   0.976   2.693 -0.1898 -0.2931 -0.1188
 2740SOL    HW119682   3.523   0.923   2.614 -3.0349 -1.8567  0.3127
 2740SOL    HW219683   3.445   1.040   2.657  0.5157  0.3827 -0.1022
 2741SOL     OW19684   2.993   1.468   7.753 -0.3317  0.0165 -0.3882
 2741SOL    HW119685   2.990   1.490   7.660  0.4465  0.5566 -0.2882
 2741SOL    HW219686   3.068   1.518   7.787 -0.9760  0.6512  0.1174
 2742SOL     OW19687   0.725   3.011  11.202 -0.3268  0.2221 -0.3692
 2742SOL    HW119688   0.798   3.058  11.241 -0.5883  1.0557 -0.8999
 2742SOL    HW219689   0.654   3.074  11.191 -0.1163  0.6185  0.6296
 2743SOL     OW19690   0.930   3.048  10.207  0.1254 -0.1249 -0.6281
 2743SOL    HW119691   0.969   3.127  10.244  1.6509 -2.4683  2.7220
 2743SOL    HW219692   0.916   2.995  10.286 -1.4083  1.2984  0.0657
 2744SOL     OW19693   3.206   0.661  13.746  0.2826 -0.3895 -0.2790
 2744SOL    HW119694   3.149   0.704  13.681  1.1595  0.8859 -0.2023
 2744SOL    HW219695   3.152   0.682  13.822  0.0264  1.8165 -1.0668
 2745SOL     OW19696   4.049   0.526   4.030 -0.5567 -0.7901  0.1132
 2745SOL    HW119697   4.096   0.569   4.102 -0.8642  0.1390 -0.2436
 2745SOL    HW219698   4.108   0.450   4.029  0.0821 -0.3044  0.4651
 2746SOL     OW19699   1.902   0.828   4.493 -0.5333  0.3609  0.4611
 2746SOL    HW119700   1.824   0.880   4.477  0.5500  1.7123 -0.3784
 2746SOL    HW219701   1.970   0.893   4.511 -0.2767 -0.0021  0.8154
 2747SOL     OW19702   0.137   2.303   7.674  0.1142 -0.6583  0.4545
 2747SOL    HW119703   0.157   2.368   7.741  2.8824  0.4249 -1.3852
 2747SOL    HW219704   0.043   2.319   7.662  0.8256  2.9487 -0.5065
 2748SOL     OW19705   3.269   4.231  12.986 -0.2334  0.5675  0.1648
 2748SOL    HW119706   3.289   4.223  12.892  3.4403  3.8758  0.6237
 2748SOL    HW219707   3.326   4.167  13.028 -0.5082  0.6457  0.6486
 2749SOL     OW19708   2.545   4.288   2.601  0.0764 -0.6767  0.2089
 2749SOL    HW119709   2.494   4.368   2.611 -2.0836 -1.9164 -0.9574
 2749SOL    HW219710   2.613   4.305   2.536 -0.8252 -0.4019 -0.6653
 2750SOL     OW19711   1.852   3.507   1.323 -0.1087  0.5209  0.2289
 2750SOL    HW119712   1.915   3.568   1.360  0.6800 -1.5431  2.3025
 2750SOL    HW219713   1.909   3.464   1.259 -2.1933 -1.3729 -0.3809
 2751SOL     OW19714   1.197   3.530   2.827 -0.2440  0.2608 -0.7096
 2751SOL    HW119715   1.277   3.570   2.792 -0.0841 -2.1290 -3.0838
 2751SOL    HW219716   1.124   3.561   2.773 -0.1560  0.8432 -0.4960
 2752SOL     OW19717   0.581   0.918   6.505 -0.2914 -0.2340  0.4436
 2752SOL    HW119718   0.668   0.931   6.467  0.2301 -0.6982  1.5065
 2752SOL    HW219719   0.561   1.011   6.518  0.2241 -0.3021  1.6638
 2753SOL     OW19720   2.589   1.168   7.778 -0.0301  0.1566 -0.3838
 2753SOL    HW119721   2.666   1.218   7.806 -1.0228  0.4350  1.8366
 2753SOL    HW219722   2.527   1.239   7.757  0.3391  0.4013 -0.6527
 2754SOL     OW19723   3.095   4.252  13.405  0.4151  0.1726 -0.2903
 2754SOL    HW119724   3.030   4.322  13.408 -0.9129 -0.9952 -2.3182
 2754SOL    HW219725   3.128   4.247  13.495  2.7038  2.0254 -1.0066
 2755SOL     OW19726   0.705   1.324  15.008  0.2151 -0.2842  0.2704
 2755SOL    HW119727   0.777   1.351  15.065  0.7780 -0.7175 -0.2369
 2755SOL    HW219728   0.756   1.308  14.928 -2.1047  0.6118 -1.4120
 2756SOL     OW19729   1.685   2.885  15.246  0.1123 -0.4828  0.5510
 2756SOL    HW119730   1.601   2.929  15.256  1.2052  1.8113 -0.3268
 2756SOL    HW219731   1.667   2.793  15.267 -2.4826  0.0253  0.5386
 2757SOL     OW19732   1.394   0.725   4.113 -0.0389 -0.0611 -0.0805
 2757SOL    HW119733   1.350   0.715   4.029  0.7490 -0.0259 -0.4847
 2757SOL    HW219734   1.412   0.633   4.127  1.9046  0.7629  2.9108
 2758SOL     OW19735   2.339   2.282  11.995  0.2711  0.3436 -0.3556
 2758SOL    HW119736   2.400   2.232  11.941 -0.9502  1.4922 -2.7575
 2758SOL    HW219737   2.373   2.266  12.083  0.8456 -2.8887 -1.1706
 2759SOL     OW19738   1.980   3.691   5.720  0.4270  0.1987  0.1884
 2759SOL    HW119739   1.975   3.622   5.653 -1.1061 -0.1284  0.6477
 2759SOL    HW219740   2.068   3.722   5.696 -0.3566  0.6507 -2.0702
 2760SOL     OW19741   4.014   1.986   6.137 -0.2414 -0.3844 -0.0056
 2760SOL    HW119742   4.090   1.975   6.081  0.5829 -2.4642  1.5197
 2760SOL    HW219743   3.969   2.063   6.102  1.8869  1.2734  0.9143
 2761SOL     OW19744   4.459   3.159  12.295  0.3990 -0.3002  0.1776
 2761SOL    HW119745   4.394   3.219  12.259  1.5409 -0.4093 -2.1020
 2761SOL    HW219746   4.422   3.140  12.381 -1.3605  0.0314 -0.5173
 2762SOL     OW19747   1.774   2.170   0.618  0.0740 -0.3300  0.2070
 2762SOL    HW119748   1.813   2.095   0.662 -0.1462 -0.5779 -0.0156
 2762SOL    HW219749   1.762   2.127   0.533 -2.1695 -0.2165  0.4580
 2763SOL     OW19750   2.851   3.127   5.858  0.1701 -0.2437  0.1405
 2763SOL    HW119751   2.872   3.196   5.796 -2.5987  1.3306  0.9670
 2763SOL    HW219752   2.932   3.124   5.908  0.0079 -0.8771  0.3704
 2764SOL     OW19753   4.206   1.072   6.099 -0.3909 -0.3171  0.2491
 2764SOL    HW119754   4.217   1.035   6.186 -0.5367  0.1281  0.4522
 2764SOL    HW219755   4.138   1.016   6.059  0.2893 -0.3160 -0.9142
 2765SOL     OW19756   2.012   4.633   3.360 -0.4905  0.2467 -0.0500
 2765SOL    HW119757   1.975   4.643   3.448  0.9956 -0.9495  0.7168
 2765SOL    HW219758   1.964   4.555   3.332  0.9206 -1.4751  2.2812
 2766SOL     OW19759   1.003   1.078   0.626 -0.5435 -0.3531 -0.2752
 2766SOL    HW119760   0.936   1.122   0.677 -2.4050 -0.3498 -2.7352
 2766SOL    HW219761   1.048   1.029   0.695  2.1007  1.1339 -0.9286
 2767SOL     OW19762   3.475   2.818   0.073 -0.1109 -0.0231  0.0219
 2767SOL    HW119763   3.401   2.864   0.115 -0.0303 -0.0145  0.1556
 2767SOL    HW219764   3.542   2.871   0.116  0.2777 -0.4527 -0.0665
 2768SOL     OW19765   4.158   3.847   6.498  0.1802  0.3359  0.6596
 2768SOL    HW119766   4.144   3.905   6.424 -0.1892  1.4085  1.5754
 2768SOL    HW219767   4.103   3.774   6.470 -0.3684  0.8847  0.3101
 2769SOL     OW19768   1.413   0.134  17.333  0.1070  0.0271  0.0450
 2769SOL    HW119769   1.389   0.171  17.417 -2.3762 -1.2320 -0.0972
 2769SOL    HW219770   1.436   0.044  17.356  0.9651  0.2703  0.1264
 2770SOL     OW19771   1.934   4.542   2.669 -0.1993 -0.0996 -0.5154
 2770SOL    HW119772   1.843   4.525   2.648 -0.6286 -2.2251  3.1103
 2770SOL    HW219773   1.970   4.600   2.601 -0.5717  1.4162  0.5654
 2771SOL     OW19774   3.446   0.292   5.468 -0.1264  0.0276  0.1586
 2771SOL    HW119775   3.491   0.375   5.451  0.2846 -0.2453 -0.1060
 2771SOL    HW219776   3.419   0.277   5.377 -0.1301  0.8704  0.0274
 2772SOL     OW19777   2.403   2.145   4.064  0.0591 -0.5542 -0.2514
 2772SOL    HW119778   2.436   2.183   3.982 -0.3710 -1.0139 -0.6298
 2772SOL    HW219779   2.332   2.095   4.025  0.0033 -0.8303  0.2072
 2773SOL     OW19780   0.496   4.087   4.449 -0.0274 -0.3094  0.0575
 2773SOL    HW119781   0.501   4.029   4.525  2.7315  0.1679  0.2422
 2773SOL    HW219782   0.587   4.071   4.423  0.0750 -0.3489  0.4331
 2774SOL     OW19783   0.660   2.841  10.720 -0.2893  0.1603 -0.3219
 2774SOL    HW119784   0.714   2.777  10.767  0.4063  0.2329 -1.0242
 2774SOL    HW219785   0.574   2.799  10.717 -0.2187 -0.1611  2.0249
 2775SOL     OW19786   1.918   2.708   6.661 -1.0884 -0.4372 -0.9937
 2775SOL    HW119787   1.928   2.747   6.748 -1.2051  1.0821 -1.6655
 2775SOL    HW219788   1.940   2.781   6.603 -0.8627 -1.1066 -1.7411
 2776SOL     OW19789   3.592   3.489  12.535 -0.6684 -0.1674  0.2660
 2776SOL    HW119790   3.497   3.497  12.538 -0.7958 -2.5965  3.5070
 2776SOL    HW219791   3.606   3.400  12.568  0.2579 -1.0671 -2.5277
 2777SOL     OW19792   4.701   0.076  11.601 -0.6803  0.0038 -0.6196
 2777SOL    HW119793   4.691   4.702  11.590  1.2362 -0.2304 -0.3047
 2777SOL    HW219794   4.700   0.105  11.510 -1.7548  2.7663  0.2680
 2778SOL     OW19795   1.223   4.466   4.674 -0.2765 -0.5843 -0.0261
 2778SOL    HW119796   1.163   4.484   4.601  0.0243 -1.5154 -0.5093
 2778SOL    HW219797   1.171   4.471   4.754 -2.4969 -1.4963 -1.3911
 2779SOL     OW19798   3.921   3.926   3.226 -0.6512  0.1661 -0.1263
 2779SOL    HW119799   3.948   3.874   3.151 -1.0586 -1.4547  0.8629
 2779SOL    HW219800   3.908   3.850   3.283  2.1644 -1.3717 -1.5754
 2780SOL     OW19801   3.858   0.817   0.344  0.5470  0.1885  0.1338
 2780SOL    HW119802   3.830   0.831   0.254  0.0173  0.8669  0.4014
 2780SOL    HW219803   3.777   0.844   0.388  0.7584  0.7472  0.1841
 2781SOL     OW19804   3.933   0.121   6.797 -0.2286  0.9351  0.1340
 2781SOL    HW119805   3.854   0.129   6.849 -1.1429 -0.6992 -0.9957
 2781SOL    HW219806   3.946   0.028   6.816  0.1361  1.0429  0.4290
 2782SOL     OW19807   1.112   2.245   6.566 -0.6774 -0.4524  0.3107
 2782SOL    HW119808   1.058   2.306   6.617 -0.8363 -1.5569  1.4503
 2782SOL    HW219809   1.045   2.214   6.506  0.7030 -1.2221 -0.8182
 2783SOL     OW19810   3.902   0.563  14.976 -0.0164  1.2067 -0.4937
 2783SOL    HW119811   3.909   0.530  15.066 -0.6691  1.6926 -0.2672
 2783SOL    HW219812   3.807   0.559  14.967  0.2338 -1.4614 -1.6538
 2784SOL     OW19813   1.964   0.437   7.089  0.9095 -0.1122 -0.1690
 2784SOL    HW119814   1.893   0.392   7.045  0.7365 -0.8208  0.8287
 2784SOL    HW219815   2.016   0.359   7.108 -0.2573 -0.6831  0.6904
 2785SOL     OW19816   4.550   3.623   6.048  0.1767 -1.5154  0.5546
 2785SOL    HW119817   4.637   3.601   6.015 -1.9749 -3.9606 -3.4839
 2785SOL    HW219818   4.495   3.617   5.969 -0.6526 -2.0958  1.1800
 2786SOL     OW19819   2.868   0.282   5.804  0.8671 -0.7818  0.1477
 2786SOL    HW119820   2.826   0.294   5.718  0.3627  0.3811  0.5540
 2786SOL    HW219821   2.936   0.349   5.806 -2.2406  2.3863  1.3374
 2787SOL     OW19822   3.793   0.134  11.069  0.8899  0.2111  0.2808
 2787SOL    HW119823   3.858   0.085  11.019  1.0450  1.1110 -0.4104
 2787SOL    HW219824   3.710   0.098  11.039  0.6767  1.8903 -1.1347
 2788SOL     OW19825   4.192   2.808   7.188 -0.0039  0.1478 -0.3719
 2788SOL    HW119826   4.246   2.793   7.265  0.6754  0.5652 -0.7663
 2788SOL    HW219827   4.112   2.842   7.226  1.1494  2.3844  0.0790
 2789SOL     OW19828   4.174   4.561   2.848  0.2699 -0.3915 -0.2401
 2789SOL    HW119829   4.258   4.608   2.846 -0.0050  0.1262  0.3268
 2789SOL    HW219830   4.184   4.512   2.929 -0.5295 -2.0376 -1.1411
 2790SOL     OW19831   2.518   4.586   1.879 -0.0765  0.3174  0.5453
 2790SOL    HW119832   2.461   4.510   1.864  0.9326 -0.2119 -0.5456
 2790SOL    HW219833   2.595   4.563   1.828 -0.8122 -1.3033  0.1543
 2791SOL     OW19834   2.397   4.396   2.913  0.2126  0.0909 -0.0702
 2791SOL    HW119835   2.311   4.420   2.878 -0.8506 -0.1357  2.4061
 2791SOL    HW219836   2.377   4.331   2.980 -0.2341  1.7877  1.4374
 2792SOL     OW19837   1.762   1.171  12.164  0.3209  0.4158  0.3131
 2792SOL    HW119838   1.676   1.164  12.123  0.2825  0.1020  0.4437
 2792SOL    HW219839   1.816   1.162  12.086  1.1748  0.0329  0.9517
 2793SOL     OW19840   4.415   4.426  16.542  0.1253  0.3705 -0.0927
 2793SOL    HW119841   4.471   4.475  16.482  1.1254 -0.6738 -0.0018
 2793SOL    HW219842   4.332   4.461  16.512  0.1139 -0.1144 -0.6244
 2794SOL     OW19843   3.628   4.261   3.495 -0.4870 -0.2063  0.2578
 2794SOL    HW119844   3.611   4.168   3.503 -3.1303  0.2969  0.6683
 2794SOL    HW219845   3.652   4.287   3.584 -1.5730 -1.1344  0.8208
 2795SOL     OW19846   1.463   0.051   5.300 -0.4258  0.1840 -0.1961
 2795SOL    HW119847   1.372   0.067   5.274 -0.2653 -0.6473 -1.2238
 2795SOL    HW219848   1.488   4.713   5.228  0.9800  1.2248 -0.5349
 2796SOL     OW19849   1.531   3.353   4.202  0.4696 -0.2681  0.1482
 2796SOL    HW119850   1.530   3.449   4.207 -1.9595 -0.3123  0.9179
 2796SOL    HW219851   1.437   3.341   4.187  0.4710 -0.8861  0.6609
 2797SOL     OW19852   4.471   0.139   2.297 -0.0336  0.4836  0.3306
 2797SOL    HW119853   4.401   0.188   2.340 -0.2318 -1.7753  2.5564
 2797SOL    HW219854   4.418   0.073   2.252  1.9031 -0.4171 -0.6250
 2798SOL     OW19855   4.055   2.275  16.181 -0.0918  0.6331 -0.4436
 2798SOL    HW119856   4.009   2.227  16.111 -0.3548  0.9840 -0.5112
 2798SOL    HW219857   4.131   2.218  16.194 -0.5652  0.1455  0.2135
 2799SOL     OW19858   2.679   0.402  15.613  0.3260  0.1862 -0.1074
 2799SOL    HW119859   2.667   0.421  15.520  0.4254 -0.4830 -0.2523
 2799SOL    HW219860   2.751   0.458  15.644  0.2575 -0.8968  1.9271
 2800SOL     OW19861   2.078   3.112  12.540 -0.6186 -0.4281  0.0560
 2800SOL    HW119862   1.991   3.088  12.511 -0.0940 -0.6283 -1.3604
 2800SOL    HW219863   2.055   3.180  12.604  0.9162  0.2784 -0.1342
 2801SOL     OW19864   4.425   3.932   5.872 -0.1105  0.1596 -0.2020
 2801SOL    HW119865   4.504   3.877   5.874 -1.3642 -1.6466  0.5941
 2801SOL    HW219866   4.439   3.976   5.956  0.1389  0.9113 -0.6389
 2802SOL     OW19867   0.489   2.299   0.879  0.0354  0.1569 -0.2025
 2802SOL    HW119868   0.409   2.350   0.898 -1.3642 -1.7456 -0.9997
 2802SOL    HW219869   0.447   2.214   0.865  1.5371 -0.0781 -3.1584
 2803SOL     OW19870   2.392   2.761   8.304  0.4789  0.1611  0.3291
 2803SOL    HW119871   2.460   2.699   8.330 -0.7135 -1.4466 -0.4024
 2803SOL    HW219872   2.316   2.732   8.355  0.4864 -2.1533 -0.9770
 2804SOL     OW19873   3.845   1.270  17.603  0.3713 -0.5373 -0.1492
 2804SOL    HW119874   3.868   1.329  17.531 -2.0731  0.3442 -0.2128
 2804SOL    HW219875   3.920   1.211  17.596  1.8556  1.3022  0.3911
 2805SOL     OW19876   1.189   1.180   4.639 -0.2609 -0.1291 -0.5605
 2805SOL    HW119877   1.257   1.114   4.626  0.4584  0.1623  1.7377
 2805SOL    HW219878   1.130   1.136   4.701 -0.1314  0.8025  0.2190
 2806SOL     OW19879   2.173   0.064   5.957  0.2521 -0.0684 -0.5642
 2806SOL    HW119880   2.174   0.104   6.044  3.0090  0.8607 -1.0257
 2806SOL    HW219881   2.113   0.111   5.899 -0.0553 -1.1272 -1.1062
 2807SOL     OW19882   0.545   4.547  10.241 -0.1240  0.4779  0.0084
 2807SOL    HW119883   0.603   4.616  10.273  0.7308  0.7272 -2.1218
 2807SOL    HW219884   0.609   4.500  10.187  1.8618 -0.8368  3.4696
 2808SOL     OW19885   1.916   1.958   5.432 -0.2681  0.5607  0.4114
 2808SOL    HW119886   1.844   1.946   5.370 -0.2106  1.7946  0.1115
 2808SOL    HW219887   1.896   1.890   5.497  0.8070  1.1171  1.3232
 2809SOL     OW19888   1.282   1.567   1.016  0.3056  0.3624 -0.3966
 2809SOL    HW119889   1.289   1.473   1.031  0.2742  0.6784  1.5759
 2809SOL    HW219890   1.367   1.595   1.049  0.3652  1.9150 -1.8905
 2810SOL     OW19891   2.209   1.001   5.132  1.1089  0.1438  0.0996
 2810SOL    HW119892   2.181   0.915   5.101 -1.3536  0.0627  2.5538
 2810SOL    HW219893   2.121   1.037   5.147  0.9507 -0.4225  0.5338
 2811SOL     OW19894   1.573   2.595  17.171  0.3255  0.3642  0.1133
 2811SOL    HW119895   1.582   2.684  17.205 -0.7891  0.7019 -0.4831
 2811SOL    HW219896   1.604   2.543  17.246 -0.9458 -1.0514 -0.3404
 2812SOL     OW19897   1.920   0.775  11.861 -0.4477 -0.1128 -0.3948
 2812SOL    HW119898   1.872   0.838  11.916 -0.8680 -1.0744  0.3430
 2812SOL    HW219899   1.976   0.725  11.920  1.1349  0.8447 -1.0959
 2813SOL     OW19900   4.550   2.751   3.661 -0.4193 -0.3115  0.2006
 2813SOL    HW119901   4.498   2.831   3.668 -0.3997 -0.2304 -0.5461
 2813SOL    HW219902   4.480   2.686   3.674  0.6628 -1.4849  0.1184
 2814SOL     OW19903   0.675   1.810   5.356  0.1707 -0.3538 -0.1878
 2814SOL    HW119904   0.702   1.741   5.296 -2.6146 -1.2279 -0.4299
 2814SOL    HW219905   0.648   1.882   5.298  0.5608  0.6200  0.8374
 2815SOL     OW19906   0.503   3.071  10.848 -0.2638  0.1339 -0.2916
 2815SOL    HW119907   0.476   3.149  10.799  1.8251  0.5602 -0.7454
 2815SOL    HW219908   0.548   3.018  10.783 -0.7914 -0.7723  0.0856
 2816SOL     OW19909   1.196   0.546   5.726  0.1161 -0.0346 -0.4132
 2816SOL    HW119910   1.142   0.584   5.656 -2.3935 -2.6323  0.0788
 2816SOL    HW219911   1.263   0.508   5.669 -2.0503 -2.3499 -1.4203
 2817SOL     OW19912   2.549   0.931   3.395 -0.4460 -0.7963 -0.2580
 2817SOL    HW119913   2.577   0.873   3.465  0.5119  0.0381  0.0547
 2817SOL    HW219914   2.515   0.879   3.322  2.0002  0.1824 -2.1180
 2818SOL     OW19915   4.668   0.676   7.908  0.3188 -0.4833 -0.3052
 2818SOL    HW119916   4.647   0.761   7.946 -0.5849 -1.1098  0.5908
 2818SOL    HW219917   4.595   0.650   7.852 -1.8386 -0.2406  2.4004
 2819SOL     OW19918   0.576   3.865  15.285  0.6021 -0.4131  0.1790
 2819SOL    HW119919   0.555   3.917  15.363  2.2473 -0.9745  0.9874
 2819SOL    HW219920   0.645   3.812  15.324  1.6508  0.0052 -1.0997
 2820SOL     OW19921   1.959   2.574  17.218 -0.3029  0.0610 -0.1327
 2820SOL    HW119922   1.999   2.547  17.300  0.4697  0.7659 -0.2774
 2820SOL    HW219923   2.028   2.631  17.185 -1.3056  1.6178  0.4699
 2821SOL     OW19924   3.154   4.189   8.980  0.2730 -0.4017 -0.1045
 2821SOL    HW119925   3.141   4.259   9.043 -1.5092 -1.9604  1.2520
 2821SOL    HW219926   3.087   4.123   8.997  1.9604 -1.9465  0.5355
 2822SOL     OW19927   0.451   1.110  17.340 -0.0197 -0.2617 -0.2397
 2822SOL    HW119928   0.465   1.113  17.435 -1.8348 -1.0706  0.0366
 2822SOL    HW219929   0.422   1.019  17.330  1.3507 -0.7350  0.0388
 2823SOL     OW19930   0.854   1.148   7.645 -0.2166 -0.2126  0.0681
 2823SOL    HW119931   0.767   1.187   7.658 -0.7854 -0.0458 -4.4124
 2823SOL    HW219932   0.852   1.082   7.715 -3.0936  0.4324  0.6238
 2824SOL     OW19933   3.836   3.305   6.929 -0.1240 -0.4726 -0.1661
 2824SOL    HW119934   3.806   3.358   6.855 -0.5379  0.5854  0.7603
 2824SOL    HW219935   3.917   3.273   6.890  0.6909 -0.2816  1.3646
 2825SOL     OW19936   0.634   1.616   6.843  0.0499 -0.0118  0.2852
 2825SOL    HW119937   0.631   1.602   6.749  1.1149  0.8993  0.1208
 2825SOL    HW219938   0.707   1.563   6.873  0.1302 -0.5176 -0.8044
 2826SOL     OW19939   3.855   1.956   5.283  0.0985 -0.3745 -0.5810
 2826SOL    HW119940   3.770   1.911   5.284 -0.9563  1.6307  0.2363
 2826SOL    HW219941   3.893   1.924   5.201 -0.4264 -0.6280 -0.7292
 2827SOL     OW19942   1.139   2.759   2.427 -0.1715 -0.2389  0.1650
 2827SOL    HW119943   1.150   2.710   2.509  2.7213 -0.1291 -0.1597
 2827SOL    HW219944   1.228   2.792   2.411 -1.9575  4.4336  0.0596
 2828SOL     OW19945   1.730   1.616   6.640 -0.3335  0.0786 -0.2769
 2828SOL    HW119946   1.816   1.640   6.605  0.3731 -1.0227  0.6694
 2828SOL    HW219947   1.713   1.532   6.597  1.6760 -0.6274  0.2883
 2829SOL     OW19948   4.148   4.022   8.749 -0.1217 -0.2196 -0.0134
 2829SOL    HW119949   4.114   3.986   8.831  1.9775 -1.3522  0.3708
 2829SOL    HW219950   4.124   3.957   8.683  1.0125  0.2388 -0.8836
 2830SOL     OW19951   1.243   3.258   3.209  0.3697 -0.1710  0.4760
 2830SOL    HW119952   1.207   3.190   3.266 -0.0723 -1.3948 -1.2637
 2830SOL    HW219953   1.226   3.331   3.270  0.4622 -1.1399  1.6619
 2831SOL     OW19954   3.852   4.198   9.516 -0.8050  0.1392 -0.0596
 2831SOL    HW119955   3.856   4.220   9.609  2.4868  0.7501 -0.3445
 2831SOL    HW219956   3.930   4.230   9.471 -0.2247 -0.2895  0.6479
 2832SOL     OW19957   0.036   1.277   8.229  0.6576  0.0958 -0.1011
 2832SOL    HW119958   0.075   1.227   8.300  3.2674  0.2354 -1.4554
 2832SOL    HW219959   0.001   1.203   8.181  0.1377 -0.2552  0.8068
 2833SOL     OW19960   0.474   1.187   3.028 -0.1762 -0.1766 -0.3598
 2833SOL    HW119961   0.455   1.095   3.047  1.2704 -0.4499 -0.2106
 2833SOL    HW219962   0.447   1.178   2.937 -1.4159  0.1477 -0.0126
 2834SOL     OW19963   3.347   3.245   3.876  0.4058  0.0705  0.2949
 2834SOL    HW119964   3.371   3.194   3.798 -1.6435  0.9879 -0.9376
 2834SOL    HW219965   3.309   3.324   3.837  4.3429  1.7859 -0.0729
 2835SOL     OW19966   2.433   3.056  16.844  0.6828 -0.0229  0.1144
 2835SOL    HW119967   2.524   3.081  16.854  1.0484 -1.8312  1.2577
 2835SOL    HW219968   2.402   3.132  16.795  1.4349 -1.5693 -2.8239
 2836SOL     OW19969   0.748   3.767   8.694  0.5405 -0.3876  0.1468
 2836SOL    HW119970   0.707   3.851   8.674  2.5928  0.1890 -1.6635
 2836SOL    HW219971   0.756   3.774   8.789  0.8668  0.9670  0.0138
 2837SOL     OW19972   1.933   1.348   9.073 -0.2505 -0.2095 -0.1919
 2837SOL    HW119973   1.966   1.299   9.148  1.1111  0.2936 -0.4607
 2837SOL    HW219974   1.891   1.416   9.127 -0.5064 -0.2890 -0.2907
 2838SOL     OW19975   0.358   3.288  12.984  0.0362 -0.5153 -0.1699
 2838SOL    HW119976   0.357   3.193  12.974  0.8837 -0.4432 -0.9574
 2838SOL    HW219977   0.369   3.309  12.891 -1.2841 -1.1701 -0.4735
 2839SOL     OW19978   0.725   1.331   3.855 -0.1751 -0.0144 -0.5880
 2839SOL    HW119979   0.631   1.329   3.873  0.0456 -2.2557  0.3744
 2839SOL    HW219980   0.753   1.388   3.927 -0.2452 -1.6256  0.7276
 2840SOL     OW19981   4.402   0.840   5.492  0.2383 -0.0050  0.4532
 2840SOL    HW119982   4.405   0.932   5.467  2.2845 -1.0312 -2.9948
 2840SOL    HW219983   4.456   0.838   5.571 -0.2396  1.3151  0.8248
 2841SOL     OW19984   0.831   4.712   0.387 -0.5156  0.0361  0.0714
 2841SOL    HW119985   0.860   4.621   0.385 -1.2976 -0.1876 -0.8245
 2841SOL    HW219986   0.889   0.039   0.448  1.3338 -0.4526 -1.3023
 2842SOL     OW19987   3.590   1.837  12.631 -0.0664 -1.0890  0.3173
 2842SOL    HW119988   3.658   1.785  12.673  2.7127 -1.2249 -4.2881
 2842SOL    HW219989   3.517   1.858  12.689  2.2725  1.3649  2.3297
 2843SOL     OW19990   3.823   4.363   3.357 -0.2988 -0.1569 -0.0937
 2843SOL    HW119991   3.795   4.327   3.272 -0.9031  0.9012 -0.3396
 2843SOL    HW219992   3.762   4.324   3.419 -0.6345 -1.1057 -1.0112
 2844SOL     OW19993   2.582   2.526   0.238  0.5042  0.1316 -0.1912
 2844SOL    HW119994   2.627   2.486   0.163 -0.1939  0.9597 -1.0626
 2844SOL    HW219995   2.527   2.593   0.196  0.2437  0.7304  1.1257
 2845SOL     OW19996   4.053   2.523   8.359 -0.0737 -0.2153 -0.0459
 2845SOL    HW119997   4.055   2.428   8.372 -0.4604 -0.2698 -0.3722
 2845SOL    HW219998   3.998   2.529   8.281  1.1329  0.3903 -0.8486
 2846SOL     OW19999   0.290   3.944   1.939  0.4040  0.3754  0.1975
 2846SOL    HW120000   0.381   3.953   1.913  0.9914 -1.6175  1.5700
 2846SOL    HW220001   0.293   3.865   1.992 -1.7428 -1.0560 -1.7676
 2847SOL     OW20002   3.952   0.058   8.452  0.2593  1.1557  0.2023
 2847SOL    HW120003   3.859   0.037   8.464  0.1648  0.7270 -1.2495
 2847SOL    HW220004   3.937   0.152   8.440 -1.3358  1.0808  1.5654
 2848SOL     OW20005   0.586   2.757  13.618 -0.3067 -0.3330  0.2080
 2848SOL    HW120006   0.537   2.802  13.687  0.2079  0.3788  0.1126
 2848SOL    HW220007   0.673   2.797  13.614 -1.5029  1.8409 -3.7696
 2849SOL     OW20008   2.146   1.585   4.065 -0.4826  0.4639  0.0518
 2849SOL    HW120009   2.154   1.529   4.143  0.7784  1.8931  0.9371
 2849SOL    HW220010   2.235   1.619   4.061 -1.5809  3.3909  0.5158
 2850SOL     OW20011   2.214   2.664   2.092 -0.3246  0.0803 -0.2193
 2850SOL    HW120012   2.252   2.585   2.129  1.3531  1.2323  0.4732
 2850SOL    HW220013   2.294   2.703   2.057 -0.9893 -0.1125 -1.9929
 2851SOL     OW20014   3.134   2.133   0.672 -0.3452  0.0362  0.2020
 2851SOL    HW120015   3.125   2.137   0.767  1.3033  0.4019  0.3304
 2851SOL    HW220016   3.171   2.218   0.649 -2.0040 -0.0748 -2.8714
 2852SOL     OW20017   0.142   4.420   7.271 -0.3522 -0.0756 -0.0346
 2852SOL    HW120018   0.056   4.400   7.234  0.1788  0.5044 -1.5663
 2852SOL    HW220019   0.118   4.401   7.362 -0.4560 -0.2690 -0.1026
 2853SOL     OW20020   1.853   1.824  13.026 -0.4022  0.1256 -0.0132
 2853SOL    HW120021   1.906   1.804  12.950 -1.3054 -0.9586 -0.3656
 2853SOL    HW220022   1.823   1.914  13.012  3.1449  1.1541 -0.8094
 2854SOL     OW20023   1.159   4.505   7.915  0.3532  0.0108 -0.2749
 2854SOL    HW120024   1.254   4.503   7.919  0.3499  1.3445  0.9013
 2854SOL    HW220025   1.140   4.476   8.005 -1.8192 -0.3592 -0.8430
 2855SOL     OW20026   0.829   0.400   2.809 -0.6257  0.2246 -0.0603
 2855SOL    HW120027   0.848   0.357   2.892  0.2882  0.3894 -0.1861
 2855SOL    HW220028   0.733   0.400   2.810 -0.6278  0.1479 -0.2643
 2856SOL     OW20029   0.435   3.061  12.815 -0.3822  0.2916  0.7442
 2856SOL    HW120030   0.393   3.135  12.772 -1.6833 -1.2028 -0.5250
 2856SOL    HW220031   0.512   3.044  12.760  0.8016  0.2106  2.4169
 2857SOL     OW20032   3.905   2.460   1.436 -0.2578  0.3686  0.1454
 2857SOL    HW120033   3.997   2.448   1.410 -0.3146  1.2229 -0.4421
 2857SOL    HW220034   3.868   2.430   1.353 -1.6223  2.2661  0.0676
 2858SOL     OW20035   3.981   1.096   3.246  0.1384  0.3744 -0.2206
 2858SOL    HW120036   3.932   1.100   3.328  0.9380 -0.2322  0.2883
 2858SOL    HW220037   3.926   1.032   3.201 -0.4339  0.5330  0.2437
 2859SOL     OW20038   2.265   2.826   7.743  0.0786 -0.2995 -0.0643
 2859SOL    HW120039   2.278   2.747   7.796 -1.7947 -1.7339 -1.7298
 2859SOL    HW220040   2.353   2.838   7.706 -1.0618  1.5285 -2.2003
 2860SOL     OW20041   3.119   3.071   4.316 -0.2130 -0.2630  0.4211
 2860SOL    HW120042   3.103   3.152   4.364 -1.0768  0.2633 -0.7620
 2860SOL    HW220043   3.144   3.103   4.229 -1.7947 -0.6634 -0.1828
 2861SOL     OW20044   3.994   3.146  13.469 -0.1045  0.0044  0.0729
 2861SOL    HW120045   4.016   3.200  13.545 -1.9947  3.2128 -1.6477
 2861SOL    HW220046   3.899   3.159  13.467 -0.0613  0.2170 -0.6985
 2862SOL     OW20047   1.203   4.076   5.523 -0.5449  0.0387 -0.1993
 2862SOL    HW120048   1.289   4.087   5.564  0.2628 -0.5874 -1.7149
 2862SOL    HW220049   1.234   4.091   5.433 -0.3944 -1.2190 -0.3538
 2863SOL     OW20050   1.352   2.326   7.550 -0.3094 -0.5802 -0.0082
 2863SOL    HW120051   1.423   2.265   7.568 -0.5190  0.0916  3.0494
 2863SOL    HW220052   1.297   2.309   7.626 -0.4611  1.5894  0.3672
 2864SOL     OW20053   0.509   3.974   1.368 -0.4442 -0.0664 -0.0012
 2864SOL    HW120054   0.545   3.900   1.416  0.0062  0.7751  0.9613
 2864SOL    HW220055   0.592   4.000   1.329 -0.8903 -0.2589 -1.0813
 2865SOL     OW20056   2.542   0.752  12.877 -0.1933 -0.1355  0.3286
 2865SOL    HW120057   2.498   0.820  12.827  3.2155  0.6001 -1.7224
 2865SOL    HW220058   2.467   0.706  12.913  1.1941 -0.8268  2.3168
 2866SOL     OW20059   2.547   2.043   0.630 -0.2248 -0.4402 -0.2268
 2866SOL    HW120060   2.525   2.079   0.716 -1.3766  1.2835 -1.2244
 2866SOL    HW220061   2.640   2.061   0.619 -0.3024 -1.2853 -2.2362
 2867SOL     OW20062   2.965   4.089   6.595  0.0757  0.2728 -0.0251
 2867SOL    HW120063   3.057   4.114   6.598  0.3349 -1.0282  2.4949
 2867SOL    HW220064   2.935   4.128   6.513 -1.2866  1.6584  1.1127
 2868SOL     OW20065   3.081   1.957   3.572  0.2152  0.0160  0.2606
 2868SOL    HW120066   3.027   1.926   3.499  1.1739 -0.3496 -0.2937
 2868SOL    HW220067   3.045   1.912   3.648 -1.5102  0.6398 -0.1919
 2869SOL     OW20068   0.857   0.476  12.265  0.3746 -0.3936 -0.0026
 2869SOL    HW120069   0.838   0.446  12.354  0.5082 -0.4682  0.0015
 2869SOL    HW220070   0.772   0.498  12.227  0.8405  1.2156 -0.1298
 2870SOL     OW20071   4.620   1.597   1.515 -0.0094  0.0583 -0.4304
 2870SOL    HW120072   4.537   1.591   1.467  0.0384 -1.8680 -0.2849
 2870SOL    HW220073   4.651   1.514   1.478  0.0787  0.2081 -0.6941
 2871SOL     OW20074   1.213   1.389   1.720 -0.1516 -0.0341  0.4994
 2871SOL    HW120075   1.178   1.437   1.644 -3.5081 -0.3366  1.8423
 2871SOL    HW220076   1.240   1.305   1.683  0.6776 -0.2913  1.7212
 2872SOL     OW20077   2.963   4.101   4.277  0.2179  0.2972  0.2462
 2872SOL    HW120078   2.938   4.122   4.186 -0.5103 -0.7725  0.2108
 2872SOL    HW220079   3.043   4.049   4.267  1.0142  1.3107  1.3347
 2873SOL     OW20080   4.541   2.034   7.412 -0.1247 -0.1164  0.6947
 2873SOL    HW120081   4.449   2.025   7.436 -0.1100  2.7532  1.9273
 2873SOL    HW220082   4.535   1.988   7.328 -2.0468  0.3885  0.5443
 2874SOL     OW20083   1.783   0.553   5.810  0.5847  0.1586 -0.0687
 2874SOL    HW120084   1.806   0.465   5.782  0.1653 -1.2208  3.8547
 2874SOL    HW220085   1.872   0.589   5.812  0.0754  1.4239 -0.1718
 2875SOL     OW20086   1.051   2.416   8.245  0.2220 -0.0771  0.3071
 2875SOL    HW120087   0.970   2.386   8.286  1.1367 -0.7404  1.6297
 2875SOL    HW220088   1.086   2.466   8.318  2.0952  2.6780 -2.4804
 2876SOL     OW20089   3.579   3.629   6.698 -0.1456 -0.3982  0.1229
 2876SOL    HW120090   3.506   3.679   6.661 -0.8157 -0.3692  1.4705
 2876SOL    HW220091   3.530   3.552   6.724 -0.7898  0.4112  1.3263
 2877SOL     OW20092   3.011   4.718   2.627 -0.3610  0.0438 -0.0079
 2877SOL    HW120093   2.939   0.036   2.577 -0.0269 -2.9969 -2.7670
 2877SOL    HW220094   2.972   4.658   2.689  3.1646 -1.3165  0.9113
 2878SOL     OW20095   4.117   2.352   3.874 -0.1355 -0.0731 -0.3072
 2878SOL    HW120096   4.209   2.362   3.852  0.8219 -0.2404  3.7166
 2878SOL    HW220097   4.087   2.319   3.789 -0.7578  1.6058 -0.7408
 2879SOL     OW20098   1.959   2.395   2.853  0.2562 -0.0246  0.1976
 2879SOL    HW120099   2.032   2.399   2.791 -0.1664  0.1220 -0.2932
 2879SOL    HW220100   1.979   2.312   2.895 -0.5818 -0.5721 -0.4854
 2880SOL     OW20101   1.343   3.070  13.180 -0.5122  0.1147  0.4841
 2880SOL    HW120102   1.375   2.982  13.158 -0.9745 -0.4845  2.2183
 2880SOL    HW220103   1.250   3.057  13.164 -0.5310 -1.0559  1.5491
 2881SOL     OW20104   4.628   1.505   4.846 -0.3101 -0.4871 -0.0373
 2881SOL    HW120105   4.658   1.417   4.825  2.0200 -0.0644  1.5621
 2881SOL    HW220106   4.708   1.557   4.834  0.9944 -3.0856 -2.5534
 2882SOL     OW20107   1.481   0.317   2.749  0.2046  0.6355 -0.0630
 2882SOL    HW120108   1.528   0.329   2.667  0.9699 -0.7514  0.1877
 2882SOL    HW220109   1.398   0.364   2.739  0.6591  0.7786 -3.1868
 2883SOL     OW20110   0.542   4.135   6.417  0.4708 -0.4932  0.0562
 2883SOL    HW120111   0.631   4.099   6.421  0.5202 -0.2313  1.3927
 2883SOL    HW220112   0.516   4.113   6.328 -0.2688  1.2046 -0.1382
 2884SOL     OW20113   1.768   4.214   8.687 -0.5443  0.3212  0.2524
 2884SOL    HW120114   1.726   4.300   8.692 -0.4732  0.4218 -0.8279
 2884SOL    HW220115   1.788   4.190   8.777 -1.7456  0.0509  0.4426
 2885SOL     OW20116   2.171   4.506  11.888 -0.0767  0.4105  0.2378
 2885SOL    HW120117   2.167   4.508  11.984  2.4903  0.6430  0.3324
 2885SOL    HW220118   2.080   4.487  11.866  0.2794 -0.5172 -0.4559
 2886SOL     OW20119   1.341   2.004   8.296 -0.3688 -0.0077 -0.4491
 2886SOL    HW120120   1.277   1.934   8.287  0.0362 -0.7985  2.7941
 2886SOL    HW220121   1.349   2.010   8.392  0.9027  2.0925 -0.6737
 2887SOL     OW20122   2.848   0.512   3.979  0.3140 -0.0419  0.1436
 2887SOL    HW120123   2.909   0.530   4.050 -0.0366  1.4744  0.0582
 2887SOL    HW220124   2.891   0.559   3.907  2.0655  1.6860  2.3378
 2888SOL     OW20125   3.562   1.207  11.058  0.2160 -0.1832 -0.0213
 2888SOL    HW120126   3.648   1.198  11.017 -0.0881  1.8352 -1.1029
 2888SOL    HW220127   3.584   1.267  11.130  0.1086 -0.6824  0.4303
 2889SOL     OW20128   4.490   0.332   6.252 -0.3688  0.4370  0.0956
 2889SOL    HW120129   4.405   0.375   6.264  0.1253  1.1214  1.1278
 2889SOL    HW220130   4.485   0.283   6.170 -1.7584 -1.4982  1.3590
 2890SOL     OW20131   2.469   1.751  17.040  0.2614 -0.1080  0.3689
 2890SOL    HW120132   2.408   1.677  17.034 -1.1436  1.0097  1.0513
 2890SOL    HW220133   2.445   1.792  16.957  1.4136 -0.3966 -0.1214
 2891SOL     OW20134   2.394   3.247   2.319 -0.1583  0.3360  0.0492
 2891SOL    HW120135   2.319   3.303   2.338 -0.9705 -1.0511  0.9515
 2891SOL    HW220136   2.346   3.176   2.276  1.9756 -0.8058 -0.4301
 2892SOL     OW20137   0.630   3.152   6.925  0.7959  0.2889 -0.8460
 2892SOL    HW120138   0.550   3.201   6.945  0.9239 -0.3381  1.1665
 2892SOL    HW220139   0.607   3.066   6.889 -1.4625  0.3107  0.5077
 2893SOL     OW20140   2.580   2.575   8.425  0.0877  0.2786 -0.6774
 2893SOL    HW120141   2.669   2.608   8.436  0.1995 -0.3008  0.0902
 2893SOL    HW220142   2.550   2.580   8.516  0.7165  0.5973 -0.4904
 2894SOL     OW20143   0.842   1.092  10.293 -0.4149  0.1209 -0.2938
 2894SOL    HW120144   0.806   1.028  10.231  0.6110  0.5349 -1.3171
 2894SOL    HW220145   0.934   1.074  10.311 -0.6666 -0.4566  0.4182
 2895SOL     OW20146   1.809   4.030  16.135  0.2383 -0.2270 -0.1517
 2895SOL    HW120147   1.892   4.050  16.093 -0.5274 -0.5839 -1.8294
 2895SOL    HW220148   1.834   4.068  16.219 -1.6952 -2.1715  1.3002
 2896SOL     OW20149   2.502   2.266   3.826  0.4566 -0.6490 -0.2055
 2896SOL    HW120150   2.498   2.355   3.791  1.7246 -0.2043  0.7533
 2896SOL    HW220151   2.596   2.260   3.847 -0.2128 -1.2014  2.5595
 2897SOL     OW20152   0.917   2.489   4.077 -0.1220 -0.1555 -0.0673
 2897SOL    HW120153   0.827   2.504   4.109  0.4501 -0.4914  1.7121
 2897SOL    HW220154   0.906   2.456   3.988  2.6864 -1.6534  0.1713
 2898SOL     OW20155   0.314   2.543   2.575 -0.2615  0.3649 -0.2816
 2898SOL    HW120156   0.382   2.491   2.618 -0.2601  0.9296  0.4102
 2898SOL    HW220157   0.308   2.615   2.639 -0.6150  1.1176 -1.1592
 2899SOL     OW20158   0.322   2.969   2.438 -0.2450  0.2833 -0.2087
 2899SOL    HW120159   0.409   2.987   2.472  0.1495  1.5185 -1.8749
 2899SOL    HW220160   0.319   2.875   2.455  1.7891  0.1604 -0.5491
 2900SOL     OW20161   1.303   4.232  16.891 -0.3375 -0.0198 -0.4422
 2900SOL    HW120162   1.338   4.294  16.827 -0.5808  0.0155 -0.5398
 2900SOL    HW220163   1.207   4.238  16.886 -0.5502 -3.6189 -0.2328
 2901SOL     OW20164   1.754   1.202  12.586  0.0279 -0.1932  0.6223
 2901SOL    HW120165   1.830   1.166  12.540  0.4912  0.2771  1.0222
 2901SOL    HW220166   1.730   1.266  12.520  0.3517  0.4759  1.1543
 2902SOL     OW20167   2.549   4.405   4.608 -0.1136  0.4526 -0.3428
 2902SOL    HW120168   2.609   4.399   4.534  0.4249 -0.4700  0.1564
 2902SOL    HW220169   2.542   4.500   4.614  0.3531  0.4330  0.5605
 2903SOL     OW20170   1.235   2.052  10.391 -0.2750 -0.1315  0.4849
 2903SOL    HW120171   1.236   2.142  10.360 -1.8224 -0.5488 -0.8092
 2903SOL    HW220172   1.255   2.059  10.484 -2.5885 -0.7034  1.0308
 2904SOL     OW20173   1.162   2.766   9.445  0.5151 -0.0242  0.0376
 2904SOL    HW120174   1.177   2.773   9.539  1.5990 -2.5879  0.0739
 2904SOL    HW220175   1.067   2.757   9.452  0.6817  0.6579  3.0729
 2905SOL     OW20176   3.668   0.722   4.439 -0.3943 -0.0030 -0.4768
 2905SOL    HW120177   3.672   0.813   4.468 -1.1090 -0.0725 -0.1626
 2905SOL    HW220178   3.575   0.716   4.419 -0.7957  0.3376  1.3165
 2906SOL     OW20179   2.563   0.273  14.723 -0.0074  0.0421 -0.1811
 2906SOL    HW120180   2.477   0.229  14.721 -0.1711  0.3238  0.7229
 2906SOL    HW220181   2.615   0.193  14.715 -1.5087 -0.9431 -0.1024
 2907SOL     OW20182   3.246   0.481   6.521  0.1783 -0.5152 -0.5388
 2907SOL    HW120183   3.179   0.494   6.588 -0.0273 -2.5305 -0.3422
 2907SOL    HW220184   3.211   0.405   6.474  1.8542 -0.5113 -1.8157
 2908SOL     OW20185   2.257   0.497   4.098  0.1148 -0.2677 -0.3681
 2908SOL    HW120186   2.268   0.588   4.071 -0.4847 -0.0269  0.1839
 2908SOL    HW220187   2.170   0.505   4.137  0.2702  1.0688 -0.2855
 2909SOL     OW20188   2.054   3.574   3.375 -0.5126 -0.1438 -0.5125
 2909SOL    HW120189   2.075   3.646   3.316 -0.3910  0.3472  0.1344
 2909SOL    HW220190   1.960   3.580   3.394 -1.0265 -2.4271 -2.3127
 2910SOL     OW20191   4.117   1.824   0.863  0.0265  0.6957 -0.5293
 2910SOL    HW120192   4.064   1.751   0.894  2.6324 -0.3417  1.4573
 2910SOL    HW220193   4.055   1.872   0.808 -1.9672 -0.4038  0.7516
 2911SOL     OW20194   0.982   1.475   5.048  0.9423  0.2367 -0.0549
 2911SOL    HW120195   0.948   1.547   4.994  1.5692  0.8050  0.3047
 2911SOL    HW220196   1.039   1.425   4.990 -2.3702 -1.4082 -1.8989
 2912SOL     OW20197   0.724   3.043  14.647  0.2247  0.5560 -0.5426
 2912SOL    HW120198   0.811   3.011  14.622 -0.9734 -1.8754 -1.5606
 2912SOL    HW220199   0.751   3.131  14.673 -0.2542 -0.1466  2.2631
 2913SOL     OW20200   0.929   4.335  10.463 -0.5741 -0.1738 -0.2084
 2913SOL    HW120201   0.868   4.393  10.508 -0.9536  1.7317 -3.1708
 2913SOL    HW220202   0.999   4.332  10.529 -1.2319  1.2364  0.5452
 2914SOL     OW20203   1.785   1.718   8.555  0.5260  0.4289  0.4400
 2914SOL    HW120204   1.827   1.745   8.636  1.5078 -0.4639  0.2233
 2914SOL    HW220205   1.826   1.635   8.533 -1.2340 -0.6502  1.1869
 2915SOL     OW20206   0.146   1.756   3.806 -0.1295  0.4270 -0.2075
 2915SOL    HW120207   0.135   1.842   3.846  1.1601  0.4700  0.0454
 2915SOL    HW220208   0.239   1.739   3.795  0.3031  2.3446  0.4794
 2916SOL     OW20209   0.272   2.731   5.147 -0.2438  0.5664 -0.0303
 2916SOL    HW120210   0.199   2.747   5.088  0.4302 -2.4059 -1.6834
 2916SOL    HW220211   0.354   2.731   5.097 -0.7571  1.8926 -0.8775
 2917SOL     OW20212   3.582   4.596   7.607  0.3903 -0.4020 -0.0976
 2917SOL    HW120213   3.503   4.646   7.587 -0.6681 -1.3989  1.5517
 2917SOL    HW220214   3.577   4.587   7.702 -0.1725 -2.9091 -0.3629
 2918SOL     OW20215   3.924   3.059  17.659 -0.2522 -0.2163 -0.0717
 2918SOL    HW120216   3.972   3.058   0.060 -0.7358  2.3182  0.2195
 2918SOL    HW220217   3.993   3.026  17.601 -1.1708 -1.0106 -0.7120
 2919SOL     OW20218   0.035   2.808  17.157 -0.0753 -0.0615 -0.5552
 2919SOL    HW120219   0.100   2.811  17.227 -1.0180 -2.0396  0.4031
 2919SOL    HW220220   4.673   2.804  17.207 -0.1405 -0.5731 -0.7032
 2920SOL     OW20221   0.399   2.984   8.943 -0.0040  0.4611  0.3184
 2920SOL    HW120222   0.494   2.996   8.940  0.4367 -3.6668 -2.2229
 2920SOL    HW220223   0.374   3.010   8.854 -2.1704  0.4170  0.9136
 2921SOL     OW20224   2.170   1.491   7.774  0.3402 -0.0780  0.3619
 2921SOL    HW120225   2.105   1.438   7.820 -1.4185  0.4845 -1.4878
 2921SOL    HW220226   2.131   1.578   7.777  1.6798  0.4410  2.8422
 2922SOL     OW20227   2.867   1.790   7.487  0.1770 -0.8477 -0.3765
 2922SOL    HW120228   2.816   1.785   7.406 -0.9391  1.9840  0.1551
 2922SOL    HW220229   2.840   1.878   7.513  0.9651 -0.4393 -0.9456
 2923SOL     OW20230   1.553   4.569   5.782  0.0969 -0.1374 -0.1738
 2923SOL    HW120231   1.484   4.630   5.756 -1.3632 -2.0581 -0.7907
 2923SOL    HW220232   1.527   4.551   5.873 -0.8041 -0.8155 -0.5711
 2924SOL     OW20233   4.331   1.952   5.469 -0.4477  0.0390 -0.3790
 2924SOL    HW120234   4.261   1.889   5.456  0.7189 -1.3717  0.0822
 2924SOL    HW220235   4.394   1.936   5.399 -1.6637  1.5384 -1.8204
 2925SOL     OW20236   0.527   2.146   7.296  0.1285  0.0718 -0.4460
 2925SOL    HW120237   0.472   2.216   7.261  0.4600  0.8185  0.5131
 2925SOL    HW220238   0.457   2.097   7.340 -1.1875  2.6474  0.2962
 2926SOL     OW20239   1.644   4.709   3.932 -0.1430 -0.4913 -0.2640
 2926SOL    HW120240   1.574   0.023   3.988 -0.2741 -1.2673  0.0348
 2926SOL    HW220241   1.642   0.044   3.853 -0.7811 -0.4242 -0.1981
 2927SOL     OW20242   4.481   1.699   0.742 -0.3248 -0.3088  0.7233
 2927SOL    HW120243   4.420   1.681   0.672 -1.4329  1.6407  1.1804
 2927SOL    HW220244   4.421   1.708   0.816 -3.3420  0.5226 -1.8349
 2928SOL     OW20245   1.888   1.996   6.269 -0.1118 -0.1199  0.3943
 2928SOL    HW120246   1.853   2.061   6.330 -2.1837 -0.8822  0.0243
 2928SOL    HW220247   1.902   1.925   6.331  0.6546  0.3568  0.7753
 2929SOL     OW20248   1.138   4.027  12.840 -0.2853  0.5087  1.2700
 2929SOL    HW120249   1.210   3.967  12.858 -0.2404  0.0680 -0.3802
 2929SOL    HW220250   1.069   3.966  12.814 -0.0709  0.1805  1.4648
 2930SOL     OW20251   3.742   3.405   0.475 -0.0713  0.2524 -0.1728
 2930SOL    HW120252   3.668   3.449   0.517 -0.2479 -1.2834  1.1166
 2930SOL    HW220253   3.816   3.463   0.493  0.3766 -0.2637 -0.3223
 2931SOL     OW20254   0.190   0.977   7.539  0.0659 -1.3354 -0.4466
 2931SOL    HW120255   0.175   0.883   7.549 -2.0793 -0.8699  0.6370
 2931SOL    HW220256   0.180   0.988   7.445  1.0682 -1.0277 -0.5150
 2932SOL     OW20257   2.456   1.864   4.804  0.0153 -0.2885 -0.2236
 2932SOL    HW120258   2.453   1.811   4.884  0.7685 -1.4920 -0.9787
 2932SOL    HW220259   2.374   1.835   4.765 -1.2049  0.8387  1.5508
 2933SOL     OW20260   1.099   0.549  10.009  0.1071 -0.3254  0.0691
 2933SOL    HW120261   1.138   0.476  10.057 -1.5653 -1.3070 -0.0713
 2933SOL    HW220262   1.034   0.496   9.963  0.7949 -0.6180 -0.5517
 2934SOL     OW20263   0.024   2.248   5.965  0.4541 -0.1318  0.1422
 2934SOL    HW120264   0.008   2.339   5.939  0.4527 -0.0677  0.3631
 2934SOL    HW220265   0.005   2.204   5.882 -3.3893 -0.7344  1.3434
 2935SOL     OW20266   0.202   3.121   7.144  0.5287  0.4102  0.0226
 2935SOL    HW120267   0.157   3.067   7.079 -0.4084  3.1088 -1.5719
 2935SOL    HW220268   0.151   3.103   7.223 -1.0618  0.3650 -1.0131
 2936SOL     OW20269   2.438   2.994   8.171 -0.2772  0.3283 -0.2958
 2936SOL    HW120270   2.462   3.042   8.251  1.1612 -1.4630  0.3509
 2936SOL    HW220271   2.458   2.904   8.197  0.0265  0.1141 -1.2862
 2937SOL     OW20272   0.908   2.734   7.802 -0.0050 -0.2435  0.1400
 2937SOL    HW120273   0.946   2.789   7.870  0.2290  0.1977 -0.3532
 2937SOL    HW220274   0.817   2.764   7.806 -0.3342 -1.1099 -0.9743
 2938SOL     OW20275   2.825   4.378  16.633  0.0420  0.1453 -0.2837
 2938SOL    HW120276   2.837   4.455  16.689 -0.4966  0.6724 -0.9081
 2938SOL    HW220277   2.899   4.396  16.574 -0.3672 -0.5964 -1.0084
 2939SOL     OW20278   1.286   0.450   9.455  0.4280 -0.2188  0.1179
 2939SOL    HW120279   1.196   0.445   9.424  0.7088 -0.3849 -0.6724
 2939SOL    HW220280   1.338   0.423   9.379  0.9857 -2.5435  1.3116
 2940SOL     OW20281   4.470   0.906  10.054 -0.5361  0.2576 -0.6642
 2940SOL    HW120282   4.450   0.910   9.960  2.3635 -0.6791 -1.3328
 2940SOL    HW220283   4.404   0.840  10.073 -0.4410  0.3129 -0.1368
 2941SOL     OW20284   2.546   0.601   5.674 -0.4000  0.5293  0.0925
 2941SOL    HW120285   2.550   0.638   5.762 -0.8443  1.6022 -0.3405
 2941SOL    HW220286   2.602   0.524   5.685  0.7401  1.0499 -2.0563
 2942SOL     OW20287   3.786   4.161   3.162  1.1675 -0.1590  1.0806
 2942SOL    HW120288   3.829   4.082   3.195 -0.9160 -0.5796  2.8218
 2942SOL    HW220289   3.698   4.125   3.148  1.5096  0.3256 -2.4391
 2943SOL     OW20290   2.213   4.689  14.468  0.3848  0.0091  0.0467
 2943SOL    HW120291   2.190   4.596  14.475 -0.3228  0.1341 -0.5637
 2943SOL    HW220292   2.131   4.714  14.425  0.6788  1.7803  0.5267
 2944SOL     OW20293   0.181   2.902   9.075  0.0281 -0.3214  0.4576
 2944SOL    HW120294   0.209   2.867   9.160  1.7125 -3.5185 -1.4479
 2944SOL    HW220295   0.264   2.945   9.051  0.8417 -2.1439  0.0520
 2945SOL     OW20296   1.552   3.887   5.607 -0.5703 -0.0276  0.2928
 2945SOL    HW120297   1.556   3.802   5.563 -0.8592  0.7292 -1.2047
 2945SOL    HW220298   1.586   3.864   5.693 -0.4617  0.1593  0.2987
 2946SOL     OW20299   1.487   4.245   3.663 -0.5216 -0.3449 -0.1657
 2946SOL    HW120300   1.534   4.289   3.594 -0.1694  0.1491  0.3931
 2946SOL    HW220301   1.560   4.190   3.691 -1.0886 -2.2529 -2.4636
 2947SOL     OW20302   2.309   0.425   7.211 -0.4549  0.2202  0.5065
 2947SOL    HW120303   2.241   0.396   7.271 -3.1082  0.1438 -2.5228
 2947SOL    HW220304   2.285   0.518   7.214 -2.5146 -0.3756  3.1991
 2948SOL     OW20305   4.592   2.279   5.157 -0.1182 -0.3550  0.5072
 2948SOL    HW120306   4.662   2.305   5.098  1.2230 -1.6007  1.5323
 2948SOL    HW220307   4.571   2.361   5.201  0.9970 -0.6482  1.5938
 2949SOL     OW20308   4.696   0.739   4.994 -0.0332 -0.0184  0.1447
 2949SOL    HW120309   4.669   0.656   4.955  1.6405 -0.1701 -0.7281
 2949SOL    HW220310   4.636   0.761   5.065 -2.1969  1.2493 -2.0863
 2950SOL     OW20311   2.062   2.342  12.043 -0.0539 -0.1926  0.7343
 2950SOL    HW120312   2.142   2.308  12.004 -1.7309 -0.1625 -2.7283
 2950SOL    HW220313   1.990   2.300  11.996 -0.2876  1.3753 -0.3474
 2951SOL     OW20314   0.265   2.778   6.976 -0.7183  0.2496  0.1272
 2951SOL    HW120315   0.358   2.785   6.996 -1.2386  3.6157  1.3366
 2951SOL    HW220316   0.239   2.706   7.033  3.4114 -2.0069 -0.8345
 2952SOL     OW20317   0.763   2.377  14.803  0.4300 -0.1188 -0.1209
 2952SOL    HW120318   0.767   2.403  14.711 -0.3789  1.1411  0.1907
 2952SOL    HW220319   0.719   2.452  14.843  0.5468  0.4040 -0.9649
 2953SOL     OW20320   4.300   4.111   3.478  0.4292 -0.6287 -0.3630
 2953SOL    HW120321   4.297   4.029   3.430 -0.1486 -0.2390 -0.9992
 2953SOL    HW220322   4.253   4.172   3.421 -3.5258 -2.1356  1.2919
 2954SOL     OW20323   4.315   3.065   2.651 -0.1254  0.3847 -0.2522
 2954SOL    HW120324   4.261   2.997   2.692 -2.3261  1.4052 -1.4479
 2954SOL    HW220325   4.404   3.043   2.677  0.4423 -1.1440 -3.4586
 2955SOL     OW20326   3.983   2.707   4.968  0.1672 -0.4114 -0.1718
 2955SOL    HW120327   3.995   2.801   4.961  0.5879 -0.4709 -0.2237
 2955SOL    HW220328   4.067   2.689   5.011  1.0375 -0.7865 -2.0583
 2956SOL     OW20329   4.075   2.620   1.680  0.1597  0.2266  0.0699
 2956SOL    HW120330   4.168   2.644   1.687 -0.0917  1.6060 -1.2931
 2956SOL    HW220331   4.091   2.530   1.651  0.1897  0.0991  0.4893
 2957SOL     OW20332   2.987   1.799  15.084  0.0652  0.1681  0.7667
 2957SOL    HW120333   3.030   1.858  15.022 -0.5761 -0.8669 -0.6479
 2957SOL    HW220334   2.926   1.764  15.020 -0.1759  1.7628  0.1382
 2958SOL     OW20335   4.715   2.891   0.355  0.1795  0.2290  0.6763
 2958SOL    HW120336   0.027   2.830   0.422  1.6413 -0.0343 -0.2496
 2958SOL    HW220337   0.055   2.866   0.285 -0.2485 -0.6241  0.6298
 2959SOL     OW20338   1.743   3.984   9.263 -0.1977 -0.2769 -0.0268
 2959SOL    HW120339   1.809   3.932   9.308  0.8660 -0.0909 -1.3771
 2959SOL    HW220340   1.756   4.070   9.302 -3.6684  0.1214  0.3099
 2960SOL     OW20341   1.396   0.039   6.075 -0.9188  0.4409  0.1850
 2960SOL    HW120342   1.394   0.104   6.005 -1.0994 -0.2846 -0.4770
 2960SOL    HW220343   1.472   0.071   6.123 -0.2799 -1.7171  0.6238
 2961SOL     OW20344   1.622   0.469  11.193  0.0753 -0.1898  0.2118
 2961SOL    HW120345   1.602   0.387  11.239  0.7909  0.2818  1.3735
 2961SOL    HW220346   1.715   0.483  11.211  0.0798 -0.3582  0.3222
 2962SOL     OW20347   3.511   2.026   9.460 -0.0046 -0.0008 -0.3285
 2962SOL    HW120348   3.544   2.092   9.399 -1.8947  2.1301  0.8977
 2962SOL    HW220349   3.510   1.945   9.411 -2.1939  0.2819 -0.7554
 2963SOL     OW20350   1.471   3.250   8.422 -0.8019  0.3424 -0.3970
 2963SOL    HW120351   1.542   3.271   8.362 -0.2568 -2.4051 -0.6917
 2963SOL    HW220352   1.444   3.167   8.382  1.0628  0.0853 -1.1077
 2964SOL     OW20353   4.137   3.538   7.594 -0.6918  0.4784 -0.0782
 2964SOL    HW120354   4.115   3.630   7.610 -2.8656 -0.5451  2.9062
 2964SOL    HW220355   4.191   3.543   7.515 -1.0934  2.2767 -0.2352
 2965SOL     OW20356   3.689   0.991   4.477  0.4324  0.0795 -0.6152
 2965SOL    HW120357   3.613   1.013   4.424 -0.7007 -0.5031  0.7732
 2965SOL    HW220358   3.739   1.070   4.454  3.0067 -1.5349 -0.5034
 2966SOL     OW20359   0.763   3.230   8.782  0.0170 -0.1406 -0.3677
 2966SOL    HW120360   0.831   3.204   8.720  1.4172  2.0717  0.2124
 2966SOL    HW220361   0.752   3.321   8.755 -0.3544 -0.9189 -2.7669
 2967SOL     OW20362   3.290   4.093  16.237  0.8860  0.3907  0.2276
 2967SOL    HW120363   3.293   4.000  16.258 -0.7937 -0.2505 -2.5233
 2967SOL    HW220364   3.257   4.135  16.317 -0.2441 -0.5463  0.2537
 2968SOL     OW20365   3.773   3.809   6.355  0.1279  0.0493  0.4145
 2968SOL    HW120366   3.723   3.876   6.403  0.1103  0.9583 -0.8742
 2968SOL    HW220367   3.808   3.867   6.287 -0.2922 -1.9900 -1.5460
 2969SOL     OW20368   3.167   4.173  15.722  0.3794  0.3748  0.6775
 2969SOL    HW120369   3.248   4.200  15.766  0.9479  0.9131 -0.7280
 2969SOL    HW220370   3.183   4.227  15.645 -1.2137  1.1214  0.8685
 2970SOL     OW20371   4.694   2.924  15.438  0.5981 -0.1994  0.3598
 2970SOL    HW120372   4.666   2.899  15.350  0.0320 -0.4708  0.6186
 2970SOL    HW220373   0.006   3.011  15.416  0.4867 -0.0961  0.6112
 2971SOL     OW20374   4.620   0.480   6.548 -0.1334 -0.5169 -0.5090
 2971SOL    HW120375   4.703   0.442   6.521  0.1295 -1.7321  1.9926
 2971SOL    HW220376   4.650   0.566   6.578  1.5447 -2.3143  2.9601
 2972SOL     OW20377   2.734   2.494  14.311  0.0953  0.2860  0.4747
 2972SOL    HW120378   2.728   2.413  14.261  3.4043  0.4567 -0.2270
 2972SOL    HW220379   2.664   2.500  14.376 -1.1058  3.2790 -1.1028
 2973SOL     OW20380   3.794   1.600   5.671  0.0184  0.1994 -0.0845
 2973SOL    HW120381   3.862   1.641   5.618 -0.1777 -1.7758 -1.8667
 2973SOL    HW220382   3.813   1.511   5.641 -2.6998 -0.2596 -0.4211
 2974SOL     OW20383   2.179   0.873  14.520 -0.4972  0.1713 -0.4405
 2974SOL    HW120384   2.088   0.876  14.552 -0.8006 -1.5480 -1.1391
 2974SOL    HW220385   2.211   0.796  14.567  0.5153  0.3942 -0.7817
 2975SOL     OW20386   2.701   0.119  17.550  0.0912 -0.1991  0.1572
 2975SOL    HW120387   2.624   0.172  17.529  0.5696  0.5668  0.3325
 2975SOL    HW220388   2.765   0.190  17.546  1.0732 -1.0336  1.0438
 2976SOL     OW20389   0.387   0.295   8.368 -0.4274 -0.2333 -0.2712
 2976SOL    HW120390   0.319   0.232   8.345  2.6932 -4.0538  0.8706
 2976SOL    HW220391   0.440   0.281   8.290  2.8944 -0.5244  2.0017
 2977SOL     OW20392   4.683   4.295   4.567 -0.1356 -0.1241 -0.2522
 2977SOL    HW120393   4.691   4.290   4.471 -0.8630 -1.2623 -0.2611
 2977SOL    HW220394   0.049   4.318   4.603  0.4597 -0.7652 -1.2406
 2978SOL     OW20395   3.238   3.475   0.963  0.1113 -0.2233 -0.4764
 2978SOL    HW120396   3.157   3.520   0.940  1.2849  0.8659 -2.4826
 2978SOL    HW220397   3.195   3.396   0.995  1.2398 -0.4164  0.5449
 2979SOL     OW20398   0.603   1.878   5.783 -0.2026  0.5195  0.3457
 2979SOL    HW120399   0.682   1.886   5.730  0.9311  0.0501  1.9504
 2979SOL    HW220400   0.534   1.878   5.717 -0.9689 -2.0131  1.1341
 2980SOL     OW20401   0.216   2.968   0.922  1.0343 -0.0284  0.3484
 2980SOL    HW120402   0.301   3.011   0.911  0.9559  0.1049  0.2656
 2980SOL    HW220403   0.158   3.042   0.900  0.6232 -0.7905 -1.1582
 2981SOL     OW20404   2.412   3.938   7.818  0.6486  0.3677 -0.1337
 2981SOL    HW120405   2.492   3.922   7.869  0.7283 -0.2661 -0.4521
 2981SOL    HW220406   2.444   4.006   7.759  1.8488 -0.6166 -0.6435
 2982SOL     OW20407   0.489   0.131   5.611  0.5330 -0.3434 -0.8015
 2982SOL    HW120408   0.526   0.074   5.679 -0.3447 -0.2512 -0.2499
 2982SOL    HW220409   0.482   0.208   5.667  0.4195 -0.0224 -1.2657
 2983SOL     OW20410   0.318   2.933  17.554 -0.2691  0.1435 -0.3303
 2983SOL    HW120411   0.357   3.020  17.549 -2.7213  1.1709 -1.8032
 2983SOL    HW220412   0.383   2.868  17.580 -0.7930 -0.6156 -0.9292
 2984SOL     OW20413   3.419   0.148   4.253  0.1410 -0.2996  0.2543
 2984SOL    HW120414   3.493   0.176   4.306 -1.7513  4.5990  0.3204
 2984SOL    HW220415   3.431   0.212   4.183 -1.1907 -1.5276 -1.1172
 2985SOL     OW20416   4.300   1.224  11.413 -0.4926  0.3672  0.4277
 2985SOL    HW120417   4.279   1.248  11.504 -1.7127 -2.0970  0.8146
 2985SOL    HW220418   4.365   1.289  11.385  0.1864  0.1297  1.4509
 2986SOL     OW20419   3.272   2.128  10.829 -0.0520 -0.5130 -0.0711
 2986SOL    HW120420   3.233   2.192  10.771  0.9720  0.5004  0.3637
 2986SOL    HW220421   3.339   2.081  10.780  0.6055 -0.6338  0.9475
 2987SOL     OW20422   4.064   2.198   9.769 -0.4911 -0.3405  0.3388
 2987SOL    HW120423   3.977   2.203   9.731  0.9311  2.3176 -2.5181
 2987SOL    HW220424   4.065   2.147   9.850  1.0101 -1.4714 -0.3809
 2988SOL     OW20425   3.522   1.479   8.453  0.0029 -0.3934 -0.5463
 2988SOL    HW120426   3.436   1.500   8.418 -0.1347  0.3818  0.2297
 2988SOL    HW220427   3.490   1.455   8.541 -0.6802 -0.2374 -0.7521
 2989SOL     OW20428   0.652   2.165  15.419 -0.4969  0.0700  0.1921
 2989SOL    HW120429   0.615   2.078  15.431  1.9272 -1.0677 -0.6934
 2989SOL    HW220430   0.597   2.202  15.489 -1.0274  1.4999 -0.9946
 2990SOL     OW20431   2.529   2.892  13.851 -0.4814 -0.1635  0.2746
 2990SOL    HW120432   2.553   2.956  13.918  0.4593 -0.2551  0.0352
 2990SOL    HW220433   2.449   2.856  13.888 -0.6443  0.7883  0.8562
 2991SOL     OW20434   4.588   0.490   4.680 -0.2867  0.3360 -0.1704
 2991SOL    HW120435   4.630   0.482   4.766  0.2594  1.8129 -0.2953
 2991SOL    HW220436   4.509   0.536   4.708  0.1933  0.6871  0.6271
 2992SOL     OW20437   3.141   0.002  11.850  0.1039 -0.4170 -0.4034
 2992SOL    HW120438   3.105   0.086  11.881 -2.8664 -1.1541 -1.9146
 2992SOL    HW220439   3.162   0.033  11.762  0.3301  1.6122  0.3525
 2993SOL     OW20440   0.728   0.381   8.749  0.0015  0.0187 -0.2171
 2993SOL    HW120441   0.720   0.390   8.844 -0.5118  0.3037 -0.2914
 2993SOL    HW220442   0.656   0.320   8.734  0.5407 -0.2489 -1.6669
 2994SOL     OW20443   0.400   2.385   1.530  0.4529  0.1194  0.2358
 2994SOL    HW120444   0.325   2.425   1.574  1.9518 -0.0450  2.8912
 2994SOL    HW220445   0.422   2.315   1.591 -0.7922 -0.2620  0.2325
 2995SOL     OW20446   2.399   1.715   1.354  0.3066  0.6181 -1.0122
 2995SOL    HW120447   2.452   1.792   1.336 -1.7300  2.1692 -0.4222
 2995SOL    HW220448   2.334   1.732   1.286 -0.4463 -0.3108 -0.5224
 2996SOL     OW20449   1.433   2.035   8.045  0.4327  0.1842 -0.3801
 2996SOL    HW120450   1.410   2.030   8.138 -0.8591 -1.7415 -0.7966
 2996SOL    HW220451   1.374   2.110   8.037 -0.1758 -0.3052 -0.5232
 2997SOL     OW20452   3.199   0.342   4.035 -0.1876 -0.0949 -0.1731
 2997SOL    HW120453   3.177   0.435   4.050  0.7965  0.3285 -1.3973
 2997SOL    HW220454   3.292   0.349   4.015 -0.2037  0.7040 -0.0074
 2998SOL     OW20455   2.385   4.500  14.960  0.2504  0.0577 -0.0855
 2998SOL    HW120456   2.480   4.483  14.961  0.4985  1.7186  3.2327
 2998SOL    HW220457   2.367   4.498  14.866  0.6167 -1.1379 -0.1367
 2999SOL     OW20458   2.043   3.095   6.748  0.1771 -0.1030  0.4297
 2999SOL    HW120459   2.106   3.025   6.762  1.2898  1.0199  1.1202
 2999SOL    HW220460   1.996   3.051   6.677 -3.4619  0.0473  2.7132
 3000SOL     OW20461   1.595   1.679  14.623 -0.3548 -0.2212 -0.8336
 3000SOL    HW120462   1.670   1.650  14.572  0.9837  2.6162 -0.5038
 3000SOL    HW220463   1.556   1.601  14.663 -0.9176  0.1827 -0.5921
 3001SOL     OW20464   2.974   2.181   1.515  0.0755 -0.5909  0.5741
 3001SOL    HW120465   3.039   2.233   1.563  0.0208 -0.5157  0.5670
 3001SOL    HW220466   2.907   2.173   1.582  0.4288 -1.3327  0.8384
 3002SOL     OW20467   2.038   1.001   1.548  0.1673 -0.3462  0.3034
 3002SOL    HW120468   2.034   0.993   1.643  0.1878  0.8181  0.3965
 3002SOL    HW220469   2.115   0.945   1.537  0.7036  0.0750  1.9901
 3003SOL     OW20470   0.647   4.103  15.728  0.8269 -0.0287 -0.3778
 3003SOL    HW120471   0.668   4.013  15.752  0.9794 -0.5762 -2.5388
 3003SOL    HW220472   0.724   4.152  15.757 -0.5641  1.6926  0.3823
 3004SOL     OW20473   3.488   2.905  16.707  0.2473 -0.4749  0.6060
 3004SOL    HW120474   3.454   2.851  16.778 -0.4762  0.1865  0.7651
 3004SOL    HW220475   3.580   2.896  16.729  1.1001  1.5117 -2.1775
 3005SOL     OW20476   0.312   1.571   0.325 -0.4843 -0.5940  0.5113
 3005SOL    HW120477   0.262   1.489   0.316 -1.7413  0.2184  0.0686
 3005SOL    HW220478   0.245   1.640   0.328  2.3456  2.3549 -3.8700
 3006SOL     OW20479   1.997   4.715   2.459  0.8233  0.3032 -0.4800
 3006SOL    HW120480   1.936   0.069   2.470 -1.9957 -2.3963  2.2646
 3006SOL    HW220481   1.990   4.702   2.365 -0.9498  0.2870 -0.3599
 3007SOL     OW20482   0.167   1.001   2.743 -0.4381 -0.3751  0.5303
 3007SOL    HW120483   0.081   1.034   2.717  0.0262 -0.2970 -0.9089
 3007SOL    HW220484   0.158   1.015   2.837  0.7214 -0.4685  0.6535
 3008SOL     OW20485   0.843   0.998   6.425  0.5199  0.4620  0.2405
 3008SOL    HW120486   0.918   0.947   6.456  2.2539  2.2157 -1.1005
 3008SOL    HW220487   0.872   1.089   6.425  0.2404  0.5442  1.4891
 3009SOL     OW20488   3.844   0.326  11.244  0.1762  0.1757  0.2401
 3009SOL    HW120489   3.939   0.324  11.228  0.5852  0.8727  2.5070
 3009SOL    HW220490   3.808   0.260  11.185  1.7664 -0.3779 -0.1100
 3010SOL     OW20491   4.536   0.984   3.141 -0.5235  0.0857  0.5403
 3010SOL    HW120492   4.479   0.921   3.096 -0.4948  1.9257 -2.1068
 3010SOL    HW220493   4.528   0.950   3.230 -0.4836 -0.3025  0.3996
 3011SOL     OW20494   4.345   0.348   1.054  0.1290  0.1168 -0.3815
 3011SOL    HW120495   4.439   0.329   1.054  0.1307  0.1286  0.3475
 3011SOL    HW220496   4.344   0.425   1.112  1.1607  0.8905 -1.3998
 3012SOL     OW20497   4.513   1.467   3.966 -0.5055  0.0465 -0.0170
 3012SOL    HW120498   4.527   1.555   4.001 -2.1209 -0.0363  0.8493
 3012SOL    HW220499   4.502   1.425   4.051 -0.3046  0.1773  0.0735
 3013SOL     OW20500   4.415   2.969   9.075 -0.3800  0.4412 -0.0104
 3013SOL    HW120501   4.335   2.923   9.097  0.1340 -1.0627 -1.2976
 3013SOL    HW220502   4.442   2.985   9.165 -0.3046  2.3555 -0.3623
 3014SOL     OW20503   1.984   4.491   6.382 -0.0876  0.4109  0.1291
 3014SOL    HW120504   2.061   4.488   6.325 -1.9476  0.2096 -2.3945
 3014SOL    HW220505   1.924   4.459   6.315 -0.5073  4.1886 -1.2742
 3015SOL     OW20506   1.692   2.638  12.405 -0.2259 -0.4522 -0.4356
 3015SOL    HW120507   1.663   2.640  12.496 -1.3246 -1.6454 -0.7563
 3015SOL    HW220508   1.780   2.605  12.423  0.1296  2.5875  3.3363
 3016SOL     OW20509   3.187   2.342   9.026 -0.3803  0.1415  0.0185
 3016SOL    HW120510   3.185   2.317   9.118  2.3151  1.2281  0.3981
 3016SOL    HW220511   3.228   2.270   8.978  0.1637 -0.3466  1.2359
 3017SOL     OW20512   3.364   3.554   6.390  0.2587 -0.2951 -0.4037
 3017SOL    HW120513   3.375   3.468   6.350  3.2379  0.4261 -1.1436
 3017SOL    HW220514   3.359   3.538   6.485  1.4057  0.1336 -0.2678
 3018SOL     OW20515   2.803   3.104   2.590  0.6012  0.3200  0.0993
 3018SOL    HW120516   2.852   3.154   2.655  1.4720  1.8974 -1.7639
 3018SOL    HW220517   2.865   3.036   2.565  0.4695  0.6200 -1.0569
 3019SOL     OW20518   3.013   4.180   9.614 -0.1299  0.7142  0.0450
 3019SOL    HW120519   3.002   4.246   9.682 -2.0419  1.6535 -1.1814
 3019SOL    HW220520   2.923   4.149   9.606  1.1185 -2.4689 -1.8110
 3020SOL     OW20521   3.523   2.758   8.303 -0.4000 -0.1875 -0.0986
 3020SOL    HW120522   3.442   2.779   8.350 -0.9830 -1.8652 -0.3563
 3020SOL    HW220523   3.508   2.666   8.281  0.3404 -0.0592 -1.1424
 3021SOL     OW20524   1.069   2.457   5.917 -0.5331 -0.1294  0.1094
 3021SOL    HW120525   0.989   2.435   5.869  0.0035 -1.6982 -0.0623
 3021SOL    HW220526   1.086   2.376   5.964 -0.1971 -0.5565 -0.7352
 3022SOL     OW20527   0.760   3.115   3.672  0.1591 -0.3359 -0.0332
 3022SOL    HW120528   0.722   3.030   3.691  2.5910 -0.7927  2.7030
 3022SOL    HW220529   0.680   3.164   3.652  0.5658  0.7848  1.0682
 3023SOL     OW20530   4.629   2.041  10.563 -0.6025 -0.1061 -0.5188
 3023SOL    HW120531   4.537   2.043  10.538 -0.4066 -0.1935 -1.2603
 3023SOL    HW220532   4.638   2.102  10.636  0.2623 -0.8072 -0.0349
 3024SOL     OW20533   1.627   2.142   8.297  0.5217 -0.2598  0.4906
 3024SOL    HW120534   1.608   2.230   8.329 -0.5863 -0.8594  1.4582
 3024SOL    HW220535   1.696   2.147   8.231  2.5482  1.1675  2.7184
 3025SOL     OW20536   0.853   2.950   7.231 -0.3709  0.0950  0.0061
 3025SOL    HW120537   0.944   2.973   7.251 -0.4183  2.3069 -2.3811
 3025SOL    HW220538   0.857   2.866   7.185  0.8839  0.1536  0.0119
 3026SOL     OW20539   3.836   4.094   8.530 -0.2303 -0.2455 -0.3335
 3026SOL    HW120540   3.833   4.156   8.457 -3.0849  2.5306  2.1440
 3026SOL    HW220541   3.744   4.070   8.539 -0.0606 -0.1002  1.8061
 3027SOL     OW20542   3.509   3.761   5.801 -0.1921  0.3903  0.0961
 3027SOL    HW120543   3.441   3.708   5.844  0.3905 -0.1350  0.3668
 3027SOL    HW220544   3.466   3.793   5.722 -0.8891 -0.4400  0.1399
 3028SOL     OW20545   4.564   3.031   7.106  0.2577 -0.6063  0.4916
 3028SOL    HW120546   4.650   3.012   7.070  0.7470  0.7563  0.9495
 3028SOL    HW220547   4.531   3.077   7.029  2.5019 -1.6195 -1.0728
 3029SOL     OW20548   0.008   2.867   2.381 -0.5044  0.0932 -0.0151
 3029SOL    HW120549   0.079   2.803   2.379  0.2374  0.8804  0.8857
 3029SOL    HW220550   0.015   2.922   2.304  0.0951  0.3722  0.2398
 3030SOL     OW20551   4.295   4.680   2.160 -0.1785  0.1820  0.1885
 3030SOL    HW120552   4.283   0.003   2.076 -0.2792 -1.1790 -0.4971
 3030SOL    HW220553   4.228   0.005   2.212  0.9211  1.1041  0.7990
 3031SOL     OW20554   3.567   0.120   8.934 -0.5191 -0.0987 -0.0804
 3031SOL    HW120555   3.517   0.111   9.015  1.7906 -1.0465  1.2421
 3031SOL    HW220556   3.645   0.074   8.963  0.1627  1.3385  0.4039
 3032SOL     OW20557   2.059   1.687   1.405  0.3271  0.2018 -0.5553
 3032SOL    HW120558   2.090   1.749   1.339  0.6849  1.5628  0.9039
 3032SOL    HW220559   2.060   1.605   1.354 -2.0163 -0.6909  0.8446
 3033SOL     OW20560   0.324   3.958   9.704 -0.3797  0.3655  0.3136
 3033SOL    HW120561   0.346   4.020   9.773  0.8062  2.2693 -1.7645
 3033SOL    HW220562   0.235   3.985   9.680 -0.0945  0.2152 -0.9299
 3034SOL     OW20563   1.589   1.196   1.178  0.0228 -0.2587  0.3915
 3034SOL    HW120564   1.628   1.215   1.263 -2.0194 -1.4397  1.5852
 3034SOL    HW220565   1.671   1.204   1.129  0.5348 -0.6218  1.1925
 3035SOL     OW20566   2.188   4.373  12.455  0.2140 -0.2563 -0.1400
 3035SOL    HW120567   2.155   4.336  12.536 -0.4360 -1.1067 -0.7912
 3035SOL    HW220568   2.269   4.326  12.437  0.8644  1.1391 -0.8687
 3036SOL     OW20569   0.381   1.993   2.390 -0.6595  0.0967 -0.3538
 3036SOL    HW120570   0.470   1.960   2.385 -1.0358 -0.7915 -1.3191
 3036SOL    HW220571   0.364   1.969   2.481  0.5278 -2.2353 -0.7382
 3037SOL     OW20572   1.072   1.304   9.890 -0.2413 -0.5029  0.0158
 3037SOL    HW120573   1.132   1.229   9.884  0.1763 -0.0956 -1.0739
 3037SOL    HW220574   0.991   1.258   9.907 -0.3356 -0.1387  0.5315
 3038SOL     OW20575   0.452   1.648  12.537  0.1638 -0.2056  0.2928
 3038SOL    HW120576   0.504   1.728  12.534  2.6995 -1.8808 -0.3533
 3038SOL    HW220577   0.441   1.647  12.633  1.5447 -0.1002  0.4573
 3039SOL     OW20578   0.374   0.045   9.104 -0.5523  0.4014 -0.3596
 3039SOL    HW120579   0.301   0.085   9.152  0.1321 -0.2587  1.1949
 3039SOL    HW220580   0.375   0.098   9.024  0.3269 -0.3207 -0.8171
 3040SOL     OW20581   4.382   0.485   4.218  0.0360  0.0478  0.4575
 3040SOL    HW120582   4.421   0.500   4.132  1.0026 -0.9027  0.7224
 3040SOL    HW220583   4.424   0.401   4.238 -0.6513 -0.4748 -0.3188
 3041SOL     OW20584   1.879   2.329   2.045  0.6803 -0.0090 -0.2542
 3041SOL    HW120585   1.791   2.291   2.045  0.4459  0.5366  1.2414
 3041SOL    HW220586   1.914   2.274   1.975 -0.2146  1.2812 -1.7062
 3042SOL     OW20587   3.950   1.458   4.353  0.5057  0.7438  0.5447
 3042SOL    HW120588   3.947   1.533   4.413  0.3561  0.2192  1.1945
 3042SOL    HW220589   3.939   1.510   4.273 -1.4587 -0.2577  0.1536
 3043SOL     OW20590   2.361   2.380   6.135 -0.4180  0.1307  0.1204
 3043SOL    HW120591   2.295   2.324   6.094  0.7857 -0.3349 -1.1599
 3043SOL    HW220592   2.360   2.453   6.072 -0.4096  0.7416  0.8248
 3044SOL     OW20593   4.682   0.075   2.478  0.1241  0.3006  0.2255
 3044SOL    HW120594   0.018   0.013   2.430 -0.6343 -0.4896  0.3682
 3044SOL    HW220595   4.615   0.094   2.412 -0.3952  0.5156  0.8161
 3045SOL     OW20596   1.146   1.076   0.365 -0.3969  0.2790  0.0368
 3045SOL    HW120597   1.114   1.144   0.306 -0.1085 -0.6388 -1.1822
 3045SOL    HW220598   1.109   1.107   0.447 -1.7619 -0.1738 -0.4124
 3046SOL     OW20599   2.368   2.620   2.761  0.2821 -0.1505  0.4094
 3046SOL    HW120600   2.338   2.709   2.744  3.5907  0.7426 -0.6810
 3046SOL    HW220601   2.461   2.623   2.736 -0.2143  1.6176 -1.2781
 3047SOL     OW20602   2.588   3.016   1.993  1.0198  0.0994 -0.5427
 3047SOL    HW120603   2.509   3.000   2.045  1.4000  1.0834  0.3408
 3047SOL    HW220604   2.588   2.944   1.930  1.7379 -0.5798  0.2146
 3048SOL     OW20605   1.402   1.704   5.368  0.1054 -0.7144  0.3096
 3048SOL    HW120606   1.471   1.651   5.408  0.5769  0.2283  0.7371
 3048SOL    HW220607   1.360   1.639   5.311 -0.3181  0.3404 -0.5700
 3049SOL     OW20608   0.076   4.283  15.154 -0.4260 -0.8961 -0.0890
 3049SOL    HW120609   0.077   4.198  15.197  2.2509 -0.5392  0.5665
 3049SOL    HW220610   0.155   4.327  15.186 -0.7658  0.8955 -1.6903
 3050SOL     OW20611   0.112   0.111   5.511 -0.1905 -0.5160  0.5787
 3050SOL    HW120612   0.081   0.180   5.453  0.7666 -0.5080  0.0738
 3050SOL    HW220613   0.032   0.067   5.539 -0.6746  1.6884  2.6019
 3051SOL     OW20614   0.187   1.568   3.167  0.4551  0.4189  0.0621
 3051SOL    HW120615   0.275   1.536   3.184 -0.2520 -2.2908 -1.4778
 3051SOL    HW220616   0.203   1.659   3.140  0.9921 -0.0662 -1.2198
 3052SOL     OW20617   2.851   0.977   6.380  0.4103 -0.4948 -0.3320
 3052SOL    HW120618   2.927   0.989   6.437  0.8716  1.6564 -1.3733
 3052SOL    HW220619   2.783   0.941   6.437 -0.1192 -0.8160 -1.1530
 3053SOL     OW20620   4.505   4.622   4.228 -0.9162 -0.0025  0.1504
 3053SOL    HW120621   4.511   4.699   4.286 -1.2883 -0.0014  0.1876
 3053SOL    HW220622   4.461   4.557   4.282 -2.0752  0.0574 -0.7170
 3054SOL     OW20623   4.253   2.146   6.375 -0.1088  0.1382 -0.2161
 3054SOL    HW120624   4.178   2.205   6.385  0.6284  1.0788 -0.2930
 3054SOL    HW220625   4.207   2.064   6.396  0.4162 -0.3240 -0.8903
 3055SOL     OW20626   2.249   2.894   4.391  0.4840 -0.0125 -0.2378
 3055SOL    HW120627   2.245   2.949   4.313 -0.2728 -1.2461 -1.0573
 3055SOL    HW220628   2.343   2.893   4.409  0.9884 -0.3574 -2.9506
 3056SOL     OW20629   2.074   4.009  15.962 -0.4530 -0.6941 -0.1054
 3056SOL    HW120630   2.134   4.029  16.034  0.6855  0.0122 -1.2427
 3056SOL    HW220631   2.097   4.078  15.899 -1.5559 -0.1519  0.0809
 3057SOL     OW20632   3.277   4.067   1.994  0.2446 -0.2728 -0.3488
 3057SOL    HW120633   3.319   4.031   2.072  0.4928 -0.1578 -0.4309
 3057SOL    HW220634   3.191   4.094   2.028  1.9544  0.2942  3.4692
 3058SOL     OW20635   2.014   2.493   6.951  0.5393  0.4549  0.2212
 3058SOL    HW120636   2.040   2.484   7.043 -3.5733  3.2143  1.6736
 3058SOL    HW220637   1.943   2.432   6.933  2.0058 -1.2614  0.2767
 3059SOL     OW20638   1.295   3.787   7.467  0.3737  0.1118 -0.2086
 3059SOL    HW120639   1.365   3.796   7.402 -0.0260 -0.0851 -0.6637
 3059SOL    HW220640   1.227   3.753   7.409 -0.4715  2.1932 -0.4514
 3060SOL     OW20641   4.317   1.975   8.235  0.0559 -0.2916  0.2588
 3060SOL    HW120642   4.345   1.965   8.326  0.8875  0.3073  0.0668
 3060SOL    HW220643   4.260   1.898   8.237 -1.2290  0.6340 -0.2133
 3061SOL     OW20644   0.947   2.741   6.459 -0.1512  1.2005  0.0185
 3061SOL    HW120645   1.006   2.800   6.411 -0.6570  1.7286  0.0450
 3061SOL    HW220646   0.880   2.729   6.392 -2.9193  0.1860  2.9881
 3062SOL     OW20647   1.306   3.971   1.533  0.4173 -0.2143  0.1622
 3062SOL    HW120648   1.272   4.038   1.593 -0.2714  0.9681 -1.5692
 3062SOL    HW220649   1.231   3.957   1.476 -0.9821  0.2990  1.8805
 3063SOL     OW20650   3.660   2.631   2.344  0.2745  0.2651  0.2289
 3063SOL    HW120651   3.725   2.582   2.394  2.1743  1.4059 -1.1420
 3063SOL    HW220652   3.715   2.654   2.269  0.5495  0.2886  0.4370
 3064SOL     OW20653   0.379   2.283   1.255 -0.3284 -0.5479 -0.1643
 3064SOL    HW120654   0.470   2.279   1.224 -0.5343 -1.2084 -0.6964
 3064SOL    HW220655   0.391   2.326   1.339  1.6708 -0.0907 -0.6773
 3065SOL     OW20656   3.369   0.543   5.294  0.3596 -0.3458 -0.4331
 3065SOL    HW120657   3.376   0.448   5.301 -2.3212 -0.5067 -0.1137
 3065SOL    HW220658   3.302   0.538   5.226  0.3861  0.1409 -0.4930
 3066SOL     OW20659   2.705   4.436   4.113  0.3690 -0.2601  0.1423
 3066SOL    HW120660   2.628   4.464   4.163 -0.0772  1.5482 -1.5469
 3066SOL    HW220661   2.747   4.517   4.085  0.4007 -0.8966 -1.6050
 3067SOL     OW20662   2.158   0.504  10.348  0.0009  0.2552 -0.1182
 3067SOL    HW120663   2.117   0.568  10.406  1.3071  0.9632  0.0028
 3067SOL    HW220664   2.091   0.435  10.351 -0.2471  0.5302  0.5313
 3068SOL     OW20665   2.615   2.518   3.197  0.3038 -0.6570 -0.3935
 3068SOL    HW120666   2.543   2.516   3.135  0.3162 -0.4028 -0.4195
 3068SOL    HW220667   2.647   2.429   3.187 -0.7421 -1.0211 -0.4226
 3069SOL     OW20668   3.351   4.410   7.812  0.0934 -0.1447  0.1119
 3069SOL    HW120669   3.401   4.485   7.844  0.5203 -0.0921 -0.6863
 3069SOL    HW220670   3.262   4.444   7.817 -0.0785  0.0228 -4.1195
 3070SOL     OW20671   2.182   2.333   4.441  0.4015 -0.0380 -0.5462
 3070SOL    HW120672   2.183   2.285   4.524 -0.6402 -0.3454 -0.7184
 3070SOL    HW220673   2.161   2.419   4.475 -0.0791 -0.0539 -0.8040
 3071SOL     OW20674   0.161   0.717   4.793  0.1584 -0.2426  0.1585
 3071SOL    HW120675   0.083   0.719   4.848 -2.1990 -0.7259 -3.1641
 3071SOL    HW220676   0.186   0.625   4.803  1.9214  0.2259 -0.0305
 3072SOL     OW20677   1.265   2.638   6.018 -0.0060  0.4060  0.6141
 3072SOL    HW120678   1.185   2.585   6.025  0.1522  0.1924  0.8514
 3072SOL    HW220679   1.289   2.619   5.928  2.0060  2.9582  0.5939
 3073SOL     OW20680   1.236   4.096  11.556  0.1200  0.4140 -0.9140
 3073SOL    HW120681   1.268   4.007  11.566 -0.9713  0.0380 -0.8213
 3073SOL    HW220682   1.169   4.094  11.624 -0.0451  2.9472 -0.9678
 3074SOL     OW20683   1.414   0.955   2.896  0.2122 -0.0660  0.0645
 3074SOL    HW120684   1.420   1.051   2.899 -1.0588 -0.0074  0.7750
 3074SOL    HW220685   1.380   0.933   2.983 -2.4298  0.5288 -0.8283
 3075SOL     OW20686   3.744   3.487   0.079  0.2967  0.3993  0.0333
 3075SOL    HW120687   3.783   3.408   0.117 -1.1380 -1.6406 -2.7184
 3075SOL    HW220688   3.817   3.527   0.031  1.5399  0.4369  1.9589
 3076SOL     OW20689   3.231   1.987   6.332 -0.3475  0.0718  0.2590
 3076SOL    HW120690   3.277   2.069   6.347  0.8437 -0.7612  1.0700
 3076SOL    HW220691   3.200   1.998   6.242 -0.0050  1.9001  0.3798
 3077SOL     OW20692   0.668   1.592   4.520  0.0376  0.1571 -0.0572
 3077SOL    HW120693   0.746   1.607   4.574 -1.1441 -1.0119  2.0204
 3077SOL    HW220694   0.601   1.623   4.582  0.5014  1.4027 -0.1831
 3078SOL     OW20695   3.181   2.996   5.050  0.0462  0.0096 -0.1793
 3078SOL    HW120696   3.134   2.972   4.970 -0.9005 -0.3760  0.4858
 3078SOL    HW220697   3.216   3.082   5.024 -1.6096 -0.0264 -2.5347
 3079SOL     OW20698   1.007   0.591   8.190 -0.0955 -0.1308  0.1264
 3079SOL    HW120699   0.930   0.577   8.245 -1.0732  0.3189 -1.1361
 3079SOL    HW220700   1.056   0.654   8.244 -0.4134 -0.1116  0.3910
 3080SOL     OW20701   2.883   1.146   7.214  0.5077 -0.3183  0.5026
 3080SOL    HW120702   2.872   1.051   7.223  1.1087 -0.6710 -2.5824
 3080SOL    HW220703   2.852   1.185   7.296 -0.7078  0.7943 -0.4837
 3081SOL     OW20704   3.395   3.632   3.092  0.0608  0.0754  0.5924
 3081SOL    HW120705   3.433   3.665   3.173 -0.3858 -1.4285  1.4152
 3081SOL    HW220706   3.427   3.706   3.040 -2.8779  1.5218  0.8607
 3082SOL     OW20707   0.471   0.155   3.217 -0.3526  0.0536  0.6835
 3082SOL    HW120708   0.440   0.068   3.242  0.0248 -0.3609 -0.2991
 3082SOL    HW220709   0.516   0.178   3.298  1.9873 -0.6891 -0.4184
 3083SOL     OW20710   2.231   0.467  13.850 -0.2443 -0.2990  0.4216
 3083SOL    HW120711   2.215   0.410  13.775 -1.3416  1.4485 -0.6775
 3083SOL    HW220712   2.282   0.413  13.910 -3.4817 -1.7948  1.8464
 3084SOL     OW20713   0.402   4.059   8.562  0.4536  0.1309 -0.1271
 3084SOL    HW120714   0.393   4.097   8.475 -0.6379  0.7780  0.2671
 3084SOL    HW220715   0.454   4.122   8.612 -0.3715 -0.2545  1.2140
 3085SOL     OW20716   0.268   0.627   8.167 -0.3090  0.0810 -0.0469
 3085SOL    HW120717   0.223   0.704   8.131 -1.4919 -1.5398 -2.0471
 3085SOL    HW220718   0.193   0.570   8.182 -0.8253  0.9729  0.7361
 3086SOL     OW20719   0.785   0.240   9.570 -0.3653 -0.1393  0.2179
 3086SOL    HW120720   0.745   0.293   9.639 -1.8800 -0.3869 -0.4847
 3086SOL    HW220721   0.720   0.241   9.500  0.8475  2.4927 -0.8675
 3087SOL     OW20722   1.889   2.185  12.253  0.1069 -0.5926  0.1944
 3087SOL    HW120723   1.909   2.264  12.303 -1.9180  0.4178 -0.6148
 3087SOL    HW220724   1.946   2.213  12.182 -0.5523  0.6610  0.1524
 3088SOL     OW20725   3.641   2.402  16.763 -0.2631 -0.5132 -0.3689
 3088SOL    HW120726   3.553   2.364  16.761 -0.8748  0.8718 -0.1693
 3088SOL    HW220727   3.673   2.348  16.691 -1.2843  2.2159 -2.8505
 3089SOL     OW20728   0.966   1.058   3.686  0.1520 -0.1002 -0.0560
 3089SOL    HW120729   1.054   1.023   3.702  0.6622  0.1404 -2.3153
 3089SOL    HW220730   0.926   1.078   3.771 -0.1280  1.4435 -0.5506
 3090SOL     OW20731   0.235   0.738   0.199  0.2822 -0.0597 -0.7049
 3090SOL    HW120732   0.329   0.736   0.214  0.6427 -1.0467 -3.1527
 3090SOL    HW220733   0.221   0.814   0.255  0.8231 -0.7741  0.4142
 3091SOL     OW20734   3.179   3.262  12.128  0.4956 -0.3065 -0.4764
 3091SOL    HW120735   3.202   3.205  12.202  0.4054  2.1382  1.4015
 3091SOL    HW220736   3.230   3.338  12.154 -1.4579  1.3189 -1.4451
 3092SOL     OW20737   1.670   4.645  15.771 -0.5813  0.2605  0.4396
 3092SOL    HW120738   1.717   4.697  15.836  1.3038 -1.9055  0.7892
 3092SOL    HW220739   1.595   4.616  15.822 -2.7927  0.8965 -2.4318
 3093SOL     OW20740   3.836   0.149  17.129 -0.8605  0.0943 -0.1617
 3093SOL    HW120741   3.865   0.070  17.175  1.5033  1.2067  0.2751
 3093SOL    HW220742   3.781   0.184  17.200  0.8670 -4.7203  3.5714
 3094SOL     OW20743   4.479   3.922   5.129  0.1505  0.8482 -0.0569
 3094SOL    HW120744   4.558   3.972   5.108  0.4162  0.0270 -1.0029
 3094SOL    HW220745   4.489   3.907   5.223  0.3841  1.9337  0.0943
 3095SOL     OW20746   3.588   0.451   4.286  0.7640 -0.2867  0.0230
 3095SOL    HW120747   3.643   0.376   4.261  0.5023  0.1690 -1.9231
 3095SOL    HW220748   3.649   0.521   4.263 -0.4214  0.7878  0.1457
 3096SOL     OW20749   0.114   4.586  12.843 -0.8579 -0.4814  0.1705
 3096SOL    HW120750   0.154   4.523  12.783  1.0358  1.1477 -0.2832
 3096SOL    HW220751   0.126   4.666  12.792 -1.5475 -1.9809 -2.3686
 3097SOL     OW20752   2.347   2.258  14.826 -0.0360 -0.2466  0.3459
 3097SOL    HW120753   2.433   2.298  14.812 -0.8456  1.4420  0.1932
 3097SOL    HW220754   2.285   2.321  14.788  0.1649  1.0400  2.1451
 3098SOL     OW20755   1.865   0.211  11.150 -0.6124 -0.1952 -0.0621
 3098SOL    HW120756   1.807   0.175  11.083  0.4880  1.1368 -1.7364
 3098SOL    HW220757   1.900   0.291  11.111 -0.2225 -1.0396 -1.4704
 3099SOL     OW20758   4.138   1.541   0.178  0.1596 -0.3483 -0.1552
 3099SOL    HW120759   4.046   1.522   0.161 -0.0827  2.0679 -1.5480
 3099SOL    HW220760   4.170   1.493   0.254  0.3341  1.5094  0.9365
 3100SOL     OW20761   0.589   2.269   5.773  0.1529 -0.0223 -0.1039
 3100SOL    HW120762   0.601   2.200   5.838  0.8026  0.0461 -0.1487
 3100SOL    HW220763   0.494   2.263   5.763  0.2835  1.0724 -1.9069
 3101SOL     OW20764   1.347   3.172  17.237  0.0812 -0.2863  0.1776
 3101SOL    HW120765   1.367   3.185  17.330  0.1590 -2.0354  0.3875
 3101SOL    HW220766   1.315   3.255  17.201 -1.0796 -0.6346  0.4201
 3102SOL     OW20767   3.288   3.561  16.547  0.1934 -0.3892  0.2289
 3102SOL    HW120768   3.318   3.564  16.456 -0.4096 -0.4706  0.0260
 3102SOL    HW220769   3.216   3.624  16.547  0.1199 -0.4738 -0.0807
 3103SOL     OW20770   1.821   0.147   2.644 -0.6736  0.9000  0.6932
 3103SOL    HW120771   1.812   0.142   2.740  1.9030  1.3972  0.9564
 3103SOL    HW220772   1.883   0.220   2.640 -0.8001  0.8757 -1.3138
 3104SOL     OW20773   3.127   4.350   6.042  0.1887  0.5232  0.9271
 3104SOL    HW120774   3.033   4.335   6.043  0.3475 -0.4484  1.0644
 3104SOL    HW220775   3.143   4.341   6.136  0.3012 -2.0234  0.6634
 3105SOL     OW20776   4.596   3.105   4.773 -0.6417 -0.5430  0.3483
 3105SOL    HW120777   4.617   3.012   4.781 -0.1161 -0.3871  0.7149
 3105SOL    HW220778   4.533   3.110   4.701 -0.4555  0.5943  0.2734
 3106SOL     OW20779   3.231   4.400  10.628 -0.3695  0.6228 -0.3682
 3106SOL    HW120780   3.308   4.388  10.684 -0.3550  0.9201 -0.3263
 3106SOL    HW220781   3.262   4.480  10.587  2.5704  0.9947  2.6352
 3107SOL     OW20782   4.067   4.064   6.303 -0.2259 -0.0658  0.6549
 3107SOL    HW120783   4.088   4.013   6.225  2.1016  2.0613 -0.1057
 3107SOL    HW220784   4.059   4.151   6.264 -0.1010 -0.7819 -0.9749
 3108SOL     OW20785   2.710   4.413   2.433  0.0662  0.1484  0.5508
 3108SOL    HW120786   2.711   4.393   2.339 -0.3469  2.5701  0.0210
 3108SOL    HW220787   2.803   4.413   2.452  0.0397 -2.1662  0.6094
 3109SOL     OW20788   0.809   1.973   0.325 -0.6446 -0.1935 -0.6433
 3109SOL    HW120789   0.793   1.965   0.231  0.0423 -0.2818 -0.7470
 3109SOL    HW220790   0.904   1.978   0.329 -0.6813 -0.5375  0.6316
 3110SOL     OW20791   0.854   2.581   6.787  0.3514  0.2419 -0.1122
 3110SOL    HW120792   0.908   2.558   6.712 -2.1499  1.7887 -2.3981
 3110SOL    HW220793   0.777   2.595   6.732  0.6544 -0.7435 -0.7897
 3111SOL     OW20794   3.399   2.817   5.011 -0.2575  0.5123 -0.2888
 3111SOL    HW120795   3.323   2.874   5.019 -1.2142 -0.7575 -0.3611
 3111SOL    HW220796   3.390   2.789   4.920  0.5971  0.1721 -0.2731
 3112SOL     OW20797   3.664   3.104   7.470 -0.1562 -0.1789 -0.0099
 3112SOL    HW120798   3.701   3.122   7.556  1.2628 -0.5539 -0.5498
 3112SOL    HW220799   3.717   3.025   7.456 -2.0038 -1.6662  1.2922
 3113SOL     OW20800   0.516   2.403   0.618  0.2693 -0.0212  0.4160
 3113SOL    HW120801   0.582   2.335   0.604 -0.4307  0.0252 -3.1345
 3113SOL    HW220802   0.466   2.366   0.690  0.0687  1.1741  0.9019
 3114SOL     OW20803   4.326   2.876  11.162 -0.4325 -0.5618 -0.0123
 3114SOL    HW120804   4.294   2.789  11.139  0.5032 -1.0515  0.5365
 3114SOL    HW220805   4.243   2.924  11.164 -0.9684 -1.4404 -1.9150
 3115SOL     OW20806   4.145   1.291   3.801  0.1943  0.3030 -0.6264
 3115SOL    HW120807   4.176   1.278   3.712  2.4319 -0.6788  0.2797
 3115SOL    HW220808   4.218   1.251   3.849  0.6106  2.0497  0.2063
 3116SOL     OW20809   3.343   0.373  10.565 -0.1637  0.1248 -0.4500
 3116SOL    HW120810   3.437   0.370  10.545  0.1417  1.1869  0.8200
 3116SOL    HW220811   3.357   0.446  10.626  1.3502  0.4771 -1.2125
 3117SOL     OW20812   2.542   0.698  15.413 -0.2625 -0.3380  0.0128
 3117SOL    HW120813   2.604   0.656  15.353 -0.2302 -0.4571  0.1304
 3117SOL    HW220814   2.499   0.767  15.362  1.0908 -0.7845 -1.7392
 3118SOL     OW20815   4.536   0.792  16.455 -0.4177  0.5123  0.2042
 3118SOL    HW120816   4.513   0.791  16.548 -0.2766 -2.7494  0.1912
 3118SOL    HW220817   4.615   0.845  16.451 -1.3417  1.8086 -0.9247
 3119SOL     OW20818   4.168   1.423   8.300  0.5955 -0.1036 -0.4558
 3119SOL    HW120819   4.190   1.461   8.385 -0.2548  0.5537 -0.5202
 3119SOL    HW220820   4.130   1.336   8.317 -0.6254  0.0294 -2.3922
 3120SOL     OW20821   1.567   3.373   7.285  0.5429 -0.2990  0.5976
 3120SOL    HW120822   1.475   3.384   7.263 -0.2983  0.0840  4.2743
 3120SOL    HW220823   1.602   3.326   7.210  1.7833  0.5277  0.6519
 3121SOL     OW20824   4.081   3.679   4.528  0.6617 -0.3623  0.2161
 3121SOL    HW120825   4.139   3.754   4.543  0.3317  0.1226 -0.9177
 3121SOL    HW220826   4.002   3.718   4.566 -0.1622 -0.8556 -0.9743
 3122SOL     OW20827   1.120   0.266   2.882 -0.2628  0.2892  0.7193
 3122SOL    HW120828   1.180   0.192   2.885 -1.6260 -0.8126  0.9159
 3122SOL    HW220829   1.143   0.311   2.801 -1.4336  0.5860  0.5597
 3123SOL     OW20830   0.907   3.059   6.473 -0.0335 -0.2240  0.3811
 3123SOL    HW120831   0.998   3.051   6.445  0.0126  1.3175  0.0553
 3123SOL    HW220832   0.901   3.153   6.492  1.0883 -0.0987  0.1076
 3124SOL     OW20833   1.109   3.440   7.403  0.3454  0.3097  0.2990
 3124SOL    HW120834   1.123   3.525   7.362  0.1054 -0.7064 -1.8874
 3124SOL    HW220835   1.027   3.414   7.361  1.1753 -0.1117 -1.0422
 3125SOL     OW20836   4.395   2.766   8.137  0.6883 -0.2434 -0.3609
 3125SOL    HW120837   4.350   2.700   8.083 -0.3861  0.9037 -0.8951
 3125SOL    HW220838   4.474   2.722   8.166  1.4698  0.9310 -0.7213
 3126SOL     OW20839   1.566   2.304   0.680 -0.4828  0.4213 -0.2471
 3126SOL    HW120840   1.501   2.265   0.623 -0.0272  2.9952 -2.5463
 3126SOL    HW220841   1.642   2.252   0.654 -0.5340 -0.9817  2.4828
 3127SOL     OW20842   0.744   2.657   1.978  0.0903  0.7938  0.0594
 3127SOL    HW120843   0.689   2.680   2.053 -1.4000 -1.7464 -0.2682
 3127SOL    HW220844   0.680   2.612   1.923 -0.1955  1.3032 -0.0307
 3128SOL     OW20845   0.073   4.207   1.541 -0.2982  0.2549  0.1088
 3128SOL    HW120846   0.003   4.170   1.594 -0.0845  0.6628  0.6766
 3128SOL    HW220847   0.145   4.149   1.567 -1.0987 -1.2045 -0.9417
 3129SOL     OW20848   0.866   4.655   7.211  0.4838  0.3035  0.4023
 3129SOL    HW120849   0.935   4.698   7.263 -0.1930 -0.7279  2.1718
 3129SOL    HW220850   0.783   4.700   7.224 -0.2045 -0.9121  0.1782
 3130SOL     OW20851   1.540   1.395   7.828 -0.6118 -0.1060  0.1878
 3130SOL    HW120852   1.494   1.479   7.831  1.8502  1.3620 -2.0775
 3130SOL    HW220853   1.628   1.427   7.806 -1.0090  0.7435 -0.1888
 3131SOL     OW20854   0.947   0.239   8.828 -0.4686 -0.2370  0.2802
 3131SOL    HW120855   0.899   0.294   8.765 -0.8121 -2.2714 -1.2516
 3131SOL    HW220856   0.941   0.290   8.908  0.7779  0.4643 -0.0833
 3132SOL     OW20857   1.259   0.423  16.954  0.1548 -0.0769 -0.1206
 3132SOL    HW120858   1.320   0.358  16.989  0.5413  0.4290  0.1501
 3132SOL    HW220859   1.256   0.497  17.014  2.1420  1.3613 -1.7609
 3133SOL     OW20860   3.907   0.886   4.659 -0.5634 -0.0975  0.2062
 3133SOL    HW120861   3.814   0.908   4.652 -0.9170 -1.7828 -0.2940
 3133SOL    HW220862   3.906   0.846   4.746 -0.1281  0.2375  0.3688
 3134SOL     OW20863   4.027   3.202   4.808 -0.0272 -0.1501 -0.5396
 3134SOL    HW120864   4.062   3.285   4.778  2.0154 -0.5035  0.8659
 3134SOL    HW220865   3.948   3.208   4.754 -0.0130  1.8632 -0.3009
 3135SOL     OW20866   4.707   0.522   3.588 -0.4777 -0.0502  0.6507
 3135SOL    HW120867   0.073   0.523   3.546 -1.6790  0.4552 -1.7990
 3135SOL    HW220868   4.646   0.550   3.519  1.1501 -0.7229 -1.0622
 3136SOL     OW20869   1.371   2.331   8.848  0.4387 -0.2217  0.2585
 3136SOL    HW120870   1.308   2.380   8.900 -1.0396 -0.7695 -1.0301
 3136SOL    HW220871   1.438   2.317   8.915  1.5142  0.2638 -0.7159
 3137SOL     OW20872   3.539   1.523  13.607  0.3706  0.0793 -0.5164
 3137SOL    HW120873   3.611   1.535  13.545  0.7526 -1.1660 -0.3044
 3137SOL    HW220874   3.562   1.592  13.669  0.2496 -1.7463  1.5635
 3138SOL     OW20875   3.525   1.296   9.250  0.0077  0.4693 -0.4029
 3138SOL    HW120876   3.555   1.365   9.309  0.8834  0.4736 -0.8584
 3138SOL    HW220877   3.609   1.253   9.235  0.1308  0.8735 -0.9173
 3139SOL     OW20878   0.006   3.997  16.728  0.0088  0.0098 -0.5663
 3139SOL    HW120879   4.638   3.962  16.721  0.3293 -1.2047  1.4072
 3139SOL    HW220880   4.716   4.079  16.680 -0.3385 -0.5187 -1.3952
 3140SOL     OW20881   2.367   2.689   0.220  0.2226 -0.2190 -0.1341
 3140SOL    HW120882   2.354   2.746   0.144 -1.2627  1.6097  1.4751
 3140SOL    HW220883   2.284   2.643   0.216  0.2393 -0.1291 -1.5046
 3141SOL     OW20884   3.316   3.771   4.765  0.3781 -0.0119  0.7211
 3141SOL    HW120885   3.347   3.682   4.780 -0.7978 -0.4132  0.7227
 3141SOL    HW220886   3.361   3.817   4.836  3.3740  0.4296 -1.4427
 3142SOL     OW20887   0.836   1.793   1.491 -0.1837  0.4019 -0.9820
 3142SOL    HW120888   0.795   1.836   1.416 -2.2382 -0.1306 -0.1515
 3142SOL    HW220889   0.822   1.700   1.473 -1.7148  0.3208  0.7081
 3143SOL     OW20890   3.174   3.243   7.856 -0.2633 -0.1529  0.6347
 3143SOL    HW120891   3.252   3.210   7.811  0.1570  2.2561 -0.4150
 3143SOL    HW220892   3.145   3.158   7.889 -0.9954  0.2793  1.1050
 3144SOL     OW20893   1.487   0.030  11.483  0.0602  0.0686  0.4227
 3144SOL    HW120894   1.399   0.009  11.517 -0.6012  2.0893 -0.0288
 3144SOL    HW220895   1.503   4.668  11.437  0.1503 -0.3091  1.1206
 3145SOL     OW20896   4.634   1.508   7.105 -0.0257  0.4401  0.0993
 3145SOL    HW120897   4.545   1.513   7.069  0.3188  1.9613 -0.5233
 3145SOL    HW220898   4.649   1.415   7.120 -0.0605  0.8403  2.5436
 3146SOL     OW20899   2.816   2.071   0.668  0.0205 -0.0040 -0.1494
 3146SOL    HW120900   2.879   2.009   0.631  2.3177  0.8711  2.2947
 3146SOL    HW220901   2.864   2.093   0.748  0.4626  0.1119 -0.4450
 3147SOL     OW20902   3.137   0.118  13.109 -0.1383  0.2248 -1.2206
 3147SOL    HW120903   3.220   0.078  13.084 -0.3159 -1.7040  1.3889
 3147SOL    HW220904   3.079   0.046  13.132 -1.7776  1.8597 -0.2407
 3148SOL     OW20905   4.399   0.757   8.284 -0.2585 -0.0202 -0.4856
 3148SOL    HW120906   4.362   0.669   8.298  3.0480 -1.0194  2.0557
 3148SOL    HW220907   4.324   0.810   8.259 -0.4507  0.7001  1.6351
 3149SOL     OW20908   2.760   0.761   3.097 -0.2637 -0.1656 -0.1680
 3149SOL    HW120909   2.831   0.726   3.151  0.6161  1.4436 -0.3073
 3149SOL    HW220910   2.682   0.736   3.148  0.4758  1.6765  1.8657
 3150SOL     OW20911   4.412   1.806   6.940 -0.6779 -0.4205 -0.0387
 3150SOL    HW120912   4.466   1.844   7.010 -0.4406 -0.3647 -0.2533
 3150SOL    HW220913   4.359   1.872   6.896  0.1727 -0.8855 -1.7707
 3151SOL     OW20914   1.797   4.660  11.840 -0.2679  0.4579 -0.9223
 3151SOL    HW120915   1.822   4.570  11.859  3.0852  1.7724  1.0220
 3151SOL    HW220916   1.805   4.659  11.745 -0.9687 -2.5115 -0.9405
 3152SOL     OW20917   2.404   1.647   3.128  0.1798 -0.0080  0.8084
 3152SOL    HW120918   2.430   1.570   3.078 -0.7788 -0.6856  1.3554
 3152SOL    HW220919   2.356   1.606   3.201  0.4130  0.2251  1.0906
 3153SOL     OW20920   1.506   3.380  11.577  0.3226  0.4264  0.7305
 3153SOL    HW120921   1.456   3.397  11.657  0.1702 -2.2897  1.2267
 3153SOL    HW220922   1.511   3.461  11.526  0.6546 -0.0755 -0.0338
 3154SOL     OW20923   1.653   4.645  11.269 -0.6770 -0.0718  0.1854
 3154SOL    HW120924   1.723   4.691  11.315 -2.1027  0.7693  1.4955
 3154SOL    HW220925   1.614   4.710  11.211 -2.0808 -1.2009 -0.1166
 3155SOL     OW20926   2.245   3.857  14.862 -0.2333 -0.4831  0.4182
 3155SOL    HW120927   2.300   3.858  14.784 -0.3803 -0.3875  0.3171
 3155SOL    HW220928   2.241   3.765  14.889 -0.2838 -1.1085 -1.7557
 3156SOL     OW20929   3.856   1.004  16.359  0.1346 -0.2053  0.5229
 3156SOL    HW120930   3.769   1.031  16.388  0.0921  2.0964 -1.7955
 3156SOL    HW220931   3.920   1.034  16.423  1.6860 -1.9198 -0.2200
 3157SOL     OW20932   2.790   3.593   6.496  0.1976  0.0022 -0.1794
 3157SOL    HW120933   2.710   3.640   6.518 -0.4286  0.1929 -2.7657
 3157SOL    HW220934   2.848   3.669   6.491  1.8150 -1.2012  0.2882
 3158SOL     OW20935   3.726   1.639   8.083  0.0862  0.2140  0.0188
 3158SOL    HW120936   3.722   1.594   8.167 -0.7250 -1.8236 -1.1296
 3158SOL    HW220937   3.817   1.668   8.070  1.0503 -3.1436 -0.6804
 3159SOL     OW20938   0.720   3.604   9.589  0.1574  0.2534  0.3255
 3159SOL    HW120939   0.662   3.614   9.665 -1.3359  0.7558 -0.8867
 3159SOL    HW220940   0.672   3.558   9.521 -0.6544 -0.7216  1.5559
 3160SOL     OW20941   2.663   3.638   2.425 -0.2821 -0.7256 -0.3307
 3160SOL    HW120942   2.709   3.555   2.436  0.2990 -0.3779 -0.1447
 3160SOL    HW220943   2.659   3.647   2.329  1.1953 -2.3828 -0.5507
 3161SOL     OW20944   3.766   2.409   2.869 -0.3465 -0.5262 -0.3671
 3161SOL    HW120945   3.840   2.389   2.926 -0.8661  0.0109  0.4936
 3161SOL    HW220946   3.817   2.441   2.795 -0.6380  0.2319 -0.2374
 3162SOL     OW20947   0.407   1.937   2.657 -0.2303  0.2236 -0.0860
 3162SOL    HW120948   0.473   1.987   2.704 -0.4984 -0.0754  0.6050
 3162SOL    HW220949   0.372   1.906   2.741  0.2803  2.7495  1.0594
 3163SOL     OW20950   4.112   2.356  12.197 -0.1873 -0.5619  0.6147
 3163SOL    HW120951   4.108   2.390  12.107  1.9968 -1.2552  0.2401
 3163SOL    HW220952   4.046   2.399  12.250  1.1587  1.7194  0.4215
 3164SOL     OW20953   0.115   3.787   2.451 -0.2038  0.2745 -0.3848
 3164SOL    HW120954   0.063   3.709   2.433 -0.0069 -0.1414  0.8381
 3164SOL    HW220955   0.191   3.773   2.395  0.8777  0.4639  1.0585
 3165SOL     OW20956   3.091   4.199  17.518 -0.1547  0.1938  0.2734
 3165SOL    HW120957   3.132   4.223  17.601 -0.0539  0.5306  0.1241
 3165SOL    HW220958   3.009   4.246  17.534 -0.2228  0.0553  0.3342
 3166SOL     OW20959   0.302   2.912  10.960 -0.0312 -0.0844  0.0095
 3166SOL    HW120960   0.285   3.006  10.965 -0.0387 -0.0640 -0.4069
 3166SOL    HW220961   0.363   2.893  11.031  0.8478 -1.0533 -1.0131
 3167SOL     OW20962   4.139   2.921   1.757 -0.2036 -0.3469  0.0906
 3167SOL    HW120963   4.083   2.845   1.739 -0.4773  0.1888 -1.3079
 3167SOL    HW220964   4.225   2.879   1.752 -1.1445 -2.1974 -0.8946
 3168SOL     OW20965   1.416   0.445  11.472 -0.2177 -0.0442  0.2061
 3168SOL    HW120966   1.485   0.488  11.522  0.8576  0.8010 -1.9829
 3168SOL    HW220967   1.336   0.462  11.521 -0.2027  1.4716 -0.2748
 3169SOL     OW20968   1.673   1.955   7.956  0.0922  0.2035 -0.0550
 3169SOL    HW120969   1.582   1.970   7.982  0.3685  0.2074  0.8978
 3169SOL    HW220970   1.716   2.034   7.989  0.3178 -0.0170  0.1763
 3170SOL     OW20971   2.620   2.962   3.705  0.3273  0.1574  0.4431
 3170SOL    HW120972   2.650   2.971   3.614 -1.1977  0.6682 -0.0049
 3170SOL    HW220973   2.612   2.867   3.717 -1.5216  0.5254  2.0183
 3171SOL     OW20974   2.664   1.062   8.089 -0.2252 -0.1868  0.0150
 3171SOL    HW120975   2.628   1.080   8.003 -0.0070  1.0313  0.1786
 3171SOL    HW220976   2.708   0.979   8.067 -1.2233 -0.9373  0.8583
 3172SOL     OW20977   1.198   2.172   1.542  0.3022 -0.0376  0.2874
 3172SOL    HW120978   1.246   2.140   1.618 -0.9871  2.7600  2.2622
 3172SOL    HW220979   1.110   2.143   1.566 -1.0622  0.7486 -3.7473
 3173SOL     OW20980   3.240   0.032   2.200  0.2446  0.2460 -0.2974
 3173SOL    HW120981   3.168   0.091   2.223  0.0376 -0.4713  0.9003
 3173SOL    HW220982   3.220   0.006   2.110  1.2632 -0.1926 -0.3888
 3174SOL     OW20983   2.290   2.329   1.695 -0.0831  0.2110 -0.6383
 3174SOL    HW120984   2.217   2.381   1.729  0.8654  0.6785  0.7026
 3174SOL    HW220985   2.341   2.322   1.776 -1.7456  2.1705  0.5742
 3175SOL     OW20986   3.200   3.131   2.434  0.5664 -0.1433 -0.3015
 3175SOL    HW120987   3.160   3.173   2.359  0.7896  0.1237 -0.2695
 3175SOL    HW220988   3.279   3.184   2.434  0.2824  0.2565 -1.4275
 3176SOL     OW20989   1.113   0.093   6.805  0.9886 -0.7307 -0.3836
 3176SOL    HW120990   1.172   0.040   6.751 -0.7658 -0.8584 -2.1498
 3176SOL    HW220991   1.096   0.028   6.874  2.1413  0.0304  0.6204
 3177SOL     OW20992   2.994   1.658   8.030 -0.6185 -0.4092  0.5614
 3177SOL    HW120993   3.007   1.733   8.088  1.8299 -1.2639  1.1363
 3177SOL    HW220994   3.050   1.677   7.954  0.2348  1.1686  1.5910
 3178SOL     OW20995   1.422   4.414   7.068  0.1302 -0.0083  0.1078
 3178SOL    HW120996   1.362   4.359   7.019  0.2200 -0.9309  1.0524
 3178SOL    HW220997   1.505   4.367   7.061 -0.3648 -1.0398  1.1892
 3179SOL     OW20998   2.273   3.723   7.076  0.2244 -0.3106 -0.0038
 3179SOL    HW120999   2.320   3.702   7.157  1.9698 -1.6145 -1.3530
 3179SOL    HW221000   2.304   3.661   7.010  0.5745  0.8424 -0.9293
 3180SOL     OW21001   0.619   3.459  11.155  0.3339  0.1242  0.0016
 3180SOL    HW121002   0.656   3.391  11.211 -0.9246 -0.6825 -0.1239
 3180SOL    HW221003   0.555   3.490  11.219 -0.7411  3.5212 -2.6836
 3181SOL     OW21004   4.123   4.418  15.453  0.2833  0.0357  0.2162
 3181SOL    HW121005   4.106   4.503  15.412  1.0522  0.0760 -0.0035
 3181SOL    HW221006   4.199   4.379  15.410  0.3567 -0.4354  0.7646
 3182SOL     OW21007   3.536   0.843   2.930  0.0686  0.4586  0.0967
 3182SOL    HW121008   3.476   0.769   2.921  2.9084 -1.7942 -0.1716
 3182SOL    HW221009   3.533   0.890   2.847  2.7262  1.7330  0.7236
 3183SOL     OW21010   0.561   3.614   7.019  0.0443 -0.0461  0.5226
 3183SOL    HW121011   0.546   3.569   7.102 -2.1310 -0.2878  0.0171
 3183SOL    HW221012   0.578   3.704   7.048 -0.9713  0.3331 -0.0487
 3184SOL     OW21013   3.271   4.343  16.108  0.0624 -0.0572  0.6909
 3184SOL    HW121014   3.266   4.252  16.137  2.2792 -0.1383  0.8602
 3184SOL    HW221015   3.202   4.345  16.042  1.1415  0.4596 -0.4152
 3185SOL     OW21016   1.333   2.468   0.684 -0.3915 -0.3588  0.1304
 3185SOL    HW121017   1.269   2.396   0.677  1.0939 -1.6673 -0.0389
 3185SOL    HW221018   1.411   2.416   0.666  1.8983  2.7964  1.0992
 3186SOL     OW21019   3.124   1.961  16.912 -0.9662  0.3168 -0.4953
 3186SOL    HW121020   3.183   2.007  16.971 -0.8397  0.0321 -0.3978
 3186SOL    HW221021   3.165   1.876  16.929 -0.4205  0.6671 -0.0896
 3187SOL     OW21022   1.382   0.995   7.744  0.1490 -0.1540 -0.5537
 3187SOL    HW121023   1.302   0.944   7.752  0.4603 -0.1207  3.0066
 3187SOL    HW221024   1.435   0.974   7.821 -0.8383 -0.3821  0.0672
 3188SOL     OW21025   1.171   2.345   2.357 -0.0225  0.3651  0.3473
 3188SOL    HW121026   1.133   2.432   2.345 -1.6882 -0.3926  0.2264
 3188SOL    HW221027   1.095   2.298   2.391  0.0552  0.4788  0.6840
 3189SOL     OW21028   3.097   0.184   9.522  0.4809 -0.1258 -0.6016
 3189SOL    HW121029   3.094   0.112   9.458  0.3873  0.2228 -0.9870
 3189SOL    HW221030   3.011   0.173   9.561  0.4705  0.7143 -0.4102
 3190SOL     OW21031   1.134   3.738   5.718 -0.2790 -0.0443 -0.4277
 3190SOL    HW121032   1.211   3.726   5.662  1.0049  0.7673  1.1569
 3190SOL    HW221033   1.088   3.808   5.672 -0.2372 -0.9630 -1.8343
 3191SOL     OW21034   0.137   2.709  10.895  0.1962 -0.2066  0.1771
 3191SOL    HW121035   0.150   2.737  10.805 -1.1872 -0.0847  0.0043
 3191SOL    HW221036   0.198   2.771  10.935  0.2993  1.8788 -3.2824
 3192SOL     OW21037   0.686   3.662   3.374 -0.2598  0.2958 -0.3796
 3192SOL    HW121038   0.774   3.642   3.342 -0.0299  0.9983 -0.1958
 3192SOL    HW221039   0.644   3.678   3.290 -0.3544 -1.1054 -0.5854
 3193SOL     OW21040   0.992   0.924   6.722 -0.1223  0.5451  0.0339
 3193SOL    HW121041   1.025   0.851   6.669 -0.1568  1.3448 -1.0855
 3193SOL    HW221042   1.024   0.891   6.806  2.1490  3.3078  0.2698
 3194SOL     OW21043   0.526   0.094  16.908  0.1587 -0.0256  1.0527
 3194SOL    HW121044   0.571   0.125  16.987  1.5685 -0.6063  0.4738
 3194SOL    HW221045   0.439   0.132  16.920  0.6280  1.5508 -0.4212
 3195SOL     OW21046   4.208   0.061   7.787  0.4884 -0.4330  0.2500
 3195SOL    HW121047   4.255   0.092   7.710 -2.2570 -1.4617 -1.8516
 3195SOL    HW221048   4.205   0.141   7.839 -1.1690  0.5930 -1.3896
 3196SOL     OW21049   3.626   1.632   9.003  0.0612 -0.2011 -0.0026
 3196SOL    HW121050   3.682   1.608   9.077  0.6907  0.4115 -0.2827
 3196SOL    HW221051   3.687   1.624   8.930 -0.4317 -1.2080 -0.3056
 3197SOL     OW21052   1.458   2.822   7.389  0.0206 -0.3659 -0.3096
 3197SOL    HW121053   1.437   2.742   7.438  1.7077 -1.0590 -0.7395
 3197SOL    HW221054   1.399   2.880   7.438  0.2508  0.3296 -0.8501
 3198SOL     OW21055   3.224   1.742   4.538 -0.3522  0.3046 -0.2434
 3198SOL    HW121056   3.237   1.647   4.543  0.9427  0.5150  0.3887
 3198SOL    HW221057   3.191   1.771   4.623  0.5620 -1.8293  0.8412
 3199SOL     OW21058   4.320   4.072   3.169  0.1194 -0.2888 -0.0973
 3199SOL    HW121059   4.358   4.109   3.089 -1.5179  3.1621  0.7072
 3199SOL    HW221060   4.395   4.020   3.197 -1.8853 -1.8580  2.3342
 3200SOL     OW21061   2.428   2.379  11.307 -0.0972 -0.4563 -0.2602
 3200SOL    HW121062   2.499   2.331  11.265  1.3854 -0.2867  2.0927
 3200SOL    HW221063   2.457   2.381  11.398  0.4321  0.6087 -0.4570
 3201SOL     OW21064   3.181   3.761   7.614 -0.4494  0.2504  0.4594
 3201SOL    HW121065   3.137   3.816   7.679  1.9131  4.4257 -1.4657
 3201SOL    HW221066   3.169   3.817   7.538 -2.7990 -0.3434  0.4105
 3202SOL     OW21067   3.576   4.625  16.376 -0.1806  0.1546  0.6567
 3202SOL    HW121068   3.511   4.623  16.305  0.5303 -1.2648  0.0247
 3202SOL    HW221069   3.650   4.586  16.328 -0.1263  0.9121  0.1324
 3203SOL     OW21070   4.526   3.666   2.665 -0.0691 -0.0634  0.5554
 3203SOL    HW121071   4.506   3.725   2.737 -0.8594  2.1736 -1.4795
 3203SOL    HW221072   4.610   3.634   2.697 -1.1694 -2.4269  1.1467
 3204SOL     OW21073   2.409   1.520  16.815 -0.3242 -0.0558 -0.1890
 3204SOL    HW121074   2.387   1.495  16.905 -0.0384 -2.1072 -0.6805
 3204SOL    HW221075   2.343   1.589  16.804 -0.0860  0.2713  0.4960
 3205SOL     OW21076   1.675   0.933   3.226  0.5564  0.1096  0.1895
 3205SOL    HW121077   1.756   0.921   3.176  1.4399 -2.7953  2.3431
 3205SOL    HW221078   1.619   0.860   3.204 -0.9284  1.3622 -0.1526
 3206SOL     OW21079   2.032   1.612   5.392 -0.3272 -0.3259 -0.5682
 3206SOL    HW121080   1.937   1.606   5.384 -0.1760 -1.5487 -1.4756
 3206SOL    HW221081   2.056   1.585   5.481  2.6637  2.0511 -0.6342
 3207SOL     OW21082   3.030   0.688   8.631  0.2120 -0.0469 -0.5773
 3207SOL    HW121083   3.068   0.736   8.704 -0.4677  0.6292 -0.6630
 3207SOL    HW221084   2.939   0.670   8.656  0.3680 -0.3536 -0.2376
 3208SOL     OW21085   0.113   3.186  15.674 -0.6435  0.4355  0.1710
 3208SOL    HW121086   0.119   3.102  15.720  0.2129 -0.4039 -1.4388
 3208SOL    HW221087   0.107   3.152  15.584  0.6223 -0.2708  0.3507
 3209SOL     OW21088   1.000   4.365  13.711  0.0123 -0.2944  0.2476
 3209SOL    HW121089   0.995   4.276  13.675  2.7745  0.3609 -1.7360
 3209SOL    HW221090   0.926   4.400  13.661  2.2991  1.5378 -1.8527
 3210SOL     OW21091   2.436   3.787   8.176 -0.0888  0.4890  0.0660
 3210SOL    HW121092   2.383   3.718   8.216  0.8438 -0.8963 -1.1202
 3210SOL    HW221093   2.469   3.744   8.098  0.3809 -0.5171  0.8211
 3211SOL     OW21094   3.295   1.776   2.757  0.1222 -0.1560 -0.2529
 3211SOL    HW121095   3.369   1.721   2.783  0.2576 -0.0690 -0.4498
 3211SOL    HW221096   3.216   1.732   2.787  0.8104 -0.6322  0.8515
 3212SOL     OW21097   0.315   3.021   6.689 -0.3249 -0.2624  0.0993
 3212SOL    HW121098   0.403   3.000   6.722 -0.6923 -0.7775  0.7405
 3212SOL    HW221099   0.333   3.112   6.666  1.3847 -0.5518  0.2869
 3213SOL     OW21100   0.574   3.514   6.163  0.0912  0.5108  0.1243
 3213SOL    HW121101   0.643   3.485   6.223 -0.3421  1.8328  1.2656
 3213SOL    HW221102   0.618   3.494   6.080 -2.8816  1.7197 -1.7329
 3214SOL     OW21103   2.378   1.480   2.677 -0.0516  0.0072  0.0531
 3214SOL    HW121104   2.299   1.430   2.656  0.6168 -0.6878 -0.7808
 3214SOL    HW221105   2.438   1.407   2.693  1.0372  0.3003 -2.7556
 3215SOL     OW21106   3.876   0.851   4.118 -0.0781 -0.3565 -0.2112
 3215SOL    HW121107   3.806   0.801   4.160 -1.1522  3.4284  2.5079
 3215SOL    HW221108   3.840   0.861   4.031  0.1118 -1.6550 -0.4476
 3216SOL     OW21109   0.306   0.654   6.186 -0.1663 -0.2156  0.6320
 3216SOL    HW121110   0.384   0.690   6.228 -0.8934  0.2320  1.5884
 3216SOL    HW221111   0.326   0.560   6.177  1.1944  0.1097  0.1235
 3217SOL     OW21112   1.019   4.635   6.974 -0.4497  0.0086 -0.0530
 3217SOL    HW121113   0.968   4.638   7.054  0.2540  0.4448  0.3751
 3217SOL    HW221114   1.105   4.627   7.014 -0.5887 -0.7565  0.0848
 3218SOL     OW21115   2.836   0.029  15.786 -0.7544 -0.3518 -0.2202
 3218SOL    HW121116   2.897   4.675  15.789 -0.1279  0.1595 -0.3696
 3218SOL    HW221117   2.887   0.081  15.724 -0.0121 -0.4230  0.3218
 3219SOL     OW21118   3.971   2.871   6.338  0.0283 -0.8244 -0.1821
 3219SOL    HW121119   3.889   2.824   6.322  0.0226 -0.8463 -0.0924
 3219SOL    HW221120   4.028   2.832   6.272 -1.7336 -0.1095 -2.1386
 3220SOL     OW21121   3.627   4.200   1.546  1.0525 -0.0194  0.1067
 3220SOL    HW121122   3.585   4.203   1.632  0.8167 -0.9985  0.0253
 3220SOL    HW221123   3.603   4.110   1.526  1.0499  0.2118 -0.9092
 3221SOL     OW21124   3.388   1.926   2.555  0.4714 -0.8471  0.1213
 3221SOL    HW121125   3.354   1.879   2.479 -0.2176 -0.4670  0.1986
 3221SOL    HW221126   3.355   1.876   2.630 -2.6034  0.4988 -0.3420
 3222SOL     OW21127   2.076   3.478   7.209 -0.2650  0.7950  0.0704
 3222SOL    HW121128   2.141   3.510   7.272  0.4227 -0.0082 -0.2291
 3222SOL    HW221129   2.002   3.485   7.268 -0.8206 -2.1119 -0.2729
 3223SOL     OW21130   0.866   3.669   5.824  0.4306  0.5979 -0.0734
 3223SOL    HW121131   0.958   3.674   5.798  0.8717 -0.1668  1.3449
 3223SOL    HW221132   0.871   3.744   5.883 -1.1376  1.3015 -0.8373
 3224SOL     OW21133   3.750   1.910   3.890 -0.6469  0.5277 -0.1478
 3224SOL    HW121134   3.710   1.995   3.867 -0.2329  1.3673  2.2175
 3224SOL    HW221135   3.740   1.912   3.985  2.8295  0.3409  0.2030
 3225SOL     OW21136   0.464   0.737   2.912 -0.3126 -0.2743  0.1748
 3225SOL    HW121137   0.558   0.720   2.909 -0.3823 -0.5277 -0.7089
 3225SOL    HW221138   0.417   0.694   2.840 -1.9283  2.3895 -0.3856
 3226SOL     OW21139   3.698   3.229  11.618 -0.4741  0.7298  0.2784
 3226SOL    HW121140   3.701   3.324  11.606  0.4093  0.7685  0.7798
 3226SOL    HW221141   3.697   3.220  11.714  1.1228 -0.4203  0.1660
 3227SOL     OW21142   1.231   2.056  16.445 -0.5574 -0.1307 -0.6510
 3227SOL    HW121143   1.141   2.024  16.434 -0.8047  0.2263  0.3385
 3227SOL    HW221144   1.207   2.133  16.497 -1.2381 -2.1248  2.0306
 3228SOL     OW21145   0.685   1.261   4.862  0.1538 -0.2681 -0.0306
 3228SOL    HW121146   0.646   1.175   4.874  1.0464 -0.5206  1.0191
 3228SOL    HW221147   0.716   1.282   4.950  0.0650  1.9258 -0.5065
 3229SOL     OW21148   0.556   0.639   9.996 -0.1368 -0.4411 -0.2015
 3229SOL    HW121149   0.487   0.655   9.932  1.7905  0.1024 -2.1643
 3229SOL    HW221150   0.607   0.720   9.993 -1.0446  0.2674  3.1793
 3230SOL     OW21151   0.980   2.447   2.042 -0.1748  0.3251  0.2255
 3230SOL    HW121152   1.026   2.363   2.044  2.5389  1.7877 -0.3155
 3230SOL    HW221153   0.912   2.430   2.107 -0.3047  1.3048  0.3450
 3231SOL     OW21154   0.876   1.470  15.205  0.3574 -0.1059 -0.2563
 3231SOL    HW121155   0.831   1.549  15.175 -0.3086 -0.0575  0.8765
 3231SOL    HW221156   0.968   1.495  15.190  0.4721 -0.0306  0.6219
 3232SOL     OW21157   0.452   4.332   5.752  0.3186  0.6137 -0.1467
 3232SOL    HW121158   0.364   4.311   5.781  0.2247  0.7218 -0.3565
 3232SOL    HW221159   0.497   4.248   5.765 -0.2274  0.4913  0.9511
 3233SOL     OW21160   1.584   3.036   1.993  0.3617  0.1467 -0.1071
 3233SOL    HW121161   1.549   3.066   1.910  1.3960  0.8683 -0.2839
 3233SOL    HW221162   1.636   2.960   1.966 -2.9500 -2.1663  0.0429
 3234SOL     OW21163   0.385   3.267   6.649 -0.6758  0.1787  0.4987
 3234SOL    HW121164   0.434   3.304   6.723  0.6519 -0.6728  0.0490
 3234SOL    HW221165   0.346   3.340   6.601  1.3970  0.1393 -1.2617
 3235SOL     OW21166   0.641   3.975   9.632  0.5729 -0.1503 -0.3389
 3235SOL    HW121167   0.561   3.932   9.604  0.9284 -0.5140 -0.7909
 3235SOL    HW221168   0.645   3.947   9.724  2.4354 -1.6629 -0.8767
 3236SOL     OW21169   2.007   0.679   6.994 -0.6850  0.1103  0.2335
 3236SOL    HW121170   1.932   0.679   6.935 -0.1742 -0.4599 -0.4129
 3236SOL    HW221171   1.989   0.590   7.023 -2.2238 -0.3260 -2.0979
 3237SOL     OW21172   0.716   3.803   1.472 -0.1051  0.1548  0.4232
 3237SOL    HW121173   0.739   3.718   1.511 -3.0899 -1.1944 -0.7507
 3237SOL    HW221174   0.781   3.866   1.505  0.6679 -0.2241 -0.3668
 3238SOL     OW21175   4.196   2.087   3.523  0.3628  0.6097 -0.1314
 3238SOL    HW121176   4.136   2.054   3.589 -1.3241 -0.3662 -2.1597
 3238SOL    HW221177   4.196   2.018   3.456 -0.4628 -0.0195  0.5183
 3239SOL     OW21178   1.000   0.053   9.882 -0.2529 -0.4297 -0.1979
 3239SOL    HW121179   0.972   0.071   9.972  1.7534  2.2577 -0.0979
 3239SOL    HW221180   1.038   4.686   9.891 -0.8341 -0.6059  0.5887
 3240SOL     OW21181   1.892   3.139  16.429  0.2893  0.3984 -0.2891
 3240SOL    HW121182   1.962   3.136  16.495 -1.0394 -0.6739  1.0765
 3240SOL    HW221183   1.935   3.111  16.349  1.6222 -0.7945  0.8351
 3241SOL     OW21184   1.798   0.825  11.398 -0.1488  0.5234  0.1297
 3241SOL    HW121185   1.876   0.827  11.343 -0.4384 -0.2912 -0.2954
 3241SOL    HW221186   1.744   0.758  11.357 -0.4040  0.8258 -0.0260
 3242SOL     OW21187   2.320   2.341  16.408  0.3767  0.7976 -0.0483
 3242SOL    HW121188   2.379   2.413  16.430 -1.2989  0.9830  3.7599
 3242SOL    HW221189   2.371   2.307  16.334 -0.3055 -0.8177  0.2255
 3243SOL     OW21190   1.947   0.158  13.647 -0.1882 -0.6746  0.0760
 3243SOL    HW121191   1.861   0.195  13.628  0.3703  2.0655  2.9949
 3243SOL    HW221192   1.954   0.160  13.742 -1.7070  0.2195  0.1554
 3244SOL     OW21193   3.538   4.529  13.480  0.2086 -0.2302  0.5571
 3244SOL    HW121194   3.453   4.544  13.522 -0.1867 -1.8484  0.3544
 3244SOL    HW221195   3.565   4.447  13.522  1.1766 -1.2222 -1.9742
 3245SOL     OW21196   3.308   0.181  14.719  0.5460 -0.0362  0.3435
 3245SOL    HW121197   3.224   0.227  14.716  0.2822 -0.5464 -0.3236
 3245SOL    HW221198   3.289   0.108  14.778 -0.4731  0.6255  0.8302
 3246SOL     OW21199   1.080   1.708   0.897  0.1221  0.2129 -0.1636
 3246SOL    HW121200   1.025   1.631   0.885  0.6126 -0.4112  1.7069
 3246SOL    HW221201   1.161   1.675   0.936 -0.4100 -0.0390  0.7109
 3247SOL     OW21202   1.546   2.741   1.586 -0.0035  0.2014 -0.5204
 3247SOL    HW121203   1.485   2.764   1.656 -1.4939  1.4268 -2.2200
 3247SOL    HW221204   1.551   2.817   1.528 -2.4408  1.0647  0.3824
 3248SOL     OW21205   2.337   0.583   5.495  0.1672 -1.2078  0.1041
 3248SOL    HW121206   2.367   0.642   5.425 -1.3283  0.0081  0.5039
 3248SOL    HW221207   2.416   0.573   5.549 -1.2668 -0.0090  2.4153
 3249SOL     OW21208   2.797   0.131   3.065 -0.0355 -0.6300  0.6412
 3249SOL    HW121209   2.733   0.102   3.130 -2.8587 -0.0825 -1.8921
 3249SOL    HW221210   2.739   0.161   2.995  0.7227 -1.0186 -0.1425
 3250SOL     OW21211   3.311   3.559   5.780  0.5344  0.0676  0.1672
 3250SOL    HW121212   3.365   3.497   5.731  1.7869  0.0686  1.5424
 3250SOL    HW221213   3.229   3.557   5.730  1.2201  1.7269 -1.0388
 3251SOL     OW21214   2.339   2.683   9.750  0.7015 -0.2880 -1.0602
 3251SOL    HW121215   2.371   2.613   9.694  1.0487 -0.5679 -0.5050
 3251SOL    HW221216   2.248   2.685   9.723  0.0020 -4.0178  1.1611
 3252SOL     OW21217   1.025   4.339  16.130 -0.1363 -0.0639  0.1792
 3252SOL    HW121218   0.984   4.426  16.128 -2.9764 -1.3756  2.3788
 3252SOL    HW221219   0.972   4.288  16.068 -0.4072 -0.1855  0.5137
 3253SOL     OW21220   3.539   0.364   4.568  0.2469 -0.7866  0.1432
 3253SOL    HW121221   3.514   0.408   4.486  0.5110 -0.4684  0.2347
 3253SOL    HW221222   3.591   0.424   4.621  2.5710 -2.4072 -0.3346
 3254SOL     OW21223   2.721   1.685   6.721 -0.0498 -0.4382  0.0962
 3254SOL    HW121224   2.809   1.703   6.689  0.1936 -2.6267 -0.4303
 3254SOL    HW221225   2.671   1.751   6.673  0.5903  2.0199  2.7891
 3255SOL     OW21226   2.726   0.776  15.825  0.0775 -0.0645 -0.5295
 3255SOL    HW121227   2.649   0.782  15.770  0.3501  0.5951 -0.8437
 3255SOL    HW221228   2.783   0.706  15.795  1.6503  0.1932  1.8141
 3256SOL     OW21229   2.821   4.196   3.445 -0.3688  0.1198 -0.0698
 3256SOL    HW121230   2.755   4.169   3.510  0.7737 -3.1852 -0.2848
 3256SOL    HW221231   2.901   4.180   3.494  0.6452 -0.5163 -1.9476
 3257SOL     OW21232   1.453   4.101   4.155 -0.3236  0.0290  0.0300
 3257SOL    HW121233   1.545   4.075   4.165 -0.9680 -2.0642  0.4662
 3257SOL    HW221234   1.414   4.082   4.241  1.4230 -1.8412  0.4200
 3258SOL     OW21235   3.152   0.068   3.335  0.6407 -0.4276  0.5449
 3258SOL    HW121236   3.247   0.085   3.333  0.7780 -1.2609 -0.2136
 3258SOL    HW221237   3.130   0.085   3.243  2.1636 -1.9473 -0.1113
 3259SOL     OW21238   1.435   2.953   5.415  0.5966  0.0139 -0.5904
 3259SOL    HW121239   1.466   2.876   5.461  0.7038  0.0626 -0.5807
 3259SOL    HW221240   1.368   2.987   5.475 -1.4040 -0.2139 -2.6793
 3260SOL     OW21241   3.330   4.590  15.879  0.7960  0.0544  0.2366
 3260SOL    HW121242   3.402   4.561  15.824 -0.4739 -1.1633 -0.7673
 3260SOL    HW221243   3.294   4.653  15.817 -0.5101  2.1105  3.0585
 3261SOL     OW21244   0.539   1.537   5.786 -0.2131  0.3897  0.2453
 3261SOL    HW121245   0.470   1.471   5.782  0.9592 -0.7802 -0.5052
 3261SOL    HW221246   0.508   1.597   5.718  0.3786  1.6680  1.0978
 3262SOL     OW21247   2.894   2.251  15.906 -0.3322 -0.3279  0.3438
 3262SOL    HW121248   2.826   2.233  15.841  1.6991 -0.0450 -1.8983
 3262SOL    HW221249   2.965   2.211  15.856  0.1438 -0.7750  1.3824
 3263SOL     OW21250   0.470   2.570   8.863  0.2386  0.4628  0.2137
 3263SOL    HW121251   0.523   2.586   8.941  1.8893  1.7502 -1.1925
 3263SOL    HW221252   0.499   2.480   8.847 -1.4887 -0.1776  0.6828
 3264SOL     OW21253   3.088   1.290   3.629  0.4065 -0.6954 -0.2657
 3264SOL    HW121254   3.160   1.239   3.594  1.1910  0.5030 -0.3859
 3264SOL    HW221255   3.094   1.369   3.576  0.5591 -1.3645 -1.2355
 3265SOL     OW21256   1.559   3.935   3.127  0.0829 -0.0595 -0.0637
 3265SOL    HW121257   1.586   3.863   3.071  1.0176 -0.0155  0.3362
 3265SOL    HW221258   1.494   3.976   3.070  1.6755  0.3347 -1.5617
 3266SOL     OW21259   4.346   3.349   4.458  0.6595 -0.1919 -0.6333
 3266SOL    HW121260   4.376   3.259   4.468 -2.1668 -1.2246 -1.3537
 3266SOL    HW221261   4.280   3.348   4.527  0.2508 -1.0766 -1.0380
 3267SOL     OW21262   4.700   0.810   4.161  0.2966 -0.2736 -0.1488
 3267SOL    HW121263   4.711   0.715   4.160 -2.4417 -0.6465  3.4814
 3267SOL    HW221264   4.651   0.818   4.079 -2.8119 -1.4602  1.5808
 3268SOL     OW21265   4.145   1.975  15.455  0.2354 -0.0212  0.3296
 3268SOL    HW121266   4.134   1.892  15.501 -1.9434 -0.7974 -1.5753
 3268SOL    HW221267   4.223   2.009  15.500  0.2653  1.1339 -0.5920
 3269SOL     OW21268   4.441   1.861  13.483 -0.3266 -0.1103 -0.3163
 3269SOL    HW121269   4.510   1.903  13.534 -2.2075  1.6097  0.8102
 3269SOL    HW221270   4.490   1.796  13.431 -1.6242 -1.8242  0.6326
 3270SOL     OW21271   1.760   0.697   8.911 -0.6762 -0.1017 -0.3933
 3270SOL    HW121272   1.710   0.685   8.830 -1.8030  0.2394  0.2520
 3270SOL    HW221273   1.841   0.723   8.867  1.3765 -2.0458  2.2321
 3271SOL     OW21274   2.662   2.025   4.738 -0.2122  0.0503 -0.3361
 3271SOL    HW121275   2.697   2.004   4.652  0.2809  2.9034 -0.8357
 3271SOL    HW221276   2.580   1.975   4.745 -0.4849  0.6969  1.1324
 3272SOL     OW21277   2.840   0.794   3.399  0.0467  0.1958 -0.0778
 3272SOL    HW121278   2.901   0.856   3.441 -0.8428  0.9852  0.0374
 3272SOL    HW221279   2.766   0.797   3.460  0.7875  0.6782  0.8090
 3273SOL     OW21280   3.892   4.063   0.419 -0.7892 -0.4375  0.2205
 3273SOL    HW121281   3.824   4.089   0.357  0.7510 -0.3767 -1.4125
 3273SOL    HW221282   3.959   4.038   0.356 -1.2204  0.1665 -0.4788
 3274SOL     OW21283   2.686   3.803  14.486 -0.3856 -0.2940 -0.3344
 3274SOL    HW121284   2.756   3.865  14.464  1.0266 -2.2080 -1.2064
 3274SOL    HW221285   2.651   3.782  14.399 -1.2948 -0.7168  0.1322
 3275SOL     OW21286   0.514   3.005   7.286  0.7696  0.0334 -0.1847
 3275SOL    HW121287   0.449   2.942   7.318  0.8553  0.1678  0.2534
 3275SOL    HW221288   0.462   3.070   7.239 -1.1908 -1.0587  0.4675
 3276SOL     OW21289   0.378   2.121   7.012 -0.4904  0.1838  0.0788
 3276SOL    HW121290   0.335   2.180   7.075  2.0759  1.0745  1.0096
 3276SOL    HW221291   0.454   2.176   6.993 -1.6119  0.1521 -4.6648
 3277SOL     OW21292   1.314   1.883  17.396  0.0537  0.0880 -0.2664
 3277SOL    HW121293   1.288   1.975  17.386 -0.8289 -0.0058  1.1705
 3277SOL    HW221294   1.234   1.848  17.358  0.2007 -1.3278  0.7382
 3278SOL     OW21295   4.014   4.492   3.981 -0.5366 -0.5334  0.1317
 3278SOL    HW121296   4.050   4.403   3.975  1.5037  0.3115 -0.1232
 3278SOL    HW221297   4.011   4.505   3.887  0.2286 -0.0473  0.1769
 3279SOL     OW21298   2.867   4.257   6.034 -0.4199  0.6865  0.2449
 3279SOL    HW121299   2.825   4.221   5.955  2.2791  1.2684 -1.4561
 3279SOL    HW221300   2.896   4.174   6.070 -0.4515  0.4337 -0.3060
 3280SOL     OW21301   3.847   4.670   7.537 -0.1653 -0.1058 -0.6872
 3280SOL    HW121302   3.892   4.639   7.616 -1.9841 -1.1589 -0.0810
 3280SOL    HW221303   3.761   4.647   7.570  0.2231 -0.3657  0.1440
 3281SOL     OW21304   4.455   3.340   2.838  0.3323 -0.2982  0.4730
 3281SOL    HW121305   4.547   3.327   2.813  1.0847  0.0138  3.0355
 3281SOL    HW221306   4.469   3.428   2.873 -0.7825 -0.0385  0.2713
 3282SOL     OW21307   3.169   1.932  13.302  0.5463  0.1124  0.8301
 3282SOL    HW121308   3.224   1.990  13.354  2.0693 -0.4164 -0.1603
 3282SOL    HW221309   3.230   1.914  13.230 -0.4194 -0.2684  0.1071
 3283SOL     OW21310   2.272   2.839  13.355 -0.1113  0.0398 -0.6545
 3283SOL    HW121311   2.275   2.891  13.435 -1.7194 -1.2847  0.2882
 3283SOL    HW221312   2.230   2.902  13.296  1.0287  0.3111 -1.1673
 3284SOL     OW21313   3.969   4.602   1.252  0.4333 -0.0182 -0.2558
 3284SOL    HW121314   3.896   4.606   1.314  0.3211  2.3024 -0.5244
 3284SOL    HW221315   4.006   4.685   1.284  0.3064 -0.7582  1.8159
 3285SOL     OW21316   4.666   1.596   2.877 -0.9099 -0.0118 -0.3353
 3285SOL    HW121317   0.021   1.573   2.931  0.9707  2.5067 -1.8776
 3285SOL    HW221318   4.597   1.536   2.907 -0.8436 -0.2345 -0.6261
 3286SOL     OW21319   0.586   4.422   6.445 -0.2958 -0.2266 -0.0386
 3286SOL    HW121320   0.632   4.457   6.369  0.5213 -1.9108 -0.3097
 3286SOL    HW221321   0.578   4.329   6.425  3.3035 -0.6512  0.4170
 3287SOL     OW21322   4.450   3.261   8.633  0.1891 -0.1608  0.3646
 3287SOL    HW121323   4.385   3.206   8.591 -0.0666  0.4821 -0.0832
 3287SOL    HW221324   4.400   3.342   8.646  1.0918  0.2458  1.3609
 3288SOL     OW21325   3.080   3.256   8.367  0.2576  0.3228 -0.4997
 3288SOL    HW121326   3.161   3.291   8.404 -0.2234  1.4891 -0.5381
 3288SOL    HW221327   3.117   3.195   8.303  0.5791 -0.9905  0.9430
 3289SOL     OW21328   2.704   1.520  13.236 -0.1828 -0.2573 -0.4895
 3289SOL    HW121329   2.760   1.498  13.310 -2.0103  0.8503  1.2092
 3289SOL    HW221330   2.640   1.575  13.280  2.1351  1.8275  0.2754
 3290SOL     OW21331   2.799   0.738  14.733  0.1486  0.1583 -0.4161
 3290SOL    HW121332   2.755   0.789  14.665  1.0551  1.2010 -0.2230
 3290SOL    HW221333   2.724   0.697  14.775  0.4286 -0.1658 -0.2306
 3291SOL     OW21334   0.746   1.714   3.966  0.3245 -0.0165  0.1570
 3291SOL    HW121335   0.786   1.639   4.010 -1.0318 -0.1078  1.2308
 3291SOL    HW221336   0.817   1.743   3.909  0.1423 -1.3674 -0.7454
 3292SOL     OW21337   3.240   1.512   8.392  0.1737  0.1952  0.3100
 3292SOL    HW121338   3.222   1.580   8.456 -1.1099 -2.1954  2.5077
 3292SOL    HW221339   3.160   1.517   8.340 -0.0940  1.8182  0.8977
 3293SOL     OW21340   2.038   1.608  14.384 -0.0035  0.8997 -0.0511
 3293SOL    HW121341   2.010   1.693  14.351 -1.0305  1.4377  2.2209
 3293SOL    HW221342   2.103   1.628  14.451 -0.3382  1.2953  0.1558
 3294SOL     OW21343   1.839   3.525  11.548  0.1513 -0.5954 -0.0149
 3294SOL    HW121344   1.808   3.612  11.571  1.1094  0.1114 -1.4127
 3294SOL    HW221345   1.820   3.523  11.455  2.8275 -1.3359 -0.5561
 3295SOL     OW21346   2.998   1.858   2.417 -0.9154  0.3338  0.5382
 3295SOL    HW121347   3.012   1.941   2.462 -1.0965  0.3646  0.5374
 3295SOL    HW221348   3.087   1.828   2.398 -0.7829  0.6763  0.6238
 3296SOL     OW21349   3.108   3.255  12.616 -0.4782  0.2396  0.1730
 3296SOL    HW121350   3.129   3.325  12.679 -0.4477 -1.3902  1.9822
 3296SOL    HW221351   3.123   3.178  12.670 -2.0611  0.8343  1.5100
 3297SOL     OW21352   4.533   3.013   5.271 -0.0733  0.9737 -0.3511
 3297SOL    HW121353   4.595   3.057   5.214  0.5871  2.7507  1.7369
 3297SOL    HW221354   4.444   3.032   5.244 -1.4742 -3.1931  1.1996
 3298SOL     OW21355   1.197   0.151   5.222 -0.0619 -0.2169 -0.1310
 3298SOL    HW121356   1.123   0.177   5.278 -0.7804  1.2681 -1.8030
 3298SOL    HW221357   1.158   0.084   5.166 -0.3895 -0.5565  0.5001
 3299SOL     OW21358   3.228   0.840   6.681 -0.9150  0.4554  0.0395
 3299SOL    HW121359   3.230   0.842   6.585  1.3783 -0.3289  0.0628
 3299SOL    HW221360   3.316   0.802   6.686 -0.7979  0.6245 -0.6161
 3300SOL     OW21361   3.857   0.180   1.723  0.7551  0.6006  0.3643
 3300SOL    HW121362   3.782   0.208   1.672 -0.1373 -1.6394  0.4272
 3300SOL    HW221363   3.854   0.084   1.712  1.0089  0.5926  0.3444
 3301SOL     OW21364   1.407   0.544   5.169  0.1645 -0.1019 -0.4703
 3301SOL    HW121365   1.490   0.519   5.211  0.1063 -0.9692 -0.8695
 3301SOL    HW221366   1.373   0.591   5.245  2.3361  0.3489  0.2180
 3302SOL     OW21367   3.855   1.025   3.722 -0.1763 -0.1317 -0.0380
 3302SOL    HW121368   3.914   0.951   3.708 -1.8531 -1.5526  0.4779
 3302SOL    HW221369   3.811   0.992   3.800 -0.3374 -0.4196 -0.2514
 3303SOL     OW21370   0.669   3.155   9.648  0.1634  0.0614  0.1123
 3303SOL    HW121371   0.576   3.142   9.633  0.1742 -0.3705  0.4198
 3303SOL    HW221372   0.710   3.126   9.566 -1.0893  0.4857 -0.6545
 3304SOL     OW21373   2.772   2.891   7.959 -0.7465  0.2771 -0.3151
 3304SOL    HW121374   2.775   2.985   7.943  2.3625  0.2620  0.1897
 3304SOL    HW221375   2.850   2.872   8.011 -0.2840  1.2383 -0.6671
 3305SOL     OW21376   3.283   0.780   3.830 -0.4346 -0.1621  1.2658
 3305SOL    HW121377   3.266   0.764   3.737  0.7263 -1.1851  1.2249
 3305SOL    HW221378   3.275   0.875   3.825  0.9174 -0.3361 -3.5142
 3306SOL     OW21379   3.443   4.711  11.209  0.3624 -0.3490  0.4788
 3306SOL    HW121380   3.516   4.669  11.164  0.4983  0.1628  0.2205
 3306SOL    HW221381   3.370   4.658  11.178  0.8885  1.2072 -3.3706
 3307SOL     OW21382   1.616   0.010   9.509 -0.0967 -0.0979 -0.9244
 3307SOL    HW121383   1.546   0.035   9.449 -2.1594 -0.5154  1.3029
 3307SOL    HW221384   1.695   0.042   9.466  0.2852 -0.5630 -0.5697
 3308SOL     OW21385   0.217   3.961   5.147 -0.1002 -0.0121  0.0716
 3308SOL    HW121386   0.189   4.022   5.215  0.3339 -0.1963  0.4173
 3308SOL    HW221387   0.159   3.890   5.175 -1.8248  1.5802  0.5368
 3309SOL     OW21388   2.036   3.543   8.700 -0.0928 -0.0128 -0.2850
 3309SOL    HW121389   1.996   3.630   8.692  1.2582  0.9251  3.2244
 3309SOL    HW221390   2.007   3.517   8.787  0.0548 -0.8578 -0.4890
 3310SOL     OW21391   2.829   2.545   5.040 -0.4334 -0.1001 -0.3071
 3310SOL    HW121392   2.746   2.574   5.002 -0.8969 -0.0803  0.7215
 3310SOL    HW221393   2.802   2.524   5.129 -0.1267 -1.4282 -0.5240
 3311SOL     OW21394   1.895   3.015   4.111  0.6030  0.0420  0.1503
 3311SOL    HW121395   1.980   2.982   4.137  1.3752 -0.2730 -2.7767
 3311SOL    HW221396   1.917   3.046   4.023  1.6330 -3.2784 -0.7830
 3312SOL     OW21397   3.301   0.012   8.679 -0.2090  0.3919  0.2247
 3312SOL    HW121398   3.290   4.688   8.594 -1.1054  1.3254 -0.1488
 3312SOL    HW221399   3.293   4.662   8.743 -1.3747 -0.7067 -1.1174
 3313SOL     OW21400   1.340   0.657   5.400  0.5537 -0.5075  0.5428
 3313SOL    HW121401   1.402   0.721   5.435 -0.5567  0.7866  0.1474
 3313SOL    HW221402   1.263   0.673   5.454 -1.4315 -1.2569 -2.1189
 3314SOL     OW21403   1.083   2.897   1.280  0.6660 -0.9400 -0.2372
 3314SOL    HW121404   1.074   2.810   1.241  4.4337 -1.5640  0.2660
 3314SOL    HW221405   1.148   2.936   1.221 -1.1918  1.9417 -0.3730
 3315SOL     OW21406   0.817   4.397   7.109 -0.4689  0.3120  0.0946
 3315SOL    HW121407   0.778   4.472   7.064 -3.5401 -1.8780 -0.8483
 3315SOL    HW221408   0.870   4.453   7.167  0.5110 -0.5422  0.0246
 3316SOL     OW21409   1.155   0.818   7.747 -0.1002  0.1962 -0.2793
 3316SOL    HW121410   1.101   0.874   7.691  2.1385  2.8962  0.2469
 3316SOL    HW221411   1.095   0.773   7.806 -0.6761  2.1095  0.5893
 3317SOL     OW21412   4.497   3.704   7.088  0.5783  0.6667  0.6928
 3317SOL    HW121413   4.524   3.688   6.998  0.0477  1.3505  0.4120
 3317SOL    HW221414   4.403   3.723   7.086  0.4503  0.0363  0.6363
 3318SOL     OW21415   2.877   0.193   8.895  0.2870 -0.2747  0.6365
 3318SOL    HW121416   2.949   0.256   8.895  1.2320 -1.3512 -0.5120
 3318SOL    HW221417   2.806   0.255   8.910  1.3096  1.2720 -0.9111
 3319SOL     OW21418   4.232   3.613   4.798  0.4609 -0.0950 -0.0037
 3319SOL    HW121419   4.156   3.650   4.753  0.7020 -0.8048 -1.0069
 3319SOL    HW221420   4.284   3.692   4.817 -0.3470  0.2550  0.7035
 3320SOL     OW21421   3.512   2.444   4.478 -0.3533 -0.5109 -0.0823
 3320SOL    HW121422   3.476   2.374   4.425  0.9295 -1.5937  0.4627
 3320SOL    HW221423   3.600   2.432   4.441 -0.4677 -0.9232 -0.2179
 3321SOL     OW21424   3.761   3.811   2.086 -0.1377 -0.4618 -0.1120
 3321SOL    HW121425   3.801   3.781   2.004  0.0921 -0.1467 -0.1147
 3321SOL    HW221426   3.694   3.868   2.047  0.4605 -1.8090 -3.1297
 3322SOL     OW21427   2.036   1.782  14.731  0.7017 -0.3945  0.0920
 3322SOL    HW121428   2.095   1.726  14.681  0.4282 -0.5682 -0.0388
 3322SOL    HW221429   2.086   1.862  14.716  0.0441  0.3855  2.0750
 3323SOL     OW21430   1.612   4.609   3.151  0.0719  0.0068  0.0930
 3323SOL    HW121431   1.705   4.592   3.135  0.4256 -1.1614  3.3658
 3323SOL    HW221432   1.615   4.705   3.146 -1.5299  0.0417 -0.0879
 3324SOL     OW21433   4.007   1.687   6.545 -0.3428 -0.7128 -0.4416
 3324SOL    HW121434   4.019   1.704   6.452 -1.4622 -1.1653 -0.6655
 3324SOL    HW221435   3.928   1.736   6.567  0.8250  2.0556 -2.4265
 3325SOL     OW21436   0.892   0.787  15.441  0.1804 -0.0330  0.3307
 3325SOL    HW121437   0.869   0.703  15.480 -0.4260  0.2390  0.5671
 3325SOL    HW221438   0.936   0.825  15.518 -0.2091 -4.0384  2.5397
 3326SOL     OW21439   3.485   1.613   1.704  0.5329  0.0953  0.0333
 3326SOL    HW121440   3.452   1.662   1.629 -3.5267 -1.8487  0.5795
 3326SOL    HW221441   3.421   1.545   1.726 -0.8490  1.5226  0.4149
 3327SOL     OW21442   2.381   4.211   5.969 -0.2543  0.0986  0.5309
 3327SOL    HW121443   2.288   4.216   5.945  0.4574  1.6943 -1.7752
 3327SOL    HW221444   2.399   4.304   5.965 -0.7258  0.1099 -1.2845
 3328SOL     OW21445   4.425   3.854  13.084 -0.4640 -0.3545  0.1381
 3328SOL    HW121446   4.481   3.862  13.161 -1.7929  1.9232  0.8771
 3328SOL    HW221447   4.468   3.918  13.027 -0.0753 -0.2133  0.5862
 3329SOL     OW21448   1.673   3.815   3.953  1.0370 -0.5045  0.1511
 3329SOL    HW121449   1.682   3.823   4.048  1.9999 -0.5943  0.0668
 3329SOL    HW221450   1.686   3.723   3.932 -1.0605 -0.2573 -2.1687
 3330SOL     OW21451   2.467   2.459   4.443 -0.2274  0.0762  0.1765
 3330SOL    HW121452   2.438   2.394   4.506  0.4059 -0.6952 -0.3283
 3330SOL    HW221453   2.431   2.536   4.487 -1.9509 -0.4706 -0.3173
 3331SOL     OW21454   2.977   3.738   9.650  0.3826 -0.1349  0.0992
 3331SOL    HW121455   2.976   3.648   9.617  0.0327 -0.2639  0.4489
 3331SOL    HW221456   2.911   3.732   9.720 -1.9923  0.6242 -2.0854
 3332SOL     OW21457   0.271   2.000   3.374 -0.6568  0.3079 -0.1932
 3332SOL    HW121458   0.298   2.021   3.284 -5.2906 -0.2745 -1.7187
 3332SOL    HW221459   0.338   1.934   3.392 -0.4525  0.6814  0.4189
 3333SOL     OW21460   4.629   0.729   1.234  0.0490 -0.2376 -0.0960
 3333SOL    HW121461   4.623   0.648   1.284 -1.6331 -0.6017 -0.8855
 3333SOL    HW221462   4.535   0.743   1.242  0.6553  4.5049 -1.2761
 3334SOL     OW21463   3.514   3.458  14.848  0.0534  0.1943 -0.3823
 3334SOL    HW121464   3.540   3.422  14.763  1.7865  0.9385 -0.1742
 3334SOL    HW221465   3.599   3.459  14.891  0.7210 -2.7483 -1.6039
 3335SOL     OW21466   3.308   2.087  16.450 -0.0506  0.2145 -0.3137
 3335SOL    HW121467   3.283   2.146  16.520 -0.8274 -1.8370  1.1208
 3335SOL    HW221468   3.243   2.018  16.440  2.2347 -1.8495 -0.7901
 3336SOL     OW21469   4.595   3.697   2.067 -0.5473 -0.2285 -0.4356
 3336SOL    HW121470   4.661   3.635   2.036  0.3127  0.2982  0.3620
 3336SOL    HW221471   4.507   3.659   2.073 -0.1900 -1.1723 -1.2268
 3337SOL     OW21472   0.000   0.583   8.164 -0.3303 -0.0904 -0.2948
 3337SOL    HW121473   0.021   0.490   8.173 -1.5167 -0.2045  1.2578
 3337SOL    HW221474   4.708   0.601   8.071  1.2842 -0.7751 -0.6338
 3338SOL     OW21475   3.766   1.044   6.720  0.0792 -0.6915 -0.0172
 3338SOL    HW121476   3.847   1.085   6.752 -1.5127  0.5890  2.3645
 3338SOL    HW221477   3.700   1.112   6.725 -1.4180 -2.0637 -1.2184
 3339SOL     OW21478   0.743   3.292  11.317 -0.0832 -0.8673 -0.1241
 3339SOL    HW121479   0.834   3.282  11.345 -0.1215  0.9288  0.6528
 3339SOL    HW221480   0.706   3.257  11.398 -2.1776 -1.5251 -1.3880
 3340SOL     OW21481   2.685   4.112   4.425 -0.0802 -0.4531  0.2818
 3340SOL    HW121482   2.752   4.072   4.370  0.1201  0.3392 -0.0481
 3340SOL    HW221483   2.600   4.096   4.385  0.3982  1.1687 -1.4045
 3341SOL     OW21484   1.412   2.540   7.028 -0.0686  0.0268  0.8419
 3341SOL    HW121485   1.385   2.573   7.113  0.9046  1.0047  0.7847
 3341SOL    HW221486   1.499   2.507   7.051  0.3000 -0.3768 -1.0945
 3342SOL     OW21487   0.073   3.505   2.792  1.0103  0.1599 -0.1963
 3342SOL    HW121488   0.082   3.493   2.698  0.9684  1.6123 -0.3782
 3342SOL    HW221489   0.090   3.419   2.831 -0.1215  0.5904  1.2429
 3343SOL     OW21490   0.048   0.337   5.373 -0.0745 -0.2069 -0.0588
 3343SOL    HW121491   4.707   0.361   5.303  1.5335  0.0169 -1.3916
 3343SOL    HW221492   0.127   0.378   5.337  1.2689 -1.7178  1.1330
 3344SOL     OW21493   4.572   1.683   7.636  0.0401  0.5581  0.2876
 3344SOL    HW121494   4.586   1.734   7.715  0.5331 -0.9533  1.1816
 3344SOL    HW221495   4.523   1.610   7.675  0.8071  0.4626  1.0667
 3345SOL     OW21496   1.493   2.447  12.850 -0.2161 -0.0381 -0.3472
 3345SOL    HW121497   1.479   2.510  12.920  3.6000 -2.3693  2.5164
 3345SOL    HW221498   1.584   2.427  12.871  0.4376  1.2612 -1.9008
 3346SOL     OW21499   0.201   2.257  12.867 -0.4624  0.2517 -0.7185
 3346SOL    HW121500   0.191   2.293  12.956  0.0248 -3.8532  0.9786
 3346SOL    HW221501   0.280   2.205  12.879 -0.3439  0.5621 -0.1185
 3347SOL     OW21502   3.529   4.320  16.474  0.0177  0.2117  0.5549
 3347SOL    HW121503   3.562   4.249  16.529  0.6362 -1.6444 -2.2806
 3347SOL    HW221504   3.592   4.329  16.403  1.9296 -2.5028  1.8827
 3348SOL     OW21505   0.477   3.492   7.821 -0.4414 -0.2024 -0.9806
 3348SOL    HW121506   0.494   3.400   7.837 -3.8563 -0.6693 -0.0124
 3348SOL    HW221507   0.409   3.482   7.754 -0.4529  0.0739 -1.0120
 3349SOL     OW21508   0.767   4.259   3.607 -0.6364 -0.1697  0.2084
 3349SOL    HW121509   0.839   4.209   3.570 -0.4064 -0.6743  1.3290
 3349SOL    HW221510   0.800   4.349   3.611 -0.6317 -0.2431  1.8797
 3350SOL     OW21511   0.314   1.274  15.171  0.2254 -0.0594  0.3099
 3350SOL    HW121512   0.236   1.218  15.172  0.7807 -0.8169  1.9149
 3350SOL    HW221513   0.374   1.238  15.106  0.0416  1.1575 -0.5334
 3351SOL     OW21514   3.403   3.964  13.055  0.4771  0.3487  0.4271
 3351SOL    HW121515   3.376   3.992  13.142 -0.3042  1.4785 -0.1755
 3351SOL    HW221516   3.328   3.909  13.035  0.1580  1.0311 -0.2677
 3352SOL     OW21517   4.315   4.639   0.988  0.2175  0.1278  1.0021
 3352SOL    HW121518   4.382   4.677   1.045 -0.3392 -0.3250  1.9590
 3352SOL    HW221519   4.254   4.713   0.991  1.1497  0.9371  0.1218
 3353SOL     OW21520   0.897   1.675  14.508 -0.2463  0.1011 -0.1283
 3353SOL    HW121521   0.976   1.626  14.533 -1.3729 -0.8851  1.5196
 3353SOL    HW221522   0.850   1.598  14.478 -0.2559 -0.2384  0.7556
 3354SOL     OW21523   1.463   0.760  10.294  0.7428  0.1493  0.4958
 3354SOL    HW121524   1.474   0.764  10.199 -1.2361 -1.4967  0.1953
 3354SOL    HW221525   1.538   0.805  10.333  1.7854  0.2355 -1.6074
 3355SOL     OW21526   3.994   3.718   6.917 -0.0175 -0.2693 -0.2239
 3355SOL    HW121527   3.981   3.646   6.855  1.7030  0.2852 -1.2276
 3355SOL    HW221528   3.963   3.672   6.995  1.9165 -1.3693 -0.0873
 3356SOL     OW21529   0.777   1.365   6.819  0.2765 -0.5608  0.2901
 3356SOL    HW121530   0.733   1.373   6.904 -1.3724  0.2884 -0.6432
 3356SOL    HW221531   0.829   1.286   6.834  0.9250 -0.1777  0.0400
 3357SOL     OW21532   0.650   3.747  16.509  0.2795  0.3565 -0.0148
 3357SOL    HW121533   0.592   3.722  16.437  0.6969 -0.5701 -0.0302
 3357SOL    HW221534   0.595   3.709  16.578 -0.7074 -0.7299 -1.4028
 3358SOL     OW21535   0.159   2.787   4.429 -0.2910 -0.4716  0.0959
 3358SOL    HW121536   0.118   2.761   4.346  1.9454  0.0078 -1.1563
 3358SOL    HW221537   0.151   2.882   4.422 -2.2330 -0.5560  1.1379
 3359SOL     OW21538   4.439   0.825   2.952 -0.6674 -0.1080  0.2411
 3359SOL    HW121539   4.413   0.733   2.952 -1.7817  0.1878 -2.5073
 3359SOL    HW221540   4.391   0.852   2.873  0.1133  1.2134  0.2093
 3360SOL     OW21541   4.238   1.905   6.007 -0.6279 -0.5728  0.5403
 3360SOL    HW121542   4.288   1.826   6.026 -0.7829 -0.2638  2.3279
 3360SOL    HW221543   4.292   1.969   5.960  1.9309 -2.3856  0.9974
 3361SOL     OW21544   0.463   2.941   2.129  0.2158 -0.0032 -0.2145
 3361SOL    HW121545   0.530   2.982   2.184 -1.1394  0.4424  1.0772
 3361SOL    HW221546   0.396   3.008   2.118  1.0755  0.9375  0.2424
 3362SOL     OW21547   2.156   4.463   8.342  0.0973 -0.3088 -0.7414
 3362SOL    HW121548   2.093   4.429   8.405  0.3278  0.0009 -0.3439
 3362SOL    HW221549   2.116   4.550   8.340 -0.4152 -0.5583 -1.4454
 3363SOL     OW21550   2.552   1.995   5.150  0.0386  0.3987  0.3159
 3363SOL    HW121551   2.583   1.935   5.081 -0.8491 -2.2610  2.2197
 3363SOL    HW221552   2.458   1.993   5.131 -0.0288 -0.3258  0.7395
 3364SOL     OW21553   2.375   4.260  17.274 -0.6471  0.2497  0.0850
 3364SOL    HW121554   2.309   4.305  17.327  0.3711  1.1634  0.5696
 3364SOL    HW221555   2.455   4.278  17.322 -0.5775  1.6691 -0.5830
 3365SOL     OW21556   1.712   3.430   9.788 -0.0465  0.0354 -0.0980
 3365SOL    HW121557   1.794   3.443   9.836 -1.1980  2.4511  1.2701
 3365SOL    HW221558   1.645   3.434   9.857 -0.5886 -2.8233 -0.4772
 3366SOL     OW21559   0.850   1.482   5.356  0.0261  0.1818  0.4606
 3366SOL    HW121560   0.909   1.553   5.330  0.2606  0.0567  0.6520
 3366SOL    HW221561   0.888   1.473   5.443  0.5851  1.9342  0.3936
 3367SOL     OW21562   0.457   2.407   9.853 -0.6398 -0.0388  0.5450
 3367SOL    HW121563   0.370   2.377   9.879 -1.8019  1.0734 -2.0346
 3367SOL    HW221564   0.472   2.458   9.932 -0.8816 -0.7665  1.0549
 3368SOL     OW21565   2.115   0.499   6.754 -0.1287 -0.3382 -0.0378
 3368SOL    HW121566   2.120   0.525   6.662 -2.4462  0.2386 -0.0031
 3368SOL    HW221567   2.075   0.579   6.789  0.6508  0.4356 -0.8897
 3369SOL     OW21568   1.505   2.250   1.234 -0.0389  0.3290 -0.1872
 3369SOL    HW121569   1.552   2.332   1.252  0.6154 -0.2452  0.7397
 3369SOL    HW221570   1.559   2.222   1.160  1.0874 -1.8598  1.4762
 3370SOL     OW21571   3.871   2.186   8.716  0.0721 -0.0544 -0.4567
 3370SOL    HW121572   3.814   2.162   8.643 -0.6418 -1.8970  0.7059
 3370SOL    HW221573   3.927   2.108   8.713 -0.2353 -0.4461  3.5063
 3371SOL     OW21574   3.497   0.185  17.121  0.3423 -0.3349 -0.1524
 3371SOL    HW121575   3.592   0.188  17.109  0.3013  1.4879 -0.0781
 3371SOL    HW221576   3.471   0.169  17.030 -4.1181 -0.1072  1.1115
 3372SOL     OW21577   0.497   3.982   5.131  0.1772  0.3655 -0.3114
 3372SOL    HW121578   0.485   3.919   5.203 -1.7048 -0.6973 -1.5546
 3372SOL    HW221579   0.401   3.987   5.128  0.2075  1.3197  0.2369
 3373SOL     OW21580   1.968   1.262   1.563  0.0110 -0.1440  0.1508
 3373SOL    HW121581   2.022   1.290   1.637  0.3857 -0.8272  0.1409
 3373SOL    HW221582   2.011   1.177   1.551  0.2290 -0.2431  1.6932
 3374SOL     OW21583   1.794   3.439   6.835 -0.0111 -0.0392  0.3691
 3374SOL    HW121584   1.812   3.350   6.864 -0.2090 -0.5750 -1.1315
 3374SOL    HW221585   1.864   3.485   6.881  0.0832 -1.1405  1.3183
 3375SOL     OW21586   2.757   1.496   7.312 -0.0017 -0.0402 -0.2130
 3375SOL    HW121587   2.685   1.437   7.333  1.2610 -1.4230  0.2467
 3375SOL    HW221588   2.735   1.527   7.225 -1.1121 -2.0430 -0.6556
 3376SOL     OW21589   4.494   4.038  16.363 -0.2373  0.0445  0.1870
 3376SOL    HW121590   4.501   4.090  16.283  1.2896 -0.5366 -0.0497
 3376SOL    HW221591   4.481   3.951  16.326 -0.4921 -0.1723  0.7817
 3377SOL     OW21592   0.069   2.957   6.985  0.4348  0.1353  0.0313
 3377SOL    HW121593   0.067   2.973   6.890  0.0598 -2.4367 -0.3977
 3377SOL    HW221594   0.140   2.894   6.978 -1.0903 -1.5323 -0.4258
 3378SOL     OW21595   3.307   3.393   8.448  0.9801 -0.0624  0.4357
 3378SOL    HW121596   3.323   3.343   8.368  0.1135  0.5920 -0.1434
 3378SOL    HW221597   3.384   3.387   8.504  1.9950  0.8881 -0.8548
 3379SOL     OW21598   1.418   0.360   5.811  0.0965  0.4925  0.6280
 3379SOL    HW121599   1.362   0.284   5.826  2.8120 -1.5283  0.6548
 3379SOL    HW221600   1.400   0.392   5.723  1.3982  3.0075  1.2986
 3380SOL     OW21601   0.416   2.528   3.701 -0.7411  0.1512 -0.0908
 3380SOL    HW121602   0.323   2.532   3.680 -0.7077 -1.9312 -0.6607
 3380SOL    HW221603   0.408   2.564   3.789  0.7977 -0.4854  0.3182
 3381SOL     OW21604   2.924   3.836   2.253  0.6453  0.0959  0.3290
 3381SOL    HW121605   2.937   3.766   2.189  1.0312  0.4296  0.0343
 3381SOL    HW221606   2.946   3.915   2.203 -2.2310  0.9976  0.5003
 3382SOL     OW21607   4.141   0.828  11.183 -0.4140 -1.0504 -0.1443
 3382SOL    HW121608   4.170   0.856  11.096  0.4296 -1.4802 -0.0017
 3382SOL    HW221609   4.049   0.853  11.176 -0.4688 -0.7283  1.8027
 3383SOL     OW21610   3.030   2.669   2.391 -0.5856 -0.1677  0.2853
 3383SOL    HW121611   3.065   2.757   2.397 -3.2595  0.9137  0.0427
 3383SOL    HW221612   3.082   2.628   2.460  0.6047 -1.0192 -1.1174
 3384SOL     OW21613   0.699   3.950   8.461  0.2964 -0.0975  0.3972
 3384SOL    HW121614   0.696   3.967   8.367 -2.5756 -2.7624  0.0273
 3384SOL    HW221615   0.630   4.015   8.474  1.2353  1.2004 -1.2208
 3385SOL     OW21616   3.290   4.580  13.567 -0.4467  0.2055 -0.0295
 3385SOL    HW121617   3.217   4.552  13.624 -0.1221  0.1984  0.3841
 3385SOL    HW221618   3.255   4.658  13.525 -3.0223 -0.6193  0.5517
 3386SOL     OW21619   3.396   2.080   3.814  0.3790  0.4091 -0.1202
 3386SOL    HW121620   3.416   2.013   3.880  0.2978  2.3936  1.9414
 3386SOL    HW221621   3.385   2.021   3.740  1.1004 -0.0501  0.1367
 3387SOL     OW21622   1.074   1.413   1.200 -0.2901  0.2971  0.4541
 3387SOL    HW121623   1.153   1.467   1.193 -0.9267  1.4473  2.1099
 3387SOL    HW221624   1.084   1.343   1.265  2.3947 -0.9631 -1.3430
 3388SOL     OW21625   2.313   2.731  12.778  0.4814 -0.1099 -0.2817
 3388SOL    HW121626   2.307   2.639  12.803  1.2816 -0.0396  0.1763
 3388SOL    HW221627   2.407   2.751  12.769  1.0679 -2.6130  0.4136
 3389SOL     OW21628   4.543   1.097  11.629  0.2448  0.3192  0.7312
 3389SOL    HW121629   4.459   1.143  11.634 -0.5863 -1.1277 -0.0408
 3389SOL    HW221630   4.514   1.013  11.664 -1.2708  1.3451  1.9671
 3390SOL     OW21631   2.981   2.447   4.051 -0.3834  0.4807 -0.2852
 3390SOL    HW121632   2.931   2.428   3.972  1.4348  0.0505 -1.3147
 3390SOL    HW221633   2.915   2.415   4.113  0.1215  2.8727  1.4818
 3391SOL     OW21634   1.336   3.562   8.196  0.2489 -0.0249 -0.4338
 3391SOL    HW121635   1.295   3.496   8.252 -1.1410  1.0051 -0.2646
 3391SOL    HW221636   1.377   3.622   8.258  0.3431 -1.4204  0.8509
 3392SOL     OW21637   2.663   2.276   6.111 -0.1510  0.1900  0.4585
 3392SOL    HW121638   2.725   2.348   6.100 -0.4482  0.3437 -0.2323
 3392SOL    HW221639   2.595   2.315   6.055 -0.8824 -3.1029 -0.9901
 3393SOL     OW21640   0.540   0.235   6.472 -0.0383  0.3175  0.0404
 3393SOL    HW121641   0.594   0.283   6.535 -0.7014 -0.6656  1.3502
 3393SOL    HW221642   0.586   0.152   6.467  0.6257  0.8219 -2.5938
 3394SOL     OW21643   1.599   1.112   8.259  0.0780  0.5340 -0.3116
 3394SOL    HW121644   1.534   1.119   8.329  0.6844  1.2704  0.1670
 3394SOL    HW221645   1.651   1.190   8.276 -1.1810  1.3057 -0.0151
 3395SOL     OW21646   3.151   1.286   6.162 -0.9084 -0.5794 -0.4635
 3395SOL    HW121647   3.066   1.243   6.173 -1.4814  1.0150  1.2639
 3395SOL    HW221648   3.193   1.231   6.228 -0.4590 -0.4282 -0.6234
 3396SOL     OW21649   0.096   0.252   7.639 -0.1164 -0.2140 -0.2294
 3396SOL    HW121650   0.035   0.283   7.706 -0.5201 -0.0631 -0.6640
 3396SOL    HW221651   0.074   0.288   7.553 -0.7790  0.5524  0.2702
 3397SOL     OW21652   2.716   3.479   1.300  0.6389 -0.3432  0.3639
 3397SOL    HW121653   2.762   3.407   1.256 -0.4239 -1.6668  1.4447
 3397SOL    HW221654   2.769   3.525   1.365  0.1488 -0.9610  1.2009
 3398SOL     OW21655   2.389   1.776  17.312  0.1173 -0.0278  0.2882
 3398SOL    HW121656   2.348   1.848  17.264 -1.2643 -0.3345  1.0049
 3398SOL    HW221657   2.413   1.731  17.232  2.3948  0.0097  0.9678
 3399SOL     OW21658   1.254   3.717   5.987  1.0798  0.4018 -0.1330
 3399SOL    HW121659   1.236   3.739   5.896  1.6039  0.7337 -0.1539
 3399SOL    HW221660   1.267   3.622   5.979 -0.5893  0.0921  0.7141
 3400SOL     OW21661   2.659   4.457   6.690 -0.2413  0.2015 -0.6730
 3400SOL    HW121662   2.749   4.486   6.679  0.4780 -1.4331  0.9770
 3400SOL    HW221663   2.616   4.542   6.693  1.5922  1.0640  0.4973
 3401SOL     OW21664   2.000   3.209   6.368  0.3800 -0.3804 -0.3027
 3401SOL    HW121665   1.925   3.228   6.424  0.9572  0.1869  0.2782
 3401SOL    HW221666   1.953   3.185   6.288 -0.3956 -4.1374  1.3163
 3402SOL     OW21667   0.423   3.394   4.017 -0.3746  0.0876 -0.1024
 3402SOL    HW121668   0.422   3.481   3.978 -1.2723 -0.2604 -0.8665
 3402SOL    HW221669   0.479   3.346   3.956 -0.6011 -1.1795  0.6830
 3403SOL     OW21670   4.270   1.988   7.936 -0.0202 -0.6222 -0.0840
 3403SOL    HW121671   4.218   1.915   7.903 -0.2726 -0.4054 -0.1607
 3403SOL    HW221672   4.319   1.946   8.007  0.5783 -0.8232 -0.6137
 3404SOL     OW21673   0.687   2.599   3.222  0.0122 -0.3770 -0.4300
 3404SOL    HW121674   0.746   2.608   3.297 -1.0866  0.4921  0.3410
 3404SOL    HW221675   0.748   2.610   3.150  0.0824 -0.3131 -0.3609
 3405SOL     OW21676   4.234   2.493   6.147  0.0351  1.0410  0.0834
 3405SOL    HW121677   4.326   2.470   6.161  0.2418 -0.1017 -2.9391
 3405SOL    HW221678   4.217   2.429   6.077  0.1826 -0.3203  1.2899
 3406SOL     OW21679   1.942   1.985  10.657  0.1642  0.5988  0.0731
 3406SOL    HW121680   2.025   1.943  10.680 -0.4009 -1.2689 -1.2869
 3406SOL    HW221681   1.879   1.934  10.707 -0.2648 -0.1912 -1.2511
 3407SOL     OW21682   3.276   2.370   2.778  0.5721  0.3262  0.0759
 3407SOL    HW121683   3.224   2.363   2.858 -0.4374  2.9999 -0.3636
 3407SOL    HW221684   3.243   2.290   2.736 -0.0735  0.0623  1.0895
 3408SOL     OW21685   1.189   3.356   6.183 -0.5634  0.3806 -0.0520
 3408SOL    HW121686   1.175   3.348   6.089 -1.3685 -0.6600  0.1595
 3408SOL    HW221687   1.273   3.402   6.192 -0.3223 -0.7148  3.2703
 3409SOL     OW21688   1.067   2.059   3.966  0.2704 -0.6138  0.3701
 3409SOL    HW121689   1.072   1.968   3.934 -1.9207 -0.5507 -0.1746
 3409SOL    HW221690   1.161   2.075   3.974 -0.0409  1.2501  0.1373
 3410SOL     OW21691   0.145   0.556   8.853 -0.7630  0.1607  0.1482
 3410SOL    HW121692   0.066   0.536   8.903 -0.8842 -0.2706 -0.2100
 3410SOL    HW221693   0.136   0.496   8.779 -2.4607  2.3533 -1.4512
 3411SOL     OW21694   1.533   0.669   1.925 -0.5639 -0.4848 -0.1141
 3411SOL    HW121695   1.488   0.586   1.940  0.3276 -1.0636 -0.6148
 3411SOL    HW221696   1.475   0.692   1.852  0.1418 -2.8061 -1.4397
 3412SOL     OW21697   0.734   2.540   4.362 -0.3399 -0.1506 -0.3903
 3412SOL    HW121698   0.808   2.480   4.363 -0.8429 -0.7661  0.1255
 3412SOL    HW221699   0.733   2.576   4.451 -0.1632 -0.0319 -0.4367
 3413SOL     OW21700   1.424   0.775   8.914  0.2110 -0.3823  0.2194
 3413SOL    HW121701   1.347   0.760   8.858 -0.0685 -0.8049  0.7117
 3413SOL    HW221702   1.467   0.842   8.861 -0.3053 -1.5040 -1.6519
 3414SOL     OW21703   2.785   1.693   8.483 -0.1613  0.2656 -0.4487
 3414SOL    HW121704   2.801   1.603   8.454 -0.8857 -0.3100  0.9214
 3414SOL    HW221705   2.823   1.686   8.570 -0.8176 -0.8419 -0.2527
 3415SOL     OW21706   2.244   1.046   8.414  0.4611 -0.1570 -0.4157
 3415SOL    HW121707   2.160   1.028   8.373 -0.1381  1.6817 -0.0159
 3415SOL    HW221708   2.282   1.104   8.347  0.8063 -0.9304 -0.8823
 3416SOL     OW21709   2.937   2.152   3.306  0.4872  0.5753 -0.5353
 3416SOL    HW121710   3.031   2.149   3.290  0.4155  1.0929 -1.0650
 3416SOL    HW221711   2.920   2.059   3.292  0.0198  0.4144  1.0241
 3417SOL     OW21712   3.353   1.778  10.793  0.4599 -0.2119  0.3607
 3417SOL    HW121713   3.415   1.705  10.782 -0.9600 -1.5728  1.5733
 3417SOL    HW221714   3.297   1.737  10.858 -0.5764  0.8009  0.0914
 3418SOL     OW21715   4.258   0.236   7.430  0.4318 -0.2404 -0.1744
 3418SOL    HW121716   4.259   0.173   7.358  0.6872  1.0055 -1.2744
 3418SOL    HW221717   4.165   0.235   7.450 -0.2149  1.3503 -3.0806
 3419SOL     OW21718   3.696   0.320   6.799 -0.3694 -0.3372  0.1343
 3419SOL    HW121719   3.618   0.354   6.754  0.5259  0.1464 -1.0285
 3419SOL    HW221720   3.703   0.233   6.761 -2.0779 -0.1347 -0.6852
 3420SOL     OW21721   1.640   4.277  16.961  0.1326 -0.0581 -0.2932
 3420SOL    HW121722   1.635   4.186  16.990  1.6250  0.5916  2.0301
 3420SOL    HW221723   1.557   4.292  16.918 -1.7368 -1.5561  2.7768
 3421SOL     OW21724   3.355   1.782  11.646  0.0476  0.0236 -0.1069
 3421SOL    HW121725   3.350   1.697  11.691 -1.2181  0.1552 -0.0102
 3421SOL    HW221726   3.262   1.792  11.625  0.0729  0.5561  0.0466
 3422SOL     OW21727   1.797   2.950   3.350 -0.0097 -0.1671  0.0865
 3422SOL    HW121728   1.867   2.919   3.293  0.9795 -0.4459  1.4341
 3422SOL    HW221729   1.795   2.870   3.403 -1.8674  1.3284  2.2457
 3423SOL     OW21730   3.368   0.180  16.295  0.1755  0.1568 -0.4626
 3423SOL    HW121731   3.277   0.150  16.308 -0.1350  1.8412  1.3300
 3423SOL    HW221732   3.404   0.094  16.273 -2.6761 -2.0536  3.3493
 3424SOL     OW21733   1.200   2.799   4.567 -0.6063  0.7357 -0.0475
 3424SOL    HW121734   1.141   2.807   4.642  0.2638 -0.8689  0.8080
 3424SOL    HW221735   1.136   2.837   4.506  0.4964  0.1676 -1.5824
 3425SOL     OW21736   0.333   0.152   2.398  0.2033 -0.0721 -0.1445
 3425SOL    HW121737   0.383   0.095   2.340  1.3613 -0.7986  1.5427
 3425SOL    HW221738   0.333   0.240   2.363 -0.7348 -0.7336 -1.7900
 3426SOL     OW21739   3.018   3.875   7.247 -0.7835  0.1127 -0.1358
 3426SOL    HW121740   2.999   3.791   7.207  1.1585 -0.4219  0.0908
 3426SOL    HW221741   2.959   3.883   7.322 -0.1169 -1.2846  0.5279
 3427SOL     OW21742   2.116   3.134   2.981  0.7098 -0.1180  0.3547
 3427SOL    HW121743   2.054   3.097   2.918  2.0082  1.4427 -1.8532
 3427SOL    HW221744   2.144   3.052   3.022  1.3592 -1.4503 -2.7432
 3428SOL     OW21745   3.726   4.210  10.489 -0.9369  0.1699 -0.2868
 3428SOL    HW121746   3.790   4.165  10.544  0.1890  0.9517 -0.9675
 3428SOL    HW221747   3.713   4.136  10.429 -1.3061  0.1872 -0.2243
 3429SOL     OW21748   4.711   3.849  11.139  0.2460 -0.0308 -0.8460
 3429SOL    HW121749   0.070   3.815  11.182 -1.0230  0.4023  1.8688
 3429SOL    HW221750   0.009   3.936  11.104  0.2079  0.5181  0.4725
 3430SOL     OW21751   2.522   1.681   2.313 -0.0904 -0.6530  0.8602
 3430SOL    HW121752   2.590   1.744   2.339 -0.1056  0.4423 -1.7510
 3430SOL    HW221753   2.490   1.724   2.234  0.7192 -3.0180 -0.7388
 3431SOL     OW21754   4.710   0.335   3.762  0.4499 -0.4666 -0.0621
 3431SOL    HW121755   0.009   0.250   3.723 -1.4197 -0.5761 -0.7570
 3431SOL    HW221756   4.679   0.393   3.692 -0.0231  0.3718  0.8447
 3432SOL     OW21757   4.214   1.909  14.728  0.4422  0.1304 -0.4366
 3432SOL    HW121758   4.217   1.896  14.823 -1.7459  0.1471 -0.3478
 3432SOL    HW221759   4.172   1.826  14.705 -0.6990  0.1939  1.4270
 3433SOL     OW21760   0.506   1.961  16.832 -0.1791 -0.3215  0.2729
 3433SOL    HW121761   0.589   1.991  16.795  0.3436  0.4588  2.0985
 3433SOL    HW221762   0.456   2.042  16.828  0.0894 -0.1649  0.1166
 3434SOL     OW21763   3.128   2.245   6.068 -0.1526  0.0996 -0.6108
 3434SOL    HW121764   3.054   2.259   6.128  2.4986  0.4873  2.5715
 3434SOL    HW221765   3.145   2.152   6.084 -0.9457  0.5732  2.9798
 3435SOL     OW21766   0.692   0.074  11.308  0.4876 -0.3236 -0.0346
 3435SOL    HW121767   0.681   0.154  11.256 -0.9067  0.7143  1.8355
 3435SOL    HW221768   0.767   0.102  11.360 -0.3072  1.0348  0.3910
 3436SOL     OW21769   4.473   0.000   1.790  0.5434  0.2465  0.6717
 3436SOL    HW121770   4.471   4.690   1.699 -0.0843 -0.8428  1.0500
 3436SOL    HW221771   4.529   0.078   1.792 -1.1206  1.4739 -0.1916
 3437SOL     OW21772   1.101   0.910   5.456  0.1698 -0.5276  0.0017
 3437SOL    HW121773   1.108   0.912   5.551  0.1092 -0.0032 -0.0031
 3437SOL    HW221774   1.113   1.002   5.430  1.4083  0.0515  2.6171
 3438SOL     OW21775   1.948   1.928   1.986 -0.0961  0.4819 -0.2281
 3438SOL    HW121776   1.912   2.012   1.956 -0.2739  0.3892 -0.2685
 3438SOL    HW221777   1.898   1.912   2.066 -1.3754  1.7290 -0.7732
 3439SOL     OW21778   1.355   0.852   9.899  0.1821 -0.1531 -0.9219
 3439SOL    HW121779   1.416   0.827   9.968 -1.4105 -0.9233  0.2008
 3439SOL    HW221780   1.407   0.833   9.821 -0.1467  0.0261 -1.1827
 3440SOL     OW21781   3.668   3.214   6.411 -0.1075  0.3344  0.3513
 3440SOL    HW121782   3.744   3.178   6.365 -0.1217 -0.5239  0.9877
 3440SOL    HW221783   3.708   3.287   6.459 -1.6833  0.6938  1.1204
 3441SOL     OW21784   2.266   1.877  15.082 -0.2409 -0.3697  0.5295
 3441SOL    HW121785   2.316   1.947  15.041  1.1698  0.7383  4.1585
 3441SOL    HW221786   2.178   1.913  15.070  1.1673  2.4556 -1.3480
 3442SOL     OW21787   4.503   3.305   3.989 -0.5026 -0.3946 -0.0396
 3442SOL    HW121788   4.430   3.294   4.050 -1.8663  0.4241 -1.5342
 3442SOL    HW221789   4.526   3.213   3.974 -1.9101 -0.6993 -0.3263
 3443SOL     OW21790   1.406   2.712   4.825  0.6434  0.3289 -0.0000
 3443SOL    HW121791   1.418   2.771   4.751 -1.4576 -0.7430 -1.2093
 3443SOL    HW221792   1.355   2.761   4.890 -0.4882  1.4427 -1.7519
 3444SOL     OW21793   1.763   0.957   5.639  0.0077 -0.0944  0.0234
 3444SOL    HW121794   1.746   0.924   5.728  0.6583 -0.1157  0.1347
 3444SOL    HW221795   1.779   1.051   5.649  0.3925 -0.2009  0.4185
 3445SOL     OW21796   1.301   1.216   9.449  0.2033  0.2456  0.3067
 3445SOL    HW121797   1.303   1.262   9.365 -3.3010 -1.8101 -0.8854
 3445SOL    HW221798   1.306   1.125   9.419 -0.2368  0.0398  0.8715
 3446SOL     OW21799   2.043   2.125   6.547 -0.0385  0.8117  0.3252
 3446SOL    HW121800   1.953   2.101   6.525  0.4219 -0.8843  0.2637
 3446SOL    HW221801   2.093   2.077   6.481 -0.3639 -0.5430  1.0538
 3447SOL     OW21802   4.663   1.666   5.438  0.1481 -0.0799  0.1333
 3447SOL    HW121803   4.703   1.607   5.374  1.8781  1.6649 -0.4348
 3447SOL    HW221804   0.013   1.666   5.504  0.3789  2.8523 -0.1068
 3448SOL     OW21805   3.571   4.331   4.535 -0.0019  0.4435 -0.2889
 3448SOL    HW121806   3.509   4.258   4.522  1.2225 -0.5699 -0.3913
 3448SOL    HW221807   3.578   4.375   4.450 -2.3489  2.3204  0.5070
 3449SOL     OW21808   4.000   1.833   4.119  0.1242 -0.4212 -0.4144
 3449SOL    HW121809   3.954   1.749   4.111  0.5323 -0.4597 -2.3806
 3449SOL    HW221810   3.980   1.881   4.039 -0.4714 -1.6748 -1.0183
 3450SOL     OW21811   0.315   4.687   1.434 -0.4150  0.2202 -0.3810
 3450SOL    HW121812   0.261   4.714   1.508  0.6931 -0.0793  0.5308
 3450SOL    HW221813   0.259   4.619   1.397  0.1290  0.0329 -0.8660
 3451SOL     OW21814   3.609   4.691  10.868 -0.2159 -0.5715  0.7618
 3451SOL    HW121815   3.660   4.633  10.925  0.5761 -1.3589 -0.7506
 3451SOL    HW221816   3.593   4.630  10.796  1.3326 -1.3394  1.0627
 3452SOL     OW21817   3.228   3.297   1.432 -0.4706 -0.4244 -0.2458
 3452SOL    HW121818   3.164   3.325   1.366 -1.6883  1.5494  1.7621
 3452SOL    HW221819   3.166   3.259   1.494 -0.4470  0.4109  0.2960
 3453SOL     OW21820   1.494   4.323   6.792 -0.0238 -0.3058  0.1930
 3453SOL    HW121821   1.574   4.320   6.738  1.6275  0.8875  2.5870
 3453SOL    HW221822   1.493   4.232   6.823 -0.8715  0.3826  2.1783
 3454SOL     OW21823   2.660   2.837   6.228 -0.6795 -0.1054  0.0374
 3454SOL    HW121824   2.648   2.907   6.292 -2.5807 -0.8319  0.4903
 3454SOL    HW221825   2.600   2.772   6.265  1.3765 -1.0511  1.7078
 3455SOL     OW21826   2.082   4.587   6.653  0.1616 -0.1356 -0.0038
 3455SOL    HW121827   2.016   4.570   6.585 -0.6593 -0.2409  0.8173
 3455SOL    HW221828   2.143   4.515   6.642 -0.4215 -0.3881 -1.6251
 3456SOL     OW21829   1.032   0.561   9.111 -0.4509  0.1538 -0.2344
 3456SOL    HW121830   1.076   0.478   9.094 -0.9371  0.4577 -2.9618
 3456SOL    HW221831   0.941   0.537   9.097 -0.4170 -0.4230  0.5548
 3457SOL     OW21832   2.451   2.743  15.036  0.0430 -0.1215  0.4761
 3457SOL    HW121833   2.427   2.815  15.094 -0.0073  1.1507 -1.1219
 3457SOL    HW221834   2.491   2.681  15.097  2.1606 -0.4001 -1.1789
 3458SOL     OW21835   0.562   2.657   8.555  0.1423  0.4945 -1.2644
 3458SOL    HW121836   0.578   2.568   8.525 -1.1809  0.3570 -1.5839
 3458SOL    HW221837   0.475   2.655   8.596  0.0377 -1.4000 -1.5899
 3459SOL     OW21838   1.196   3.440   3.710  0.6245  0.0012 -0.3857
 3459SOL    HW121839   1.190   3.414   3.802 -1.5067 -0.0030 -0.5265
 3459SOL    HW221840   1.116   3.485   3.683  0.7657 -0.6580 -1.9100
 3460SOL     OW21841   4.523   3.215   8.315  0.2500  0.1808 -0.2445
 3460SOL    HW121842   4.523   3.151   8.244  0.3999  0.6850 -0.7022
 3460SOL    HW221843   4.487   3.155   8.380  0.7936 -0.7687 -0.8056
 3461SOL     OW21844   2.947   0.142  11.402 -0.2444  0.1387 -0.2240
 3461SOL    HW121845   3.013   0.158  11.335  0.4830  0.9305  0.6864
 3461SOL    HW221846   2.907   0.060  11.373  0.7819 -0.9684  1.4859
 3462SOL     OW21847   1.619   1.657  13.166  0.1612  0.0197 -0.0503
 3462SOL    HW121848   1.683   1.676  13.098  0.0394  2.8252  0.6358
 3462SOL    HW221849   1.602   1.742  13.207 -0.9960 -0.8216  1.2375
 3463SOL     OW21850   3.514   0.731   3.630  0.0791  0.9321  0.0955
 3463SOL    HW121851   3.506   0.704   3.538  3.0853  0.1611  0.0569
 3463SOL    HW221852   3.595   0.683   3.646  0.0660  1.3473  1.4015
 3464SOL     OW21853   0.475   3.784   9.914 -0.1088  0.1824 -0.1976
 3464SOL    HW121854   0.409   3.827   9.967 -1.0536 -0.3069 -0.9864
 3464SOL    HW221855   0.476   3.697   9.955 -0.4472 -0.0581 -0.7074
 3465SOL     OW21856   3.371   1.148  10.848  0.6129 -0.5055 -0.8461
 3465SOL    HW121857   3.424   1.131  10.926 -2.5567 -0.8464  1.2366
 3465SOL    HW221858   3.428   1.202  10.793  0.1331  0.2272 -0.6237
 3466SOL     OW21859   0.435   3.591   5.726 -0.6638 -0.0068 -0.2281
 3466SOL    HW121860   0.375   3.643   5.779 -0.2491  0.9073 -0.6633
 3466SOL    HW221861   0.504   3.567   5.788 -0.1529  1.8231 -0.1058
 3467SOL     OW21862   2.610   2.669   3.700 -0.0319  0.2245  0.6120
 3467SOL    HW121863   2.516   2.654   3.700  0.0848 -0.3974 -1.5110
 3467SOL    HW221864   2.637   2.619   3.778 -1.2554 -3.2921 -1.2500
 3468SOL     OW21865   0.831   1.101   3.934 -0.1542 -1.0151  0.1023
 3468SOL    HW121866   0.805   1.189   3.907  0.7432 -0.3084  1.5307
 3468SOL    HW221867   0.848   1.123   4.026 -1.2159  1.5424 -0.3189
 3469SOL     OW21868   0.449   1.343   3.894 -0.6589  0.7826  0.6570
 3469SOL    HW121869   0.405   1.276   3.841  0.5647 -1.0747  2.0278
 3469SOL    HW221870   0.415   1.328   3.982 -0.3256  1.6129  0.9235
 3470SOL     OW21871   2.766   0.322   6.431  0.2684  0.3381  0.2030
 3470SOL    HW121872   2.794   0.278   6.351  2.7456  0.5101  0.9707
 3470SOL    HW221873   2.789   0.407   6.396 -1.0787  0.2913 -0.7850
 3471SOL     OW21874   3.376   2.666  16.876  0.0935  0.3858 -0.2939
 3471SOL    HW121875   3.384   2.608  16.951 -1.2897 -0.4765 -0.8265
 3471SOL    HW221876   3.407   2.605  16.809  1.0648  0.8413 -0.2654
 3472SOL     OW21877   0.516   0.944   1.065  1.0779  0.3959 -0.5770
 3472SOL    HW121878   0.471   1.017   1.105 -1.8243 -0.5444 -2.1096
 3472SOL    HW221879   0.601   0.933   1.108  0.9997 -0.8602 -0.7192
 3473SOL     OW21880   4.491   1.995   7.120 -0.2827  0.6450 -0.4245
 3473SOL    HW121881   4.443   2.073   7.092  0.3799  1.4281  0.6519
 3473SOL    HW221882   4.579   2.030   7.104 -0.4310  0.9836 -0.5071
 3474SOL     OW21883   2.177   4.371   6.989 -0.0109 -0.0831  0.5482
 3474SOL    HW121884   2.156   4.369   7.082  2.1848 -1.1079  1.0069
 3474SOL    HW221885   2.170   4.465   6.974 -1.2026 -0.0306  1.4089
 3475SOL     OW21886   4.695   0.397  13.037 -0.1264 -0.2194  0.8735
 3475SOL    HW121887   4.702   0.491  13.052 -1.0850  0.3487 -2.2101
 3475SOL    HW221888   4.687   0.373  13.130  2.2255 -0.5707  0.9853
 3476SOL     OW21889   2.613   2.999   9.907  0.3872 -0.4007 -0.4962
 3476SOL    HW121890   2.557   3.077   9.911  2.2535  0.8081  2.2228
 3476SOL    HW221891   2.568   2.928   9.953 -0.8256 -1.7352 -3.7338
 3477SOL     OW21892   1.453   4.001   4.960  0.2068  0.7159 -0.0937
 3477SOL    HW121893   1.395   3.980   4.887 -0.6853  1.9209  0.2799
 3477SOL    HW221894   1.405   4.077   4.992 -0.6104 -0.1813  0.8418
 3478SOL     OW21895   0.155   0.245   2.569  0.2162 -0.4053  0.6904
 3478SOL    HW121896   0.078   0.202   2.533 -0.1435  0.5825  0.2929
 3478SOL    HW221897   0.225   0.196   2.525 -0.3780  0.8040 -1.5799
 3479SOL     OW21898   2.013   1.210   5.162  0.6184 -0.0301 -0.0314
 3479SOL    HW121899   2.007   1.263   5.082  0.2420 -1.4350 -0.9353
 3479SOL    HW221900   1.942   1.251   5.210  1.5703  0.5737  0.8687
 3480SOL     OW21901   2.104   0.510  10.773  0.5814 -0.4435  0.2133
 3480SOL    HW121902   2.147   0.426  10.762  1.0674 -0.2532  0.6135
 3480SOL    HW221903   2.017   0.495  10.811 -0.2131  2.4158 -0.4065
 3481SOL     OW21904   1.197   1.075   4.383  0.2803  0.1750  0.0971
 3481SOL    HW121905   1.191   1.170   4.396 -0.4290 -0.0568  1.4861
 3481SOL    HW221906   1.107   1.046   4.371  0.4873 -1.1034  1.6234
 3482SOL     OW21907   0.784   2.727   4.606  0.4443  0.1433 -0.0015
 3482SOL    HW121908   0.803   2.674   4.684 -0.7618  1.6425  1.3304
 3482SOL    HW221909   0.695   2.761   4.613 -0.0872 -1.2044 -0.3051
 3483SOL     OW21910   0.305   2.715   0.747 -0.4978 -0.4363 -0.0936
 3483SOL    HW121911   0.276   2.780   0.811 -1.4185  1.0500 -2.0230
 3483SOL    HW221912   0.398   2.701   0.768 -0.4506  0.0277  0.0065
 3484SOL     OW21913   4.033   1.340  16.373 -0.0478  0.3105  0.3659
 3484SOL    HW121914   4.037   1.295  16.288 -2.2071 -0.3663  0.6393
 3484SOL    HW221915   4.047   1.269  16.435 -0.0716 -0.5014 -0.5556
 3485SOL     OW21916   1.683   2.175   4.184 -0.4355  0.0042  0.0259
 3485SOL    HW121917   1.760   2.222   4.217  1.4084 -2.1136 -1.2666
 3485SOL    HW221918   1.611   2.216   4.231 -0.5357  1.8039 -1.6980
 3486SOL     OW21919   1.413   2.905   4.642  0.5343 -0.6944  0.7479
 3486SOL    HW121920   1.364   2.844   4.585 -0.7458  0.0640  1.0388
 3486SOL    HW221921   1.382   2.976   4.587  3.6907  1.5014  1.8241
 3487SOL     OW21922   1.055   2.884   3.147  0.1874  0.3097  0.2262
 3487SOL    HW121923   1.056   2.970   3.188  0.5160 -0.2668  1.4373
 3487SOL    HW221924   1.142   2.881   3.106  1.3408  0.6449  2.6103
 3488SOL     OW21925   1.989   0.503   1.898  0.3418  0.6094  0.4689
 3488SOL    HW121926   2.024   0.413   1.894  1.2233  1.0040 -1.0930
 3488SOL    HW221927   2.026   0.530   1.814  0.7630  0.8992  0.7492
 3489SOL     OW21928   3.568   0.601   3.336 -0.0175 -0.2861 -1.0799
 3489SOL    HW121929   3.510   0.631   3.267 -0.3745 -1.6803 -1.3811
 3489SOL    HW221930   3.655   0.611   3.297 -0.6637 -1.8803 -2.8790
 3490SOL     OW21931   2.938   3.476   1.614 -0.0110  0.1796  0.3409
 3490SOL    HW121932   3.003   3.406   1.612 -0.3016 -0.1040  1.0143
 3490SOL    HW221933   2.992   3.546   1.577  1.5256 -1.2927 -0.2222
 3491SOL     OW21934   3.037   4.413   8.486  0.1102 -0.3263 -0.3537
 3491SOL    HW121935   3.006   4.381   8.571 -3.3675  0.7801 -1.1903
 3491SOL    HW221936   3.102   4.477   8.515 -0.3111 -0.0160 -0.0977
 3492SOL     OW21937   2.495   1.704  13.066 -0.2972 -0.5506  0.3031
 3492SOL    HW121938   2.405   1.727  13.041  0.1891 -0.6186 -1.5160
 3492SOL    HW221939   2.500   1.627  13.008 -1.2246  0.4929 -1.1775
 3493SOL     OW21940   3.076   2.368   4.387 -0.3780 -0.6146  0.9171
 3493SOL    HW121941   3.122   2.333   4.463  0.5882  1.1707  1.1472
 3493SOL    HW221942   3.033   2.449   4.415  1.1220  1.2671 -2.2535
 3494SOL     OW21943   3.076   0.427   6.079  0.6436  0.0218  0.2486
 3494SOL    HW121944   3.029   0.352   6.114 -2.0291  1.7152  0.2951
 3494SOL    HW221945   3.049   0.428   5.987  1.7030  0.8375 -0.0503
 3495SOL     OW21946   3.104   3.404   6.774 -0.1273 -0.6530  0.0753
 3495SOL    HW121947   3.048   3.376   6.702  0.8660 -2.4985  0.0351
 3495SOL    HW221948   3.132   3.321   6.813 -0.5062 -1.0940 -0.6019
 3496SOL     OW21949   1.776   1.026  10.122 -0.3577 -0.3939  0.2282
 3496SOL    HW121950   1.867   1.049  10.106 -0.3592 -1.2494 -0.9875
 3496SOL    HW221951   1.768   0.931  10.128  1.9258 -0.5375  1.1451
 3497SOL     OW21952   3.105   0.298   8.204 -0.1455 -0.2145  0.0629
 3497SOL    HW121953   3.185   0.351   8.200 -0.6032  0.3114 -2.0585
 3497SOL    HW221954   3.140   0.209   8.203  1.3888  0.3681  1.9323
 3498SOL     OW21955   2.012   3.678   1.445  0.4787 -0.0682  0.5649
 3498SOL    HW121956   2.068   3.616   1.491 -0.1981 -0.7813  0.4285
 3498SOL    HW221957   1.966   3.720   1.518  2.0222  3.2115 -0.3495
 3499SOL     OW21958   2.089   1.426   2.350 -0.6628  0.3695  0.3244
 3499SOL    HW121959   2.085   1.395   2.259 -0.6151 -1.2002  0.8454
 3499SOL    HW221960   2.182   1.443   2.358 -0.9191  2.5798 -1.6027
 3500SOL     OW21961   3.549   4.628   5.302  0.2497  0.3044  0.4032
 3500SOL    HW121962   3.501   4.578   5.368 -0.3506 -0.0748 -0.3301
 3500SOL    HW221963   3.625   4.660   5.352  0.5810  2.0304 -1.1778
 3501SOL     OW21964   1.882   3.172   8.701  0.3916  0.0371  0.0826
 3501SOL    HW121965   1.883   3.143   8.792 -2.3111  0.5302  0.2565
 3501SOL    HW221966   1.789   3.189   8.684  0.2678  1.4353  2.1883
 3502SOL     OW21967   0.670   2.075   1.645 -0.2865  0.1238  1.0017
 3502SOL    HW121968   0.579   2.093   1.669 -0.7655 -0.7913 -0.1297
 3502SOL    HW221969   0.658   2.006   1.579  0.0297  1.6444 -0.6415
 3503SOL     OW21970   4.604   0.266   1.295  0.3484  0.2243 -0.5794
 3503SOL    HW121971   4.514   0.288   1.318  0.2224 -0.0827 -0.7745
 3503SOL    HW221972   4.625   0.333   1.229  1.8965 -0.7937 -1.1024
 3504SOL     OW21973   2.093   1.656  15.204  0.4032 -0.2893 -0.6870
 3504SOL    HW121974   2.080   1.630  15.113 -1.5766 -1.8250  0.0325
 3504SOL    HW221975   2.050   1.741  15.206 -0.8256 -0.9083 -1.2797
 3505SOL     OW21976   1.838   3.225   3.123 -1.0175  0.5769  0.3653
 3505SOL    HW121977   1.778   3.206   3.195 -1.0023 -1.2028 -0.0982
 3505SOL    HW221978   1.835   3.147   3.067 -1.7298  0.3047  0.7803
 3506SOL     OW21979   1.406   4.192   9.411 -1.0771  0.0231  0.2527
 3506SOL    HW121980   1.397   4.266   9.350  0.9231  1.5703  1.8087
 3506SOL    HW221981   1.386   4.241   9.491 -0.0037  1.3335 -0.2818
 3507SOL     OW21982   4.391   1.574   3.739  0.4877 -0.6761 -0.1413
 3507SOL    HW121983   4.412   1.515   3.812 -1.0490 -0.2525  0.6369
 3507SOL    HW221984   4.434   1.539   3.661  0.5924 -1.1243  0.1186
 3508SOL     OW21985   0.470   4.021   6.189  0.3228 -0.1812 -0.4594
 3508SOL    HW121986   0.447   3.934   6.221  2.3800 -0.5930 -0.0977
 3508SOL    HW221987   0.512   4.014   6.103  2.1512  1.1650  0.3381
 3509SOL     OW21988   3.691   4.296   6.830 -1.0171 -0.3457 -0.1516
 3509SOL    HW121989   3.646   4.213   6.819 -1.3146 -0.1573 -0.3671
 3509SOL    HW221990   3.661   4.328   6.915  0.7461 -0.9324  0.6936
 3510SOL     OW21991   0.535   4.078   2.143 -0.0220 -0.1148  0.0525
 3510SOL    HW121992   0.626   4.092   2.118  0.1282  2.1064  1.7717
 3510SOL    HW221993   0.538   3.983   2.142  0.2810 -0.0994 -0.2829
 3511SOL     OW21994   3.886   1.073   4.991 -0.2098 -0.3776  0.4655
 3511SOL    HW121995   3.810   1.016   4.984 -0.0823 -0.4773 -0.1577
 3511SOL    HW221996   3.867   1.118   4.908  2.2304 -2.1461 -1.0667
 3512SOL     OW21997   2.394   3.424   3.145  0.5689  0.3582 -0.8791
 3512SOL    HW121998   2.458   3.440   3.214  0.5297  0.6513 -0.9093
 3512SOL    HW221999   2.458   3.366   3.105  0.5712 -0.9349  1.0140
 3513SOL     OW22000   2.695   0.778   7.424  0.2794 -0.4227  0.2265
 3513SOL    HW122001   2.608   0.745   7.402  1.6671 -4.7284  1.0829
 3513SOL    HW222002   2.669   0.857   7.471 -2.8627 -0.5982 -1.2637
 3514SOL     OW22003   3.916   3.761   5.722  0.2347  0.4746  0.2372
 3514SOL    HW122004   3.877   3.830   5.775  1.5667  1.5526 -0.1971
 3514SOL    HW222005   3.847   3.695   5.723  0.0587  0.6444 -1.5965
 3515SOL     OW22006   0.981   4.379   3.140 -0.3633 -0.2675  0.3297
 3515SOL    HW122007   1.071   4.412   3.142 -0.2058 -0.6363 -0.5861
 3515SOL    HW222008   0.934   4.455   3.173  1.8035  0.4647  1.7295
 3516SOL     OW22009   1.273   1.088  16.363  0.3087 -0.8579  0.3399
 3516SOL    HW122010   1.333   1.072  16.436  1.7912  1.3394 -0.3848
 3516SOL    HW222011   1.324   1.068  16.284 -0.2360 -0.3936 -0.1342
 3517SOL     OW22012   2.768   4.250   7.860  0.8413  0.3594 -0.4781
 3517SOL    HW122013   2.684   4.274   7.898  1.6686  0.3351  1.3441
 3517SOL    HW222014   2.803   4.186   7.921  3.0595  1.6066 -0.4544
 3518SOL     OW22015   3.129   2.858  12.559 -0.2513  0.5505 -0.3834
 3518SOL    HW122016   3.217   2.820  12.557  0.1067  1.3031  0.8280
 3518SOL    HW222017   3.116   2.862  12.464 -2.5677 -0.2780 -0.1003
 3519SOL     OW22018   4.653   2.098   7.903  0.3276 -0.2442 -0.0468
 3519SOL    HW122019   4.594   2.148   7.960  2.3385 -0.0647  1.8786
 3519SOL    HW222020   4.595   2.117   7.829  1.4812  0.2021 -0.8233
 3520SOL     OW22021   2.255   0.308   2.801 -0.4458  0.4222 -0.6744
 3520SOL    HW122022   2.194   0.375   2.772 -1.6265 -0.1850  0.4009
 3520SOL    HW222023   2.335   0.351   2.771  0.0092  0.0267 -0.0340
 3521SOL     OW22024   3.099   1.832   5.102 -0.1933 -0.1720 -0.7064
 3521SOL    HW122025   3.075   1.886   5.026 -2.4928 -0.8266 -0.4296
 3521SOL    HW222026   3.130   1.748   5.070 -0.9047 -0.4309 -0.6970
 3522SOL     OW22027   4.224   0.679   7.527  0.4848 -0.1246  0.3450
 3522SOL    HW122028   4.164   0.683   7.602  2.5051 -1.2445  2.0313
 3522SOL    HW222029   4.171   0.716   7.456 -1.0176 -0.3096  1.3714
 3523SOL     OW22030   1.109   0.011   7.292 -0.2556  0.9741 -0.7468
 3523SOL    HW122031   1.192   0.025   7.247  1.0330  0.1653  1.3510
 3523SOL    HW222032   1.142   4.698   7.376 -1.0874  0.9373 -0.4296
 3524SOL     OW22033   0.688   2.950   6.371  0.6779  0.1338 -0.6746
 3524SOL    HW122034   0.728   2.878   6.321 -2.4668 -1.6103 -0.6957
 3524SOL    HW222035   0.767   2.987   6.411  3.1589 -3.6723 -2.0404
 3525SOL     OW22036   4.098   4.526   7.065 -0.0811 -0.2944 -0.5403
 3525SOL    HW122037   4.078   4.579   7.142 -0.9071 -2.0200  0.4339
 3525SOL    HW222038   4.072   4.442   7.103 -2.1796  0.0868 -1.1330
 3526SOL     OW22039   0.106   4.282   3.056 -0.2679 -0.5392 -0.0300
 3526SOL    HW122040   0.102   4.354   3.119  2.9981  0.4619 -0.9562
 3526SOL    HW222041   0.116   4.311   2.966 -1.4989 -1.8908 -0.5948
 3527SOL     OW22042   2.275   2.496   3.235  0.3582  0.1195  0.0236
 3527SOL    HW122043   2.333   2.523   3.306  2.3575 -2.1188 -0.7793
 3527SOL    HW222044   2.331   2.490   3.158 -2.3962  0.1425 -2.0008
 3528SOL     OW22045   3.412   1.139   2.915 -0.0505 -0.2256 -1.0437
 3528SOL    HW122046   3.432   1.061   2.865  1.2072  0.1626 -1.1302
 3528SOL    HW222047   3.329   1.099   2.943  0.6686 -1.1167 -0.2036
 3529SOL     OW22048   1.571   1.443   7.457  0.3599  0.3924 -0.6794
 3529SOL    HW122049   1.486   1.484   7.442 -0.0483  0.3203  1.5164
 3529SOL    HW222050   1.543   1.361   7.498 -1.4834  0.6747 -1.3906
 3530SOL     OW22051   1.942   2.432   8.309 -0.1491  0.1605  0.6263
 3530SOL    HW122052   1.919   2.523   8.324  2.3871  0.6774  1.3594
 3530SOL    HW222053   1.878   2.396   8.247  0.6187  0.1031 -0.1378
 3531SOL     OW22054   0.202   1.331   0.308  0.6888 -0.4997 -0.6121
 3531SOL    HW122055   0.116   1.297   0.282  0.5300 -0.0046 -0.7265
 3531SOL    HW222056   0.256   1.256   0.285  2.8500  1.2317 -1.1604
 3532SOL     OW22057   0.209   0.612   6.797  0.3820  0.0439 -0.0130
 3532SOL    HW122058   0.139   0.640   6.738  2.2549  0.7901 -1.8756
 3532SOL    HW222059   0.279   0.671   6.767  2.2925 -2.1244  0.2123
 3533SOL     OW22060   4.015   1.887   1.249  0.4240 -0.3275 -0.0885
 3533SOL    HW122061   3.974   1.950   1.190  1.3271 -0.7357 -1.1536
 3533SOL    HW222062   4.020   1.933   1.333  0.0264 -1.8582  0.7819
 3534SOL     OW22063   2.553   3.923   3.825 -0.2865  0.6833 -0.2289
 3534SOL    HW122064   2.567   3.829   3.813  2.4445  0.7929  2.2047
 3534SOL    HW222065   2.461   3.932   3.801 -0.0911  2.1547 -0.4389
 3535SOL     OW22066   3.178   4.439   3.552 -0.4747 -0.1013 -0.3733
 3535SOL    HW122067   3.248   4.384   3.515  1.0319  1.6734 -0.1281
 3535SOL    HW222068   3.212   4.460   3.639 -2.0831  0.4746  0.1139
 3536SOL     OW22069   1.329   0.808   8.568  0.0057  0.5418  0.0494
 3536SOL    HW122070   1.292   0.733   8.615 -0.7320  1.1110  0.3745
 3536SOL    HW222071   1.254   0.866   8.584  0.5784  1.6493 -1.3262
 3537SOL     OW22072   4.144   1.540   6.699  0.0398 -0.1955  0.3616
 3537SOL    HW122073   4.100   1.602   6.641 -1.1870 -0.2062  1.2824
 3537SOL    HW222074   4.236   1.558   6.681 -0.2853  1.5632  0.4721
 3538SOL     OW22075   0.661   3.972  15.045  0.5150 -0.0107  0.2704
 3538SOL    HW122076   0.599   4.044  15.050 -0.6321 -0.9170 -0.9601
 3538SOL    HW222077   0.656   3.942  15.136 -0.6981  0.4090  0.3455
 3539SOL     OW22078   4.543   0.938   0.664  0.1377 -0.3625  0.7401
 3539SOL    HW122079   4.477   0.958   0.730 -1.0495 -0.6749 -0.3524
 3539SOL    HW222080   4.531   0.843   0.660  0.7105 -0.4421  0.8986
 3540SOL     OW22081   1.303   1.080   7.441 -0.1302  0.4753  0.0342
 3540SOL    HW122082   1.235   1.136   7.402  2.2751  2.7667 -0.8199
 3540SOL    HW222083   1.250   1.006   7.471 -1.7746  1.7840  0.3620
 3541SOL     OW22084   1.956   0.616   1.479 -0.4281  0.0933 -0.4209
 3541SOL    HW122085   1.868   0.589   1.504 -1.4236  2.2737 -1.6231
 3541SOL    HW222086   2.002   0.551   1.533 -0.8429  0.5063  0.4301
 3542SOL     OW22087   2.849   3.355   1.066 -0.4916 -0.1874  0.2631
 3542SOL    HW122088   2.828   3.313   0.983 -2.4013  1.3767 -0.0436
 3542SOL    HW222089   2.846   3.282   1.128 -1.3767 -0.8596 -0.5735
 3543SOL     OW22090   2.570   3.081   4.286  0.5744  0.3193 -0.1315
 3543SOL    HW122091   2.658   3.091   4.322 -0.0448 -0.0235  1.4490
 3543SOL    HW222092   2.524   3.154   4.326  1.3144  1.8907 -2.1283
 3544SOL     OW22093   2.614   0.726   6.850 -0.2454  0.1388  0.0048
 3544SOL    HW122094   2.552   0.689   6.787 -1.7572  1.0170  0.9794
 3544SOL    HW222095   2.695   0.687   6.816 -0.4791  0.6691 -1.1431
 3545SOL     OW22096   1.437   1.928   3.137 -0.3010  0.1308 -0.3264
 3545SOL    HW122097   1.355   1.879   3.135 -1.8012  2.6092 -0.8225
 3545SOL    HW222098   1.435   1.951   3.044 -0.8330 -1.7961 -0.7768
 3546SOL     OW22099   1.524   3.272  14.817  0.2163  0.2969  0.1498
 3546SOL    HW122100   1.493   3.358  14.788 -3.0448 -0.3329  1.6675
 3546SOL    HW222101   1.480   3.217  14.753  2.1607 -1.4930  0.3689
 3547SOL     OW22102   4.188   1.102  11.121  0.5374  0.0907 -0.1585
 3547SOL    HW122103   4.104   1.148  11.120 -0.0434 -0.9762 -1.2533
 3547SOL    HW222104   4.172   1.029  11.060  2.2868 -1.7346  1.5794
 3548SOL     OW22105   3.668   4.450  10.600 -0.5685 -0.1593 -0.0852
 3548SOL    HW122106   3.698   4.362  10.578  0.7711  0.2525  0.0841
 3548SOL    HW222107   3.612   4.433  10.676  2.4743 -2.5642  1.6516
 3549SOL     OW22108   0.515   3.096  12.395  0.3554  0.2014 -0.0979
 3549SOL    HW122109   0.565   3.156  12.339  0.5594 -0.7940 -0.9803
 3549SOL    HW222110   0.431   3.141  12.397  0.5638  0.7164 -2.3497
 3550SOL     OW22111   4.456   0.410   1.705  0.9285  0.0165  0.5168
 3550SOL    HW122112   4.549   0.400   1.684  0.9047  0.8203 -0.0005
 3550SOL    HW222113   4.446   0.504   1.687  2.4562  0.3882  1.5542
 3551SOL     OW22114   2.942   1.805  13.312  0.0068  0.2620  0.1079
 3551SOL    HW122115   3.016   1.862  13.290  1.1966 -0.4567  2.2251
 3551SOL    HW222116   2.869   1.840  13.261 -1.7447 -2.6575  0.6229
 3552SOL     OW22117   1.668   1.306   9.495 -0.2155  0.0402  0.0679
 3552SOL    HW122118   1.674   1.211   9.504 -0.6158 -0.1969 -2.3492
 3552SOL    HW222119   1.665   1.313   9.400 -1.3841 -0.1333  0.0905
 3553SOL     OW22120   0.253   2.603  10.021 -0.1848 -0.2794 -0.1810
 3553SOL    HW122121   0.256   2.533  10.086 -1.1378 -0.2299 -0.0813
 3553SOL    HW222122   0.235   2.678  10.079 -1.4241 -1.2014  0.6365
 3554SOL     OW22123   3.672   4.047   2.452 -0.0492  0.7223  0.4575
 3554SOL    HW122124   3.598   4.033   2.510 -0.5367  0.0266 -0.3354
 3554SOL    HW222125   3.728   3.969   2.455  1.3619  1.6942 -0.1442
 3555SOL     OW22126   2.808   1.295   5.557 -0.3869  0.1866 -0.4442
 3555SOL    HW122127   2.718   1.273   5.534 -0.4791  1.1205 -0.9701
 3555SOL    HW222128   2.842   1.248   5.481  2.0911 -0.6106  1.1523
 3556SOL     OW22129   2.063   0.688  10.571  0.0201  0.0128  0.1290
 3556SOL    HW122130   1.977   0.718  10.600  0.2319 -2.0365  2.8962
 3556SOL    HW222131   2.086   0.629  10.642  2.9087  0.7858 -0.1555
 3557SOL     OW22132   2.183   1.295  14.124  0.0621 -0.0774 -0.3724
 3557SOL    HW122133   2.216   1.219  14.077  0.9118 -0.5377  0.9824
 3557SOL    HW222134   2.105   1.246  14.151  0.5877 -0.3851  0.5833
 3558SOL     OW22135   1.422   1.930  10.702  0.2151 -0.0739  0.1260
 3558SOL    HW122136   1.380   1.902  10.783  0.5972  2.2393  1.1491
 3558SOL    HW222137   1.501   1.975  10.731 -0.3815  0.6084  0.7132
 3559SOL     OW22138   1.624   3.615   8.424 -0.8384  0.4213 -0.3315
 3559SOL    HW122139   1.648   3.698   8.384 -0.8461 -0.1971 -1.6399
 3559SOL    HW222140   1.568   3.645   8.495 -0.0340 -1.8177  1.2724
 3560SOL     OW22141   2.805   0.032   4.013  0.2072 -0.3350 -0.1671
 3560SOL    HW122142   2.725   0.068   3.976 -0.2396 -0.6973  0.4537
 3560SOL    HW222143   2.866   0.041   3.939 -1.5501  2.4991 -1.2755
 3561SOL     OW22144   3.573   1.289  10.687 -0.1939  0.2158  0.5211
 3561SOL    HW122145   3.636   1.261  10.620 -0.6248 -0.1221  0.2651
 3561SOL    HW222146   3.495   1.285  10.633 -0.4225  3.1424  0.6295
 3562SOL     OW22147   3.370   0.480   0.559  0.4644  0.2953 -0.2912
 3562SOL    HW122148   3.413   0.544   0.503 -0.4274  0.0498 -1.2752
 3562SOL    HW222149   3.365   0.538   0.635 -2.3422 -0.5187  0.1625
 3563SOL     OW22150   1.581   0.079   6.926  0.2242 -0.6503 -0.0848
 3563SOL    HW122151   1.612   4.708   6.934  3.0028  0.4908  2.4218
 3563SOL    HW222152   1.548   0.090   7.015  0.1122 -0.1891 -0.1874
 3564SOL     OW22153   0.531   0.720   9.148  0.3137 -0.4322 -0.0815
 3564SOL    HW122154   0.534   0.689   9.238  2.5407 -1.1317 -0.4024
 3564SOL    HW222155   0.465   0.658   9.117 -0.0137  0.4111 -1.0675
 3565SOL     OW22156   2.676   2.511   6.680  0.0741 -0.1100 -0.1313
 3565SOL    HW122157   2.594   2.549   6.649 -1.5180 -2.5907  1.0134
 3565SOL    HW222158   2.645   2.420   6.678 -0.3395 -0.0627  4.1404
 3566SOL     OW22159   2.942   3.668   5.094  0.1120 -0.5009 -0.1986
 3566SOL    HW122160   2.936   3.581   5.053  2.9034 -1.8305  2.1623
 3566SOL    HW222161   2.852   3.699   5.100  0.8928  1.4291  1.7507
 3567SOL     OW22162   2.191   1.797   4.741  0.1315  0.0529 -0.3808
 3567SOL    HW122163   2.124   1.729   4.729 -0.4918  0.4265  1.0399
 3567SOL    HW222164   2.131   1.869   4.758  1.2559  0.8103  0.3396
 3568SOL     OW22165   1.087   0.508   4.808 -0.0597 -0.0732 -0.4507
 3568SOL    HW122166   1.121   0.507   4.898 -0.7120 -1.5585 -0.2077
 3568SOL    HW222167   0.996   0.534   4.823 -0.1794 -0.8318  0.2158
 3569SOL     OW22168   4.621   0.699  10.239  0.3307 -0.1644  0.3107
 3569SOL    HW122169   4.590   0.780  10.277  1.1309 -0.7122  2.1370
 3569SOL    HW222170   4.595   0.639  10.309 -1.8495  0.5252  0.0935
 3570SOL     OW22171   2.025   0.724   7.728 -0.1330  0.0453 -0.0051
 3570SOL    HW122172   2.094   0.681   7.677 -0.8019 -1.0669  0.0288
 3570SOL    HW222173   1.955   0.659   7.729 -1.3920  1.3911 -1.2075
 3571SOL     OW22174   4.248   1.299   1.317 -0.7158  0.2213  0.3423
 3571SOL    HW122175   4.267   1.353   1.394 -0.2952  0.5242  0.0239
 3571SOL    HW222176   4.327   1.323   1.269 -0.7697  1.0826  0.6875
 3572SOL     OW22177   0.459   2.251   2.384  0.4278 -0.0466 -0.4871
 3572SOL    HW122178   0.380   2.274   2.335 -0.3176 -0.6929  0.4175
 3572SOL    HW222179   0.447   2.157   2.371  3.9121 -0.3299 -1.5544
 3573SOL     OW22180   2.374   0.152   8.397  0.1021 -0.6361 -0.1733
 3573SOL    HW122181   2.437   0.208   8.441 -1.5262 -0.0391  1.4080
 3573SOL    HW222182   2.315   0.127   8.468  0.2014 -0.5503 -0.0618
 3574SOL     OW22183   1.031   0.373   7.001 -0.2353 -0.3059  0.1805
 3574SOL    HW122184   1.053   0.359   6.908 -1.7177  2.3549 -0.5689
 3574SOL    HW222185   1.104   0.329   7.043 -0.4418 -0.8521 -0.0309
 3575SOL     OW22186   4.336   1.607   7.777 -0.0588 -0.0611 -0.5535
 3575SOL    HW122187   4.317   1.589   7.869 -2.3145 -1.9903 -1.4233
 3575SOL    HW222188   4.289   1.690   7.766 -0.4295 -0.2216 -0.1638
 3576SOL     OW22189   1.950   2.300   7.528  0.3507 -0.3102  0.1314
 3576SOL    HW122190   2.022   2.266   7.581 -1.3781 -1.2627  1.8786
 3576SOL    HW222191   1.967   2.268   7.440  4.5157 -1.2277  1.2589
 3577SOL     OW22192   1.108   4.340  12.599  0.1785 -0.5834  0.1191
 3577SOL    HW122193   1.063   4.288  12.532 -0.0934 -0.2725  0.0592
 3577SOL    HW222194   1.152   4.404  12.544  1.2086 -0.5684  0.9755
 3578SOL     OW22195   1.358   2.892   3.476 -0.5989 -0.6488 -0.7542
 3578SOL    HW122196   1.290   2.847   3.525  0.9570 -1.3326  0.7944
 3578SOL    HW222197   1.404   2.822   3.429  3.1810  0.2183  1.6999
 3579SOL     OW22198   4.232   4.514   8.018  0.0717 -0.0761 -0.4455
 3579SOL    HW122199   4.294   4.586   8.035  0.6861 -0.6465 -0.2693
 3579SOL    HW222200   4.221   4.513   7.923 -1.6426 -0.0596 -0.2528
 3580SOL     OW22201   0.819   0.548   6.955 -0.3422 -0.2230 -0.0370
 3580SOL    HW122202   0.898   0.495   6.965  1.2984  2.1885 -0.1980
 3580SOL    HW222203   0.814   0.594   6.871 -1.6547  1.2490  0.8476
 3581SOL     OW22204   2.411   1.555  14.742 -0.5919  0.0834 -0.4795
 3581SOL    HW122205   2.491   1.597  14.774  0.1620 -2.5947  1.1451
 3581SOL    HW222206   2.397   1.502  14.820 -1.2071 -0.5530 -1.0203
 3582SOL     OW22207   4.012   1.295   7.978 -0.1914 -0.4000 -0.4614
 3582SOL    HW122208   4.056   1.220   8.019  0.3652  0.9952  1.4696
 3582SOL    HW222209   3.950   1.255   7.917 -0.6181  0.9565 -0.8998
 3583SOL     OW22210   4.215   0.839   8.809 -0.1442  0.0218 -0.0562
 3583SOL    HW122211   4.185   0.907   8.868 -0.7801 -0.0841 -0.2581
 3583SOL    HW222212   4.131   0.793   8.797  0.6435 -1.4141 -0.1648
 3584SOL     OW22213   1.238   2.705  12.067  0.2050 -0.3133  0.0084
 3584SOL    HW122214   1.158   2.721  12.015  1.2679  0.7337 -1.3040
 3584SOL    HW222215   1.299   2.757  12.014  0.6269 -1.3579 -0.5327
 3585SOL     OW22216   4.228   4.417  11.707  0.4295  0.0685  0.1147
 3585SOL    HW122217   4.305   4.419  11.763  2.7472 -0.7370 -3.0814
 3585SOL    HW222218   4.203   4.509  11.696  2.0815  0.5311  0.3259
 3586SOL     OW22219   3.881   3.828   4.264  0.5829 -0.3410  0.2184
 3586SOL    HW122220   3.795   3.828   4.305  0.3631  2.3284 -0.2872
 3586SOL    HW222221   3.934   3.890   4.314 -0.6952 -0.0413  1.2072
 3587SOL     OW22222   3.640   3.577   6.293 -0.2822  0.0850  0.1229
 3587SOL    HW122223   3.689   3.652   6.325  1.3135 -0.8215 -0.1910
 3587SOL    HW222224   3.554   3.581   6.336 -0.8116  0.0817 -0.9320
 3588SOL     OW22225   0.519   1.108  13.192  0.3648  0.4749 -0.0462
 3588SOL    HW122226   0.535   1.023  13.152  0.5274  1.3111 -1.7935
 3588SOL    HW222227   0.601   1.116  13.241  2.6794 -0.9961 -3.6414
 3589SOL     OW22228   1.659   4.199   0.740  0.0445  0.0202 -0.1033
 3589SOL    HW122229   1.605   4.121   0.751  0.9955 -0.5818  0.3384
 3589SOL    HW222230   1.651   4.216   0.647 -0.4775 -2.4369 -0.4927
 3590SOL     OW22231   2.259   0.191   9.880  0.4745 -0.5046  0.2792
 3590SOL    HW122232   2.314   0.221   9.952 -2.9603  2.4206  1.6942
 3590SOL    HW222233   2.200   0.131   9.926  0.0915  1.5068  2.4060
 3591SOL     OW22234   4.258   1.536  11.612 -0.0623  0.2856  0.2003
 3591SOL    HW122235   4.268   1.578  11.698 -0.0728 -0.4351  0.5483
 3591SOL    HW222236   4.318   1.462  11.614  1.2228  1.2799 -1.2409
 3592SOL     OW22237   1.174   2.397   6.332  0.0211 -0.1241  0.1465
 3592SOL    HW122238   1.220   2.320   6.299  2.5059  0.7961  1.4701
 3592SOL    HW222239   1.151   2.372   6.422 -0.8817  1.7714  0.4471
 3593SOL     OW22240   1.444   4.029   9.891 -0.2311  0.6491  0.2337
 3593SOL    HW122241   1.371   4.089   9.877 -2.2132 -1.6452  0.7524
 3593SOL    HW222242   1.436   3.973   9.814 -1.3756  0.3606  0.5664
 3594SOL     OW22243   1.326   3.414   5.383 -0.2409  0.4552  0.3444
 3594SOL    HW122244   1.250   3.434   5.329  1.0999 -0.0063 -1.6972
 3594SOL    HW222245   1.398   3.389   5.325 -0.1184  1.7323 -0.0491
 3595SOL     OW22246   2.349   3.274   5.072 -0.5318 -0.2374  0.4913
 3595SOL    HW122247   2.328   3.323   4.992  3.0386 -2.9368 -2.0951
 3595SOL    HW222248   2.262   3.254   5.106 -0.1306  0.5278  1.9710
 3596SOL     OW22249   1.901   2.314   5.113 -0.5336 -0.2849 -0.0866
 3596SOL    HW122250   1.828   2.331   5.054 -0.0127  2.2658  0.0002
 3596SOL    HW222251   1.856   2.305   5.197 -1.6211 -0.1678 -0.6682
 3597SOL     OW22252   4.352   3.017   4.936  0.3942 -0.3815 -0.4891
 3597SOL    HW122253   4.308   3.018   4.851 -1.4006 -0.0140  0.4476
 3597SOL    HW222254   4.439   3.046   4.908  0.6421 -3.4018 -2.8970
 3598SOL     OW22255   2.187   2.617   8.151  0.3042  0.3483  0.1379
 3598SOL    HW122256   2.154   2.536   8.190 -1.0585  1.2966  0.9224
 3598SOL    HW222257   2.267   2.623   8.203 -0.4001  1.7690  1.0465
 3599SOL     OW22258   2.686   1.166   6.233 -0.3578 -0.0829 -0.2068
 3599SOL    HW122259   2.721   1.103   6.295  0.6852 -2.8644 -3.6256
 3599SOL    HW222260   2.605   1.181   6.281 -0.4083 -0.8142 -0.0722
 3600SOL     OW22261   2.734   0.336   7.065 -0.6586  0.4008 -0.8299
 3600SOL    HW122262   2.807   0.302   7.013  0.2256  0.2140  0.5147
 3600SOL    HW222263   2.675   0.263   7.086 -0.9322  0.5694 -1.0179
 3601SOL     OW22264   4.453   4.122   4.289 -0.1899 -0.0151 -0.0860
 3601SOL    HW122265   4.396   4.057   4.250 -1.2679  1.3191 -0.7341
 3601SOL    HW222266   4.531   4.100   4.237 -1.6060 -0.3768 -2.0411
 3602SOL     OW22267   3.200   1.626   9.372  0.3819 -0.1465 -0.7030
 3602SOL    HW122268   3.128   1.563   9.373  0.6053 -0.3689  1.8837
 3602SOL    HW222269   3.247   1.577   9.305 -1.0081 -1.3696 -0.7804
 3603SOL     OW22270   1.432   2.326   9.315  0.1552  0.1094  0.0424
 3603SOL    HW122271   1.396   2.246   9.353 -0.5608 -0.1436 -1.1729
 3603SOL    HW222272   1.462   2.298   9.228 -1.2956 -2.0456  0.2326
 3604SOL     OW22273   4.487   1.256   8.030 -0.1101 -0.3492  0.0175
 3604SOL    HW122274   4.460   1.196   7.961  1.7275 -1.5281  0.3069
 3604SOL    HW222275   4.466   1.207   8.109 -3.3558  1.4475  0.2628
 3605SOL     OW22276   1.980   1.490   6.266  0.0364 -0.1914 -0.7645
 3605SOL    HW122277   1.891   1.490   6.230  0.2231  0.0153 -1.2248
 3605SOL    HW222278   1.965   1.421   6.330 -1.5708 -0.2909 -1.2374
 3606SOL     OW22279   1.419   3.081   6.300  0.1937 -0.0060  0.4078
 3606SOL    HW122280   1.488   3.021   6.328  0.2511 -0.1842 -0.1241
 3606SOL    HW222281   1.447   3.101   6.211 -0.5254  1.2751  0.4668
 3607SOL     OW22282   0.502   2.319   2.935  0.2775  0.1295 -0.0575
 3607SOL    HW122283   0.416   2.278   2.924  1.2018 -1.6000 -0.8134
 3607SOL    HW222284   0.495   2.363   3.020 -1.4833  1.5952 -0.9599
 3608SOL     OW22285   2.817   4.156  12.794 -0.0431 -0.0248  0.0595
 3608SOL    HW122286   2.837   4.111  12.712  2.2986  0.4743  0.3617
 3608SOL    HW222287   2.894   4.210  12.814  0.3639 -0.8483  0.7447
 3609SOL     OW22288   2.393   3.022  16.566 -0.6499  0.0249 -0.4943
 3609SOL    HW122289   2.467   3.082  16.555  0.7240 -1.5467  0.2040
 3609SOL    HW222290   2.425   2.988  16.650  1.9453  0.4204 -1.3283
 3610SOL     OW22291   0.084   1.788   6.462 -0.0603 -0.2328 -0.0637
 3610SOL    HW122292   0.102   1.752   6.549  1.5296  2.3894  0.6938
 3610SOL    HW222293   0.169   1.813   6.426  0.1024  0.3688  0.7308
 3611SOL     OW22294   1.735   3.078  10.085  0.1796 -0.3867  0.1902
 3611SOL    HW122295   1.726   3.163  10.129 -1.5263 -0.2982 -0.3346
 3611SOL    HW222296   1.689   3.024  10.149  0.9752 -1.2298  0.0439
 3612SOL     OW22297   1.387   4.323   9.653 -0.6629  0.0949 -0.5040
 3612SOL    HW122298   1.341   4.404   9.675  0.3727  1.1950 -2.4475
 3612SOL    HW222299   1.339   4.262   9.710 -1.6879  1.2519 -0.1243
 3613SOL     OW22300   4.173   1.183   8.809 -0.5644  0.2373  0.0476
 3613SOL    HW122301   4.141   1.251   8.869 -0.7034  0.9743 -0.8662
 3613SOL    HW222302   4.152   1.107   8.863  1.9761  0.6144  1.5670
 3614SOL     OW22303   2.897   2.478   4.690 -0.3116  0.6303  0.2712
 3614SOL    HW122304   2.828   2.543   4.682 -0.2495  0.2689 -3.3419
 3614SOL    HW222305   2.974   2.533   4.703  0.5284 -0.6501  0.7121
 3615SOL     OW22306   0.864   4.442   2.341  0.6708 -0.0646 -0.0739
 3615SOL    HW122307   0.922   4.407   2.274  0.5555 -0.8134  0.2098
 3615SOL    HW222308   0.807   4.489   2.280  0.4370  0.1505  0.3113
 3616SOL     OW22309   1.800   3.287   4.161  0.5574  0.2934  0.4882
 3616SOL    HW122310   1.829   3.196   4.168  2.1546  0.8583  1.0774
 3616SOL    HW222311   1.705   3.283   4.174  0.6775 -1.7399  0.7471
 3617SOL     OW22312   3.700   0.437   9.073 -0.2409  0.7167 -0.1042
 3617SOL    HW122313   3.636   0.469   9.008 -0.8726 -0.4683 -0.0654
 3617SOL    HW222314   3.763   0.398   9.012  1.4148  0.4697  1.7787
 3618SOL     OW22315   2.652   0.196  11.004 -0.5258 -0.0249  0.3652
 3618SOL    HW122316   2.669   0.110  11.042  1.5405 -0.9613 -2.6887
 3618SOL    HW222317   2.559   0.184  10.987 -0.2822  0.1523 -1.0744
 3619SOL     OW22318   3.824   2.807   4.575 -0.0155  0.3542 -0.0191
 3619SOL    HW122319   3.835   2.834   4.484 -0.7716 -1.1574 -0.5690
 3619SOL    HW222320   3.915   2.785   4.593  0.1954  1.2595 -0.0046
 3620SOL     OW22321   0.843   4.599   6.772 -0.2027 -0.0229  0.3817
 3620SOL    HW122322   0.922   4.592   6.827 -1.9004  0.4536  2.8719
 3620SOL    HW222323   0.855   4.694   6.772  0.4905 -0.1120  2.1770
 3621SOL     OW22324   0.487   4.705   7.985  0.2383  0.4827  0.3084
 3621SOL    HW122325   0.484   4.644   7.911  1.1817  0.3955  0.3475
 3621SOL    HW222326   0.397   0.014   7.999 -0.6990 -2.3735  0.3365
 3622SOL     OW22327   1.251   2.678   6.473 -0.0089 -0.1475  0.5558
 3622SOL    HW122328   1.189   2.617   6.432 -1.6225  2.1225 -0.3361
 3622SOL    HW222329   1.325   2.646   6.421  0.7994  0.4772  1.3186
 3623SOL     OW22330   3.487   4.618   9.478  0.3375 -0.8333 -0.1437
 3623SOL    HW122331   3.451   4.702   9.510 -0.4895 -0.5238 -1.9028
 3623SOL    HW222332   3.407   4.570   9.499  0.8784 -1.4518  0.4848
 3624SOL     OW22333   0.031   2.856  14.366 -1.1215  0.1988 -0.5501
 3624SOL    HW122334   0.056   2.764  14.378 -0.9781  0.4712  1.2123
 3624SOL    HW222335   0.118   2.895  14.377 -0.6826 -0.6628 -0.9078
 3625SOL     OW22336   3.944   1.705   8.383 -0.1166 -0.7201 -0.6289
 3625SOL    HW122337   3.928   1.688   8.290  1.9986  0.8398 -1.2864
 3625SOL    HW222338   3.873   1.655   8.423  0.9821  0.1342  2.3611
 3626SOL     OW22339   3.064   4.344   0.088  0.3226 -0.0977  0.3524
 3626SOL    HW122340   3.071   4.423   0.034 -1.1264 -0.4992 -0.4293
 3626SOL    HW222341   3.155   4.317   0.090 -0.2519 -1.8455  2.4493
 3627SOL     OW22342   3.206   2.672   0.525  0.5278  0.1034 -0.1550
 3627SOL    HW122343   3.187   2.583   0.497 -2.9015  0.7705 -0.0565
 3627SOL    HW222344   3.121   2.688   0.568  0.6522  1.5108 -0.4332
 3628SOL     OW22345   1.482   2.279   1.543  0.1529  0.0896  0.4609
 3628SOL    HW122346   1.443   2.208   1.492 -0.5690  1.4988 -0.9433
 3628SOL    HW222347   1.549   2.227   1.589 -0.6073  0.9043  2.5042
 3629SOL     OW22348   3.977   4.649   5.063  0.2962  0.1577 -0.5959
 3629SOL    HW122349   4.014   4.601   4.989 -0.1216  0.3769 -0.9428
 3629SOL    HW222350   3.884   4.628   5.068  0.4172  0.1422  1.8043
 3630SOL     OW22351   1.667   0.224  13.637 -0.6907 -0.3756 -0.2083
 3630SOL    HW122352   1.611   0.266  13.703 -0.2576  2.3028 -1.5158
 3630SOL    HW222353   1.673   0.293  13.570  1.0550  0.3397  0.6809
 3631SOL     OW22354   0.761   4.537  10.937 -0.0306 -0.0038 -0.7347
 3631SOL    HW122355   0.692   4.604  10.939  1.7304  1.8466 -2.5123
 3631SOL    HW222356   0.730   4.478  11.005 -1.6654 -0.2242 -1.6651
 3632SOL     OW22357   3.780   3.956   5.342 -0.2068  0.0441  0.1469
 3632SOL    HW122358   3.691   3.948   5.375 -0.3125  1.0086  0.0828
 3632SOL    HW222359   3.813   3.868   5.363  0.1742 -0.3859 -2.2324
 3633SOL     OW22360   0.886   1.888  14.812  0.2348  0.0572 -0.1897
 3633SOL    HW122361   0.980   1.866  14.808  0.3707  0.3380  1.3442
 3633SOL    HW222362   0.889   1.981  14.835  0.4140 -0.9937  3.9671
 3634SOL     OW22363   1.146   0.014  12.831  0.1682 -0.4096 -0.4278
 3634SOL    HW122364   1.199   0.023  12.752  0.7777 -2.0791 -0.2106
 3634SOL    HW222365   1.215   0.022  12.897  0.4017 -0.2698 -0.6857
 3635SOL     OW22366   3.049   1.400   6.562 -0.1050  0.0259 -0.3217
 3635SOL    HW122367   3.128   1.426   6.609  1.5295 -0.8991 -2.5932
 3635SOL    HW222368   3.044   1.469   6.496 -0.2285 -0.0404 -0.3829
 3636SOL     OW22369   1.952   1.574   8.265 -0.2475 -0.3588 -0.0513
 3636SOL    HW122370   1.894   1.637   8.222  1.2749  0.9955 -0.1179
 3636SOL    HW222371   1.991   1.523   8.194 -0.8948  0.3605 -0.9441
 3637SOL     OW22372   1.146   0.044  17.290  0.4181 -0.3340  0.2336
 3637SOL    HW122373   1.168   4.673  17.306  1.7394 -0.1293 -0.4045
 3637SOL    HW222374   1.233   0.082  17.297 -0.5136  1.2349  3.2777
 3638SOL     OW22375   1.736   0.996  16.340  0.2547 -0.4789  0.1208
 3638SOL    HW122376   1.732   0.910  16.382  0.1328 -2.1069 -3.2069
 3638SOL    HW222377   1.814   0.979  16.286  1.0191  4.6009 -0.4160
 3639SOL     OW22378   3.018   1.413   9.380 -0.3506  0.7425 -0.3004
 3639SOL    HW122379   2.975   1.361   9.448  0.9984  0.8935  0.6573
 3639SOL    HW222380   3.049   1.340   9.325  0.3170  2.1325 -1.7614
 3640SOL     OW22381   4.344   3.552   6.872  0.6419 -0.3431  0.1901
 3640SOL    HW122382   4.295   3.542   6.791  1.6111 -0.1735 -0.4103
 3640SOL    HW222383   4.412   3.614   6.843  0.5741 -1.1867 -1.7451
 3641SOL     OW22384   2.716   4.157   5.141 -0.7311  0.1568  0.3054
 3641SOL    HW122385   2.810   4.142   5.150 -0.2736  2.2482 -0.8628
 3641SOL    HW222386   2.720   4.218   5.067 -0.9750 -0.6783 -0.3830
 3642SOL     OW22387   3.989   0.972  11.467 -0.5753 -0.2307  0.2973
 3642SOL    HW122388   3.959   1.062  11.468  0.6894  0.1996 -0.3833
 3642SOL    HW222389   3.937   0.925  11.402  0.7235 -0.0501 -0.8678
 3643SOL     OW22390   2.803   4.480   8.380  0.3428 -0.7210 -0.7459
 3643SOL    HW122391   2.782   4.567   8.348  0.3889 -0.6393 -0.5513
 3643SOL    HW222392   2.897   4.485   8.395  0.4637 -0.7244 -1.4775
 3644SOL     OW22393   4.414   3.505   2.466  0.8843  0.2121  0.3268
 3644SOL    HW122394   4.453   3.570   2.524  1.1588 -2.1888  2.8297
 3644SOL    HW222395   4.441   3.417   2.490  1.4790  0.1172 -0.6753
 3645SOL     OW22396   1.292   1.343   5.695 -0.2827  0.6807 -0.3551
 3645SOL    HW122397   1.289   1.366   5.788 -0.9197  1.1567 -0.4920
 3645SOL    HW222398   1.216   1.400   5.680 -0.0637  0.6025 -1.6652
 3646SOL     OW22399   1.688   1.381   6.487 -0.3357 -0.6660 -0.2027
 3646SOL    HW122400   1.732   1.332   6.418  0.3101  0.4077 -0.5442
 3646SOL    HW222401   1.617   1.424   6.440  0.0593 -0.5556 -0.6904
 3647SOL     OW22402   2.386   0.945   9.151 -0.4479 -0.4209 -0.4704
 3647SOL    HW122403   2.304   0.923   9.106 -2.4325  1.7728  2.0963
 3647SOL    HW222404   2.407   0.859   9.187  0.5310  0.8649  2.0104
 3648SOL     OW22405   0.065   4.034   2.594  0.2690 -0.2906  0.5320
 3648SOL    HW122406   0.071   4.085   2.513 -0.9817 -2.3451 -0.8354
 3648SOL    HW222407   0.091   3.949   2.559 -0.0798 -0.7224  1.3205
 3649SOL     OW22408   4.230   4.367   1.091 -0.5002 -0.4147 -0.1987
 3649SOL    HW122409   4.288   4.325   1.155 -0.4141 -1.2766 -0.8496
 3649SOL    HW222410   4.258   4.459   1.092 -0.1200 -0.5321 -0.2280
 3650SOL     OW22411   2.806   1.573   2.445  0.5314 -0.3492  0.2850
 3650SOL    HW122412   2.766   1.657   2.422 -0.4760 -0.5178  1.4414
 3650SOL    HW222413   2.795   1.536   2.358  2.2202  2.5467 -1.2022
 3651SOL     OW22414   4.407   2.099   7.727  0.6189  0.2680 -0.1177
 3651SOL    HW122415   4.353   2.066   7.799  1.1309 -1.3756 -0.4923
 3651SOL    HW222416   4.350   2.162   7.682 -0.0008 -0.3019 -0.1217
 3652SOL     OW22417   0.519   4.403   1.439 -0.3908  0.0008  0.6134
 3652SOL    HW122418   0.509   4.387   1.345 -0.9643  1.0823  0.4871
 3652SOL    HW222419   0.469   4.485   1.445  0.3716  0.4265  1.1774
 3653SOL     OW22420   1.599   4.033   7.211 -0.2294 -0.2748 -0.0173
 3653SOL    HW122421   1.564   4.047   7.123  0.3242  1.7731  0.1034
 3653SOL    HW222422   1.681   4.079   7.225 -0.2497 -0.2496  0.0184
 3654SOL     OW22423   3.053   1.970   7.316  0.6581  0.3337  0.0576
 3654SOL    HW122424   3.026   1.901   7.377 -2.7877 -0.0980 -1.9763
 3654SOL    HW222425   3.075   1.918   7.239 -0.0419 -2.8510  2.0193
 3655SOL     OW22426   1.977   3.558   6.962 -0.4165 -0.0461  0.3290
 3655SOL    HW122427   1.986   3.651   6.943  2.0544 -0.1872  0.8629
 3655SOL    HW222428   2.004   3.546   7.053  0.5377 -2.7433 -0.3091
 3656SOL     OW22429   3.520   1.572  10.786 -0.2477  0.0375 -0.9329
 3656SOL    HW122430   3.593   1.559  10.846 -1.7887  0.0004  0.9183
 3656SOL    HW222431   3.534   1.492  10.735 -1.6610 -1.9436  1.8000
 3657SOL     OW22432   2.884   3.856   7.472  0.7601  0.4028 -0.4993
 3657SOL    HW122433   2.901   3.884   7.562  0.8225 -2.8659  0.5095
 3657SOL    HW222434   2.792   3.882   7.470 -0.1530 -2.5451  2.3238
 3658SOL     OW22435   0.228   1.125  14.067  0.0893 -0.4989 -0.1697
 3658SOL    HW122436   0.161   1.149  14.003  1.2319  2.3241 -0.2822
 3658SOL    HW222437   0.204   1.162  14.152  0.7587 -0.4060 -0.0252
 3659SOL     OW22438   0.429   0.935   3.138  0.2927  0.0674  0.0997
 3659SOL    HW122439   0.450   0.860   3.083  0.9745 -0.4334  1.0532
 3659SOL    HW222440   0.420   0.896   3.225  1.6237  0.5522  0.4632
 3660SOL     OW22441   2.027   2.305  13.944 -0.1226  0.3716  0.0586
 3660SOL    HW122442   2.100   2.246  13.928 -1.0627 -0.9165  0.5677
 3660SOL    HW222443   2.021   2.306  14.039  0.6070  0.4294  0.1070
 3661SOL     OW22444   2.586   2.990   2.745  0.0340 -0.0604  0.7663
 3661SOL    HW122445   2.498   2.951   2.751 -0.2076  0.2292 -1.1115
 3661SOL    HW222446   2.571   3.072   2.699  1.2422 -0.7059 -0.7701
 3662SOL     OW22447   3.496   3.427   2.923  0.4155  0.2817  0.2604
 3662SOL    HW122448   3.451   3.345   2.904 -1.1563  1.6851 -2.0712
 3662SOL    HW222449   3.433   3.470   2.981 -1.1021 -1.6864  0.0334
 3663SOL     OW22450   0.428   4.045  10.045  0.5340  0.5276 -0.0279
 3663SOL    HW122451   0.364   4.038  10.116 -1.4625  0.8062 -1.8265
 3663SOL    HW222452   0.494   3.988  10.085  1.4861  1.3312 -0.4743
 3664SOL     OW22453   1.928   2.541  15.539  0.4143  0.1083  0.4082
 3664SOL    HW122454   1.960   2.611  15.482 -0.0774 -1.9811 -2.4060
 3664SOL    HW222455   1.915   2.476  15.470 -0.3206  1.7867 -1.0423
 3665SOL     OW22456   3.787   4.701   4.391 -0.2884  0.5269  0.5327
 3665SOL    HW122457   3.863   4.672   4.341  1.0172 -0.6974  3.1855
 3665SOL    HW222458   3.771   0.071   4.363  0.4397  1.2787  2.4907
 3666SOL     OW22459   4.124   3.255   6.896  0.1779  0.1507  0.0116
 3666SOL    HW122460   4.216   3.230   6.894 -0.4842 -2.1436 -1.5599
 3666SOL    HW222461   4.094   3.252   6.805  0.3386  0.9037 -0.0658
 3667SOL     OW22462   4.477   3.942  16.636 -0.6063  0.1439 -0.0426
 3667SOL    HW122463   4.506   3.987  16.557  1.2475 -1.5161 -0.3081
 3667SOL    HW222464   4.384   3.963  16.638 -0.9045 -0.8814 -3.6660
 3668SOL     OW22465   3.813   1.639  17.099 -0.4097  0.4929  0.0321
 3668SOL    HW122466   3.747   1.601  17.156  0.0356 -0.1518  0.1167
 3668SOL    HW222467   3.843   1.704  17.162  0.0733 -0.8646  1.2019
 3669SOL     OW22468   2.046   3.233  13.186  0.4058  0.9370  0.3256
 3669SOL    HW122469   1.984   3.217  13.258 -1.6987  3.7274 -0.8726
 3669SOL    HW222470   2.063   3.142  13.162  2.3587  1.8538 -1.7465
 3670SOL     OW22471   0.865   4.086  10.779  0.3039 -0.0585 -0.3963
 3670SOL    HW122472   0.916   4.027  10.834  1.4434  1.8856  0.6261
 3670SOL    HW222473   0.780   4.042  10.781  0.0198  0.4207 -1.9154
 3671SOL     OW22474   4.144   3.270   6.553 -0.2037 -0.4719  0.1580
 3671SOL    HW122475   4.152   3.178   6.529 -0.8465 -0.6391  0.5901
 3671SOL    HW222476   4.216   3.309   6.503 -0.4445  0.1946  0.3361
 3672SOL     OW22477   3.443   2.741   0.387 -0.1834 -0.4086 -0.3129
 3672SOL    HW122478   3.435   2.801   0.313 -0.7350 -0.2638 -0.1391
 3672SOL    HW222479   3.357   2.732   0.429  1.5142  0.6783  3.4302
 3673SOL     OW22480   1.856   0.035   6.011 -0.3448  0.1489  0.9109
 3673SOL    HW122481   1.789   0.098   5.986  2.8094  3.1351 -0.0928
 3673SOL    HW222482   1.926   0.045   5.946 -2.1781  0.9253 -0.9446
 3674SOL     OW22483   4.222   0.589   1.115  0.5375 -0.5009 -0.1300
 3674SOL    HW122484   4.205   0.602   1.022  3.8903  0.0188 -0.6775
 3674SOL    HW222485   4.141   0.551   1.147 -1.1914  0.3710 -3.4610
 3675SOL     OW22486   1.109   2.273   0.281 -0.3902 -0.4102  0.1621
 3675SOL    HW122487   1.090   2.315   0.365 -1.4517  0.0523 -0.3142
 3675SOL    HW222488   1.134   2.183   0.304  0.9489  0.6472  2.9622
 3676SOL     OW22489   2.234   4.283  15.307  0.7946  0.2065  0.4621
 3676SOL    HW122490   2.184   4.335  15.244 -0.5826 -1.6424  0.0378
 3676SOL    HW222491   2.323   4.317  15.299  1.2994 -1.1743  0.2983
 3677SOL     OW22492   2.741   0.960   2.884 -0.4336  0.3159 -0.4352
 3677SOL    HW122493   2.745   0.949   2.979  2.0338  0.0210 -0.5636
 3677SOL    HW222494   2.675   0.894   2.863  1.7424 -1.4474 -1.7142
 3678SOL     OW22495   2.910   3.788   0.785 -0.3225  0.0261 -0.2505
 3678SOL    HW122496   2.979   3.821   0.841  0.1691 -3.9158  1.4309
 3678SOL    HW222497   2.928   3.694   0.778  1.5108  0.2222  2.2099
 3679SOL     OW22498   3.766   2.723   6.250  0.1965  0.0310 -0.1594
 3679SOL    HW122499   3.789   2.631   6.235  0.0089 -0.2458  1.3048
 3679SOL    HW222500   3.734   2.742   6.161 -0.7991 -3.4805 -0.5454
 3680SOL     OW22501   0.730   3.188   7.196 -0.1008 -0.2250 -0.2928
 3680SOL    HW122502   0.777   3.106   7.207 -0.9824 -0.6173  0.5976
 3680SOL    HW222503   0.672   3.163   7.124 -1.0154 -2.2705  1.1424
 3681SOL     OW22504   3.492   2.804   7.855 -0.4112 -0.1973  0.0615
 3681SOL    HW122505   3.558   2.857   7.899  1.4599 -0.6192 -2.2052
 3681SOL    HW222506   3.411   2.807   7.907  0.0218  0.5691  0.6893
 3682SOL     OW22507   4.212   4.400   2.325 -0.3056 -0.2696 -0.2520
 3682SOL    HW122508   4.167   4.316   2.316  0.7140 -1.0485  1.9872
 3682SOL    HW222509   4.150   4.452   2.377  0.0754  0.2186 -0.2815
 3683SOL     OW22510   0.884   2.268   1.618 -0.3019  0.2708  0.3071
 3683SOL    HW122511   0.927   2.223   1.546  1.8189  1.8480  0.5890
 3683SOL    HW222512   0.806   2.216   1.636  0.2620 -0.7013 -0.0571
 3684SOL     OW22513   3.741   2.362   6.867  0.1962  0.1437  0.4173
 3684SOL    HW122514   3.818   2.402   6.907 -1.2326  2.3223  0.9668
 3684SOL    HW222515   3.775   2.333   6.783 -0.4298  1.1374 -0.1763
 3685SOL     OW22516   3.235   3.975   7.411  0.7233  0.3898  0.2441
 3685SOL    HW122517   3.283   3.902   7.371  1.7347  1.2860 -0.1620
 3685SOL    HW222518   3.180   3.987   7.333 -0.4779  2.5380  1.4427
 3686SOL     OW22519   1.074   4.716   7.713  0.2804 -0.1570  0.2226
 3686SOL    HW122520   1.124   4.694   7.634  3.2048  0.9973  1.7495
 3686SOL    HW222521   1.125   4.666   7.777 -1.2192  0.7851  2.1243
 3687SOL     OW22522   2.840   4.626  13.445  0.0321  0.2726  0.2587
 3687SOL    HW122523   2.811   4.712  13.414  0.1888  1.1450  2.5604
 3687SOL    HW222524   2.917   4.635  13.501  0.2843 -0.7491  0.0805
 3688SOL     OW22525   3.617   3.983   6.695 -0.3233 -0.1702  0.0420
 3688SOL    HW122526   3.534   3.938   6.710 -0.7842  0.3898 -0.8705
 3688SOL    HW222527   3.678   3.913   6.717  1.5110  1.2733 -0.3947
 3689SOL     OW22528   0.553   0.411  10.228 -0.2109  0.7514  0.2180
 3689SOL    HW122529   0.514   0.324  10.237  3.0623 -0.9300 -1.5801
 3689SOL    HW222530   0.491   0.447  10.164  0.2227 -0.3749 -0.8255
 3690SOL     OW22531   4.074   4.139  15.203 -0.0816  0.3102 -0.0272
 3690SOL    HW122532   4.083   4.110  15.294  1.3910  2.4666  0.5169
 3690SOL    HW222533   4.145   4.202  15.189  0.8376 -0.6746  0.2251
 3691SOL     OW22534   1.214   4.407   8.797  0.7802  0.0918 -0.6850
 3691SOL    HW122535   1.244   4.317   8.808  0.4353  0.1081  0.4428
 3691SOL    HW222536   1.152   4.423   8.869  0.6936  2.4742 -1.2667
 3692SOL     OW22537   0.925   3.088  12.731 -0.2850  0.2005  0.3741
 3692SOL    HW122538   0.853   3.044  12.686 -1.4452  0.3830  2.0679
 3692SOL    HW222539   0.881   3.141  12.797  0.7198  0.4104  0.8849
 3693SOL     OW22540   0.855   3.396   2.532 -0.0399  0.4052 -0.3053
 3693SOL    HW122541   0.794   3.420   2.602 -1.1499 -0.6134 -0.9286
 3693SOL    HW222542   0.892   3.316   2.568  3.4605  1.4125 -1.7205
 3694SOL     OW22543   3.882   4.090  16.778  0.1006  0.5573  0.3421
 3694SOL    HW122544   3.946   4.021  16.764 -1.7797 -1.2042  0.4382
 3694SOL    HW222545   3.932   4.146  16.837 -0.9608  2.2377 -0.3413
 3695SOL     OW22546   0.813   2.432  13.371 -0.4273  0.7725  0.0041
 3695SOL    HW122547   0.802   2.404  13.280  0.9621  2.5044 -0.6912
 3695SOL    HW222548   0.850   2.353  13.409 -0.2439  1.1948  0.7020
 3696SOL     OW22549   2.923   1.295   2.636  0.7061 -0.8598 -0.1783
 3696SOL    HW122550   2.946   1.255   2.553 -1.7144 -0.4553 -1.0393
 3696SOL    HW222551   2.986   1.368   2.640 -0.5443  0.2235 -0.1518
 3697SOL     OW22552   0.051   0.447   4.898 -0.8218 -0.0410 -0.1988
 3697SOL    HW122553   0.061   0.394   4.976  1.4241  0.8145  0.1052
 3697SOL    HW222554   0.102   0.402   4.830  0.0179  1.5502 -0.6309
 3698SOL     OW22555   0.711   2.043  16.687  0.2663  0.1877  0.1800
 3698SOL    HW122556   0.743   1.978  16.625  0.1659  3.1140 -2.9154
 3698SOL    HW222557   0.679   2.105  16.622 -2.2396 -0.6172  0.6261
 3699SOL     OW22558   2.497   3.356   2.775 -0.0877 -0.4445  0.4104
 3699SOL    HW122559   2.494   3.313   2.690  1.9983  0.8355 -0.3048
 3699SOL    HW222560   2.524   3.445   2.752  0.1085 -1.0444 -1.6638
 3700SOL     OW22561   1.599   1.770   6.095  0.4663 -0.1212 -0.2600
 3700SOL    HW122562   1.580   1.680   6.070 -2.5421  0.3160  0.4437
 3700SOL    HW222563   1.613   1.766   6.190  2.2454 -1.7287 -0.5990
 3701SOL     OW22564   0.587   4.607   0.369  0.0737 -0.6628  0.0816
 3701SOL    HW122565   0.677   4.640   0.365 -0.4162  0.4840 -1.8632
 3701SOL    HW222566   0.595   4.569   0.281  3.6613 -0.4955  0.3540
 3702SOL     OW22567   0.712   4.201   2.346 -0.1150  0.3911  0.1442
 3702SOL    HW122568   0.793   4.173   2.304 -0.7498 -2.1937  0.6344
 3702SOL    HW222569   0.731   4.294   2.334 -1.2586  0.6194  0.0820
 3703SOL     OW22570   1.615   1.125  12.828 -0.2705 -0.1611 -0.4590
 3703SOL    HW122571   1.641   1.119  12.736  0.8626 -0.2743 -0.1255
 3703SOL    HW222572   1.628   1.217  12.851 -0.9333 -0.0607 -0.4864
 3704SOL     OW22573   3.228   1.810   4.803  0.0651 -0.0176  0.1624
 3704SOL    HW122574   3.267   1.883   4.852  0.3110  0.1454 -0.2757
 3704SOL    HW222575   3.259   1.735   4.853  0.1380 -0.6287 -0.8080
 3705SOL     OW22576   3.506   4.652   4.853 -0.2762  0.2575 -0.1000
 3705SOL    HW122577   3.534   4.674   4.764  0.2958  0.9451  0.2530
 3705SOL    HW222578   3.429   4.598   4.839 -1.0029  1.2286  0.1691
 3706SOL     OW22579   2.529   4.705   6.680 -0.3331 -0.5310 -0.4027
 3706SOL    HW122580   2.547   0.079   6.688 -1.2522 -0.6157  2.5116
 3706SOL    HW222581   2.441   4.711   6.644 -1.5412  1.7866  3.0068
 3707SOL     OW22582   0.250   1.539   9.815 -0.0602  0.1210  1.0164
 3707SOL    HW122583   0.234   1.531   9.720 -0.3008  0.2812  1.0458
 3707SOL    HW222584   0.344   1.540   9.834 -0.1623 -0.0187  1.5120
 3708SOL     OW22585   3.589   1.533   5.261  0.6084 -0.0936 -0.3623
 3708SOL    HW122586   3.494   1.547   5.252  1.1314  1.4299 -3.5035
 3708SOL    HW222587   3.593   1.477   5.339  0.2590 -0.9273 -0.9357
 3709SOL     OW22588   1.092   0.508   6.346 -0.6264 -0.2943  0.2903
 3709SOL    HW122589   1.075   0.482   6.255  0.8547 -1.8165  0.4601
 3709SOL    HW222590   1.183   0.485   6.361  0.0998  2.4877  0.2477
 3710SOL     OW22591   0.602   1.236   2.239 -0.0799  0.2196  0.8222
 3710SOL    HW122592   0.528   1.181   2.265  0.8767 -0.6236  1.7660
 3710SOL    HW222593   0.629   1.265   2.327 -1.7491  2.9387  0.4580
 3711SOL     OW22594   3.842   1.679   2.934 -0.2239  0.6203 -0.5653
 3711SOL    HW122595   3.838   1.594   2.978 -0.9658  1.0241  0.1300
 3711SOL    HW222596   3.817   1.741   3.003  2.2906  1.7540 -0.6580
 3712SOL     OW22597   2.230   4.211  14.772 -0.3124  1.1988 -0.9208
 3712SOL    HW122598   2.230   4.165  14.688  0.1342  0.2504 -0.3990
 3712SOL    HW222599   2.140   4.240  14.781 -0.9340 -1.3174  0.8894
 3713SOL     OW22600   3.230   2.233   6.664 -0.5268  0.2504  0.1239
 3713SOL    HW122601   3.168   2.298   6.633 -1.3458  0.2207  1.6899
 3713SOL    HW222602   3.204   2.197   6.749  0.8948  0.1334  0.5070
 3714SOL     OW22603   4.567   3.838  14.701  0.0909 -0.1384  0.4951
 3714SOL    HW122604   4.502   3.863  14.635  1.8341 -0.6573 -1.4193
 3714SOL    HW222605   4.548   3.747  14.721 -0.0291 -0.0422  0.8092
 3715SOL     OW22606   0.496   4.207   9.847  0.4067  0.1986  0.0960
 3715SOL    HW122607   0.471   4.157   9.924  2.7046 -0.6176  0.3231
 3715SOL    HW222608   0.592   4.201   9.841  0.5108  0.7157  1.4146
 3716SOL     OW22609   1.686   2.475  11.714  0.0711  0.1447  0.1242
 3716SOL    HW122610   1.636   2.463  11.794 -2.0735 -1.8333 -1.4995
 3716SOL    HW222611   1.648   2.400  11.668  1.6231 -0.7541  0.3055
 3717SOL     OW22612   1.303   3.484   7.946  0.0844 -0.0412 -0.6336
 3717SOL    HW122613   1.329   3.551   7.883 -0.5147  0.1923 -0.6272
 3717SOL    HW222614   1.344   3.504   8.030  0.6443  0.4774 -1.0347
 3718SOL     OW22615   4.049   1.305   2.360  0.1465 -0.1456 -0.6667
 3718SOL    HW122616   4.041   1.259   2.276 -0.1165 -2.3362  0.5548
 3718SOL    HW222617   4.046   1.231   2.421  0.8282 -0.8030 -1.4331
 3719SOL     OW22618   0.618   2.178   3.384  0.8378 -0.1851  0.1240
 3719SOL    HW122619   0.686   2.239   3.413  0.4189  0.9708 -1.3198
 3719SOL    HW222620   0.540   2.228   3.407 -0.9831 -2.1153 -1.8869
 3720SOL     OW22621   3.460   0.325   4.031  0.1555 -0.9836 -0.0461
 3720SOL    HW122622   3.522   0.391   4.063 -0.8059 -0.0095 -0.1834
 3720SOL    HW222623   3.516   0.255   4.000  1.3675 -0.2370  0.4706
 3721SOL     OW22624   2.785   0.134   3.404 -0.5614 -0.1894 -0.4036
 3721SOL    HW122625   2.714   0.107   3.346 -0.5650  0.6378 -0.7955
 3721SOL    HW222626   2.766   0.091   3.487 -2.8270 -1.5899 -1.6448
 3722SOL     OW22627   2.201   2.048  14.874 -0.7342  0.5707  0.1185
 3722SOL    HW122628   2.263   2.119  14.861 -3.0898  3.0895  2.5502
 3722SOL    HW222629   2.195   2.005  14.789  0.1299  0.0594  0.3242
 3723SOL     OW22630   3.550   1.146   5.122 -0.1433  0.3957  0.4757
 3723SOL    HW122631   3.507   1.162   5.206 -0.7897  2.5716 -0.2702
 3723SOL    HW222632   3.586   1.057   5.128 -0.7911  0.2632  2.2090
 3724SOL     OW22633   0.241   2.230   3.546 -0.5949 -0.3212 -0.0287
 3724SOL    HW122634   0.271   2.196   3.630 -0.4917 -0.1698 -0.0041
 3724SOL    HW222635   0.239   2.149   3.495 -1.5538  0.1643 -0.7597
 3725SOL     OW22636   0.779   2.784   5.406 -0.5155  0.2374 -0.1481
 3725SOL    HW122637   0.856   2.819   5.360 -1.0095 -0.6112 -1.6030
 3725SOL    HW222638   0.756   2.716   5.344  0.1882  0.5759 -0.7862
 3726SOL     OW22639   4.397   0.841   4.077  0.5436  0.7107  0.5300
 3726SOL    HW122640   4.316   0.857   4.028  0.3782  1.2640  0.9833
 3726SOL    HW222641   4.370   0.865   4.166 -0.6997  1.4980 -0.0579
 3727SOL     OW22642   3.270   3.763   3.964  1.1811 -0.1064 -0.0365
 3727SOL    HW122643   3.242   3.781   4.054  2.0820  0.8969  0.0404
 3727SOL    HW222644   3.226   3.832   3.913  0.6988  1.0344  1.8854
 3728SOL     OW22645   3.261   1.416   2.870 -0.5829  0.2880 -0.6029
 3728SOL    HW122646   3.312   1.336   2.884  0.3870  0.7827 -1.2818
 3728SOL    HW222647   3.269   1.428   2.775 -1.3111 -1.1365 -0.8460
 3729SOL     OW22648   0.857   2.730   3.672 -0.4064 -0.0094 -0.2531
 3729SOL    HW122649   0.939   2.728   3.720  0.2709  0.0828 -1.4017
 3729SOL    HW222650   0.781   2.753   3.726  1.5933  2.9331  1.2597
 3730SOL     OW22651   0.822   4.589   9.192 -0.0699 -0.2002  0.2963
 3730SOL    HW122652   0.877   4.637   9.253  1.3653 -0.6589 -0.6491
 3730SOL    HW222653   0.768   4.657   9.153 -1.6085 -1.5061  0.1356
 3731SOL     OW22654   0.421   4.435   6.091 -0.1457 -0.8747  0.2528
 3731SOL    HW122655   0.374   4.435   6.008  1.7031  0.0127 -0.7995
 3731SOL    HW222656   0.507   4.467   6.063 -0.3093 -1.6372 -1.1232
 3732SOL     OW22657   1.512   1.522   4.118  0.3841  0.1537 -0.4345
 3732SOL    HW122658   1.438   1.536   4.059  0.8908  2.3570 -0.5481
 3732SOL    HW222659   1.584   1.508   4.058  1.4665 -2.2439  1.4184
 3733SOL     OW22660   3.207   3.971   8.451  0.0127 -0.3910 -0.1132
 3733SOL    HW122661   3.244   4.031   8.515  0.3219  0.3260 -0.9687
 3733SOL    HW222662   3.267   3.896   8.452  0.5038  0.0116  1.5767
 3734SOL     OW22663   2.178   4.716   4.479 -0.0092  0.1539  0.1258
 3734SOL    HW122664   2.195   0.090   4.482 -1.4374  0.3288  2.9178
 3734SOL    HW222665   2.265   4.680   4.465 -0.0677 -0.9067  2.4621
 3735SOL     OW22666   0.443   2.613   0.435  0.0943 -0.7130 -0.2573
 3735SOL    HW122667   0.518   2.645   0.385 -1.2618  0.0140 -1.8250
 3735SOL    HW222668   0.490   2.561   0.501 -0.8959  0.9955  1.8108
 3736SOL     OW22669   3.106   1.411  13.816 -0.0779 -0.7505 -0.4362
 3736SOL    HW122670   3.041   1.409  13.746 -0.6426  0.1771  0.0557
 3736SOL    HW222671   3.136   1.502  13.810 -1.5006 -0.3491 -1.4133
 3737SOL     OW22672   4.102   0.345  14.862  0.6945 -0.2533  0.2867
 3737SOL    HW122673   4.072   0.272  14.917 -0.5378 -0.8699 -1.2076
 3737SOL    HW222674   4.041   0.416  14.882 -0.4325 -1.6910  1.9358
 3738SOL     OW22675   2.246   4.383   6.606  0.4554  0.1748 -0.4691
 3738SOL    HW122676   2.284   4.376   6.518 -0.2211  0.0135 -0.7435
 3738SOL    HW222677   2.233   4.289   6.621 -3.0600  0.7927  0.3693
 3739SOL     OW22678   2.528   4.627   8.214 -0.6676 -0.2587 -0.0591
 3739SOL    HW122679   2.588   4.657   8.146  0.1937  0.3964  0.9917
 3739SOL    HW222680   2.452   4.684   8.197 -0.5251 -0.0760 -0.0825
 3740SOL     OW22681   0.800   4.201   2.889  0.0326 -0.4046  0.2713
 3740SOL    HW122682   0.746   4.280   2.895 -1.4784 -1.1189 -3.3621
 3740SOL    HW222683   0.745   4.139   2.841 -2.6454  2.3345 -0.2348
 3741SOL     OW22684   2.903   0.454   1.928  0.0794  0.3393  0.1822
 3741SOL    HW122685   2.814   0.475   1.958 -0.2204  0.8026 -1.0208
 3741SOL    HW222686   2.880   0.412   1.845  2.3320 -1.4953  0.5122
 3742SOL     OW22687   0.385   2.742   6.232 -0.4720 -0.2911  0.4768
 3742SOL    HW122688   0.407   2.782   6.315 -0.5309 -2.5223  1.5863
 3742SOL    HW222689   0.296   2.767   6.206 -0.0972  1.1968  0.6650
 3743SOL     OW22690   2.737   4.694   4.517  0.5927 -0.6979  0.6047
 3743SOL    HW122691   2.730   4.599   4.510  1.5444 -0.8795  2.0826
 3743SOL    HW222692   2.690   0.015   4.445  0.9054  0.7650  1.2373
 3744SOL     OW22693   4.331   0.910   4.345  0.1533 -0.5540  0.0681
 3744SOL    HW122694   4.238   0.919   4.328  0.5501 -2.3777 -3.1557
 3744SOL    HW222695   4.339   0.923   4.439  2.0463 -0.2408 -0.1303
 3745SOL     OW22696   2.858   2.320   5.367 -0.4636 -0.1764  0.5898
 3745SOL    HW122697   2.908   2.306   5.448 -1.9893 -2.0471  1.2271
 3745SOL    HW222698   2.859   2.240   5.313 -1.6636  0.3001 -0.1501
 3746SOL     OW22699   0.463   0.879   6.930 -0.2887  0.4896 -0.3302
 3746SOL    HW122700   0.413   0.935   6.990 -0.7406  0.8580 -1.0544
 3746SOL    HW222701   0.433   0.914   6.847  0.5204 -0.9321 -1.2271
 3747SOL     OW22702   1.125   0.374   6.695 -0.0246 -0.8429 -0.1893
 3747SOL    HW122703   1.209   0.421   6.694  0.1155 -1.1028 -0.7430
 3747SOL    HW222704   1.151   0.286   6.722  0.3630 -1.0102 -1.0747
 3748SOL     OW22705   0.942   0.728   6.278  0.0912  0.4926 -0.4502
 3748SOL    HW122706   1.007   0.793   6.254  2.5150 -1.3722  1.1443
 3748SOL    HW222707   1.004   0.659   6.301 -0.2763  0.0962 -0.6418
 3749SOL     OW22708   3.402   2.731  12.595  0.0923  0.8431  0.7033
 3749SOL    HW122709   3.457   2.781  12.656  2.2202 -2.3467  1.3581
 3749SOL    HW222710   3.393   2.650  12.645 -2.0764 -0.0079 -1.0569
 3750SOL     OW22711   4.316   3.274   1.127  0.4717  0.3701  0.1545
 3750SOL    HW122712   4.351   3.240   1.045  1.6438  3.2099 -0.5455
 3750SOL    HW222713   4.225   3.243   1.127  0.6218 -0.0733 -1.4417
 3751SOL     OW22714   3.779   0.554   2.961 -0.6520 -0.3507  0.1137
 3751SOL    HW122715   3.811   0.490   2.898 -1.2589  0.7989 -1.3657
 3751SOL    HW222716   3.686   0.535   2.971 -0.9927  0.0674 -2.3378
 3752SOL     OW22717   0.494   3.069  10.538 -0.2794 -0.0852  0.3967
 3752SOL    HW122718   0.582   3.031  10.534 -1.9833 -3.7337 -2.0692
 3752SOL    HW222719   0.435   3.015  10.486 -0.0730 -0.8873  0.9967
 3753SOL     OW22720   3.450   4.131   7.751  0.4606  0.5990  0.0153
 3753SOL    HW122721   3.505   4.165   7.680  1.9499  0.2981  1.0273
 3753SOL    HW222722   3.411   4.215   7.777 -1.0698  0.0198 -0.4109
 3754SOL     OW22723   1.870   4.433   5.640 -0.7842  0.3863  0.1087
 3754SOL    HW122724   1.861   4.378   5.562  4.1929 -0.4269  0.1257
 3754SOL    HW222725   1.816   4.505   5.607  0.1492  0.4944 -1.2020
 3755SOL     OW22726   0.283   4.313   3.388  0.5426 -0.7076  0.3049
 3755SOL    HW122727   0.269   4.228   3.346  2.3464 -0.9581  0.1741
 3755SOL    HW222728   0.314   4.363   3.313 -1.0744  0.1138  0.2052
 3756SOL     OW22729   1.421   2.592   1.924 -0.3419 -0.7033  0.3769
 3756SOL    HW122730   1.460   2.512   1.888 -0.4956 -0.7938  0.4116
 3756SOL    HW222731   1.331   2.592   1.892 -0.3169 -0.9337  0.3022
 3757SOL     OW22732   3.215   1.091   6.353 -0.1403  0.2130  0.1359
 3757SOL    HW122733   3.217   0.995   6.360 -3.5574  0.0892 -0.6516
 3757SOL    HW222734   3.307   1.112   6.367  0.0513 -0.8732  0.5029
 3758SOL     OW22735   1.034   2.819   5.327 -0.3479  0.8091  0.3121
 3758SOL    HW122736   1.083   2.742   5.356 -2.3564 -0.3826  0.5636
 3758SOL    HW222737   1.109   2.861   5.285  0.1365  0.6767  1.0473
 3759SOL     OW22738   4.281   2.932   7.827  0.4416 -0.1625  0.4630
 3759SOL    HW122739   4.194   2.938   7.786  1.5337 -1.9873 -2.0992
 3759SOL    HW222740   4.318   3.001   7.772 -1.3396  1.8424  1.7570
 3760SOL     OW22741   1.374   0.047   3.770 -0.0197 -0.3895  0.2919
 3760SOL    HW122742   1.302   0.063   3.709  0.7336  0.5643 -0.3521
 3760SOL    HW222743   1.353   0.117   3.832  0.4728  0.8141 -0.9021
 3761SOL     OW22744   0.897   0.351   6.093 -0.0638 -0.0558 -0.3699
 3761SOL    HW122745   0.855   0.266   6.079  0.2975 -0.6021  1.8471
 3761SOL    HW222746   0.975   0.351   6.038  0.1356 -1.8239 -0.0652
 3762SOL     OW22747   0.016   0.342   8.530 -0.6732  0.4942  0.3436
 3762SOL    HW122748   0.067   0.272   8.571 -0.7788 -0.0723 -0.5021
 3762SOL    HW222749   4.658   0.343   8.586 -1.4415 -1.1906 -0.7005
 3763SOL     OW22750   0.373   4.632   3.044  0.4054 -0.4016 -0.2270
 3763SOL    HW122751   0.385   4.666   2.955 -0.1296  0.6850  0.1167
 3763SOL    HW222752   0.460   4.606   3.073  0.5260  1.1902  0.8209
 3764SOL     OW22753   3.314   3.490   7.122  0.0228  0.2024 -0.1405
 3764SOL    HW122754   3.348   3.577   7.102  1.4257 -0.4380 -0.5433
 3764SOL    HW222755   3.264   3.499   7.203 -1.3505  0.1112 -0.9652
 3765SOL     OW22756   2.417   2.324   1.942  0.6351 -0.6508  0.6074
 3765SOL    HW122757   2.494   2.379   1.956  1.0718 -1.0776 -0.0870
 3765SOL    HW222758   2.370   2.363   2.015  0.9812  0.0280  0.4674
 3766SOL     OW22759   3.292   0.321  15.048  0.2283 -0.0318  0.0523
 3766SOL    HW122760   3.344   0.241  15.059  0.1025 -0.1282 -0.0561
 3766SOL    HW222761   3.347   0.386  15.091 -0.2536 -0.4889  1.3398
 3767SOL     OW22762   2.412   0.315   4.204 -0.3214  0.0887 -0.0118
 3767SOL    HW122763   2.465   0.350   4.133 -0.4324 -1.0555 -0.6722
 3767SOL    HW222764   2.336   0.370   4.185 -0.8809 -0.6063  0.2255
 3768SOL     OW22765   1.665   0.017   2.469  0.0249  0.2494 -0.1207
 3768SOL    HW122766   1.664   4.651   2.509  0.0464  1.1685  1.8322
 3768SOL    HW222767   1.717   0.064   2.534 -0.3274  0.6460 -0.1221
 3769SOL     OW22768   4.372   3.536   4.151 -0.3966 -0.0869  0.4258
 3769SOL    HW122769   4.361   3.457   4.203 -3.6229  1.6224  2.3542
 3769SOL    HW222770   4.391   3.598   4.221 -1.9547  1.3895 -0.4471
 3770SOL     OW22771   3.315   2.087  11.556  0.4856 -0.1242 -0.0621
 3770SOL    HW122772   3.260   2.157  11.592  1.6094  0.2744  0.8794
 3770SOL    HW222773   3.249   2.027  11.522  0.2106 -0.8636  1.7603
 3771SOL     OW22774   2.376   1.474  16.404 -0.0248  0.1710 -0.2902
 3771SOL    HW122775   2.459   1.438  16.371  1.2524  2.4091  0.4504
 3771SOL    HW222776   2.324   1.396  16.384 -0.4910  0.2197  0.7687
 3772SOL     OW22777   1.539   1.702  14.289 -0.2422 -0.4193  0.1563
 3772SOL    HW122778   1.556   1.610  14.308 -0.8138 -0.3125  1.2040
 3772SOL    HW222779   1.444   1.697  14.299 -0.3721 -2.4311 -2.0839
 3773SOL     OW22780   0.587   3.983   7.455  0.1430 -0.4605 -0.1710
 3773SOL    HW122781   0.625   4.064   7.489 -0.8325  0.3335 -0.9764
 3773SOL    HW222782   0.661   3.936   7.416 -0.5771 -1.1913 -0.6622
 3774SOL     OW22783   3.945   1.312   5.306  0.3952 -0.3097  0.1272
 3774SOL    HW122784   4.029   1.356   5.309  0.6359 -0.8494  1.2538
 3774SOL    HW222785   3.967   1.227   5.267  0.6169  0.7817 -2.1383
 3775SOL     OW22786   1.238   0.867   1.204  0.0263 -0.0665 -0.1266
 3775SOL    HW122787   1.161   0.823   1.166 -0.9954  2.2931 -0.7828
 3775SOL    HW222788   1.268   0.918   1.129  0.8495 -0.9017 -0.3591
 3776SOL     OW22789   1.956   2.277  13.620  0.0371 -0.4909  0.0718
 3776SOL    HW122790   1.985   2.355  13.667 -1.8227 -0.7203  1.6297
 3776SOL    HW222791   1.898   2.307  13.550 -0.1235 -0.0891  0.3742
 3777SOL     OW22792   1.577   3.754   6.221  0.2648 -0.8313 -0.1975
 3777SOL    HW122793   1.630   3.674   6.219  0.9968 -0.3594  0.2214
 3777SOL    HW222794   1.498   3.739   6.168 -1.1829  1.0537  1.4106
 3778SOL     OW22795   1.718   2.111   1.818  0.3315 -0.4846  0.3114
 3778SOL    HW122796   1.690   2.071   1.736  1.3480 -0.5924  0.0150
 3778SOL    HW222797   1.673   2.059   1.883 -0.9199  1.3962  0.9575
 3779SOL     OW22798   0.722   4.454  10.628 -0.1973 -0.5620  0.2043
 3779SOL    HW122799   0.777   4.466  10.706  1.1355 -1.5408 -0.5947
 3779SOL    HW222800   0.638   4.477  10.667 -0.5593 -0.8427 -0.4245
 3780SOL     OW22801   0.487   4.408   8.367  0.6660 -0.1296  0.3654
 3780SOL    HW122802   0.535   4.478   8.322 -3.0861  0.9053 -2.0114
 3780SOL    HW222803   0.557   4.345   8.384 -0.5283 -1.5620 -0.0672
 3781SOL     OW22804   2.008   1.762  13.250 -0.0158 -0.1020  0.6333
 3781SOL    HW122805   2.086   1.753  13.194  0.0690  0.6766  0.6375
 3781SOL    HW222806   1.948   1.783  13.179  2.3224 -0.5249 -1.4899
 3782SOL     OW22807   0.440   0.508   7.214  0.2711  0.3024  0.4649
 3782SOL    HW122808   0.506   0.459   7.166 -0.0170  2.2977 -1.9891
 3782SOL    HW222809   0.355   0.469   7.193 -0.6035  1.2268  2.2854
 3783SOL     OW22810   3.543   3.073   6.089 -0.2001 -0.3208  0.6507
 3783SOL    HW122811   3.487   3.020   6.145 -0.9616  1.6193  1.7024
 3783SOL    HW222812   3.486   3.137   6.046  0.5377 -0.5298 -0.6604
 3784SOL     OW22813   1.405   0.422   3.108  0.2581  0.0824  0.4050
 3784SOL    HW122814   1.480   0.387   3.060 -1.8621 -3.2824 -0.4573
 3784SOL    HW222815   1.440   0.499   3.152 -2.1775  0.8024  1.0675
 3785SOL     OW22816   3.955   4.610   6.111 -0.3645  0.0775 -0.1275
 3785SOL    HW122817   3.913   4.663   6.043 -0.0765 -0.7254 -0.9331
 3785SOL    HW222818   3.879   4.577   6.159  1.3337  0.0496  2.5633
 3786SOL     OW22819   1.795   4.523  16.969 -0.2946  0.4092  0.6739
 3786SOL    HW122820   1.750   4.439  16.964  0.0793  0.4873 -3.7513
 3786SOL    HW222821   1.735   4.581  17.015 -0.0837  0.8065  0.4478
 3787SOL     OW22822   1.927   0.919   5.243  0.2091 -0.5924 -0.3811
 3787SOL    HW122823   1.880   0.983   5.189 -1.4058 -1.0047  0.5726
 3787SOL    HW222824   1.920   0.848   5.178  0.5162 -1.2425  0.3027
 3788SOL     OW22825   0.743   0.667   8.965  0.0137  0.0467  0.5617
 3788SOL    HW122826   0.670   0.683   8.906  2.6628  2.7692 -1.9560
 3788SOL    HW222827   0.704   0.677   9.052 -0.2981 -0.4935  0.4783
 3789SOL     OW22828   0.149   3.122   0.366  0.5236 -0.1936 -0.1256
 3789SOL    HW122829   0.129   3.116   0.273 -0.4694  1.8631 -0.0620
 3789SOL    HW222830   0.115   3.037   0.393  0.6155 -0.2810 -0.2875
 3790SOL     OW22831   4.232   0.455   4.452 -0.2858  0.1426 -0.2488
 3790SOL    HW122832   4.146   0.495   4.444 -0.7898 -0.9792 -0.5258
 3790SOL    HW222833   4.267   0.451   4.362 -3.4764  0.1522 -1.4818
 3791SOL     OW22834   1.407   3.866   3.880  0.5499 -0.0717 -0.3649
 3791SOL    HW122835   1.500   3.855   3.898  0.2667  3.5835  3.2846
 3791SOL    HW222836   1.376   3.788   3.925 -0.3593 -0.3166 -1.3971
 3792SOL     OW22837   2.727   4.055   7.077 -0.1690 -0.1140 -0.1221
 3792SOL    HW122838   2.768   4.072   6.992  1.7835 -1.2531  0.5862
 3792SOL    HW222839   2.680   3.975   7.053  0.5590 -1.2885  2.3919
 3793SOL     OW22840   3.974   1.516   8.635 -0.0279 -0.1833  0.7249
 3793SOL    HW122841   3.929   1.442   8.596  2.0228 -0.0906 -1.8309
 3793SOL    HW222842   4.058   1.472   8.647 -0.5783 -1.5978 -0.6126
 3794SOL     OW22843   2.233   0.661   3.634 -0.2806  0.2585 -0.7601
 3794SOL    HW122844   2.278   0.612   3.703 -4.6116  0.4554  2.1698
 3794SOL    HW222845   2.176   0.588   3.607 -2.7618  1.6568  0.7564
 3795SOL     OW22846   3.529   0.693   9.327 -0.0296  0.7643 -0.1514
 3795SOL    HW122847   3.592   0.753   9.367 -0.2208  0.9272 -0.0996
 3795SOL    HW222848   3.484   0.744   9.259 -1.5864 -0.4549 -0.0186
 3796SOL     OW22849   1.110   4.323   7.373  0.2485 -0.0791 -0.4776
 3796SOL    HW122850   1.142   4.334   7.462  0.5916 -0.9548 -0.4912
 3796SOL    HW222851   1.017   4.339   7.386  0.9358  0.8580  3.3191
 3797SOL     OW22852   1.211   1.354  12.204 -0.1563 -0.0255  0.7416
 3797SOL    HW122853   1.242   1.416  12.138 -1.2605  0.6223  0.8392
 3797SOL    HW222854   1.258   1.385  12.281 -0.2600  1.6183  0.1432
 3798SOL     OW22855   4.040   0.949   6.898 -0.2679 -0.4578  0.0598
 3798SOL    HW122856   3.993   0.908   6.825  1.1456 -1.8151 -0.0767
 3798SOL    HW222857   4.051   0.878   6.961 -1.8335 -1.2089 -0.5042
 3799SOL     OW22858   1.677   1.895   2.700  0.2188  0.0423  0.1812
 3799SOL    HW122859   1.597   1.842   2.707 -1.7979  3.1617  0.7887
 3799SOL    HW222860   1.643   1.978   2.665  1.5762  0.4113 -0.2520
 3800SOL     OW22861   4.498   1.585   4.316  0.4838 -0.3883 -0.1015
 3800SOL    HW122862   4.408   1.570   4.289  0.8487 -1.2155 -0.8631
 3800SOL    HW222863   4.511   1.510   4.375 -0.0425 -0.0568  0.4313
 3801SOL     OW22864   3.697   4.610  16.094 -0.4780  0.4212  0.0350
 3801SOL    HW122865   3.694   4.559  16.014 -1.0011 -0.1231  0.4030
 3801SOL    HW222866   3.641   4.684  16.069 -0.3872 -0.4379 -2.7013
 3802SOL     OW22867   3.592   2.488  13.514 -0.1277  0.8176 -0.0808
 3802SOL    HW122868   3.642   2.559  13.554  0.8332 -0.8835  1.7233
 3802SOL    HW222869   3.660   2.461  13.453  1.5710  0.4195  1.9880
 3803SOL     OW22870   2.969   0.999   3.561 -0.2174  0.0830  0.2259
 3803SOL    HW122871   3.055   1.034   3.583 -0.1813  0.3499 -0.3387
 3803SOL    HW222872   2.955   1.059   3.489 -1.3719 -0.2349  0.1802
 3804SOL     OW22873   3.694   2.231  11.293 -0.1226 -0.1777  0.0547
 3804SOL    HW122874   3.670   2.319  11.323  0.6353 -0.5724  1.8129
 3804SOL    HW222875   3.628   2.226  11.225  0.2109  1.3712 -0.3919
 3805SOL     OW22876   0.467   4.271   7.780 -0.2548  0.8883 -0.0447
 3805SOL    HW122877   0.414   4.339   7.823 -0.9004 -0.5501  1.4334
 3805SOL    HW222878   0.401   4.207   7.754  1.5509 -1.1637  0.4633
 3806SOL     OW22879   3.539   3.127   8.846 -0.1347 -0.2031 -0.1933
 3806SOL    HW122880   3.491   3.095   8.922  1.9856 -1.0330  0.8015
 3806SOL    HW222881   3.619   3.079   8.865  0.0505  0.3429  0.4189
 3807SOL     OW22882   2.834   0.381   0.831 -0.3486 -0.3668 -0.3069
 3807SOL    HW122883   2.800   0.376   0.742  0.4733 -1.7296 -0.5532
 3807SOL    HW222884   2.852   0.473   0.851 -2.2732 -0.1774  0.5339
 3808SOL     OW22885   2.874   1.193   9.099  0.7265  0.4422  0.3996
 3808SOL    HW122886   2.845   1.283   9.115 -2.5704 -0.5738  0.0597
 3808SOL    HW222887   2.814   1.168   9.028 -0.3939  0.1673  1.4561
 3809SOL     OW22888   0.999   0.364   0.732 -1.0188  0.3001 -0.0752
 3809SOL    HW122889   0.922   0.308   0.726 -0.8623  0.3176 -2.0555
 3809SOL    HW222890   0.989   0.414   0.652  0.1468  0.6809  0.0084
 3810SOL     OW22891   1.556   4.562   9.713  0.1782 -0.0897 -0.0805
 3810SOL    HW122892   1.594   4.613   9.641  0.0775  0.2677  0.1200
 3810SOL    HW222893   1.601   4.606   9.785  0.6356  0.4679 -0.7019
 3811SOL     OW22894   0.610   2.033   2.816  0.4059 -0.6724  0.3428
 3811SOL    HW122895   0.654   2.077   2.744 -1.0159 -0.2366 -0.2544
 3811SOL    HW222896   0.616   2.104   2.880  0.3087 -2.5770  2.4632
 3812SOL     OW22897   2.831   4.427   6.974  0.0165  0.2831  0.2099
 3812SOL    HW122898   2.831   4.342   6.928 -0.6406  0.1209  0.5120
 3812SOL    HW222899   2.902   4.404   7.034 -0.7407 -1.6597  0.3584
 3813SOL     OW22900   3.385   4.367   9.135 -1.1029 -0.3652  0.1510
 3813SOL    HW122901   3.290   4.364   9.136 -1.0304 -3.1131 -1.1389
 3813SOL    HW222902   3.403   4.281   9.172  1.3885 -0.2990 -0.8546
 3814SOL     OW22903   1.269   2.659  15.628  0.3614 -0.2670  0.0763
 3814SOL    HW122904   1.345   2.688  15.677  0.4763 -0.4533  0.0079
 3814SOL    HW222905   1.223   2.593  15.681  2.2236 -0.8079  1.0143
 3815SOL     OW22906   1.369   4.707  10.404 -0.0101  0.1708  0.3976
 3815SOL    HW122907   1.360   0.065  10.459 -1.0654 -0.6204  1.3392
 3815SOL    HW222908   1.340   4.634  10.459 -2.5810  1.0740  0.1943
 3816SOL     OW22909   0.076   2.866  17.439 -0.5717  0.7707 -0.0204
 3816SOL    HW122910   0.157   2.896  17.480 -0.4180 -1.8298  1.5921
 3816SOL    HW222911   0.009   2.933  17.454  3.5500  4.7267  0.9934
 3817SOL     OW22912   3.467   1.532  11.351 -0.0049 -0.0396 -0.0590
 3817SOL    HW122913   3.451   1.623  11.329 -1.1041 -0.0814  0.5915
 3817SOL    HW222914   3.390   1.514  11.405 -0.5545 -1.1279 -1.2143
 3818SOL     OW22915   0.048   0.567   5.218  0.0776 -0.3005  0.2377
 3818SOL    HW122916   4.692   0.590   5.271  0.8272  0.7375  0.8778
 3818SOL    HW222917   0.012   0.564   5.129  0.7724  1.3814 -0.0991
 3819SOL     OW22918   3.065   4.429  16.471  0.2212 -0.3062  0.3372
 3819SOL    HW122919   3.123   4.504  16.461 -2.3264  1.5440 -0.6099
 3819SOL    HW222920   3.138   4.367  16.478 -0.0524 -0.5768  0.8270
 3820SOL     OW22921   0.628   1.858  12.495  1.1458  0.1018  0.2543
 3820SOL    HW122922   0.597   1.941  12.531 -0.7478  0.2075 -1.6497
 3820SOL    HW222923   0.719   1.873  12.520  1.8804 -1.4840 -1.5179
 3821SOL     OW22924   2.713   4.045  13.074  0.3104  0.6070  0.6560
 3821SOL    HW122925   2.743   3.961  13.109  1.8741  0.4717 -0.9870
 3821SOL    HW222926   2.794   4.098  13.079 -0.4769  1.7118  1.8518
 3822SOL     OW22927   1.691   1.536   4.326 -0.0880 -0.2227  0.4047
 3822SOL    HW122928   1.760   1.594   4.297  0.3909  0.8383  3.6366
 3822SOL    HW222929   1.634   1.533   4.249  0.9627 -0.2388 -0.3604
 3823SOL     OW22930   1.966   0.232   8.467  0.3569  0.4477 -0.0640
 3823SOL    HW122931   2.006   0.312   8.432 -0.1501  1.1510  0.9524
 3823SOL    HW222932   1.981   0.249   8.560 -0.2494  0.7595 -0.0221
 3824SOL     OW22933   1.129   2.866   5.901 -0.4084 -0.3893 -0.0661
 3824SOL    HW122934   1.055   2.809   5.922 -0.9622  0.5152  0.4800
 3824SOL    HW222935   1.194   2.804   5.934  1.2557  0.4771 -1.7865
 3825SOL     OW22936   2.496   1.703   2.585  0.4262  0.2789 -0.1527
 3825SOL    HW122937   2.511   1.686   2.492  3.1965 -2.0525  0.7566
 3825SOL    HW222938   2.447   1.629   2.622  0.0871 -0.1840 -1.5176
 3826SOL     OW22939   4.352   3.928  14.567  0.1904  0.0540 -0.2305
 3826SOL    HW122940   4.304   3.946  14.648  3.1896 -0.2309  1.6143
 3826SOL    HW222941   4.392   4.012  14.547 -0.7841  0.7685  0.8331
 3827SOL     OW22942   2.170   0.312  13.619  0.6103 -0.3319  0.1696
 3827SOL    HW122943   2.084   0.277  13.593  0.9258  0.6154 -2.2033
 3827SOL    HW222944   2.203   0.299  13.530  1.6890 -0.3412  0.5790
 3828SOL     OW22945   2.321   1.778   0.388 -0.4400 -0.4416  0.2086
 3828SOL    HW122946   2.294   1.835   0.316 -1.6084 -1.5873 -0.2564
 3828SOL    HW222947   2.293   1.693   0.354  1.5600 -0.0534 -2.4189
 3829SOL     OW22948   4.613   1.168   6.048 -0.1538 -0.4119 -0.4643
 3829SOL    HW122949   4.685   1.196   5.992  0.4316  0.1971  0.5916
 3829SOL    HW222950   4.576   1.097   5.994 -1.9258 -0.1219  0.3987
 3830SOL     OW22951   0.723   4.123  10.170  0.3401 -0.7713  0.4116
 3830SOL    HW122952   0.758   4.210  10.189 -0.6801  0.2039 -2.2219
 3830SOL    HW222953   0.642   4.130  10.221  0.2972  0.2421  0.1962
 3831SOL     OW22954   1.970   2.682  15.781  0.1238 -0.4402 -0.2573
 3831SOL    HW122955   1.949   2.641  15.697 -0.2142 -3.1653  1.1497
 3831SOL    HW222956   1.880   2.703  15.805 -0.7011 -2.3729 -1.6044
 3832SOL     OW22957   1.933   1.135  11.227 -0.9937 -0.0974 -0.3529
 3832SOL    HW122958   1.874   1.196  11.271 -2.6137 -0.4031 -2.1048
 3832SOL    HW222959   2.009   1.191  11.208  0.3352 -1.9631 -0.5872
 3833SOL     OW22960   3.330   1.574   0.598  0.4454 -0.9791  0.0214
 3833SOL    HW122961   3.261   1.529   0.646 -1.3063 -0.6058 -2.1282
 3833SOL    HW222962   3.328   1.660   0.640 -2.5406 -0.6329 -0.8602
 3834SOL     OW22963   0.731   3.538   6.632  0.4831 -0.0675  0.6578
 3834SOL    HW122964   0.645   3.580   6.637  1.0340  1.2562 -1.3231
 3834SOL    HW222965   0.794   3.605   6.604  0.8518  0.7510  3.3927
 3835SOL     OW22966   2.435   4.475   7.686 -0.5294 -0.2060  0.3151
 3835SOL    HW122967   2.375   4.541   7.652  0.0600  0.0053 -0.3188
 3835SOL    HW222968   2.453   4.504   7.775  1.8561 -1.5838  0.2864
 3836SOL     OW22969   0.947   1.255   4.464 -0.4887 -0.8212 -0.5376
 3836SOL    HW122970   0.979   1.203   4.538  0.5118 -0.0124 -0.3991
 3836SOL    HW222971   0.853   1.250   4.475 -0.4003 -3.6394 -1.0910
 3837SOL     OW22972   0.042   4.472  14.642 -0.5636  0.7680 -0.2221
 3837SOL    HW122973   0.124   4.487  14.690 -0.3622  1.2869 -0.7297
 3837SOL    HW222974   4.692   4.481  14.707 -0.9852  0.3023 -0.6087
 3838SOL     OW22975   1.253   3.288   6.982 -0.2404  0.4861  0.3368
 3838SOL    HW122976   1.177   3.337   6.950 -1.0535  0.3570  2.0900
 3838SOL    HW222977   1.273   3.237   6.903 -0.6862  0.1817  0.4205
 3839SOL     OW22978   1.873   2.918  14.809  0.2447  0.1362 -0.0505
 3839SOL    HW122979   1.860   3.013  14.808 -1.9295 -0.1410  1.1823
 3839SOL    HW222980   1.899   2.898  14.899 -1.2936 -0.4657  0.2656
 3840SOL     OW22981   4.536   3.386  17.010 -0.2834  0.4853 -0.0724
 3840SOL    HW122982   4.533   3.370  16.916  1.5223  1.3502 -0.2693
 3840SOL    HW222983   4.443   3.408  17.015 -0.8066 -1.3477 -1.6700
 3841SOL     OW22984   4.490   1.345   4.453 -0.1588 -0.4927 -0.1124
 3841SOL    HW122985   4.406   1.317   4.490 -0.4631  0.4242 -0.1036
 3841SOL    HW222986   4.553   1.341   4.524  0.7560  1.2345 -0.8114
 3842SOL     OW22987   1.578   2.066   3.340 -0.0570  0.1261 -0.2328
 3842SOL    HW122988   1.539   2.040   3.256  0.8112 -0.4027 -0.4722
 3842SOL    HW222989   1.669   2.035   3.338  0.2407  1.0246 -0.6964
 3843SOL     OW22990   2.624   3.887   8.347 -0.0445 -0.1531  0.3884
 3843SOL    HW122991   2.556   3.877   8.280 -2.8579 -0.0258  3.2232
 3843SOL    HW222992   2.689   3.922   8.286 -2.2192  0.7717 -1.4134
 3844SOL     OW22993   1.577   0.768  10.021  0.6816 -0.2058  0.1577
 3844SOL    HW122994   1.624   0.762   9.937  0.9096  0.1886  0.2576
 3844SOL    HW222995   1.646   0.726  10.073  0.5355  0.7012  1.0840
 3845SOL     OW22996   4.419   4.175   1.999  0.1698  0.3335 -0.1767
 3845SOL    HW122997   4.508   4.155   2.027 -0.5218  0.1897  1.8924
 3845SOL    HW222998   4.399   4.260   2.037 -2.5132 -0.0709 -0.6910
 3846SOL     OW22999   3.520   2.681  11.844  0.0237 -0.2516  0.0864
 3846SOL    HW123000   3.545   2.633  11.765 -1.9272  0.9441 -1.2566
 3846SOL    HW223001   3.559   2.764  11.818 -0.8011  0.5463  1.3875
 3847SOL     OW23002   0.848   1.236   6.528 -0.2175  0.2949 -0.4576
 3847SOL    HW123003   0.831   1.287   6.608 -3.5393  0.5654 -1.3458
 3847SOL    HW223004   0.759   1.214   6.502  0.5623 -1.7478 -1.3732
 3848SOL     OW23005   0.116   3.471   2.500 -0.3125  0.4305  0.2423
 3848SOL    HW123006   0.197   3.429   2.470  1.6672 -0.0662  6.1862
 3848SOL    HW223007   0.075   3.490   2.416  0.1451 -3.7202 -0.9399
 3849SOL     OW23008   2.959   1.212   9.549 -0.2431  0.0931  0.3027
 3849SOL    HW123009   2.928   1.198   9.638  0.8119 -0.9968  0.5058
 3849SOL    HW223010   2.956   1.128   9.502  1.9311  1.5071 -2.3668
 3850SOL     OW23011   3.328   1.496  11.673  0.8930 -0.2000 -0.7973
 3850SOL    HW123012   3.280   1.456  11.746 -0.6390  0.1302 -1.6090
 3850SOL    HW223013   3.284   1.449  11.602  0.0144  0.3288 -0.6048
 3851SOL     OW23014   3.909   0.610   5.489 -0.4835  0.2771 -0.1555
 3851SOL    HW123015   3.976   0.661   5.445 -0.5128 -0.9634 -1.6430
 3851SOL    HW223016   3.945   0.522   5.474  1.3884  1.2714 -1.4744
 3852SOL     OW23017   4.242   0.452   5.223  0.4285 -0.1241 -0.0299
 3852SOL    HW123018   4.323   0.502   5.212  0.5686 -0.2613  0.3823
 3852SOL    HW223019   4.269   0.360   5.222  0.6246 -0.0786  2.0399
 3853SOL     OW23020   0.997   2.914   6.158 -0.3557 -0.3324  0.3434
 3853SOL    HW123021   1.056   2.902   6.083 -1.6313 -2.5307 -0.3037
 3853SOL    HW223022   1.051   2.978   6.204 -0.8741  2.0001 -2.2965
 3854SOL     OW23023   0.096   1.833   8.172  0.5350 -0.2912 -0.1060
 3854SOL    HW123024   0.083   1.855   8.080 -0.0400 -1.8639 -0.3861
 3854SOL    HW223025   0.005   1.821   8.199  0.7284 -1.7940 -0.1610
 3855SOL     OW23026   0.122   3.885  12.168  0.2977  0.3672 -0.2881
 3855SOL    HW123027   0.191   3.867  12.231  1.2188 -1.3726 -1.8062
 3855SOL    HW223028   0.098   3.976  12.188  1.8221  0.9114 -0.9292
 3856SOL     OW23029   2.205   0.401   7.647  0.0499  0.4704  0.0754
 3856SOL    HW123030   2.166   0.378   7.731  1.0623  1.8589  0.9326
 3856SOL    HW223031   2.296   0.376   7.663  0.9022  2.9492 -0.8607
 3857SOL     OW23032   2.392   3.682   6.427 -0.1815  0.2812  0.4103
 3857SOL    HW123033   2.303   3.675   6.460 -0.2352 -1.1817 -0.0390
 3857SOL    HW223034   2.377   3.696   6.333  1.2440  0.5371  0.2113
 3858SOL     OW23035   4.436   0.227  11.283 -0.2039  0.3324 -0.4130
 3858SOL    HW123036   4.395   0.227  11.369  1.2271  0.2554  0.2695
 3858SOL    HW223037   4.522   0.190  11.301 -0.7411 -0.4766  0.4978
 3859SOL     OW23038   1.181   2.500   8.484 -0.4071  0.2439  0.3205
 3859SOL    HW123039   1.248   2.443   8.447 -2.2923 -0.3043 -2.2028
 3859SOL    HW223040   1.143   2.444   8.552 -2.2635 -0.3713 -1.2298
 3860SOL     OW23041   0.300   1.991   6.583 -0.7175  0.3982  0.2477
 3860SOL    HW123042   0.294   2.058   6.515  0.9520 -0.9618 -1.2463
 3860SOL    HW223043   0.374   1.939   6.550 -1.0882 -0.5721  0.9490
 3861SOL     OW23044   0.454   0.453  14.520  0.0311  0.1228  0.1870
 3861SOL    HW123045   0.535   0.485  14.560 -0.7053  1.4856  0.6153
 3861SOL    HW223046   0.466   0.463  14.425  0.0148  0.6030  0.2341
 3862SOL     OW23047   1.634   3.003   7.769 -0.4006 -0.0158  0.5157
 3862SOL    HW123048   1.564   3.038   7.715 -0.0696  0.9608  0.7166
 3862SOL    HW223049   1.685   2.950   7.709 -0.6393 -1.0451  1.2220
 3863SOL     OW23050   1.098   2.845  10.115  0.0241  0.1405 -0.3393
 3863SOL    HW123051   1.031   2.901  10.153  0.1119  0.6639 -0.9433
 3863SOL    HW223052   1.100   2.868  10.022 -3.8582  0.2776 -0.3616
 3864SOL     OW23053   1.478   3.611  14.938  0.5289  0.3287  0.2779
 3864SOL    HW123054   1.488   3.581  14.847  2.0634 -1.9204  1.1813
 3864SOL    HW223055   1.397   3.572  14.971 -0.1334 -0.6611 -2.4914
 3865SOL     OW23056   1.864   4.324   5.378 -0.2800 -0.1589 -0.0612
 3865SOL    HW123057   1.950   4.334   5.337 -0.8011 -0.2506 -1.1821
 3865SOL    HW223058   1.851   4.229   5.367 -1.4762  0.2408 -1.9593
 3866SOL     OW23059   3.101   1.726  14.780 -0.1161 -0.3124 -0.1853
 3866SOL    HW123060   3.118   1.790  14.710 -0.0259 -0.4475 -0.2876
 3866SOL    HW223061   3.116   1.785  14.854 -0.4868  0.1078 -0.4467
 3867SOL     OW23062   0.630   0.475  12.078  0.2386 -0.0008 -0.5782
 3867SOL    HW123063   0.600   0.552  12.031 -0.3406  0.2589  0.2171
 3867SOL    HW223064   0.640   0.413  12.006 -0.9829 -0.8139 -0.0427
 3868SOL     OW23065   0.427   0.844  12.768  0.0483  0.6475  0.5326
 3868SOL    HW123066   0.498   0.810  12.715 -1.0999 -3.0517  1.4013
 3868SOL    HW223067   0.474   0.913  12.816  0.8054  0.2471  0.3592
 3869SOL     OW23068   3.253   1.475  13.459  0.1062 -0.5327  0.3373
 3869SOL    HW123069   3.338   1.480  13.502  0.6683  0.1946 -0.8518
 3869SOL    HW223070   3.251   1.544  13.393 -0.8896 -1.8342 -0.9972
 3870SOL     OW23071   1.723   1.038   9.249  0.2375 -0.1672 -0.0031
 3870SOL    HW123072   1.678   1.119   9.229 -0.7682 -1.1484 -1.6601
 3870SOL    HW223073   1.792   1.045   9.184  0.2073 -1.3447 -0.1767
 3871SOL     OW23074   2.494   0.503   2.819  0.3267 -0.3492 -0.3953
 3871SOL    HW123075   2.516   0.589   2.785 -2.4831 -0.4369 -2.4280
 3871SOL    HW223076   2.463   0.525   2.907 -3.7128 -0.9771 -1.6528
 3872SOL     OW23077   1.712   2.944  12.640  0.1832  0.5952 -0.4472
 3872SOL    HW123078   1.687   2.854  12.661 -0.7598  0.9387 -0.0932
 3872SOL    HW223079   1.671   2.989  12.713  0.3763  0.0089  0.0281
 3873SOL     OW23080   3.378   0.218   0.503 -0.2987  0.0849  0.1158
 3873SOL    HW123081   3.382   0.313   0.504 -1.2333  0.1192  0.9525
 3873SOL    HW223082   3.414   0.198   0.590  0.3620  0.7048 -0.0111
 3874SOL     OW23083   2.740   2.678   4.588 -0.2923  0.1398  0.8321
 3874SOL    HW123084   2.767   2.731   4.513  1.6143 -1.5537  0.3209
 3874SOL    HW223085   2.738   2.748   4.653 -1.6641  0.0984  0.8463
 3875SOL     OW23086   3.178   2.229   8.593 -0.0202 -0.0871 -1.0997
 3875SOL    HW123087   3.197   2.215   8.500  0.3158  0.1307 -1.0642
 3875SOL    HW223088   3.183   2.143   8.634 -0.6037  0.6247  0.4962
 3876SOL     OW23089   3.251   0.879   2.424  0.6244  0.3859  0.1023
 3876SOL    HW123090   3.345   0.869   2.408  0.6480 -0.3248  0.6573
 3876SOL    HW223091   3.216   0.882   2.335 -0.5874 -1.5756  0.5008
 3877SOL     OW23092   4.358   0.994   6.376  0.6974  0.6822 -0.2350
 3877SOL    HW123093   4.333   0.916   6.426 -0.0149  0.9590 -0.1575
 3877SOL    HW223094   4.394   0.940   6.305  0.3572 -1.1349  0.9608
 3878SOL     OW23095   3.878   3.083   6.712  0.0222 -0.3168 -0.5842
 3878SOL    HW123096   3.943   3.015   6.729 -0.1363  0.4062  2.8354
 3878SOL    HW223097   3.797   3.032   6.716  0.3584 -0.9596 -1.7793
 3879SOL     OW23098   4.174   0.953  13.595 -0.5776  0.4856  0.2339
 3879SOL    HW123099   4.216   0.962  13.680 -2.2133  1.1882  0.9552
 3879SOL    HW223100   4.090   0.911  13.613 -0.1078 -0.7503 -0.4437
 3880SOL     OW23101   3.071   3.353   1.224  0.0048 -0.1345  0.0722
 3880SOL    HW123102   3.121   3.297   1.166  1.9875 -0.2556  1.9021
 3880SOL    HW223103   3.001   3.389   1.169  0.8774 -1.0383 -1.6327
 3881SOL     OW23104   0.230   0.587   3.460  0.0668  0.4235  0.6239
 3881SOL    HW123105   0.248   0.571   3.367 -0.5870 -2.9979  1.0642
 3881SOL    HW223106   0.175   0.663   3.446 -1.0445 -0.5743 -0.4556
 3882SOL     OW23107   2.659   1.225   1.204 -0.9835  0.5021 -0.3556
 3882SOL    HW123108   2.648   1.319   1.221 -2.6670 -0.4255  3.4893
 3882SOL    HW223109   2.677   1.216   1.110 -0.4293 -4.1601  0.2249
 3883SOL     OW23110   1.648   0.450  10.217 -0.1646 -0.1143 -0.0450
 3883SOL    HW123111   1.611   0.379  10.164  0.8203 -1.2563  0.8106
 3883SOL    HW223112   1.633   0.410  10.302 -1.1923  1.0588  0.3223
 3884SOL     OW23113   3.837   2.193  14.063  0.3305  0.0646  0.4994
 3884SOL    HW123114   3.870   2.273  14.022  1.0174  0.2073  1.3303
 3884SOL    HW223115   3.887   2.187  14.144  1.0528  0.5541  0.0933
 3885SOL     OW23116   3.127   0.407   2.049  0.3298  0.1871 -0.1197
 3885SOL    HW123117   3.094   0.339   2.108 -0.9251 -1.7810 -3.0556
 3885SOL    HW223118   3.047   0.416   1.997  0.4628 -1.6432 -0.6713
 3886SOL     OW23119   2.692   0.294  15.957  0.4404 -0.3906  0.3415
 3886SOL    HW123120   2.685   0.360  16.026  0.7556 -1.1471  1.0973
 3886SOL    HW223121   2.782   0.306  15.926  1.0096 -0.5173  1.9472
 3887SOL     OW23122   2.777   2.290   4.489 -0.0834 -0.0565 -0.9548
 3887SOL    HW123123   2.826   2.354   4.541  1.3245 -1.1427 -0.9425
 3887SOL    HW223124   2.688   2.319   4.508  0.1660  0.0357  0.0946
 3888SOL     OW23125   0.271   4.688  15.672  0.0287 -0.0459  0.5595
 3888SOL    HW123126   0.330   4.682  15.747  1.5763 -1.4947 -0.7724
 3888SOL    HW223127   0.252   0.061  15.677  0.7725  0.1073  0.4840
 3889SOL     OW23128   3.784   0.436  16.039  0.0145  0.2088 -0.2802
 3889SOL    HW123129   3.848   0.366  16.051 -1.0129 -0.6928 -0.0702
 3889SOL    HW223130   3.701   0.397  16.066  0.8774 -0.9132  0.7424
 3890SOL     OW23131   0.245   2.857  10.634  0.0837  0.3371  0.1960
 3890SOL    HW123132   0.307   2.835  10.704  0.7996  0.1385 -0.4930
 3890SOL    HW223133   0.198   2.930  10.675  0.3220  0.0320  1.0307
 3891SOL     OW23134   2.314   1.072   7.727  0.1638 -0.7282 -0.3891
 3891SOL    HW123135   2.223   1.079   7.696 -0.1665  0.4465  0.8337
 3891SOL    HW223136   2.366   1.110   7.657 -0.9775 -1.1481 -1.4812
 3892SOL     OW23137   1.565   0.347   9.629  0.3125  0.4934 -0.4490
 3892SOL    HW123138   1.482   0.300   9.638 -0.0123  0.9876 -0.8991
 3892SOL    HW223139   1.584   0.332   9.536 -1.2774 -3.4986 -0.1501
 3893SOL     OW23140   0.121   2.138   1.982  0.0660  0.5401  0.5056
 3893SOL    HW123141   0.144   2.054   1.942  1.8581  2.0873 -1.7303
 3893SOL    HW223142   0.163   2.205   1.927 -1.5200  1.1263  0.0256
 3894SOL     OW23143   3.736   0.853   4.959 -0.0500  0.0179 -0.0623
 3894SOL    HW123144   3.676   0.808   4.900  1.0806  0.0139 -1.1942
 3894SOL    HW223145   3.684   0.863   5.039  0.9320  2.4385  0.2724
 3895SOL     OW23146   1.890   1.444   1.374 -0.2893  0.1918 -0.5648
 3895SOL    HW123147   1.922   1.376   1.433 -1.0049  0.7634  0.4781
 3895SOL    HW223148   1.817   1.474   1.428 -0.9058 -1.8184 -0.2674
 3896SOL     OW23149   0.459   3.203  16.117 -0.3137 -0.4629  0.4964
 3896SOL    HW123150   0.442   3.213  16.023 -1.0949  2.4353  0.9539
 3896SOL    HW223151   0.375   3.201  16.162 -2.2435 -1.0775 -3.0773
 3897SOL     OW23152   2.517   2.564   8.708  0.3992 -0.2180 -0.0129
 3897SOL    HW123153   2.460   2.489   8.725 -0.1322  0.6428  1.9725
 3897SOL    HW223154   2.594   2.539   8.758 -0.2766  1.3508  1.7798
 3898SOL     OW23155   1.959   0.116   4.284  0.1073  0.4750  0.4228
 3898SOL    HW123156   1.944   0.047   4.220  3.7424 -0.9455  1.0819
 3898SOL    HW223157   1.933   0.065   4.361  1.5770 -1.4451 -0.3571
 3899SOL     OW23158   3.758   1.643   3.794 -0.1145  0.1444  0.6645
 3899SOL    HW123159   3.838   1.670   3.749  0.1236 -3.0390 -0.7913
 3899SOL    HW223160   3.748   1.727   3.839 -2.7814 -1.1006  2.3727
 3900SOL     OW23161   3.043   4.362   2.166  0.2302 -0.4051  0.1421
 3900SOL    HW123162   3.056   4.409   2.083  0.2296  1.1563  1.0372
 3900SOL    HW223163   3.114   4.401   2.217  0.7835 -1.0840 -0.1076
 3901SOL     OW23164   4.352   0.404   3.344 -0.3227 -0.6018  0.3879
 3901SOL    HW123165   4.368   0.498   3.351  1.6381 -0.8677 -0.3668
 3901SOL    HW223166   4.437   0.383   3.303 -0.9339 -2.2137 -0.0696
 3902SOL     OW23167   3.760   4.228  17.189 -0.0570  0.2913 -0.2032
 3902SOL    HW123168   3.682   4.281  17.170 -0.1660 -0.2047 -1.1203
 3902SOL    HW223169   3.741   4.210  17.280 -0.6443  2.7636  0.1723
 3903SOL     OW23170   0.612   3.513   2.394 -0.0700  0.0430  0.4678
 3903SOL    HW123171   0.689   3.476   2.437 -1.4370 -0.5918  2.3610
 3903SOL    HW223172   0.636   3.505   2.301 -1.4735  0.9293  0.0294
 3904SOL     OW23173   1.312   4.719   6.613 -0.6626 -0.4243  0.3629
 3904SOL    HW123174   1.343   0.080   6.572 -2.8337  0.7473  1.0477
 3904SOL    HW223175   1.328   4.651   6.547 -3.6788 -0.7582 -0.0216
 3905SOL     OW23176   4.487   0.000   1.243 -0.2448 -0.4606 -0.3663
 3905SOL    HW123177   4.538   0.077   1.269 -0.9020 -0.6594  1.4847
 3905SOL    HW223178   4.556   4.662   1.210 -0.7248 -1.1068 -0.2300
 3906SOL     OW23179   1.243   0.078  15.070  0.5767 -0.1781  0.0974
 3906SOL    HW123180   1.293   0.006  15.032 -0.4777 -1.2445  0.7334
 3906SOL    HW223181   1.155   0.041  15.077  0.9078 -0.7039  1.5089
 3907SOL     OW23182   1.856   0.639   8.563  0.5459  0.2715 -0.4560
 3907SOL    HW123183   1.764   0.663   8.553  0.4406  0.1755  0.2725
 3907SOL    HW223184   1.883   0.610   8.476  3.5171  1.1507  0.1412
 3908SOL     OW23185   0.698   0.028   4.639  0.3445  0.0212  0.2020
 3908SOL    HW123186   0.718   4.698   4.560 -1.4494 -1.5908  0.7644
 3908SOL    HW223187   0.686   0.114   4.599  2.5740 -0.4037 -1.3859
 3909SOL     OW23188   4.600   2.362   7.617  0.4366 -0.0575 -0.0499
 3909SOL    HW123189   4.563   2.380   7.530  1.6045 -1.2484 -0.7936
 3909SOL    HW223190   4.531   2.392   7.675 -0.5462 -2.8634  0.2285
 3910SOL     OW23191   0.208   2.454   8.909  0.1586  0.3731 -0.1294
 3910SOL    HW123192   0.299   2.484   8.914  0.0582 -0.1927  5.2252
 3910SOL    HW223193   0.168   2.541   8.913 -0.6481 -0.0421  0.8936
 3911SOL     OW23194   0.264   3.010  10.304 -0.2283  0.4619 -0.0492
 3911SOL    HW123195   0.207   2.941  10.270  2.1992 -2.6202  2.1711
 3911SOL    HW223196   0.198   3.062  10.350  0.9755  1.6323  0.3406
 3912SOL     OW23197   2.167   2.317  13.359 -0.5759 -0.1578 -0.2652
 3912SOL    HW123198   2.193   2.294  13.270  0.1125 -1.8213  0.3746
 3912SOL    HW223199   2.198   2.407  13.357 -0.1960 -0.2772  0.3723
 3913SOL     OW23200   1.470   2.345   6.849 -0.3465  0.0492  0.4751
 3913SOL    HW123201   1.442   2.413   6.788 -1.9597 -0.8705  0.1956
 3913SOL    HW223202   1.537   2.290   6.810 -1.8760 -1.0052 -0.6634
 3914SOL     OW23203   0.974   3.557   5.048 -0.2119 -0.2329 -0.0620
 3914SOL    HW123204   0.917   3.626   5.081 -1.2124  0.2881 -2.8356
 3914SOL    HW223205   1.015   3.595   4.971  0.3420 -0.4230  0.1359
 3915SOL     OW23206   4.244   0.927   2.743 -0.4115 -0.5098  0.5719
 3915SOL    HW123207   4.182   0.920   2.672  0.6301 -2.4439 -0.1390
 3915SOL    HW223208   4.195   0.992   2.794 -0.1569 -0.9406  1.3616
 3916SOL     OW23209   3.410   0.002   1.543  0.3809 -0.1907  0.1141
 3916SOL    HW123210   3.331   4.667   1.547  1.2717 -1.5881 -1.4949
 3916SOL    HW223211   3.440   4.682   1.461  2.8140 -1.3327  1.5759
 3917SOL     OW23212   1.601   4.623  17.154  0.0164  0.1501 -0.1656
 3917SOL    HW123213   1.524   4.602  17.207 -0.8036 -1.7553 -2.1208
 3917SOL    HW223214   1.634   4.694  17.208  1.9810 -0.8531 -0.0110
 3918SOL     OW23215   2.870   4.126   8.128  0.2579 -0.1327 -0.1381
 3918SOL    HW123216   2.866   4.073   8.208  0.5877 -0.3868 -0.2905
 3918SOL    HW223217   2.963   4.148   8.122  0.1557 -0.3864 -2.4235
 3919SOL     OW23218   0.201   0.106   8.286 -0.5988  0.4125  0.0366
 3919SOL    HW123219   0.205   0.016   8.318 -0.5263  0.6737  0.7807
 3919SOL    HW223220   0.208   0.106   8.191 -1.6477  0.3427 -0.0479
 3920SOL     OW23221   4.526   2.595   3.952  0.1266 -0.1007 -0.4231
 3920SOL    HW123222   4.469   2.620   3.879 -0.0221 -2.6280 -1.1774
 3920SOL    HW223223   4.569   2.519   3.912 -0.0534  0.2556 -1.2986
 3921SOL     OW23224   0.859   2.730   7.061  0.3417  0.4919  0.3139
 3921SOL    HW123225   0.856   2.743   6.966 -0.1257 -2.6836 -0.1099
 3921SOL    HW223226   0.775   2.696   7.093  1.0045 -1.3987  0.0756
 3922SOL     OW23227   4.422   3.875   5.397 -0.4971 -0.1300 -0.1727
 3922SOL    HW123228   4.356   3.886   5.465  0.7281  0.5178  0.9210
 3922SOL    HW223229   4.499   3.891   5.451  1.0423 -0.9049 -2.1196
 3923SOL     OW23230   1.522   4.068   6.530  0.6218 -0.5933 -0.3972
 3923SOL    HW123231   1.590   4.099   6.590 -1.0991 -0.2949  1.3911
 3923SOL    HW223232   1.511   3.976   6.551  3.5450 -0.6197  0.9887
 3924SOL     OW23233   4.529   0.651   0.670 -0.6853 -0.1236  0.5357
 3924SOL    HW123234   4.508   0.565   0.707  1.4265 -0.9911 -0.2662
 3924SOL    HW223235   4.438   0.668   0.646 -0.9080 -0.0653  1.4113
 3925SOL     OW23236   0.020   0.636   2.060 -0.2788  0.4392 -0.0277
 3925SOL    HW123237   0.110   0.642   2.028 -0.3404 -3.0351 -0.9052
 3925SOL    HW223238   0.032   0.568   2.127 -1.8506  1.0018  0.8132
 3926SOL     OW23239   2.892   3.113   6.160 -0.9816  0.1222 -0.2487
 3926SOL    HW123240   2.800   3.133   6.175 -0.6849  1.0046  0.4408
 3926SOL    HW223241   2.910   3.041   6.220 -0.7732 -0.4120 -0.9573
 3927SOL     OW23242   4.224   0.636   2.598  0.5932 -0.1194 -0.6997
 3927SOL    HW123243   4.225   0.685   2.515 -0.6004  0.9996 -0.0489
 3927SOL    HW223244   4.307   0.654   2.641 -1.2644  1.3257  2.2629
 3928SOL     OW23245   4.577   1.127  12.943  0.3633 -0.0770  0.2049
 3928SOL    HW123246   4.663   1.169  12.949 -0.1621  1.1362 -0.8059
 3928SOL    HW223247   4.581   1.075  12.863  2.2427  0.4635 -0.0340
 3929SOL     OW23248   0.557   3.204   7.809 -0.1265  0.2740 -0.4384
 3929SOL    HW123249   0.638   3.188   7.858 -1.3924 -1.2694  1.1283
 3929SOL    HW223250   0.574   3.163   7.725  2.4259 -0.3445  0.3696
 3930SOL     OW23251   3.035   2.956   2.570  0.1147 -0.4911  0.0528
 3930SOL    HW123252   3.094   2.948   2.645 -0.2186  0.1662  0.3937
 3930SOL    HW223253   3.098   2.980   2.503  1.6854 -0.6856  1.4729
 3931SOL     OW23254   0.470   1.435  15.674 -0.5708  0.1034 -0.0991
 3931SOL    HW123255   0.551   1.485  15.686 -0.7262  0.6433 -1.2264
 3931SOL    HW223256   0.410   1.508  15.691  1.0020  1.3032  0.3847
 3932SOL     OW23257   3.047   2.464  12.665 -0.3933 -0.1437 -0.2113
 3932SOL    HW123258   3.100   2.508  12.598  2.4730 -1.6614  1.0241
 3932SOL    HW223259   3.072   2.506  12.747  1.3779 -0.5411 -0.5286
 3933SOL     OW23260   2.148   1.486   5.618  0.0431 -0.4957  0.2317
 3933SOL    HW123261   2.112   1.401   5.592 -0.8548 -0.2109  0.5494
 3933SOL    HW223262   2.231   1.461   5.659  0.2027  1.1171  0.9057
 3934SOL     OW23263   1.502   4.514   8.985 -0.5045 -0.0320  0.9965
 3934SOL    HW123264   1.587   4.529   9.029  0.1640 -1.9518  0.3408
 3934SOL    HW223265   1.512   4.420   8.970 -2.0651 -0.1354  0.6755
 3935SOL     OW23266   2.402   0.697   4.993  0.9649 -0.0347 -0.0293
 3935SOL    HW123267   2.439   0.689   4.905 -0.0779 -0.8290 -0.4029
 3935SOL    HW223268   2.389   0.605   5.014 -0.1656 -0.9650 -4.6717
 3936SOL     OW23269   1.616   1.766  11.467  0.4019 -0.2726 -0.9959
 3936SOL    HW123270   1.546   1.828  11.446  1.2691  1.7266  1.9205
 3936SOL    HW223271   1.690   1.823  11.488 -1.1644  1.7126 -0.9638
 3937SOL     OW23272   3.356   4.101   6.005  0.7322  0.2611 -0.4695
 3937SOL    HW123273   3.364   4.197   6.007 -0.0716  0.3044  0.9787
 3937SOL    HW223274   3.431   4.079   6.060  0.0389 -2.4899 -0.6090
 3938SOL     OW23275   2.565   2.277   6.775  0.1646 -0.2511 -0.0253
 3938SOL    HW123276   2.531   2.291   6.863  1.9097 -0.3330  0.6604
 3938SOL    HW223277   2.487   2.306   6.727  1.5299  1.6064 -1.0813
 3939SOL     OW23278   0.122   3.373  11.418 -0.1154  0.1135  0.0960
 3939SOL    HW123279   0.207   3.367  11.461 -0.0511  0.0140 -0.0429
 3939SOL    HW223280   0.047   3.362  11.476 -0.5043 -0.6481 -0.5418
 3940SOL     OW23281   2.213   2.885   1.340 -0.1019 -0.4819 -0.2452
 3940SOL    HW123282   2.214   2.952   1.271  0.9065  0.3360  0.5706
 3940SOL    HW223283   2.122   2.857   1.328 -0.8443  1.4415  0.9242
 3941SOL     OW23284   1.592   2.970   3.046 -0.4536  0.4731  0.1461
 3941SOL    HW123285   1.562   3.056   3.077  0.5023  0.5638  0.8162
 3941SOL    HW223286   1.686   2.979   3.032 -0.5147 -0.4842 -0.9331
 3942SOL     OW23287   1.494   0.221   8.972  0.1662 -0.0084  0.2044
 3942SOL    HW123288   1.571   0.275   8.992 -0.1697 -0.2524  2.1040
 3942SOL    HW223289   1.506   0.202   8.878 -3.9266 -2.4451  0.2056
 3943SOL     OW23290   2.964   3.531   0.169  0.2200 -0.6998 -0.1402
 3943SOL    HW123291   3.055   3.511   0.192  0.5998  1.5175  0.2979
 3943SOL    HW223292   2.914   3.528   0.251  2.8449  0.7352  1.5209
 3944SOL     OW23293   4.397   1.899   5.743  0.4723 -0.3281 -0.4226
 3944SOL    HW123294   4.393   1.985   5.785  1.1007 -0.3244 -0.3726
 3944SOL    HW223295   4.367   1.920   5.654  0.0304 -2.1763 -0.7046
 3945SOL     OW23296   3.384   1.028   2.230 -0.4058  0.1095 -0.2588
 3945SOL    HW123297   3.323   0.968   2.187  0.6146 -0.5862 -0.7484
 3945SOL    HW223298   3.332   1.108   2.220  0.5370  0.5062 -2.1049
 3946SOL     OW23299   3.383   0.923   0.313 -0.0895  0.0250 -0.0150
 3946SOL    HW123300   3.378   0.936   0.218 -3.1655 -2.4370 -0.2010
 3946SOL    HW223301   3.292   0.935   0.340 -1.1899 -1.1430 -3.1394
 3947SOL     OW23302   4.150   4.134  13.557  0.8474  0.1939  0.3034
 3947SOL    HW123303   4.209   4.133  13.633  2.9975 -2.3036 -1.3517
 3947SOL    HW223304   4.207   4.088  13.495 -0.4855 -1.0677  0.0153
 3948SOL     OW23305   1.143   3.093   6.328  0.3614  0.1932 -0.0818
 3948SOL    HW123306   1.237   3.073   6.325  0.4185  0.2091  1.7768
 3948SOL    HW223307   1.149   3.178   6.285 -3.1541  0.2571 -0.3806
 3949SOL     OW23308   3.542   1.360   2.708 -0.4424  0.2257  0.0239
 3949SOL    HW123309   3.572   1.280   2.666 -2.4578 -0.5882  0.1350
 3949SOL    HW223310   3.460   1.375   2.662  0.0168  1.9565 -0.2501
 3950SOL     OW23311   0.115   1.313   2.962 -0.3372  0.1947 -0.4478
 3950SOL    HW123312   0.056   1.278   2.895  0.7368 -1.7604 -0.3872
 3950SOL    HW223313   0.141   1.232   3.006 -0.1689 -0.7324 -2.2419
 3951SOL     OW23314   2.310   1.153  12.939  0.0175  0.7189 -0.7149
 3951SOL    HW123315   2.316   1.248  12.955  1.6890  0.6738 -1.0187
 3951SOL    HW223316   2.399   1.128  12.966  0.5651  0.5590 -2.7252
 3952SOL     OW23317   2.437   0.738  12.056 -0.0031  1.2085  0.1935
 3952SOL    HW123318   2.531   0.755  12.050 -0.1521  2.0696  0.3002
 3952SOL    HW223319   2.412   0.756  11.965  3.0457 -0.4911 -0.9926
 3953SOL     OW23320   1.269   0.674  13.851 -0.0180  0.5864  0.2379
 3953SOL    HW123321   1.322   0.619  13.909 -2.1456 -0.1988  1.4431
 3953SOL    HW223322   1.226   0.614  13.790 -0.4626  0.7713  0.3690
 3954SOL     OW23323   1.386   0.097   1.757  0.2300  0.0236 -0.0720
 3954SOL    HW123324   1.405   0.004   1.746 -0.9973 -0.2663  0.3135
 3954SOL    HW223325   1.400   0.126   1.666 -3.0106  1.0941 -0.2254
 3955SOL     OW23326   4.537   2.467   6.949  0.0330  0.0106  0.2454
 3955SOL    HW123327   4.561   2.420   6.870 -1.4860  3.1829 -2.0690
 3955SOL    HW223328   4.521   2.557   6.921  0.4136  0.2106  0.6649
 3956SOL     OW23329   3.861   3.776  10.782  0.5229 -0.1348 -0.2113
 3956SOL    HW123330   3.906   3.793  10.865  0.2242  1.7256 -0.4325
 3956SOL    HW223331   3.924   3.727  10.730  0.1592 -0.5836 -0.2336
 3957SOL     OW23332   1.927   0.588   3.439 -0.7316 -0.0968  0.2438
 3957SOL    HW123333   1.896   0.603   3.528 -1.6738  1.5379 -0.3681
 3957SOL    HW223334   1.946   0.678   3.412  0.5534 -1.1112 -2.2201
 3958SOL     OW23335   4.237   3.586  10.258 -0.5722 -0.0756 -0.3179
 3958SOL    HW123336   4.298   3.521  10.292  0.7808  0.1876 -2.1745
 3958SOL    HW223337   4.292   3.664  10.253  0.8587 -0.9965  1.0578
 3959SOL     OW23338   1.076   2.760   2.091  0.0658 -0.2118 -0.2734
 3959SOL    HW123339   1.161   2.804   2.097 -0.9696  1.3067  2.8855
 3959SOL    HW223340   1.035   2.807   2.163 -1.3064 -0.4191 -0.9288
 3960SOL     OW23341   4.388   4.175   5.306  0.2825 -0.0155  0.4937
 3960SOL    HW123342   4.401   4.082   5.320 -0.0432 -0.1340  0.0144
 3960SOL    HW223343   4.331   4.191   5.382  3.9361  2.9064  2.6481
 3961SOL     OW23344   1.383   1.454   4.528  0.3945 -0.3977  0.4800
 3961SOL    HW123345   1.475   1.434   4.545  0.8308  0.4886 -0.7775
 3961SOL    HW223346   1.382   1.516   4.601  0.5184 -0.3561  0.4458
 3962SOL     OW23347   4.344   3.976   8.370 -0.2046  0.1114 -0.1361
 3962SOL    HW123348   4.266   3.972   8.315  1.1586 -0.3441 -2.0499
 3962SOL    HW223349   4.407   4.020   8.313 -0.4792 -0.4371 -0.8589
 3963SOL     OW23350   4.544   1.950   3.181 -0.3002  0.2132 -0.7588
 3963SOL    HW123351   4.592   1.931   3.100 -1.7149 -1.6295 -1.1487
 3963SOL    HW223352   4.504   1.867   3.206  0.8116 -0.3416 -0.7958
 3964SOL     OW23353   3.690   2.756   5.672 -0.4848 -0.1001 -0.1708
 3964SOL    HW123354   3.681   2.684   5.734 -0.1637 -2.0291 -2.3282
 3964SOL    HW223355   3.750   2.716   5.609  1.5834  2.2424  0.3492
 3965SOL     OW23356   3.960   4.597   6.463 -0.1203  0.1128  0.5166
 3965SOL    HW123357   3.915   4.578   6.546 -2.6356  1.9470 -0.4270
 3965SOL    HW223358   3.903   4.664   6.426  1.6232  0.2329 -1.8932
 3966SOL     OW23359   0.876   4.612   8.585 -0.2422  0.0299  0.5122
 3966SOL    HW123360   0.903   4.531   8.628  0.5575 -1.0099 -1.9431
 3966SOL    HW223361   0.852   4.662   8.663  0.8208  1.2628  0.0590
 3967SOL     OW23362   4.576   2.642   7.247 -0.2586 -0.3876 -0.5354
 3967SOL    HW123363   4.536   2.566   7.290 -0.8709  0.4347  0.3517
 3967SOL    HW223364   4.603   2.580   7.179 -1.8057  2.4275 -3.7110
 3968SOL     OW23365   0.549   1.414   8.672 -0.2369  0.3467  0.0581
 3968SOL    HW123366   0.517   1.325   8.687  1.4683 -0.3080 -0.2181
 3968SOL    HW223367   0.468   1.465   8.674 -1.5826 -1.6855 -1.6091
 3969SOL     OW23368   3.247   1.034  11.582  0.2081 -0.5078 -0.0131
 3969SOL    HW123369   3.320   1.047  11.642 -0.5915 -1.5535  1.1934
 3969SOL    HW223370   3.170   1.044  11.639  1.4726  0.6114  1.4812
 3970SOL     OW23371   0.003   0.172   5.053  0.1950 -0.2293 -0.0257
 3970SOL    HW123372   0.030   0.113   5.123  0.7015 -1.6573 -1.4064
 3970SOL    HW223373   4.696   0.103   4.992  0.5809  0.2138 -0.6977
 3971SOL     OW23374   2.061   1.775  10.826 -0.1273  0.0036 -0.6078
 3971SOL    HW123375   2.000   1.707  10.852  1.3609 -0.3256  1.9514
 3971SOL    HW223376   2.133   1.714  10.810 -2.2721 -2.3946 -1.0752
 3972SOL     OW23377   3.036   0.699   8.188  0.3496  0.0060  0.0092
 3972SOL    HW123378   3.023   0.625   8.129  0.1976  0.5155 -0.6025
 3972SOL    HW223379   2.974   0.671   8.254  0.6513  1.1204  0.7736
 3973SOL     OW23380   0.601   2.977   2.565 -0.3404  0.3691 -0.3998
 3973SOL    HW123381   0.640   2.893   2.541  1.9721  0.6453  2.3210
 3973SOL    HW223382   0.653   2.998   2.643 -3.8926  1.0114  1.7463
 3974SOL     OW23383   1.228   0.938   1.820 -0.3568  0.0959  0.0689
 3974SOL    HW123384   1.304   0.992   1.800 -1.6220  0.3723 -3.9095
 3974SOL    HW223385   1.248   0.852   1.783  0.9622 -0.4775  2.1158
 3975SOL     OW23386   0.274   4.105   4.919 -0.0619 -0.1898 -0.5362
 3975SOL    HW123387   0.342   4.056   4.871 -1.3689 -2.1167 -0.3927
 3975SOL    HW223388   0.261   4.042   4.989 -2.2866 -0.5931 -1.3301
 3976SOL     OW23389   4.147   1.143   4.522  0.9298 -0.0490  0.1457
 3976SOL    HW123390   4.211   1.076   4.548 -2.5160 -4.0578 -1.5628
 3976SOL    HW223391   4.092   1.092   4.462  0.5616  0.4246  0.0859
 3977SOL     OW23392   1.788   0.772   5.040  0.7139  0.4127  0.3287
 3977SOL    HW123393   1.713   0.746   4.987  2.1924 -2.2213 -0.4610
 3977SOL    HW223394   1.744   0.756   5.124 -2.3160  0.6801 -1.2243
 3978SOL     OW23395   3.353   3.097   1.318 -0.4532 -0.3808  0.2099
 3978SOL    HW123396   3.279   3.045   1.348 -0.4063 -1.0518 -0.8539
 3978SOL    HW223397   3.332   3.176   1.368  1.0675  0.3095 -0.2094
 3979SOL     OW23398   4.086   3.669   8.757 -0.0972 -0.5095 -0.0561
 3979SOL    HW123399   4.074   3.583   8.798 -0.6626 -0.8425 -0.9251
 3979SOL    HW223400   4.029   3.732   8.800  0.1029  1.4228 -2.6262
 3980SOL     OW23401   0.734   0.752   6.762 -0.6515  0.3605  0.4893
 3980SOL    HW123402   0.764   0.798   6.684 -0.3546  0.3432  0.5938
 3980SOL    HW223403   0.724   0.824   6.824  0.9684  0.1153  1.0459
 3981SOL     OW23404   1.804   1.495   1.835  0.0787  0.6097 -0.3187
 3981SOL    HW123405   1.864   1.539   1.776 -0.5332  0.8764 -0.7476
 3981SOL    HW223406   1.808   1.407   1.798  1.1430  0.5281  0.0115
 3982SOL     OW23407   3.496   3.952   4.930  0.0427 -0.5497 -0.3298
 3982SOL    HW123408   3.472   3.929   5.020 -0.9919  2.3153  0.1274
 3982SOL    HW223409   3.440   4.025   4.905  0.6562  0.4280  1.1597
 3983SOL     OW23410   0.771   3.236   8.256  0.1784 -0.0874  0.0734
 3983SOL    HW123411   0.739   3.257   8.344 -0.0351 -0.7563  0.1596
 3983SOL    HW223412   0.708   3.282   8.201  1.0557  1.0134  0.0015
 3984SOL     OW23413   2.197   0.885   5.532 -0.4482 -0.1454 -0.2636
 3984SOL    HW123414   2.114   0.839   5.517 -1.1307  0.5805  1.2927
 3984SOL    HW223415   2.220   0.862   5.622 -1.8628  0.8036  0.3382
 3985SOL     OW23416   0.691   0.964  13.932  0.0758 -0.3078 -0.0928
 3985SOL    HW123417   0.598   0.979  13.917  0.4171 -0.5084 -2.4404
 3985SOL    HW223418   0.696   0.949  14.026 -2.1112  0.2251  0.1066
 3986SOL     OW23419   2.546   0.565  14.683  0.3738 -0.8242 -0.8013
 3986SOL    HW123420   2.577   0.585  14.595  0.1881  2.2608 -0.1926
 3986SOL    HW223421   2.522   0.473  14.673 -0.0332 -0.7663 -0.3671
 3987SOL     OW23422   0.436   1.425   0.669  0.1923  0.1572  0.3330
 3987SOL    HW123423   0.495   1.404   0.597  0.3934 -0.8937  0.7943
 3987SOL    HW223424   0.352   1.386   0.646  0.4178  0.6657 -1.3383
 3988SOL     OW23425   0.762   2.378   7.964  0.2647  0.1756 -0.9171
 3988SOL    HW123426   0.724   2.291   7.974  1.0274  0.1878  2.1351
 3988SOL    HW223427   0.742   2.426   8.044 -1.4419 -1.5214 -0.3113
 3989SOL     OW23428   1.271   2.822  10.405  0.4542  0.1572 -0.2630
 3989SOL    HW123429   1.198   2.883  10.412  0.9719  0.6238  1.1300
 3989SOL    HW223430   1.308   2.818  10.494 -0.6485 -1.0132  0.1383
 3990SOL     OW23431   2.603   2.025  11.346  0.1271  0.3472  0.3845
 3990SOL    HW123432   2.528   1.989  11.394  0.0548 -0.9296 -0.6961
 3990SOL    HW223433   2.603   1.971  11.267  1.1200 -0.8163  1.1832
 3991SOL     OW23434   1.602   2.271   9.676 -0.3869  0.3556 -0.7783
 3991SOL    HW123435   1.623   2.301   9.764 -0.0479  0.7951 -1.0094
 3991SOL    HW223436   1.507   2.261   9.673 -0.3929 -0.2680  1.4414
 3992SOL     OW23437   3.119   2.158   6.927 -0.1276  0.4311 -0.6103
 3992SOL    HW123438   3.074   2.075   6.913 -0.8277  0.1157  3.4270
 3992SOL    HW223439   3.044   2.214   6.947 -0.6355 -0.5022  0.0976
 3993SOL     OW23440   3.755   4.539   1.399  0.6427  0.9046  0.4166
 3993SOL    HW123441   3.797   4.462   1.361  1.1131  1.9434 -1.2036
 3993SOL    HW223442   3.668   4.536   1.359  0.0346 -1.1182  1.9208
 3994SOL     OW23443   0.947   0.198  17.156 -0.0042  0.1030  0.1166
 3994SOL    HW123444   0.982   0.231  17.074  2.9863 -1.3531  0.8045
 3994SOL    HW223445   1.023   0.158  17.198 -0.6058 -0.0080  1.1024
 3995SOL     OW23446   0.966   1.632  10.293  0.4005 -0.2200  0.1672
 3995SOL    HW123447   0.876   1.602  10.275  1.0508 -2.5471  0.8381
 3995SOL    HW223448   0.947   1.717  10.332 -2.5278 -1.5748  1.6757
 3996SOL     OW23449   0.860   2.692  16.823  0.3418  0.5297 -0.1434
 3996SOL    HW123450   0.779   2.694  16.874  0.6591 -0.5891  0.4074
 3996SOL    HW223451   0.882   2.784  16.808  0.6578  0.1642 -1.8808
 3997SOL     OW23452   1.374   3.715   4.427 -0.0525  0.4339 -0.4275
 3997SOL    HW123453   1.361   3.701   4.521 -0.7418 -0.1083 -0.6075
 3997SOL    HW223454   1.351   3.807   4.411  0.2300  0.6890  0.6149
 3998SOL     OW23455   4.044   4.680  15.330 -0.5247 -0.3785  0.6461
 3998SOL    HW123456   4.036   4.657  15.238 -0.9528  0.0913  0.5636
 3998SOL    HW223457   3.980   0.030  15.338  0.5683  0.6124  0.6834
 3999SOL     OW23458   4.603   2.826  10.973 -0.4203  0.2429 -0.1613
 3999SOL    HW123459   4.546   2.773  11.028 -0.1710 -1.0475 -1.1510
 3999SOL    HW223460   4.665   2.761  10.941 -0.2988  0.4183 -0.2853
 4000SOL     OW23461   2.359   1.469   2.304  0.6881 -0.2472 -0.0098
 4000SOL    HW123462   2.361   1.444   2.212  1.6303 -0.3108  0.0222
 4000SOL    HW223463   2.410   1.551   2.302 -2.6574  1.8645  1.8643
 4001SOL     OW23464   2.486   0.963   6.366  0.3800  0.0039  0.2822
 4001SOL    HW123465   2.464   0.897   6.299  0.4155  0.6432 -0.3581
 4001SOL    HW223466   2.551   0.932   6.429 -1.2783  1.6307  2.7828
 4002SOL     OW23467   1.910   0.073   6.284  0.0626  0.4765  0.3082
 4002SOL    HW123468   1.886   0.055   6.193  0.7098  0.2854  0.1746
 4002SOL    HW223469   1.862   4.718   6.320  0.3656  0.0821 -0.1015
 4003SOL     OW23470   3.646   3.894  10.289 -0.1324  0.1620 -0.4907
 4003SOL    HW123471   3.588   3.968  10.306 -0.2200 -0.2973  1.2089
 4003SOL    HW223472   3.622   3.826  10.352  0.2186 -0.6114 -1.1917
 4004SOL     OW23473   1.710   2.891   6.959 -0.0420  0.3686 -0.0816
 4004SOL    HW123474   1.624   2.855   6.936  0.9284 -1.8277 -0.2727
 4004SOL    HW223475   1.717   2.861   7.049 -0.8241 -4.0832 -1.5123
 4005SOL     OW23476   0.249   4.382   2.842  0.0614 -0.0908  0.3297
 4005SOL    HW123477   0.329   4.366   2.792  1.1265  1.4453  1.5188
 4005SOL    HW223478   0.187   4.385   2.770  0.6948  2.7462 -0.1299
 4006SOL     OW23479   4.227   3.993   6.714 -0.1349 -0.2840 -0.6196
 4006SOL    HW123480   4.151   4.020   6.765  1.7448  3.3636  0.2261
 4006SOL    HW223481   4.184   3.932   6.654  0.4236 -0.4142 -0.8907
 4007SOL     OW23482   3.958   1.204   2.099 -0.3094  0.6025  0.0266
 4007SOL    HW123483   3.868   1.223   2.128 -0.2114  0.5315  0.3715
 4007SOL    HW223484   3.951   1.252   2.016 -1.9241  0.4771  0.0841
 4008SOL     OW23485   2.731   2.261   3.179  0.0998  0.9575  0.2353
 4008SOL    HW123486   2.668   2.198   3.216 -0.4538  1.0940 -0.4793
 4008SOL    HW223487   2.811   2.234   3.223 -0.8590 -0.7562  0.9606
 4009SOL     OW23488   1.070   1.189   1.351  0.1766 -0.5684 -0.0983
 4009SOL    HW123489   1.005   1.152   1.411  0.3294 -3.1173 -1.5070
 4009SOL    HW223490   1.042   1.163   1.263 -1.7364 -0.5524  0.4995
 4010SOL     OW23491   4.618   0.154   9.020 -0.1577 -0.4788 -0.5161
 4010SOL    HW123492   4.628   0.059   9.010  3.2048 -0.0244 -1.5676
 4010SOL    HW223493   4.611   0.157   9.115  2.2394 -0.4033 -0.3532
 4011SOL     OW23494   0.606   0.613   9.397 -0.2484 -0.7090  0.0661
 4011SOL    HW123495   0.591   0.644   9.486 -1.5718 -1.0973 -0.0202
 4011SOL    HW223496   0.701   0.602   9.393  0.0583  2.1937 -0.2609
 4012SOL     OW23497   1.374   1.869   1.445  0.2247  0.2274  0.1107
 4012SOL    HW123498   1.452   1.871   1.390  0.5391 -0.0989  0.5500
 4012SOL    HW223499   1.312   1.909   1.383 -0.7179  0.1601  1.0082
 4013SOL     OW23500   0.298   1.897   2.892  0.2990 -0.0235 -0.0317
 4013SOL    HW123501   0.242   1.823   2.916  0.4585 -0.2393 -0.3278
 4013SOL    HW223502   0.350   1.921   2.969 -0.7857 -2.6766  1.5340
 4014SOL     OW23503   3.971   1.795  10.806  0.3186  0.5977 -0.4161
 4014SOL    HW123504   3.904   1.862  10.817  2.2960  2.6050 -0.5158
 4014SOL    HW223505   4.050   1.839  10.838  0.2218  0.0672  0.5475
 4015SOL     OW23506   0.945   2.196   4.156  0.3276  0.4173 -0.4636
 4015SOL    HW123507   0.972   2.164   4.070  1.1161  0.2851 -0.1643
 4015SOL    HW223508   0.872   2.249   4.124  0.0614 -0.1906 -0.8589
 4016SOL     OW23509   2.107   2.550   1.721  0.2588  0.2279 -0.1628
 4016SOL    HW123510   2.168   2.621   1.738 -0.6883  1.4748 -1.9150
 4016SOL    HW223511   2.019   2.588   1.715  0.9432  1.5828 -1.7757
 4017SOL     OW23512   0.587   1.790   4.854  0.2988 -0.4813 -0.4698
 4017SOL    HW123513   0.583   1.700   4.889 -0.4256  0.5303  2.0782
 4017SOL    HW223514   0.518   1.783   4.788 -0.6279  0.0404  0.4420
 4018SOL     OW23515   0.794   0.696  12.957  0.4446  0.4617 -0.4770
 4018SOL    HW123516   0.880   0.730  12.933  0.5282 -0.4293 -1.4575
 4018SOL    HW223517   0.763   0.688  12.866 -0.3026 -2.6475  0.0795
 4019SOL     OW23518   4.287   2.634   4.085  0.5568  0.3494 -0.0919
 4019SOL    HW123519   4.377   2.623   4.054  0.3076 -0.5238 -0.5096
 4019SOL    HW223520   4.242   2.606   4.005  0.2179 -0.9227  0.5558
 4020SOL     OW23521   4.046   1.660   5.999  0.5028  0.4924 -0.1120
 4020SOL    HW123522   4.034   1.749   5.966 -0.2128  0.9725  1.4486
 4020SOL    HW223523   4.142   1.659   6.005  0.3532 -1.2974  2.0682
 4021SOL     OW23524   3.615   4.340   7.086  0.2090  0.2896 -0.5468
 4021SOL    HW123525   3.627   4.267   7.148 -2.9367 -1.2644 -1.7768
 4021SOL    HW223526   3.682   4.397   7.122 -0.9235  0.6143  1.0627
 4022SOL     OW23527   2.130   1.424   8.805 -0.0612  0.7713 -0.0698
 4022SOL    HW123528   2.050   1.468   8.776 -1.7306 -1.1421  1.7043
 4022SOL    HW223529   2.154   1.376   8.726  0.1285  0.6302  0.0736
 4023SOL     OW23530   0.299   3.833   7.616 -0.0329 -0.4471 -0.1194
 4023SOL    HW123531   0.271   3.791   7.697 -1.3688 -3.4185 -2.1307
 4023SOL    HW223532   0.316   3.925   7.637 -0.0259 -0.6102  0.5939
 4024SOL     OW23533   0.851   4.287   8.136  0.2248  0.2622  0.2317
 4024SOL    HW123534   0.935   4.332   8.130  0.6245 -0.8291 -2.4336
 4024SOL    HW223535   0.804   4.307   8.055 -1.0619 -0.0140  0.8952
 4025SOL     OW23536   1.200   0.925   3.763 -0.1475  0.2127 -0.0297
 4025SOL    HW123537   1.150   0.873   3.826  0.4752  0.7378  0.8973
 4025SOL    HW223538   1.271   0.961   3.816  0.1422  1.0191 -0.9585
 4026SOL     OW23539   1.899   0.849  14.602 -0.0221  0.0341  0.2160
 4026SOL    HW123540   1.836   0.791  14.560  1.3938  0.4454 -2.4989
 4026SOL    HW223541   1.887   0.814  14.690  0.5301  1.8646  1.0296
 4027SOL     OW23542   3.431   3.826   7.289 -0.4235 -0.4134  0.3108
 4027SOL    HW123543   3.521   3.793   7.290 -0.3182 -0.0582  1.8021
 4027SOL    HW223544   3.399   3.784   7.209  1.0240 -0.2235 -0.3837
 4028SOL     OW23545   1.161   2.836   3.678 -0.6363 -0.3872 -0.3669
 4028SOL    HW123546   1.101   2.814   3.607 -2.8411  0.5845  1.1732
 4028SOL    HW223547   1.130   2.775   3.746  1.6700 -1.6307 -0.4298
 4029SOL     OW23548   1.980   0.799   7.459 -0.5514 -0.1077 -0.2182
 4029SOL    HW123549   2.049   0.802   7.526 -0.8087 -1.4858  0.1051
 4029SOL    HW223550   1.911   0.750   7.503 -1.5470  1.2514 -0.2436
 4030SOL     OW23551   4.229   2.523   7.179 -0.7755 -0.0244  0.4278
 4030SOL    HW123552   4.149   2.497   7.225  0.7475 -1.5937  2.1963
 4030SOL    HW223553   4.217   2.617   7.169 -1.9057  0.3162  4.9498
 4031SOL     OW23554   1.501   0.769  10.749  0.3359 -0.0545 -0.2335
 4031SOL    HW123555   1.547   0.700  10.797 -0.5264 -0.1292  0.4893
 4031SOL    HW223556   1.557   0.845  10.766 -1.5211  1.6459 -1.6866
 4032SOL     OW23557   4.036   3.722   7.247 -0.2460  0.1656 -0.0590
 4032SOL    HW123558   4.114   3.716   7.302 -1.3991 -0.3553  1.4934
 4032SOL    HW223559   4.052   3.646   7.192  2.0673  1.9966 -1.9308
 4033SOL     OW23560   3.873   3.237  17.478  0.4052 -0.1149 -0.1526
 4033SOL    HW123561   3.901   3.168  17.538 -0.5170 -1.7617 -1.6371
 4033SOL    HW223562   3.944   3.296  17.504 -0.8244  0.7301  1.2685
 4034SOL     OW23563   0.911   2.166  14.937  0.1655  0.2123 -0.6105
 4034SOL    HW123564   0.851   2.227  14.895  1.8631  2.5696  0.3569
 4034SOL    HW223565   0.877   2.161  15.026  0.6851 -0.2428 -0.4380
 4035SOL     OW23566   0.655   1.811   7.473 -0.0921  0.0259 -0.1319
 4035SOL    HW123567   0.640   1.903   7.493 -0.9218 -0.4126  1.3311
 4035SOL    HW223568   0.588   1.785   7.410  1.0577 -0.6505 -1.0688
 4036SOL     OW23569   3.328   4.299   0.012 -0.2897 -0.0515  0.2106
 4036SOL    HW123570   3.360   4.384  17.665  1.9899 -0.6960  0.8423
 4036SOL    HW223571   3.395   4.238  17.661  1.0941  1.0271  1.0277
 4037SOL     OW23572   1.945   3.030   8.488  0.0234  0.2254  0.5280
 4037SOL    HW123573   1.928   3.083   8.567 -0.8178 -0.5453  0.8608
 4037SOL    HW223574   1.941   2.940   8.520  0.2113 -0.0772 -0.3146
 4038SOL     OW23575   0.464   3.508   8.775  0.2126 -0.7493  0.6026
 4038SOL    HW123576   0.514   3.585   8.804  0.3158 -0.1785 -1.1127
 4038SOL    HW223577   0.394   3.507   8.840  1.4705  2.1144  2.0323
 4039SOL     OW23578   3.945   1.765   5.067  0.0011  0.2771  0.4505
 4039SOL    HW123579   4.035   1.760   5.034 -0.7119 -2.4488 -1.0636
 4039SOL    HW223580   3.929   1.681   5.109 -2.6926  0.7361  0.3271
 4040SOL     OW23581   0.243   1.098  11.294 -0.2426  0.2775 -0.5166
 4040SOL    HW123582   0.296   1.020  11.309  1.3601  0.9331 -2.6665
 4040SOL    HW223583   0.180   1.063  11.231  1.0637  0.8340 -2.1283
 4041SOL     OW23584   0.863   1.141   1.146 -0.2694  0.5840 -0.3938
 4041SOL    HW123585   0.870   1.078   1.075 -0.6073  0.3727 -0.2442
 4041SOL    HW223586   0.790   1.200   1.128 -1.0254 -0.3188 -0.3306
 4042SOL     OW23587   3.894   3.886  11.300 -0.4481  0.2100 -0.4649
 4042SOL    HW123588   3.904   3.979  11.320  0.5165 -0.0650  0.3029
 4042SOL    HW223589   3.925   3.841  11.379 -1.4165  1.5004  0.6538
 4043SOL     OW23590   0.564   4.089  12.425  0.0188  0.0418 -0.3836
 4043SOL    HW123591   0.584   4.119  12.514 -0.3422 -1.6725  0.2725
 4043SOL    HW223592   0.565   4.174  12.381 -0.2549 -0.5006 -1.4246
 4044SOL     OW23593   0.871   0.966   7.434  0.0413 -0.1073  0.6202
 4044SOL    HW123594   0.964   0.976   7.412 -0.2955 -0.1713 -0.8199
 4044SOL    HW223595   0.864   1.027   7.507  0.4662  2.2582 -1.2882
 4045SOL     OW23596   0.076   0.796   3.382  0.5979  0.0507 -0.3754
 4045SOL    HW123597   0.061   0.748   3.301  1.5100 -1.7488  0.5330
 4045SOL    HW223598   0.014   0.868   3.367 -0.4613 -0.4606  1.6449
 4046SOL     OW23599   0.922   0.248  12.019 -0.4796 -0.2914  0.4980
 4046SOL    HW123600   0.877   0.297  12.087  0.2398  2.2794 -0.8490
 4046SOL    HW223601   0.863   0.255  11.944  0.4189 -0.8570 -0.2752
 4047SOL     OW23602   4.117   0.387   2.422  0.1786  0.2364  0.2942
 4047SOL    HW123603   4.159   0.411   2.339  0.8138 -0.3032  0.4534
 4047SOL    HW223604   4.168   0.437   2.485  1.4784  0.4667 -0.9261
 4048SOL     OW23605   2.042   3.944   8.622 -0.1645 -0.1547 -0.6207
 4048SOL    HW123606   2.107   3.989   8.677 -0.6648 -0.7443  0.4564
 4048SOL    HW223607   2.096   3.937   8.543 -1.3838  0.1808 -1.4774
 4049SOL     OW23608   0.472   2.329   8.284  0.0544  0.5910 -0.2787
 4049SOL    HW123609   0.471   2.335   8.188  1.5650  0.8920 -0.2820
 4049SOL    HW223610   0.543   2.385   8.314 -0.7098  1.2950  0.2255
 4050SOL     OW23611   3.148   0.164   7.922 -0.0754 -0.8414  0.5077
 4050SOL    HW123612   3.118   0.113   7.848 -0.7735 -0.4057  0.4921
 4050SOL    HW223613   3.067   0.194   7.963  0.0727 -0.3672  0.4622
 4051SOL     OW23614   1.692   3.800  16.007 -0.6071 -0.6566 -0.0683
 4051SOL    HW123615   1.696   3.836  15.918  2.4893  1.1290  0.8194
 4051SOL    HW223616   1.742   3.862  16.059  0.4359  0.0116 -1.8575
 4052SOL     OW23617   4.503   0.159   3.140  0.2068  0.1036  0.1331
 4052SOL    HW123618   4.431   0.197   3.089  0.1687 -0.0943  0.0376
 4052SOL    HW223619   4.455   0.145   3.222  1.3317  3.8275  1.4287
 4053SOL     OW23620   1.542   0.241  10.039 -0.1238 -0.1902  0.3860
 4053SOL    HW123621   1.494   0.169  10.081 -1.0270 -1.6796 -3.2004
 4053SOL    HW223622   1.476   0.254   9.971  1.2568 -1.1062 -1.1059
 4054SOL     OW23623   0.991   4.093   9.608  0.1534 -0.2207  0.5507
 4054SOL    HW123624   0.926   4.036   9.650 -0.7528 -0.6977 -1.4897
 4054SOL    HW223625   0.941   4.167   9.574  0.3887 -0.3719 -0.1413
 4055SOL     OW23626   1.509   2.804   3.246  0.5812 -0.0825 -0.0840
 4055SOL    HW123627   1.538   2.716   3.223  0.5620  0.2024 -1.1771
 4055SOL    HW223628   1.540   2.859   3.175  0.9348 -3.1498 -2.3219
 4056SOL     OW23629   3.057   1.270  12.248  0.5477  0.2498  0.3348
 4056SOL    HW123630   3.130   1.319  12.286  1.5832 -1.3770  0.4690
 4056SOL    HW223631   2.992   1.273  12.318 -0.0266 -3.6728 -0.0554
 4057SOL     OW23632   3.870   2.924   8.885  0.2928 -0.7036  0.7095
 4057SOL    HW123633   3.945   2.979   8.906 -0.7714  0.6761  0.8882
 4057SOL    HW223634   3.858   2.886   8.972 -0.9551  2.3790  1.8841
 4058SOL     OW23635   3.490   1.448  17.408  0.4475 -0.1619 -0.3330
 4058SOL    HW123636   3.445   1.507  17.468  1.0529  1.1098 -1.1259
 4058SOL    HW223637   3.526   1.508  17.342 -0.7988 -1.2212 -1.9861
 4059SOL     OW23638   2.163   0.148   0.143  0.2051  0.4531 -0.4254
 4059SOL    HW123639   2.258   0.133   0.146 -0.0828 -0.6873  2.3243
 4059SOL    HW223640   2.135   0.061   0.116 -0.1417  0.5188 -0.2758
 4060SOL     OW23641   2.200   3.476  16.981  0.0922 -0.2634  0.1011
 4060SOL    HW123642   2.243   3.418  16.918  0.7014 -2.2547  2.3331
 4060SOL    HW223643   2.276   3.501  17.034  0.2550 -1.1023  0.2594
 4061SOL     OW23644   0.463   2.525   2.291  0.0689 -0.0701  0.2984
 4061SOL    HW123645   0.381   2.482   2.266  0.8337 -0.7103 -1.1023
 4061SOL    HW223646   0.509   2.445   2.317 -0.2948 -0.5309 -0.4784
 4062SOL     OW23647   3.044   4.185   3.886  0.0640  0.2101 -0.9231
 4062SOL    HW123648   3.095   4.265   3.901 -1.0656  0.8979 -0.8187
 4062SOL    HW223649   2.970   4.210   3.942 -0.6219 -1.1365 -1.2390
 4063SOL     OW23650   3.152   1.441   4.466 -0.2997 -0.2317  0.4299
 4063SOL    HW123651   3.064   1.472   4.488  1.2622  2.4703  2.9547
 4063SOL    HW223652   3.129   1.371   4.405  1.7270 -0.2302 -0.3265
 4064SOL     OW23653   4.622   4.444   6.527 -0.8119  0.1989  0.2105
 4064SOL    HW123654   4.622   4.352   6.498 -2.6221 -0.1072  1.1729
 4064SOL    HW223655   4.552   4.476   6.470 -0.6959  1.0894  0.5825
 4065SOL     OW23656   2.416   4.333  11.626 -0.0740 -0.1341  0.5133
 4065SOL    HW123657   2.335   4.313  11.579  0.5090  0.1448 -0.5975
 4065SOL    HW223658   2.483   4.294  11.571 -1.8087 -0.5867 -1.2575
 4066SOL     OW23659   0.809   2.967   0.445 -0.2365 -0.6211 -0.0701
 4066SOL    HW123660   0.719   2.999   0.443 -0.7181 -1.8894  2.2849
 4066SOL    HW223661   0.856   3.050   0.449  0.2793 -0.9147  0.0906
 4067SOL     OW23662   0.437   1.043   2.319  0.1449 -0.4065 -0.2298
 4067SOL    HW123663   0.381   1.086   2.384  4.4028 -0.1224  3.2223
 4067SOL    HW223664   0.426   0.954   2.352 -1.0714  0.3196  1.3236
 4068SOL     OW23665   0.665   3.503   3.622 -0.1611 -0.0195  0.9366
 4068SOL    HW123666   0.659   3.550   3.539 -0.5972 -1.4641  0.1567
 4068SOL    HW223667   0.572   3.501   3.646 -0.4476  1.3022 -0.0732
 4069SOL     OW23668   0.487   0.597  15.582 -0.6904  0.7604 -0.6349
 4069SOL    HW123669   0.538   0.671  15.615 -1.3701  1.6786 -1.6464
 4069SOL    HW223670   0.529   0.568  15.502  1.5765  1.4440  0.3105
 4070SOL     OW23671   4.276   2.905   4.397 -0.3067  0.9122 -0.3957
 4070SOL    HW123672   4.201   2.962   4.412 -0.8282  0.5392 -1.6086
 4070SOL    HW223673   4.233   2.820   4.407  0.3811  0.7931  1.5021
 4071SOL     OW23674   4.246   3.787   7.030  0.1670 -0.0232  0.5414
 4071SOL    HW123675   4.151   3.797   7.042  0.6039  2.9547  1.4363
 4071SOL    HW223676   4.250   3.749   6.942  1.1112  1.4611 -0.0635
 4072SOL     OW23677   2.717   3.926   0.939 -0.2263  0.6806  0.3357
 4072SOL    HW123678   2.745   4.001   0.887  2.2632 -0.0587  0.6085
 4072SOL    HW223679   2.721   3.852   0.879  2.6577 -0.0259  1.3717
 4073SOL     OW23680   3.009   2.828   3.864  0.4309 -0.1565 -0.1897
 4073SOL    HW123681   2.989   2.753   3.808 -1.1017  1.3709 -1.6411
 4073SOL    HW223682   3.100   2.843   3.837  0.9707 -0.3769  1.5123
 4074SOL     OW23683   3.026   0.963   9.422  0.5804  0.0312  0.1634
 4074SOL    HW123684   3.084   1.027   9.382 -0.7087  0.0596 -1.6777
 4074SOL    HW223685   3.071   0.938   9.503  1.6304  3.4896  0.6167
 4075SOL     OW23686   3.899   2.990  12.362 -0.0536 -0.8314  0.0612
 4075SOL    HW123687   3.840   2.915  12.353 -0.2945 -0.5295 -0.8502
 4075SOL    HW223688   3.926   2.996  12.453  3.3232 -0.1181 -1.0017
 4076SOL     OW23689   0.802   0.560   5.029 -0.0738  0.4378  0.1964
 4076SOL    HW123690   0.723   0.606   5.057 -0.3113  0.4533 -0.5024
 4076SOL    HW223691   0.761   0.479   4.998 -2.4354  2.1044 -0.9695
 4077SOL     OW23692   4.595   0.954   0.396 -0.1817  0.6293 -0.0879
 4077SOL    HW123693   4.574   0.976   0.487 -3.3290 -4.5463  0.4552
 4077SOL    HW223694   4.653   0.879   0.409  1.3792  2.0749  1.2011
 4078SOL     OW23695   1.953   2.912  15.168  0.1082 -0.3300 -0.4654
 4078SOL    HW123696   1.938   3.002  15.137  1.1593 -0.5723 -1.7372
 4078SOL    HW223697   1.878   2.903  15.226 -0.9796  1.4170 -1.5785
 4079SOL     OW23698   3.714   0.095   6.992 -0.3737  0.3008  0.1305
 4079SOL    HW123699   3.653   0.086   6.919  1.1865 -0.9405 -1.0138
 4079SOL    HW223700   3.666   0.042   7.055 -1.6735  0.0846 -1.0562
 4080SOL     OW23701   4.545   0.816   5.725  0.0288  0.3620  0.3781
 4080SOL    HW123702   4.637   0.792   5.739 -0.1201 -0.0797  0.5648
 4080SOL    HW223703   4.506   0.821   5.812 -0.3493 -2.0723  0.3301
 4081SOL     OW23704   4.104   4.623   8.609 -0.1788 -0.0136 -0.0229
 4081SOL    HW123705   4.039   4.682   8.571  0.3597  0.6044  0.0047
 4081SOL    HW223706   4.102   4.536   8.568 -2.5214 -0.2585  0.6375
 4082SOL     OW23707   2.590   0.131   5.518  0.1612 -0.2389 -0.2031
 4082SOL    HW123708   2.549   0.110   5.602  1.3465  0.1008  0.4648
 4082SOL    HW223709   2.621   0.045   5.489 -0.6244 -0.0410 -1.6132
 4083SOL     OW23710   4.376   0.785   6.184 -0.0146 -0.2361 -0.1643
 4083SOL    HW123711   4.432   0.709   6.202 -0.1620 -0.3065  0.0040
 4083SOL    HW223712   4.287   0.758   6.207 -0.0855  0.0163 -0.1381
 4084SOL     OW23713   4.269   3.239   7.584 -0.2871  0.1679  0.1591
 4084SOL    HW123714   4.240   3.261   7.495 -0.6582  1.9866  0.7239
 4084SOL    HW223715   4.181   3.240   7.622 -0.9000  1.0943 -1.2877
 4085SOL     OW23716   1.699   0.674  10.446 -0.2643  0.2247  0.0826
 4085SOL    HW123717   1.747   0.685  10.529 -0.0213  0.3546 -0.0764
 4085SOL    HW223718   1.647   0.596  10.464 -0.4388 -0.3215 -2.8942
 4086SOL     OW23719   2.162   0.275   4.409  0.0969  0.1496 -0.8030
 4086SOL    HW123720   2.085   0.237   4.367  0.0718 -1.8784  1.0993
 4086SOL    HW223721   2.202   0.312   4.330  1.2844 -0.5992 -0.5668
 4087SOL     OW23722   0.136   2.542   4.181 -0.3697  0.4684  0.5299
 4087SOL    HW123723   0.086   2.462   4.168  1.9753 -0.4455 -3.1149
 4087SOL    HW223724   0.217   2.516   4.226 -0.2032  0.8617  0.4603
 4088SOL     OW23725   2.492   3.597   2.632 -0.2856  0.4939 -0.1947
 4088SOL    HW123726   2.522   3.687   2.638 -0.3652  0.6276 -2.0488
 4088SOL    HW223727   2.538   3.570   2.553 -0.7047  3.3466 -1.3811
 4089SOL     OW23728   2.172   1.993  14.602  0.4838  0.6317 -0.5241
 4089SOL    HW123729   2.205   1.955  14.521  1.9688 -0.0181  0.3930
 4089SOL    HW223730   2.138   2.075  14.567 -2.6980 -0.6403 -0.4762
 4090SOL     OW23731   1.596   2.140  12.256 -0.4072 -0.1904  0.5562
 4090SOL    HW123732   1.561   2.229  12.251  0.8153  0.1688 -1.7486
 4090SOL    HW223733   1.689   2.160  12.259 -0.2070 -0.8365 -1.2890
 4091SOL     OW23734   1.185   2.102   5.591 -0.4550 -0.1315  0.0955
 4091SOL    HW123735   1.119   2.066   5.651 -1.9513  0.3161 -1.2770
 4091SOL    HW223736   1.217   2.180   5.635 -1.8101  0.6131 -0.2268
 4092SOL     OW23737   0.610   2.518   1.410 -0.2548 -0.4213  0.3901
 4092SOL    HW123738   0.555   2.454   1.456 -0.8330 -0.2082 -0.0070
 4092SOL    HW223739   0.626   2.469   1.329  1.9729  1.0710 -0.0697
 4093SOL     OW23740   3.144   1.597   0.376 -0.1934  0.3067  0.2772
 4093SOL    HW123741   3.200   1.607   0.453  0.7729 -1.1698 -0.2369
 4093SOL    HW223742   3.205   1.564   0.310  0.7745 -0.5880  1.6025
 4094SOL     OW23743   0.133   2.337   7.393  0.1699  0.3941 -0.5118
 4094SOL    HW123744   0.094   2.342   7.480  0.6662 -0.2499 -0.2500
 4094SOL    HW223745   0.061   2.300   7.342 -0.0352 -0.5465  0.4677
 4095SOL     OW23746   4.109   1.022   7.409 -0.0229 -0.2663  0.1468
 4095SOL    HW123747   4.198   1.027   7.376 -1.0094 -2.6102 -2.8340
 4095SOL    HW223748   4.087   1.115   7.404 -1.4029 -0.5150  1.7049
 4096SOL     OW23749   2.853   4.386  17.560 -0.2076  0.6694 -0.2843
 4096SOL    HW123750   2.843   4.467  17.611  1.0578  0.1991  0.7064
 4096SOL    HW223751   2.839   4.326  17.633  3.1636  1.8440  1.2948
 4097SOL     OW23752   0.623   2.049   4.485 -0.0643 -0.1490 -0.6177
 4097SOL    HW123753   0.608   1.965   4.443 -2.5863  0.2993 -0.5865
 4097SOL    HW223754   0.592   2.029   4.573 -1.5705 -2.9476 -1.8077
 4098SOL     OW23755   0.599   1.524   7.701 -0.2538 -0.6184 -0.1637
 4098SOL    HW123756   0.680   1.557   7.741 -0.8467 -0.2257  0.7073
 4098SOL    HW223757   0.552   1.607   7.694  3.5377  1.4531 -1.0613
 4099SOL     OW23758   2.607   2.998  13.603  0.1235  0.1790  0.6867
 4099SOL    HW123759   2.593   2.953  13.686  0.9561  2.2111  1.9333
 4099SOL    HW223760   2.546   3.072  13.605 -0.3580 -0.2113  0.5926
 4100SOL     OW23761   4.629   2.372   3.831  0.0961  0.3541  0.0795
 4100SOL    HW123762   4.559   2.312   3.804  0.9827 -1.3723  1.6306
 4100SOL    HW223763   4.676   2.368   3.748 -0.0745 -1.2873  0.0689
 4101SOL     OW23764   2.543   0.243   6.724  0.0608 -0.1900  0.0005
 4101SOL    HW123765   2.513   0.305   6.790 -1.8199 -1.4178  0.3218
 4101SOL    HW223766   2.495   0.279   6.648  3.0366  0.0101 -1.7720
 4102SOL     OW23767   2.442   0.192   6.025  0.1740  0.1687 -0.2480
 4102SOL    HW123768   2.383   0.225   6.093  2.1396 -0.7189  1.9134
 4102SOL    HW223769   2.495   0.135   6.082 -0.1643 -0.1287 -0.2270
 4103SOL     OW23770   1.823   2.323   6.082  0.1128  0.0161  0.2802
 4103SOL    HW123771   1.808   2.375   6.161  0.1097  0.5549 -0.0840
 4103SOL    HW223772   1.757   2.356   6.021 -0.7596 -0.0919  1.1649
 4104SOL     OW23773   1.979   1.887   8.136  0.3070 -0.0814 -0.5914
 4104SOL    HW123774   2.064   1.859   8.169  0.4352 -1.1905 -1.8408
 4104SOL    HW223775   1.917   1.884   8.209  1.3003  2.3638  0.3497
 4105SOL     OW23776   4.175   2.843  13.302  0.3481  0.3359  0.3301
 4105SOL    HW123777   4.174   2.783  13.226  0.6872 -0.2279  0.7697
 4105SOL    HW223778   4.097   2.886  13.268 -0.8770 -0.6358  1.9467
 4106SOL     OW23779   2.658   3.876  12.809 -0.0437 -1.2520  0.2979
 4106SOL    HW123780   2.674   3.876  12.715  0.4981 -1.5781  0.3852
 4106SOL    HW223781   2.648   3.781  12.821 -1.7538 -1.0812  0.1844
 4107SOL     OW23782   3.164   2.507  10.373  0.3493 -0.4686  0.4956
 4107SOL    HW123783   3.086   2.477  10.327  0.2741 -0.1075  0.3881
 4107SOL    HW223784   3.223   2.461  10.312  0.2290 -2.7424  2.1192
 4108SOL     OW23785   0.795   1.857   5.600  0.5921  0.2089 -0.6378
 4108SOL    HW123786   0.749   1.818   5.526 -0.1453 -0.3154  0.1072
 4108SOL    HW223787   0.862   1.917   5.565  0.0514  1.4747  0.5055
 4109SOL     OW23788   4.467   1.825   6.598  0.1850 -0.7219 -0.2908
 4109SOL    HW123789   4.544   1.863   6.640  0.0697 -0.3914 -0.3773
 4109SOL    HW223790   4.400   1.865   6.654  2.1194 -1.5985  2.6491
 4110SOL     OW23791   0.285   0.763   8.713 -0.1974 -0.1534 -0.0385
 4110SOL    HW123792   0.233   0.692   8.751  1.3806  0.0846  2.6005
 4110SOL    HW223793   0.258   0.762   8.621  0.1195 -0.7167 -0.1183
 4111SOL     OW23794   3.700   1.814   1.041 -0.2337 -0.2056 -0.3684
 4111SOL    HW123795   3.706   1.867   0.962  0.8637  3.8512  2.4305
 4111SOL    HW223796   3.714   1.873   1.116  0.9373 -0.0772 -0.6911
 4112SOL     OW23797   0.701   3.279   3.999  0.0194 -0.6971 -0.3274
 4112SOL    HW123798   0.694   3.374   3.994 -1.6139 -0.8040  0.1313
 4112SOL    HW223799   0.795   3.264   4.001  0.2793  0.9130 -0.1422
 4113SOL     OW23800   2.999   4.509  15.808  0.3367  0.7052  0.6362
 4113SOL    HW123801   3.013   4.431  15.862 -0.6550 -0.1780 -0.3923
 4113SOL    HW223802   2.974   4.463  15.728 -0.8298 -1.9431  2.5068
 4114SOL     OW23803   2.589   0.276   8.613  0.0269  0.6069 -0.0817
 4114SOL    HW123804   2.678   0.290   8.647  0.5079  0.9668 -1.5057
 4114SOL    HW223805   2.529   0.304   8.682 -2.1881 -0.6077 -1.5239
 4115SOL     OW23806   2.540   0.095   7.777 -0.0536  0.1267  0.1542
 4115SOL    HW123807   2.480   0.058   7.841 -1.6783  0.5928 -1.1126
 4115SOL    HW223808   2.621   0.058   7.812 -1.2732 -0.1411  2.7123
 4116SOL     OW23809   3.198   4.016   1.371  0.5103 -0.4411 -0.2004
 4116SOL    HW123810   3.205   4.056   1.285  3.1076 -2.0731 -0.7424
 4116SOL    HW223811   3.106   3.989   1.379  0.4894 -0.9508 -2.2229
 4117SOL     OW23812   1.899   4.514  15.163 -0.2070  0.1521  0.3924
 4117SOL    HW123813   1.950   4.593  15.182  1.2483 -1.1523  1.9048
 4117SOL    HW223814   1.972   4.463  15.128  0.2474  0.8969  0.2595
 4118SOL     OW23815   1.560   0.248   5.463 -0.5020 -0.9079  0.0290
 4118SOL    HW123816   1.597   0.303   5.394 -0.6952 -2.4256 -1.2845
 4118SOL    HW223817   1.523   0.175   5.413  0.9961 -0.5232 -1.6544
 4119SOL     OW23818   2.848   0.520   7.507  0.4006  0.6476 -0.4621
 4119SOL    HW123819   2.850   0.612   7.534 -0.7312  0.0337  1.7527
 4119SOL    HW223820   2.850   0.533   7.413  0.6549  2.1245 -0.2505
 4120SOL     OW23821   3.479   4.346  17.180 -0.7883 -0.2736  0.0962
 4120SOL    HW123822   3.501   4.438  17.195  0.0123 -0.4692  0.1727
 4120SOL    HW223823   3.384   4.347  17.184 -0.7123  2.2268  0.7802
 4121SOL     OW23824   4.348   0.380   6.578  0.1819 -0.1931 -1.0017
 4121SOL    HW123825   4.419   0.424   6.532  0.0645 -0.2198 -1.2097
 4121SOL    HW223826   4.363   0.405   6.669 -4.1427 -1.2229  0.0033
 4122SOL     OW23827   3.252   3.997   3.184  0.0955  0.0983  0.2991
 4122SOL    HW123828   3.232   3.907   3.209 -1.6320  0.6464  0.8758
 4122SOL    HW223829   3.259   4.041   3.269 -1.3477  0.2799  0.3228
 4123SOL     OW23830   2.528   1.255   4.047 -0.7943 -0.2237 -0.8428
 4123SOL    HW123831   2.472   1.178   4.035  0.4991 -1.3173  0.1580
 4123SOL    HW223832   2.519   1.264   4.141  0.0964  1.8774 -0.9674
 4124SOL     OW23833   2.323   0.001   5.584 -0.5450 -0.0907 -0.0717
 4124SOL    HW123834   2.272   0.082   5.574 -1.2651 -0.6809 -1.1728
 4124SOL    HW223835   2.375   0.039   5.655 -0.1484 -0.2630 -0.2716
 4125SOL     OW23836   3.492   0.135   2.132 -0.3446  0.4556 -0.1727
 4125SOL    HW123837   3.524   0.085   2.056  1.8169  0.4980  0.7003
 4125SOL    HW223838   3.407   0.092   2.143  0.5289 -0.6632  2.1800
 4126SOL     OW23839   0.783   2.004   0.749 -0.1631 -0.3798 -0.2466
 4126SOL    HW123840   0.734   2.049   0.680  0.2407  1.6589  0.7981
 4126SOL    HW223841   0.849   1.968   0.691 -2.3495 -2.2694 -1.5518
 4127SOL     OW23842   3.029   2.872  12.839  0.2663  0.2474  0.2047
 4127SOL    HW123843   3.055   2.783  12.865 -0.6445 -0.5665 -1.6713
 4127SOL    HW223844   3.043   2.865  12.744  1.3662  1.6059  0.2671
 4128SOL     OW23845   3.535   0.963   6.977 -0.0645  0.1549 -0.3868
 4128SOL    HW123846   3.616   0.999   7.011  0.0417 -2.0909  1.6970
 4128SOL    HW223847   3.469   0.991   7.041  1.3526  1.6688  0.4139
 4129SOL     OW23848   1.376   0.773   6.263 -0.2020  0.0573  0.2638
 4129SOL    HW123849   1.438   0.842   6.240 -1.1954  0.6321 -0.6742
 4129SOL    HW223850   1.287   0.806   6.248 -0.1768 -0.9811 -2.0981
 4130SOL     OW23851   4.481   3.357   0.923  0.2736  0.5789 -0.1562
 4130SOL    HW123852   4.421   3.415   0.876  1.8955  2.2329 -0.1846
 4130SOL    HW223853   4.559   3.380   0.872  1.0765 -0.2614  0.7074
 4131SOL     OW23854   3.469   3.641   4.103 -0.5034 -0.5125 -0.3560
 4131SOL    HW123855   3.508   3.560   4.070  1.7765 -0.0958  1.4009
 4131SOL    HW223856   3.403   3.663   4.037 -2.4368  1.0726  2.0876
 4132SOL     OW23857   3.891   1.691   4.752  0.2733 -0.0668  0.1960
 4132SOL    HW123858   3.797   1.672   4.748 -0.3269  2.2380  3.5584
 4132SOL    HW223859   3.919   1.626   4.817 -0.2877  1.3756  1.8944
 4133SOL     OW23860   3.873   0.253   0.945  0.5869 -0.3778 -0.0810
 4133SOL    HW123861   3.846   0.341   0.916  0.4045  0.8149  3.6252
 4133SOL    HW223862   3.813   0.236   1.018 -1.4933  0.0456 -1.6830
 4134SOL     OW23863   4.258   0.286  15.221  0.3940 -0.5290  0.1298
 4134SOL    HW123864   4.168   0.255  15.220  0.3124 -0.3505  3.1328
 4134SOL    HW223865   4.282   0.248  15.136  1.0144 -2.8280  1.3333
 4135SOL     OW23866   1.268   4.620   8.450  0.0320 -0.0531 -0.2126
 4135SOL    HW123867   1.178   4.643   8.429 -0.4553 -1.2303  0.5883
 4135SOL    HW223868   1.286   4.628   8.544 -1.2365  0.1511  0.0216
 4136SOL     OW23869   2.488   2.885   9.646 -0.3720 -0.6770 -0.6238
 4136SOL    HW123870   2.498   2.938   9.725  1.8834  0.0578 -1.3931
 4136SOL    HW223871   2.427   2.818   9.674  1.9390 -1.7939  1.7173
 4137SOL     OW23872   3.831   1.250   4.767 -0.4154  0.6274  0.4080
 4137SOL    HW123873   3.826   1.249   4.672 -0.0542 -0.6446  0.4025
 4137SOL    HW223874   3.863   1.336   4.793  1.3360  0.1504 -0.1512
 4138SOL     OW23875   1.227   4.592   3.482  0.2330 -0.2189  0.2461
 4138SOL    HW123876   1.317   4.584   3.451  0.5746 -1.1269  1.4861
 4138SOL    HW223877   1.199   4.500   3.489 -0.7457 -0.0862 -1.7287
 4139SOL     OW23878   3.803   4.545   3.762 -0.0958  0.0169  0.0340
 4139SOL    HW123879   3.810   4.628   3.808 -2.8724 -0.0524  0.5988
 4139SOL    HW223880   3.889   4.548   3.721  0.0597  0.5064  0.3925
 4140SOL     OW23881   0.633   2.997   5.467  0.4872  0.4435  0.0134
 4140SOL    HW123882   0.703   3.062   5.460 -0.3367  1.3013 -0.2934
 4140SOL    HW223883   0.682   2.915   5.463 -2.4723 -1.3608  1.5824
 4141SOL     OW23884   2.810   3.222   0.827 -0.0777 -0.5697 -0.0782
 4141SOL    HW123885   2.828   3.181   0.742  0.8372 -0.5608  0.1151
 4141SOL    HW223886   2.829   3.137   0.867 -0.1321 -0.8849 -0.7213
 4142SOL     OW23887   3.192   3.964   4.240  0.4660 -0.3803 -0.1157
 4142SOL    HW123888   3.227   4.032   4.182 -0.4524  0.5519  0.4225
 4142SOL    HW223889   3.268   3.929   4.286  0.2459  1.3525  1.5676
 4143SOL     OW23890   2.157   3.343   4.841 -0.3357  0.4293 -0.4581
 4143SOL    HW123891   2.068   3.357   4.874 -0.8718 -2.5668 -0.6999
 4143SOL    HW223892   2.172   3.433   4.812 -0.8139  0.3381 -0.9982
 4144SOL     OW23893   4.015   2.416   7.318  0.2543 -0.5954  0.0904
 4144SOL    HW123894   4.036   2.323   7.307  1.5475 -0.5829  2.4128
 4144SOL    HW223895   3.920   2.417   7.327  0.1672  0.8093 -1.0242
 4145SOL     OW23896   0.591   3.023   1.294 -0.2453 -0.0161  0.3191
 4145SOL    HW123897   0.546   2.941   1.272 -3.8461  1.6541  1.3023
 4145SOL    HW223898   0.565   3.032   1.386  1.3664  1.4952  0.6197
 4146SOL     OW23899   0.578   4.282   3.321 -0.2681 -0.4545  0.6308
 4146SOL    HW123900   0.535   4.291   3.236  0.2371  0.9381  0.5212
 4146SOL    HW223901   0.660   4.248   3.286 -0.6237  0.4647 -1.1089
 4147SOL     OW23902   0.642   3.646  15.703  0.6478 -0.4228  0.1818
 4147SOL    HW123903   0.582   3.578  15.732  2.2165 -1.3833  1.2028
 4147SOL    HW223904   0.616   3.720  15.756 -1.2919 -0.6992 -0.3802
 4148SOL     OW23905   2.953   3.306   4.454  0.8386  0.1043 -0.0106
 4148SOL    HW123906   2.944   3.355   4.373 -0.1686 -0.6103 -0.3375
 4148SOL    HW223907   2.927   3.381   4.507  0.9463 -0.7172  1.2081
 4149SOL     OW23908   4.293   2.622   6.420  0.3845 -0.0307  0.1237
 4149SOL    HW123909   4.266   2.710   6.395 -0.0993  0.0630  0.9725
 4149SOL    HW223910   4.384   2.624   6.392  0.5328 -1.2389  0.4813
 4150SOL     OW23911   4.469   3.788  16.235  0.6289  0.0426 -0.0505
 4150SOL    HW123912   4.554   3.788  16.191 -0.3785 -2.7947 -1.9440
 4150SOL    HW223913   4.438   3.703  16.204  0.3906  0.0636  0.1324
 4151SOL     OW23914   1.922   1.078   9.708 -0.0260 -0.4099 -0.3888
 4151SOL    HW123915   1.843   1.087   9.654 -0.5556  1.2706  0.6776
 4151SOL    HW223916   1.911   1.149   9.771  0.5308 -1.6676  1.1404
 4152SOL     OW23917   2.823   4.203   4.704  0.1754  0.1986  0.7655
 4152SOL    HW123918   2.764   4.204   4.628  2.0335 -0.8991 -0.7017
 4152SOL    HW223919   2.909   4.185   4.665 -0.3990 -0.9712  0.0116
 4153SOL     OW23920   0.749   1.376  13.629 -0.4226  0.4349  0.0161
 4153SOL    HW123921   0.738   1.352  13.537 -1.2245 -0.5002  0.3501
 4153SOL    HW223922   0.841   1.354  13.640 -1.2542 -2.3870  1.3963
 4154SOL     OW23923   4.350   1.654  10.824  0.3553 -0.4227  0.0940
 4154SOL    HW123924   4.261   1.674  10.855 -0.9858 -2.5796 -2.4333
 4154SOL    HW223925   4.404   1.728  10.853 -2.8600  1.0233  2.3604
 4155SOL     OW23926   4.389   3.524   2.143 -0.6047  0.0391 -0.0112
 4155SOL    HW123927   4.355   3.564   2.224 -1.2405 -1.6449  0.5566
 4155SOL    HW223928   4.423   3.446   2.187  0.2794  0.6657  0.4286
 4156SOL     OW23929   0.049   1.638  15.601  0.9810  0.3179  0.0950
 4156SOL    HW123930   0.070   1.548  15.574 -2.1317 -0.7080  1.0739
 4156SOL    HW223931   0.087   1.695  15.534  0.2876  0.8859  0.1861
 4157SOL     OW23932   1.540   0.488  15.277 -1.0293 -0.0762 -0.7177
 4157SOL    HW123933   1.485   0.437  15.217 -1.9131 -0.0243  0.0422
 4157SOL    HW223934   1.478   0.524  15.341 -1.4206 -1.3463 -0.3746
 4158SOL     OW23935   1.907   0.630   9.662 -0.0357 -0.0516 -0.2994
 4158SOL    HW123936   1.967   0.678   9.720 -0.9181  1.1608 -0.4092
 4158SOL    HW223937   1.826   0.639   9.712 -0.6832 -0.3112 -1.3002
 4159SOL     OW23938   0.866   2.446   0.134  0.5638 -0.0011  0.0102
 4159SOL    HW123939   0.876   2.452   0.229  2.2477  0.7259 -0.2034
 4159SOL    HW223940   0.932   2.511   0.109  1.7248 -0.9403  0.6252
 4160SOL     OW23941   3.024   1.609  12.587  0.1652 -0.0330 -0.2614
 4160SOL    HW123942   3.110   1.641  12.614 -0.0384  0.2622  0.0544
 4160SOL    HW223943   3.040   1.595  12.494 -1.7600 -1.0549 -0.4296
 4161SOL     OW23944   1.528   4.257   8.982  0.1208  0.0234  1.1686
 4161SOL    HW123945   1.464   4.220   9.043  1.7270 -1.5665  1.8897
 4161SOL    HW223946   1.512   4.196   8.910  1.5443  1.5662 -0.4654
 4162SOL     OW23947   2.718   0.750  16.467 -0.3153  0.4638 -0.7674
 4162SOL    HW123948   2.713   0.840  16.435  2.1831  0.9837  0.3450
 4162SOL    HW223949   2.666   0.702  16.402  4.6476 -1.2637 -3.4567
 4163SOL     OW23950   0.123   4.382   7.538  0.5747  0.1858 -0.0551
 4163SOL    HW123951   0.178   4.459   7.547  1.3188 -0.3887  0.2379
 4163SOL    HW223952   0.090   4.366   7.627  2.5677 -3.2799  0.0496
 4164SOL     OW23953   2.565   4.384  12.599  0.5140 -0.2850 -0.4945
 4164SOL    HW123954   2.481   4.428  12.607 -0.3261 -1.7720 -1.2620
 4164SOL    HW223955   2.602   4.417  12.517 -0.2034  0.7069 -0.4166
 4165SOL     OW23956   1.948   1.861  14.261  0.5054  0.1183 -0.0146
 4165SOL    HW123957   1.897   1.848  14.181  0.0061 -1.2651  0.5233
 4165SOL    HW223958   1.882   1.888  14.326 -0.4555 -0.8273 -0.6060
 4166SOL     OW23959   3.198   0.019   6.644  0.1155 -0.6291  0.4856
 4166SOL    HW123960   3.257   0.025   6.569  0.2763  0.9347  0.7376
 4166SOL    HW223961   3.189   4.648   6.674 -0.0033 -0.2947  1.4751
 4167SOL     OW23962   3.111   0.996  14.373  0.3764 -0.4606  0.2053
 4167SOL    HW123963   3.135   1.061  14.307 -3.3508  0.6404 -0.0261
 4167SOL    HW223964   3.111   1.053  14.450  0.3424 -0.0775 -0.0789
 4168SOL     OW23965   0.264   2.729   4.828 -0.2542  0.3684 -0.1575
 4168SOL    HW123966   0.208   2.750   4.753 -1.8572  1.3726  1.3278
 4168SOL    HW223967   0.239   2.796   4.891  2.6055  0.4383  0.9008
 4169SOL     OW23968   3.906   3.035   3.499 -0.1866  0.3171 -0.5436
 4169SOL    HW123969   3.834   3.097   3.493 -0.6629 -0.2174 -0.3038
 4169SOL    HW223970   3.918   3.024   3.593  1.9828 -3.4100 -1.2378
 4170SOL     OW23971   4.315   1.612  16.241 -0.2457 -0.2322  0.1918
 4170SOL    HW123972   4.241   1.606  16.302  0.4957  2.6428  1.4025
 4170SOL    HW223973   4.267   1.612  16.158 -0.4160 -1.7920  0.2960
 4171SOL     OW23974   2.138   0.839   8.041  0.4666 -0.3955  0.6628
 4171SOL    HW123975   2.125   0.838   7.947 -0.8912  0.5904  0.8441
 4171SOL    HW223976   2.047   0.825   8.068 -0.3330  2.2671 -0.6897
 4172SOL     OW23977   2.845   4.340   2.981  0.1031 -0.5904  0.1931
 4172SOL    HW123978   2.860   4.376   3.069 -0.0011 -1.1786  0.4468
 4172SOL    HW223979   2.832   4.419   2.929 -2.4855 -0.5886  0.8329
 4173SOL     OW23980   2.089   0.432  16.629 -0.5198  0.5085 -0.4853
 4173SOL    HW123981   2.124   0.517  16.656 -0.2619 -0.0796  1.0317
 4173SOL    HW223982   2.022   0.462  16.567 -1.0047  0.6909  0.1308
 4174SOL     OW23983   0.646   0.192   3.460 -0.3812  0.1718  0.4736
 4174SOL    HW123984   0.675   0.134   3.530  0.6841 -0.6396 -0.6410
 4174SOL    HW223985   0.726   0.190   3.408  0.4984 -0.9540  1.8649
 4175SOL     OW23986   3.171   0.005  16.425 -0.7092 -0.0606 -0.0108
 4175SOL    HW123987   3.105   0.036  16.488 -0.0598 -0.6886  0.9862
 4175SOL    HW223988   3.220   4.668  16.485 -0.6163  0.9403  0.8706
 4176SOL     OW23989   4.567   2.081   4.498 -0.3342 -0.0291 -0.0010
 4176SOL    HW123990   4.648   2.089   4.448 -0.7620  2.8392 -0.2679
 4176SOL    HW223991   4.504   2.128   4.443 -1.1407 -0.3207  0.6785
 4177SOL     OW23992   2.885   3.159   5.093 -0.0287  0.1003  0.5248
 4177SOL    HW123993   2.973   3.138   5.061 -1.1690 -2.0005 -1.2379
 4177SOL    HW223994   2.909   3.224   5.159 -1.2489  0.0587  1.0002
 4178SOL     OW23995   4.717   2.136  12.706 -0.4889  0.4780 -0.2620
 4178SOL    HW123996   4.689   2.219  12.667  2.3231  1.0167 -1.1004
 4178SOL    HW223997   0.070   2.164  12.762 -1.2355 -0.6577  1.2985
 4179SOL     OW23998   3.282   1.604  15.847 -0.2108 -0.7376 -0.5169
 4179SOL    HW123999   3.303   1.668  15.778  1.1335  0.6502  1.1670
 4179SOL    HW224000   3.278   1.657  15.927  1.1505 -0.1564 -0.8333
 4180SOL     OW24001   3.016   1.613  11.317  0.3664  0.6816 -0.4153
 4180SOL    HW124002   2.974   1.620  11.403  0.5819  1.8754 -0.4197
 4180SOL    HW224003   2.983   1.694  11.279 -0.5141  0.0057 -1.1240
 4181SOL     OW24004   3.249   2.727   4.755 -0.0748  0.1159 -0.0716
 4181SOL    HW124005   3.272   2.645   4.712  1.4244 -0.5143  1.9621
 4181SOL    HW224006   3.191   2.687   4.819  0.5705  0.0492  0.4658
 4182SOL     OW24007   0.013   3.351  12.428 -0.0242  0.4351  0.3960
 4182SOL    HW124008   4.644   3.318  12.412  0.1855  0.5861 -1.0884
 4182SOL    HW224009   0.015   3.388  12.516  2.1710  0.1321  0.4586
 4183SOL     OW24010   2.177   0.176  12.118  0.1074  0.2525  0.0952
 4183SOL    HW124011   2.220   0.227  12.050 -0.4842  0.3147 -0.2281
 4183SOL    HW224012   2.108   0.135  12.067  0.2779 -1.9803  1.6638
 4184SOL     OW24013   1.455   2.576   2.889 -0.2760 -0.1238 -0.2096
 4184SOL    HW124014   1.512   2.653   2.888  0.6650 -0.7870  1.6865
 4184SOL    HW224015   1.446   2.561   2.795 -1.6061 -0.6090 -0.0090
 4185SOL     OW24016   3.712   2.780   4.912  0.3307 -0.4870 -0.5178
 4185SOL    HW124017   3.806   2.765   4.901  0.6663 -0.6709  2.5074
 4185SOL    HW224018   3.683   2.689   4.911 -0.5099 -0.2434  1.3688
 4186SOL     OW24019   1.593   4.323   5.718  0.4476  0.5799 -0.0702
 4186SOL    HW124020   1.577   4.417   5.727 -1.3312  0.0781  2.0654
 4186SOL    HW224021   1.688   4.323   5.704  0.4977 -3.4904  0.3804
 4187SOL     OW24022   0.499   0.480   6.038  0.1832  0.4631 -0.4626
 4187SOL    HW124023   0.547   0.548   6.085 -1.1325 -1.3259  3.4758
 4187SOL    HW224024   0.561   0.408   6.027  0.0201  0.4822 -1.4482
 4188SOL     OW24025   3.253   4.350   1.345 -0.5370 -0.1654 -0.2336
 4188SOL    HW124026   3.213   4.267   1.371 -1.5352  0.5276  0.4209
 4188SOL    HW224027   3.271   4.343   1.251 -2.5293  0.6506 -0.6659
 4189SOL     OW24028   2.265   2.095   2.175 -0.0019 -0.1952 -0.2798
 4189SOL    HW124029   2.244   2.010   2.214 -0.8973 -1.0919 -2.7000
 4189SOL    HW224030   2.199   2.148   2.220  0.5250 -0.5141  0.8699
 4190SOL     OW24031   4.076   3.088   8.962  0.5165  0.0629 -0.3207
 4190SOL    HW124032   4.099   3.011   9.015 -1.4757  0.6011  1.3482
 4190SOL    HW224033   4.160   3.110   8.923 -0.5044  1.7729 -1.5217
 4191SOL     OW24034   4.570   0.203   4.690  0.3231 -0.1234  0.5968
 4191SOL    HW124035   4.553   0.167   4.777 -3.2430  0.4042  0.1438
 4191SOL    HW224036   4.484   0.244   4.681  0.0580 -0.6548  0.7194
 4192SOL     OW24037   1.597   1.217   5.515 -0.5992 -0.3717  0.1665
 4192SOL    HW124038   1.616   1.244   5.604  1.6129  1.1954 -0.7738
 4192SOL    HW224039   1.528   1.152   5.532 -0.0949 -1.4590 -1.9348
 4193SOL     OW24040   2.779   1.208   6.994 -0.1401  0.0128  0.7040
 4193SOL    HW124041   2.762   1.115   6.980  3.1868 -0.4223 -0.4503
 4193SOL    HW224042   2.816   1.202   7.082  2.7877  0.1017 -0.5132
 4194SOL     OW24043   3.100   3.308   3.139  0.2885 -0.3801 -0.3901
 4194SOL    HW124044   3.045   3.240   3.102  0.2298 -1.2545  1.3306
 4194SOL    HW224045   3.044   3.323   3.216  0.6089  0.4199 -0.3079
 4195SOL     OW24046   3.885   4.678   4.664 -0.3954 -0.5265 -0.0764
 4195SOL    HW124047   3.819   4.628   4.711  0.2110 -0.1242  1.2192
 4195SOL    HW224048   3.873   4.655   4.572 -2.0566 -0.6695  0.1720
 4196SOL     OW24049   0.003   3.868  13.934  0.0178 -0.1325  0.0109
 4196SOL    HW124050   0.013   3.963  13.941  1.2901 -0.4030  1.8371
 4196SOL    HW224051   4.657   3.852  14.003 -2.6663  2.9885 -1.8530
 4197SOL     OW24052   0.705   4.395   5.193 -0.1563  0.2917  0.2578
 4197SOL    HW124053   0.763   4.471   5.190  1.3344 -0.9081 -1.1019
 4197SOL    HW224054   0.700   4.371   5.101  0.8306 -0.7019  0.4584
 4198SOL     OW24055   2.025   1.037  10.046 -0.4587 -0.1218  0.3206
 4198SOL    HW124056   2.042   0.945  10.025 -1.3451 -0.7696  2.3538
 4198SOL    HW224057   2.086   1.081   9.987 -0.8940 -0.6758 -0.5319
 4199SOL     OW24058   2.476   3.751   8.555  0.2383  0.2215 -0.0362
 4199SOL    HW124059   2.521   3.800   8.485 -0.5073 -1.0120 -1.3780
 4199SOL    HW224060   2.547   3.696   8.589  1.2256  1.3033 -0.3176
 4200SOL     OW24061   2.919   4.075   1.514 -0.2602 -0.6340  0.5114
 4200SOL    HW124062   2.899   4.009   1.449  1.3144 -0.0593 -0.5803
 4200SOL    HW224063   2.866   4.147   1.480  1.1592 -0.2984 -1.0042
 4201SOL     OW24064   0.061   0.804   1.017  0.1832 -0.3637  0.3667
 4201SOL    HW124065   0.027   0.891   0.999 -1.7931 -1.0062  1.0618
 4201SOL    HW224066   4.707   0.757   1.054  0.0676 -0.9134 -0.5496
 4202SOL     OW24067   3.477   4.129  15.521 -0.0472 -0.8352 -0.1170
 4202SOL    HW124068   3.416   4.202  15.508  1.5684  0.3892 -0.9149
 4202SOL    HW224069   3.478   4.118  15.616 -1.0375  1.6521  0.1788
 4203SOL     OW24070   3.662   0.292   4.857 -0.3170 -0.7590  0.2487
 4203SOL    HW124071   3.620   0.259   4.937 -2.2568 -1.3815 -1.0252
 4203SOL    HW224072   3.608   0.239   4.799  1.9731  0.6598 -3.1551
 4204SOL     OW24073   3.223   2.448   7.177  0.2717  0.0273 -0.9866
 4204SOL    HW124074   3.147   2.503   7.194 -1.0034 -1.5585 -1.6030
 4204SOL    HW224075   3.285   2.515   7.148  0.6807 -0.3434 -0.9854
 4205SOL     OW24076   4.001   3.295   7.636 -0.3785 -0.5597  0.5324
 4205SOL    HW124077   4.037   3.384   7.648 -1.9301  0.3179 -1.2941
 4205SOL    HW224078   3.934   3.317   7.571 -0.5134  1.7497  1.4312
 4206SOL     OW24079   3.374   0.626   6.297 -0.1417 -0.0993  0.4554
 4206SOL    HW124080   3.362   0.547   6.244  1.2640  1.0411 -1.6097
 4206SOL    HW224081   3.347   0.592   6.382 -0.9329  0.5676  0.4670
 4207SOL     OW24082   0.417   2.680  10.752  0.2748 -0.0449 -0.4506
 4207SOL    HW124083   0.438   2.610  10.814 -1.4623 -0.4587 -0.3160
 4207SOL    HW224084   0.359   2.628  10.696 -1.8395  0.9064  0.8476
 4208SOL     OW24085   4.359   0.700  14.044  0.3568  0.6753 -0.0071
 4208SOL    HW124086   4.364   0.670  13.953 -0.4464  1.0855 -0.1971
 4208SOL    HW224087   4.390   0.626  14.095  0.3059  0.8187  0.2316
 4209SOL     OW24088   4.208   1.897  17.045 -0.0644 -0.2599  0.4488
 4209SOL    HW124089   4.165   1.909  17.130  1.9318 -0.7140  1.5244
 4209SOL    HW224090   4.260   1.977  17.042 -0.5727  0.0354 -0.3673
 4210SOL     OW24091   0.605   2.720   2.202 -0.5188  0.6936 -0.5744
 4210SOL    HW124092   0.546   2.781   2.157  1.3457  2.7528 -0.2430
 4210SOL    HW224093   0.540   2.660   2.238  1.4536 -0.3432  1.2795
 4211SOL     OW24094   0.527   1.232   0.462  0.2783 -0.2029 -0.2402
 4211SOL    HW124095   0.539   1.286   0.384 -0.8686 -1.9828 -1.6519
 4211SOL    HW224096   0.449   1.183   0.435  1.4299 -1.3351 -1.4974
 4212SOL     OW24097   3.297   0.752   8.223 -0.9371  0.2099  0.0563
 4212SOL    HW124098   3.218   0.700   8.211  0.0449 -1.4738  0.7309
 4212SOL    HW224099   3.283   0.806   8.301 -0.0924  0.3695  0.0966
 4213SOL     OW24100   0.094   0.611   5.717  0.3506 -0.3265 -0.5273
 4213SOL    HW124101   0.177   0.576   5.752 -0.4056 -0.6622  0.9412
 4213SOL    HW224102   0.128   0.700   5.709 -1.7100  0.4017 -0.9241
 4214SOL     OW24103   0.802   4.114  10.529  0.0982  0.1216 -0.4028
 4214SOL    HW124104   0.822   4.107  10.622  2.4544  2.3967 -0.7403
 4214SOL    HW224105   0.823   4.204  10.505  2.0380 -0.5973 -1.3854
 4215SOL     OW24106   1.059   3.732   3.854  0.4701  0.6966  0.0815
 4215SOL    HW124107   1.139   3.712   3.901 -0.8656 -1.2954  1.5271
 4215SOL    HW224108   1.002   3.691   3.919  2.0786 -0.6255  0.6550
 4216SOL     OW24109   0.090   0.993  11.073  0.9338  0.0842 -0.9266
 4216SOL    HW124110   0.158   0.929  11.050  0.5780  0.0961 -1.9768
 4216SOL    HW224111   0.034   1.008  10.997 -3.2020 -2.3882  1.5557
 4217SOL     OW24112   0.944   3.815  10.280  0.1442  0.0785  0.1336
 4217SOL    HW124113   0.858   3.852  10.300 -0.0486 -0.3548  0.1117
 4217SOL    HW224114   0.915   3.727  10.254  3.3321 -2.1449  3.8886
 4218SOL     OW24115   3.371   4.377   1.096  0.0261 -0.3640  0.0157
 4218SOL    HW124116   3.438   4.393   1.030  0.8950  1.1678  1.2669
 4218SOL    HW224117   3.308   4.435   1.054 -1.8027 -1.7320  0.8689
 4219SOL     OW24118   2.324   1.281   8.214  0.2768  0.4666 -0.1325
 4219SOL    HW124119   2.383   1.355   8.200 -0.5181  1.1130 -0.0726
 4219SOL    HW224120   2.317   1.264   8.120  0.3214  2.3612 -0.4885
 4220SOL     OW24121   3.087   3.478   7.966  0.3912 -0.4763 -0.3221
 4220SOL    HW124122   3.138   3.407   7.926 -0.6804 -0.0743 -2.4311
 4220SOL    HW224123   3.128   3.554   7.925 -3.1376  1.7479  0.2382
 4221SOL     OW24124   4.481   1.122  13.557 -0.3610 -0.0781 -0.1927
 4221SOL    HW124125   4.454   1.084  13.640 -0.0505  2.3286  1.0024
 4221SOL    HW224126   4.514   1.206  13.587 -3.6836  0.9198  0.5880
 4222SOL     OW24127   0.517   0.833   0.798  0.4691 -0.4917 -0.1880
 4222SOL    HW124128   0.485   0.908   0.749  0.5699 -0.9715 -0.9824
 4222SOL    HW224129   0.524   0.870   0.886 -0.8621  0.4922 -0.4891
 4223SOL     OW24130   4.530   0.855   8.066  0.0550 -0.4082 -0.3015
 4223SOL    HW124131   4.480   0.793   8.013 -0.1893 -1.4802  1.1933
 4223SOL    HW224132   4.511   0.816   8.151  0.3734 -1.4797 -0.7245
 4224SOL     OW24133   2.513   1.462   1.374  0.1652  0.1012 -0.2911
 4224SOL    HW124134   2.489   1.550   1.344 -0.6009 -1.4744 -4.3622
 4224SOL    HW224135   2.586   1.487   1.431  0.3313  1.2275 -0.9921
 4225SOL     OW24136   0.703   1.059   5.834 -0.0491  0.1099 -0.6554
 4225SOL    HW124137   0.759   0.981   5.825  0.1856  0.1995  0.0135
 4225SOL    HW224138   0.622   1.019   5.866  0.0547  0.7971  0.4444
 4226SOL     OW24139   1.617   2.674  12.688  0.2450  0.5231  0.3142
 4226SOL    HW124140   1.622   2.642  12.778  2.3024 -0.6032 -0.1854
 4226SOL    HW224141   1.524   2.689  12.674  1.1307  3.5095 -2.4646
 4227SOL     OW24142   0.874   2.121   6.513  0.8074 -0.1502 -0.3058
 4227SOL    HW124143   0.903   2.042   6.558  2.2445  0.5693  0.0442
 4227SOL    HW224144   0.781   2.107   6.531  0.8059  0.0604 -0.1550
 4228SOL     OW24145   1.009   2.429   9.476 -0.0097 -0.0897 -0.8654
 4228SOL    HW124146   1.042   2.355   9.527  1.6598  2.4161  1.7358
 4228SOL    HW224147   1.086   2.447   9.421 -0.5700 -0.6038 -1.8218
 4229SOL     OW24148   2.062   3.347   2.099  0.2550 -0.1520 -0.1296
 4229SOL    HW124149   2.146   3.316   2.065  0.6984  3.0558 -1.9574
 4229SOL    HW224150   2.011   3.367   2.021  1.8502 -0.3546 -1.2214
 4230SOL     OW24151   3.662   3.213  11.912  0.0429 -0.0514  0.3958
 4230SOL    HW124152   3.693   3.173  11.993 -0.3748  0.0714  0.6164
 4230SOL    HW224153   3.626   3.294  11.947  2.5145  1.0298  0.4164
 4231SOL     OW24154   0.763   0.722   7.742 -0.3687 -0.7637 -0.4941
 4231SOL    HW124155   0.787   0.630   7.756  0.8504 -0.3893 -0.1227
 4231SOL    HW224156   0.757   0.726   7.647  0.4661 -0.5119 -0.5349
 4232SOL     OW24157   2.463   2.218   5.651 -0.0968 -0.1219 -0.2263
 4232SOL    HW124158   2.488   2.158   5.582  0.4740  0.3353 -0.4211
 4232SOL    HW224159   2.370   2.198   5.652 -0.3437  0.9730 -1.1286
 4233SOL     OW24160   4.144   3.516   7.105  0.2257 -0.3375 -0.5048
 4233SOL    HW124161   4.109   3.477   7.025  1.1979 -0.5870 -0.8093
 4233SOL    HW224162   4.236   3.513   7.080  0.1860  0.5740 -0.7397
 4234SOL     OW24163   2.766   2.224   2.898 -0.2900  0.2276 -0.4955
 4234SOL    HW124164   2.695   2.273   2.856 -1.2606 -0.3308  0.5134
 4234SOL    HW224165   2.766   2.245   2.991  1.2687  1.6793 -0.7972
 4235SOL     OW24166   0.814   1.340   1.352  0.1564 -0.0886  0.1488
 4235SOL    HW124167   0.810   1.433   1.331  0.0308  0.1891  1.3848
 4235SOL    HW224168   0.862   1.303   1.278 -0.6228  1.0947 -0.9586
 4236SOL     OW24169   4.091   4.116   0.038  0.4246 -0.0624 -0.2206
 4236SOL    HW124170   4.065   4.048   0.099  0.8609 -0.1231 -0.0995
 4236SOL    HW224171   4.182   4.125   0.067  0.5097  0.5001 -0.6644
 4237SOL     OW24172   3.325   3.729   8.321 -0.2354 -0.5078 -0.0856
 4237SOL    HW124173   3.400   3.788   8.322 -0.1805 -0.5694 -0.5754
 4237SOL    HW224174   3.370   3.661   8.271  1.9215  0.1815  0.9307
 4238SOL     OW24175   0.126   2.893   4.973  0.3182  0.3930 -0.3025
 4238SOL    HW124176   0.157   2.952   5.042 -0.3537  2.4971 -1.8085
 4238SOL    HW224177   0.040   2.929   4.954  0.9771  1.5254 -1.0949
 4239SOL     OW24178   2.673   1.393   2.739  0.3610 -0.2430 -0.3321
 4239SOL    HW124179   2.734   1.325   2.711  0.5538  0.4880 -1.6751
 4239SOL    HW224180   2.728   1.471   2.745 -0.4791  0.3102  0.1447
 4240SOL     OW24181   4.363   0.992  16.957 -0.2762 -0.0499 -0.5995
 4240SOL    HW124182   4.345   0.969  17.048  2.6944 -2.0173 -0.4851
 4240SOL    HW224183   4.443   1.045  16.963  0.0257 -0.3019 -2.3500
 4241SOL     OW24184   2.859   0.471  10.323  0.1271  0.5055  0.3960
 4241SOL    HW124185   2.885   0.522  10.399 -0.0401  0.7015  0.3221
 4241SOL    HW224186   2.947   0.449  10.294  0.4121  1.0123  0.8945
 4242SOL     OW24187   0.531   0.256   8.124 -0.2676 -0.2965  0.0417
 4242SOL    HW124188   0.519   0.202   8.046  0.7908  1.4521 -1.3272
 4242SOL    HW224189   0.525   0.345   8.089 -0.0812  0.4744  1.9862
 4243SOL     OW24190   1.682   1.225   2.482  0.2491 -0.2495  0.5844
 4243SOL    HW124191   1.761   1.174   2.467 -0.9442 -1.2255 -2.3310
 4243SOL    HW224192   1.680   1.279   2.403  0.1550 -0.0904  0.6945
 4244SOL     OW24193   3.847   4.505   0.792 -0.0105  0.2265 -0.3083
 4244SOL    HW124194   3.930   4.495   0.838  0.0911  0.8249 -0.3592
 4244SOL    HW224195   3.849   4.583   0.737  0.9103  0.9682  0.7916
 4245SOL     OW24196   2.783   2.346  16.124  0.2209  0.0226 -0.5725
 4245SOL    HW124197   2.791   2.436  16.091 -2.8590 -0.2849 -2.1474
 4245SOL    HW224198   2.836   2.302  16.058  1.8314  4.1797 -2.0959
 4246SOL     OW24199   4.604   4.258   8.748 -0.1882 -0.4094  0.4715
 4246SOL    HW124200   4.515   4.243   8.782  0.4726 -1.9926  1.4763
 4246SOL    HW224201   4.656   4.200   8.802  1.4010 -0.0347 -0.6654
 4247SOL     OW24202   2.434   1.012   0.439  0.6079  0.2393 -0.0411
 4247SOL    HW124203   2.500   0.963   0.390  0.1146  1.5509 -2.0263
 4247SOL    HW224204   2.360   0.961   0.407 -0.1908 -0.5292  3.1271
 4248SOL     OW24205   4.091   4.477   3.477 -0.6104  0.0863  0.6556
 4248SOL    HW124206   3.999   4.471   3.452 -0.0850 -0.4218 -1.1562
 4248SOL    HW224207   4.147   4.447   3.405 -1.1367  0.3239  0.1416
 4249SOL     OW24208   0.243   2.044   1.195  0.0240 -0.3984 -0.0041
 4249SOL    HW124209   0.203   2.092   1.122  1.5907  0.3407 -0.3756
 4249SOL    HW224210   0.285   2.122   1.232  0.1912  0.1529 -1.3546
 4250SOL     OW24211   2.216   2.466  14.727 -0.3098 -0.0046 -0.4642
 4250SOL    HW124212   2.230   2.557  14.701 -1.0395  0.0236 -0.7526
 4250SOL    HW224213   2.139   2.471  14.783  0.5816  0.7563  0.7015
 4251SOL     OW24214   3.160   3.317   7.392 -0.0397  0.2630 -0.1787
 4251SOL    HW124215   3.163   3.223   7.373  2.4511  0.0760  1.2600
 4251SOL    HW224216   3.212   3.333   7.471 -2.8571 -3.0385  2.3605
 4252SOL     OW24217   1.582   4.574   5.103 -0.9349  0.0326 -0.1500
 4252SOL    HW124218   1.583   4.494   5.155  1.6134  2.1202  3.0664
 4252SOL    HW224219   1.586   4.544   5.013  1.5910  0.8208 -0.2997
 4253SOL     OW24220   0.061   4.644   7.883  0.0165 -0.5634  0.1152
 4253SOL    HW124221   4.716   4.677   7.822  0.5227 -0.7751 -0.5490
 4253SOL    HW224222   0.007   4.576   7.924  0.9292 -0.5357  1.3714
 4254SOL     OW24223   2.454   4.410   1.511 -0.2305 -0.3141 -0.1139
 4254SOL    HW124224   2.374   4.444   1.550 -1.2566 -3.2338  0.3168
 4254SOL    HW224225   2.422   4.331   1.467  1.0396 -0.0459 -1.5323
 4255SOL     OW24226   3.107   3.836   2.443  0.1657  0.0703  0.4281
 4255SOL    HW124227   3.057   3.815   2.364  2.0049  0.8199 -0.9311
 4255SOL    HW224228   3.181   3.889   2.413  0.0151  0.4665  0.7641
 4256SOL     OW24229   2.199   4.605   3.130  0.1852  0.0978  0.0469
 4256SOL    HW124230   2.294   4.590   3.134  0.2693  0.8710  0.9629
 4256SOL    HW224231   2.182   4.575   3.040 -1.5045  2.0890 -0.2956
 4257SOL     OW24232   3.833   3.554   7.067 -0.0278  0.1877 -0.7231
 4257SOL    HW124233   3.756   3.586   7.019 -1.2828 -1.1822  0.3411
 4257SOL    HW224234   3.843   3.462   7.041 -0.5196  0.1433 -0.7697
 4258SOL     OW24235   1.615   3.194   8.651  0.1036 -0.0464 -0.1182
 4258SOL    HW124236   1.582   3.235   8.571 -2.2902 -1.7683  0.0115
 4258SOL    HW224237   1.533   3.151   8.673 -0.0029 -1.2769 -2.8503
 4259SOL     OW24238   2.778   2.768  16.525  0.0950  0.2805  0.5971
 4259SOL    HW124239   2.822   2.792  16.443 -2.5101 -0.4583 -1.0205
 4259SOL    HW224240   2.726   2.692  16.500  1.0818 -0.4036  0.6222
 4260SOL     OW24241   0.924   0.293   3.079  0.1484  0.0183 -0.0736
 4260SOL    HW124242   0.974   0.374   3.090 -1.5819  0.9065  1.3495
 4260SOL    HW224243   0.981   0.259   3.010  0.1794  0.0682 -0.0731
 4261SOL     OW24244   3.834   4.686   2.400  0.6630  0.2101  0.0087
 4261SOL    HW124245   3.829   0.049   2.447 -0.6263  1.2699 -2.0353
 4261SOL    HW224246   3.870   4.706   2.313 -1.2858  0.3907 -0.7377
 4262SOL     OW24247   0.475   1.822   1.872 -0.7513  0.1972  0.4655
 4262SOL    HW124248   0.523   1.755   1.920 -0.8661  0.5963  1.1387
 4262SOL    HW224249   0.465   1.783   1.785  0.1472 -0.1627  0.5316
 4263SOL     OW24250   2.908   2.629   8.341  0.3110  0.4376  0.1608
 4263SOL    HW124251   2.884   2.692   8.408  0.5597  0.6256  0.0733
 4263SOL    HW224252   2.955   2.580   8.409  0.0457  0.0841  0.0910
 4264SOL     OW24253   2.782   1.684   2.697  0.0689 -0.0515 -0.4946
 4264SOL    HW124254   2.795   1.624   2.624 -1.0311  0.6738 -1.2806
 4264SOL    HW224255   2.690   1.709   2.695 -0.5691 -2.3425  0.7124
 4265SOL     OW24256   2.661   1.575   7.585 -0.4089 -0.0108  0.1741
 4265SOL    HW124257   2.705   1.619   7.512 -2.0606 -0.7456 -1.2713
 4265SOL    HW224258   2.612   1.503   7.545  1.4833 -2.1422  1.7199
 4266SOL     OW24259   1.433   0.451   9.190 -0.2350  0.1702  0.1248
 4266SOL    HW124260   1.453   0.541   9.216 -3.7972  1.3997 -1.4843
 4266SOL    HW224261   1.522   0.418   9.173 -1.1459 -2.3973  0.3882
 4267SOL     OW24262   0.059   0.995   5.324 -0.4557  0.3445 -0.0484
 4267SOL    HW124263   0.012   1.072   5.358  1.7532  2.2989 -1.4968
 4267SOL    HW224264   0.085   1.021   5.236  1.6351  0.3276  0.5634
 4268SOL     OW24265   4.406   0.340   5.701  0.2777  0.3117 -0.6340
 4268SOL    HW124266   4.340   0.399   5.664  1.8745  2.1100 -0.6224
 4268SOL    HW224267   4.480   0.352   5.641  0.6507 -0.3553 -0.3010
 4269SOL     OW24268   2.127   1.461   2.074  0.0922  0.0997  0.8021
 4269SOL    HW124269   2.138   1.525   2.004 -1.7009  1.2916  1.5949
 4269SOL    HW224270   2.209   1.413   2.069 -0.6307 -1.1253  0.6051
 4270SOL     OW24271   1.540   0.994   6.926 -0.3023 -0.1307  0.1440
 4270SOL    HW124272   1.474   0.967   6.990  0.0320 -0.6071  0.2943
 4270SOL    HW224273   1.499   1.074   6.895  1.8890  0.5457 -1.0191
 4271SOL     OW24274   4.299   1.837   3.788  0.0983  0.4899 -0.1081
 4271SOL    HW124275   4.305   1.742   3.775  0.8693  0.6832 -1.1879
 4271SOL    HW224276   4.389   1.863   3.808  0.3940 -0.4365 -0.2295
 4272SOL     OW24277   4.629   2.709   4.205  0.6629  0.3204 -0.3143
 4272SOL    HW124278   4.576   2.687   4.129  0.3866  0.1600 -0.0772
 4272SOL    HW224279   4.707   2.659   4.182  1.0061  1.2141 -1.1056
 4273SOL     OW24280   4.230   4.313   3.288  0.7874  0.4488 -0.4077
 4273SOL    HW124281   4.326   4.316   3.293  0.9647 -2.9178 -1.3675
 4273SOL    HW224282   4.222   4.247   3.219 -0.3149 -1.3695  1.4897
 4274SOL     OW24283   0.971   3.359   8.067  0.3758 -0.2445  0.2724
 4274SOL    HW124284   0.937   3.293   8.127 -0.6067 -0.7704 -0.8523
 4274SOL    HW224285   1.046   3.391   8.117 -0.4033  2.3320 -0.2104
 4275SOL     OW24286   2.517   1.706  10.627  0.5087 -0.1668  0.1264
 4275SOL    HW124287   2.433   1.715  10.583  1.5464  2.3203 -1.3545
 4275SOL    HW224288   2.491   1.666  10.710  1.5327  0.7732  0.8951
 4276SOL     OW24289   4.480   1.572   6.583 -0.6186 -0.0778 -0.3428
 4276SOL    HW124290   4.437   1.564   6.498 -0.2340  0.9401 -0.6306
 4276SOL    HW224291   4.458   1.659   6.615 -0.2523  0.4147 -1.4536
 4277SOL     OW24292   4.377   0.599  11.867  0.0164 -0.4651 -0.1615
 4277SOL    HW124293   4.440   0.561  11.928  0.6911 -1.0147 -1.1928
 4277SOL    HW224294   4.400   0.559  11.783  1.7799 -0.4205  0.3058
 4278SOL     OW24295   2.786   4.499   7.695 -0.9721  0.8934  0.4705
 4278SOL    HW124296   2.747   4.421   7.735 -1.3363  0.0465 -1.5544
 4278SOL    HW224297   2.875   4.504   7.729 -0.6593  1.2021 -0.3912
 4279SOL     OW24298   3.265   3.512   3.819 -0.0738 -0.4487 -0.4162
 4279SOL    HW124299   3.258   3.598   3.862  1.0247 -1.2356  1.3517
 4279SOL    HW224300   3.342   3.528   3.765 -0.3429 -0.1675 -0.7141
 4280SOL     OW24301   2.523   1.245   6.679 -0.0516  0.0628 -0.1314
 4280SOL    HW124302   2.481   1.162   6.699 -0.6360  0.5635  0.7444
 4280SOL    HW224303   2.596   1.239   6.740 -0.5839 -0.3660  0.4734
 4281SOL     OW24304   0.005   2.886   1.072  0.0371 -0.2456  0.5186
 4281SOL    HW124305   0.075   2.898   1.007  0.5697 -0.1932  1.0986
 4281SOL    HW224306   0.055   2.847   1.144 -1.5413 -1.7867  0.7680
 4282SOL     OW24307   2.670   4.432   5.710  0.3307 -0.1219  0.3644
 4282SOL    HW124308   2.725   4.359   5.739  0.5920  0.1103  0.4617
 4282SOL    HW224309   2.624   4.456   5.791  0.0554 -1.0948  0.4911
 4283SOL     OW24310   2.736   1.652  12.587  0.3101  0.0383 -0.2229
 4283SOL    HW124311   2.831   1.654  12.600  0.3102  0.2363 -0.2539
 4283SOL    HW224312   2.737   1.669  12.493  0.2387 -0.4821 -0.3184
 4284SOL     OW24313   0.668   0.143  17.122 -0.4894  0.3060  0.7724
 4284SOL    HW124314   0.748   0.181  17.157  0.8209 -1.8543  0.0530
 4284SOL    HW224315   0.607   0.169  17.191 -1.8734  0.5710 -0.5498
 4285SOL     OW24316   1.551   2.745  14.504 -0.0766 -0.8478  0.0778
 4285SOL    HW124317   1.465   2.708  14.524  0.5186 -1.2658  1.9009
 4285SOL    HW224318   1.575   2.790  14.585  0.6126 -1.3123  0.1300
 4286SOL     OW24319   4.551   4.256   9.111 -0.2404 -0.4852 -0.0188
 4286SOL    HW124320   4.464   4.251   9.151 -0.0328  1.4604  0.6679
 4286SOL    HW224321   4.522   4.236   9.022 -1.0423 -1.8149  0.5432
 4287SOL     OW24322   0.634   1.256   7.749  0.4393  0.0448 -0.9830
 4287SOL    HW124323   0.603   1.272   7.838  3.9635 -1.5737  0.5242
 4287SOL    HW224324   0.614   1.339   7.706 -1.2871 -1.6092 -3.3718
 4288SOL     OW24325   4.116   0.489   9.330 -0.0940 -0.5540  0.4853
 4288SOL    HW124326   4.079   0.519   9.413 -0.6246 -0.9478  0.3961
 4288SOL    HW224327   4.165   0.410   9.352  0.1336 -0.9571 -1.4205
 4289SOL     OW24328   1.506   1.725   3.338  0.4957 -0.0564  0.0908
 4289SOL    HW124329   1.421   1.680   3.343  0.2846  0.6728  3.0913
 4289SOL    HW224330   1.477   1.808   3.300 -0.3592 -0.5496 -0.3402
 4290SOL     OW24331   4.370   2.920  12.760 -0.3855  0.3108 -0.3376
 4290SOL    HW124332   4.305   2.986  12.782  0.7944  1.7307 -1.0920
 4290SOL    HW224333   4.369   2.876  12.845 -2.9988 -0.9516 -1.0309
 4291SOL     OW24334   4.397   0.916   7.280  0.0970 -0.0710 -0.4453
 4291SOL    HW124335   4.468   0.936   7.219  0.2783 -1.2319 -0.6090
 4291SOL    HW224336   4.405   0.993   7.337  0.6005 -2.2881  2.5301
 4292SOL     OW24337   0.177   0.158   9.267 -0.1751  0.5782 -0.7116
 4292SOL    HW124338   0.184   0.196   9.355  0.8388 -1.9911  0.3069
 4292SOL    HW224339   0.084   0.170   9.248 -0.3729  2.5310  1.4129
 4293SOL     OW24340   2.229   4.485  11.224 -0.3648  0.3726  0.7321
 4293SOL    HW124341   2.289   4.442  11.284 -0.1064 -0.7708 -0.3300
 4293SOL    HW224342   2.147   4.499  11.271 -1.0786 -0.3311 -0.3004
 4294SOL     OW24343   2.446   1.104   7.187 -0.1550 -0.0290 -0.2410
 4294SOL    HW124344   2.468   1.026   7.137  0.9408  0.7347 -0.9521
 4294SOL    HW224345   2.395   1.065   7.258 -0.3705 -0.0793 -0.4247
 4295SOL     OW24346   1.642   0.044   6.425 -0.0615 -0.9427  0.5707
 4295SOL    HW124347   1.631   4.688   6.367  1.4956  0.1965 -1.1866
 4295SOL    HW224348   1.558   0.090   6.418 -0.0323 -1.1903 -1.2475
 4296SOL     OW24349   2.906   0.449   8.278  0.0410 -1.0410 -0.4583
 4296SOL    HW124350   2.965   0.386   8.236 -0.7989 -1.9001 -0.3577
 4296SOL    HW224351   2.951   0.443   8.363  0.9038  1.9759 -0.6937
 4297SOL     OW24352   4.362   0.388   1.366 -0.2277 -0.2627  0.0293
 4297SOL    HW124353   4.311   0.396   1.286 -2.5797  1.4850  1.6919
 4297SOL    HW224354   4.316   0.318   1.413 -0.2865 -0.7103 -0.6899
 4298SOL     OW24355   2.780   4.692   2.468  0.0910 -0.0084  0.1988
 4298SOL    HW124356   2.798   4.603   2.498 -2.8279 -1.0574 -1.1203
 4298SOL    HW224357   2.795   4.682   2.374 -2.0337 -0.2883 -0.1235
 4299SOL     OW24358   1.028   4.343   2.633 -0.4299  0.0381 -0.2828
 4299SOL    HW124359   1.046   4.364   2.725 -1.5134 -0.1463 -0.0230
 4299SOL    HW224360   1.048   4.424   2.585  0.7027 -0.0200  0.1058
 4300SOL     OW24361   3.178   0.701  11.070  0.4059  0.3168  0.2951
 4300SOL    HW124362   3.242   0.693  11.141 -0.0134 -2.8460  0.3068
 4300SOL    HW224363   3.215   0.763  11.007 -0.0247  1.6797  1.3733
 4301SOL     OW24364   3.029   1.744   6.172  0.4582 -0.2490 -0.1880
 4301SOL    HW124365   2.982   1.703   6.099  1.1485  0.0303 -0.7828
 4301SOL    HW224366   3.020   1.672   6.235  0.1939  1.8003  2.1343
 4302SOL     OW24367   1.520   1.539   0.745  0.3802  0.0343 -0.5930
 4302SOL    HW124368   1.497   1.538   0.838  1.1293 -0.1619 -0.4171
 4302SOL    HW224369   1.430   1.541   0.710  0.8699  2.7274 -1.7299
 4303SOL     OW24370   4.570   1.529  10.915  0.4445 -0.0988  0.5675
 4303SOL    HW124371   4.485   1.569  10.899  0.2004 -1.0432 -0.5168
 4303SOL    HW224372   4.550   1.501  11.004 -0.8392 -0.7372  0.0772
 4304SOL     OW24373   3.981   0.443   7.217 -0.0293  0.0737  0.5078
 4304SOL    HW124374   3.911   0.470   7.276 -0.6519 -0.6819  0.1173
 4304SOL    HW224375   3.969   0.348   7.222  0.6493 -0.0476 -0.1803
 4305SOL     OW24376   2.850   2.915   2.802 -0.1045  0.0071 -0.1303
 4305SOL    HW124377   2.888   3.002   2.811  0.1040 -0.0949 -0.0162
 4305SOL    HW224378   2.758   2.939   2.792 -0.5209 -0.4996  2.3812
 4306SOL     OW24379   4.018   2.463  13.095  0.2406  0.1170  0.2511
 4306SOL    HW124380   4.008   2.458  13.000 -0.8376 -1.4416  0.4469
 4306SOL    HW224381   4.081   2.534  13.109 -0.8246  1.3661 -1.3345
 4307SOL     OW24382   2.764   0.638  15.218 -0.1331 -0.2661  0.4194
 4307SOL    HW124383   2.829   0.640  15.148 -1.2113 -0.6676 -0.5953
 4307SOL    HW224384   2.744   0.731  15.218 -1.4543 -0.5669 -1.5768
 4308SOL     OW24385   3.002   4.557   3.396  0.1054 -0.9320 -0.2807
 4308SOL    HW124386   3.047   4.624   3.345  0.1458 -1.8767 -1.4729
 4308SOL    HW224387   3.079   4.519   3.439  0.3544  1.1337  1.1388
 4309SOL     OW24388   1.415   3.209   3.807 -0.0871 -0.0801  0.1128
 4309SOL    HW124389   1.431   3.126   3.850 -1.3350  2.1102  4.7930
 4309SOL    HW224390   1.386   3.277   3.869  1.5783 -1.2463  2.1499
 4310SOL     OW24391   0.084   2.724   6.040 -0.6607 -0.5790  0.5814
 4310SOL    HW124392   0.142   2.713   5.964 -3.2102 -2.0109 -1.1692
 4310SOL    HW224393   0.020   2.656   6.021 -2.1064 -0.2518  4.4992
 4311SOL     OW24394   3.958   3.723   3.044  0.1027  0.1705 -0.0635
 4311SOL    HW124395   3.977   3.639   3.086  0.5036 -0.6224 -1.8231
 4311SOL    HW224396   3.884   3.701   2.987  0.9363  3.0868 -2.2801
 4312SOL     OW24397   4.343   0.028  13.683 -0.1494 -0.3206 -0.6815
 4312SOL    HW124398   4.271   4.708  13.731 -2.0346  4.6918  0.7070
 4312SOL    HW224399   4.410   0.009  13.748 -0.9930  1.8136  0.8082
 4313SOL     OW24400   2.660   1.781   8.123 -0.1557 -0.2469 -0.7549
 4313SOL    HW124401   2.750   1.784   8.155 -1.2212  0.2100  2.2155
 4313SOL    HW224402   2.676   1.806   8.033  1.8759  1.0362 -0.0347
 4314SOL     OW24403   3.214   4.404   1.919  0.4468  0.9139 -0.0143
 4314SOL    HW124404   3.222   4.495   1.948  2.3569  0.6012  0.4556
 4314SOL    HW224405   3.123   4.408   1.890  1.1181 -2.1248 -2.4919
 4315SOL     OW24406   1.939   1.325   3.043  0.0807  0.1742  0.1617
 4315SOL    HW124407   1.844   1.314   3.040  0.3617 -2.2044  0.2453
 4315SOL    HW224408   1.944   1.418   3.065  0.5907  0.5057 -1.3438
 4316SOL     OW24409   3.243   2.437   2.205  0.1677  0.7441 -0.1480
 4316SOL    HW124410   3.224   2.526   2.178 -0.1028  0.4570 -0.9163
 4316SOL    HW224411   3.255   2.447   2.300  0.3317  0.4358 -0.1344
 4317SOL     OW24412   2.372   3.409   7.575  0.1858  0.3422  0.0533
 4317SOL    HW124413   2.427   3.363   7.638 -0.9200 -1.2766 -0.1928
 4317SOL    HW224414   2.287   3.422   7.617  0.2476 -0.1055  0.3125
 4318SOL     OW24415   0.060   4.192   2.324 -0.1618 -0.0943  0.1472
 4318SOL    HW124416   0.046   4.263   2.261 -0.5027  0.3985  0.7840
 4318SOL    HW224417   0.125   4.133   2.285 -0.3522 -1.1161  1.3592
 4319SOL     OW24418   3.034   1.346   5.079  0.5882 -0.5645 -0.2725
 4319SOL    HW124419   3.112   1.383   5.038  1.0731 -1.6644 -0.3513
 4319SOL    HW224420   2.981   1.320   5.004 -4.1863  1.9092  2.2090
 4320SOL     OW24421   0.983   3.914   9.983  0.5302 -0.1594  0.3044
 4320SOL    HW124422   0.993   3.819   9.990  0.7991 -0.0559  1.3633
 4320SOL    HW224423   0.888   3.923   9.973  0.7945  2.2150 -0.0657
 4321SOL     OW24424   2.101   2.484  16.587  0.3826  0.3467  0.0985
 4321SOL    HW124425   2.181   2.470  16.638  0.4481  0.0275 -0.0911
 4321SOL    HW224426   2.042   2.415  16.617  0.7951 -0.3757 -0.7464
 4322SOL     OW24427   0.402   4.200   5.371 -0.4528  0.2815  0.5506
 4322SOL    HW124428   0.328   4.228   5.316 -0.7303  1.4528  1.5190
 4322SOL    HW224429   0.468   4.269   5.365  0.7604 -0.8659  0.7791
 4323SOL     OW24430   1.641   2.580   4.399 -0.6411  0.6625 -0.0090
 4323SOL    HW124431   1.591   2.662   4.396  0.8117  1.6305  2.2994
 4323SOL    HW224432   1.570   2.516   4.385 -1.1678  0.7787  2.1358
 4324SOL     OW24433   3.040   1.983   8.461 -0.1485 -0.0666  0.1670
 4324SOL    HW124434   2.962   2.010   8.510 -1.2605 -0.7203 -1.2447
 4324SOL    HW224435   3.098   1.967   8.535 -0.9232  0.3681  0.8715
 4325SOL     OW24436   0.059   1.370   6.453  0.2918  0.0905 -0.0700
 4325SOL    HW124437   0.039   1.285   6.415  1.9492  0.1359 -1.0765
 4325SOL    HW224438   0.028   1.430   6.385  1.3658 -0.1746 -0.8058
 4326SOL     OW24439   2.295   0.707  14.701 -0.5915  0.6882 -0.1194
 4326SOL    HW124440   2.355   0.634  14.690 -1.5110 -0.0272 -0.3704
 4326SOL    HW224441   2.275   0.714  14.794  0.9422 -1.7082  0.3926
 4327SOL     OW24442   1.647   2.054  16.308  0.1032  0.0587 -0.5453
 4327SOL    HW124443   1.660   1.960  16.301  0.6043  0.2001 -1.4443
 4327SOL    HW224444   1.731   2.093  16.285 -0.1935  1.1816  0.2706
 4328SOL     OW24445   2.040   3.982  13.452 -0.1090  1.0358  0.6881
 4328SOL    HW124446   1.966   3.924  13.469  0.0450  0.2210 -1.3769
 4328SOL    HW224447   2.038   3.986  13.356  0.5592 -1.5245  0.5650
 4329SOL     OW24448   2.137   1.080  10.697 -0.2013  0.7181  0.0934
 4329SOL    HW124449   2.171   0.992  10.679 -2.1302  0.0442 -0.2897
 4329SOL    HW224450   2.162   1.087  10.789  2.0442  0.4253 -0.4801
 4330SOL     OW24451   1.658   0.734  13.581  0.0789 -0.2374  0.1278
 4330SOL    HW124452   1.705   0.714  13.662  0.9140  1.3692  0.0320
 4330SOL    HW224453   1.716   0.760  13.509  0.6410 -0.5583  0.4701
 4331SOL     OW24454   0.957   3.149   1.322 -0.3893  0.2347 -0.0745
 4331SOL    HW124455   0.977   3.061   1.291  2.3068  0.7285  0.2190
 4331SOL    HW224456   0.914   3.128   1.405 -0.4268  3.8381  0.8269
 4332SOL     OW24457   4.625   3.363   6.980 -0.3520  0.2255  0.5161
 4332SOL    HW124458   4.573   3.443   6.989  1.4962  1.3534  0.9678
 4332SOL    HW224459   4.687   3.394   6.913 -0.4674  0.0267  0.3171
 4333SOL     OW24460   0.871   4.686   8.073 -0.0918 -0.4990 -0.3561
 4333SOL    HW124461   0.850   0.055   8.046  1.9330  0.3882  0.9457
 4333SOL    HW224462   0.902   4.638   7.996  1.4233  1.7287 -1.1350
 4334SOL     OW24463   2.608   0.093   7.107 -0.3088  0.4475 -0.1378
 4334SOL    HW124464   2.634   0.003   7.084 -0.3748  0.5349 -0.5442
 4334SOL    HW224465   2.595   0.085   7.202 -1.3649  1.0223 -0.2450
 4335SOL     OW24466   0.705   0.939   2.271 -0.0562 -0.5610 -0.0459
 4335SOL    HW124467   0.757   1.001   2.221 -0.9407  0.0591 -0.1901
 4335SOL    HW224468   0.630   0.993   2.297 -1.2962 -3.0174  1.5145
 4336SOL     OW24469   1.343   3.278   5.609  0.2997 -0.8211 -0.5789
 4336SOL    HW124470   1.252   3.292   5.581  0.5315  1.7804  0.0271
 4336SOL    HW224471   1.397   3.318   5.542  0.2689 -0.1364 -0.1947
 4337SOL     OW24472   2.416   0.856   2.546  0.4785 -0.1402 -0.4802
 4337SOL    HW124473   2.338   0.808   2.518  1.4418 -1.3108 -1.1344
 4337SOL    HW224474   2.407   0.934   2.492  0.1685 -0.2009 -0.5191
 4338SOL     OW24475   0.449   1.428   0.104 -0.1712 -0.2994  0.2190
 4338SOL    HW124476   0.518   1.412   0.168 -0.2686 -0.0063  0.3988
 4338SOL    HW224477   0.397   1.494   0.150 -0.1695  1.6397 -2.5103
 4339SOL     OW24478   0.465   3.722   9.658  0.1545  0.5218 -0.3237
 4339SOL    HW124479   0.493   3.753   9.744  0.0128 -0.9546  0.2485
 4339SOL    HW224480   0.402   3.792   9.640  0.1988  0.7961  0.6103
 4340SOL     OW24481   0.113   4.005   3.053 -0.2816  0.6496  0.3203
 4340SOL    HW124482   0.105   4.094   3.019 -2.0945  0.6171  0.6740
 4340SOL    HW224483   0.134   3.948   2.978 -0.5959  3.2428 -1.7406
 4341SOL     OW24484   1.230   2.239   8.151  0.0610  0.2648 -0.6390
 4341SOL    HW124485   1.298   2.238   8.218  1.1271 -0.0298 -1.7313
 4341SOL    HW224486   1.163   2.296   8.190 -2.0902 -3.2662  0.8056
 4342SOL     OW24487   4.354   1.102   5.430 -0.0783 -0.0273 -0.0388
 4342SOL    HW124488   4.264   1.069   5.420  0.9885 -2.5371 -1.2534
 4342SOL    HW224489   4.340   1.186   5.473  0.3728  0.2209 -0.3784
 4343SOL     OW24490   3.846   4.050   3.848  0.0755  0.4619  0.1709
 4343SOL    HW124491   3.903   3.995   3.795  0.4404  0.8121  0.1941
 4343SOL    HW224492   3.767   3.996   3.856  0.1998 -0.0196 -1.8845
 4344SOL     OW24493   3.575   3.035  14.430 -0.4275  0.0434  0.3740
 4344SOL    HW124494   3.537   2.959  14.385  0.5356  0.2469 -0.8020
 4344SOL    HW224495   3.664   3.039  14.395 -1.3970 -1.2599 -2.2973
 4345SOL     OW24496   2.406   0.434  15.749  0.2493  0.4411 -0.4358
 4345SOL    HW124497   2.450   0.477  15.822 -1.0982 -1.4610  1.4759
 4345SOL    HW224498   2.483   0.427  15.692  1.0520 -0.4414  0.7671
 4346SOL     OW24499   3.061   4.709   7.687 -0.3283  0.0145 -0.4847
 4346SOL    HW124500   3.050   4.617   7.710  2.5556  0.3184  1.9767
 4346SOL    HW224501   3.138   4.703   7.631  1.3060  0.2715  1.7534
 4347SOL     OW24502   4.566   1.698  13.311  0.0140 -0.2011 -0.2538
 4347SOL    HW124503   4.648   1.649  13.320  0.0739 -0.0673 -0.0427
 4347SOL    HW224504   4.609   1.765  13.257 -0.4116  0.0978 -0.2196
 4348SOL     OW24505   0.133   0.675   4.512 -0.2932 -0.4384  0.1172
 4348SOL    HW124506   0.058   0.647   4.564 -1.6113  2.0533 -0.4133
 4348SOL    HW224507   0.156   0.603   4.454  0.7334 -0.1119  0.1004
 4349SOL     OW24508   2.110   4.083   5.331  0.1056  0.4490  0.0764
 4349SOL    HW124509   2.033   4.101   5.277  1.7608  3.5687 -1.2525
 4349SOL    HW224510   2.153   4.166   5.311  0.1432  0.1309 -1.1373
 4350SOL     OW24511   3.597   0.873   5.196 -0.4354 -0.4055  0.4277
 4350SOL    HW124512   3.508   0.864   5.228 -0.3972  2.1703  1.2892
 4350SOL    HW224513   3.639   0.795   5.231 -0.6782 -1.6204 -1.9818
 4351SOL     OW24514   3.100   1.137  15.108 -0.0638  0.4865  0.2550
 4351SOL    HW124515   3.074   1.196  15.037 -1.4023 -0.7943 -0.3065
 4351SOL    HW224516   3.073   1.046  15.098 -0.2709  0.2324  3.0723
 4352SOL     OW24517   2.140   3.425  10.509  0.0452  0.2090  1.0060
 4352SOL    HW124518   2.230   3.451  10.489 -0.0246  1.2690  2.0424
 4352SOL    HW224519   2.085   3.495  10.474  1.3062 -0.1789 -1.7353
 4353SOL     OW24520   2.692   0.327   0.130 -0.0242 -0.2547 -0.4713
 4353SOL    HW124521   2.737   0.331   0.045 -2.6488 -3.7035 -2.0098
 4353SOL    HW224522   2.732   0.403   0.174 -0.3947  0.7486 -1.8602
 4354SOL     OW24523   2.087   3.908   5.094  0.4275  0.1123 -0.2430
 4354SOL    HW124524   1.996   3.936   5.090 -0.0404 -1.1746  1.4499
 4354SOL    HW224525   2.117   3.973   5.157 -1.3529  0.0667  0.6379
 4355SOL     OW24526   2.630   3.666   5.415 -0.9168 -0.2439 -0.3034
 4355SOL    HW124527   2.633   3.750   5.461  0.7982 -0.7969  0.5924
 4355SOL    HW224528   2.687   3.693   5.343 -0.0887  2.2908  1.2770
 4356SOL     OW24529   2.426   1.515   5.426 -0.0452 -0.2225  0.6120
 4356SOL    HW124530   2.460   1.547   5.510  0.9183  0.8679 -0.1727
 4356SOL    HW224531   2.461   1.427   5.415  0.1724 -0.0631 -0.0215
 4357SOL     OW24532   2.431   1.615   4.996  0.8045  0.1983 -0.0157
 4357SOL    HW124533   2.472   1.545   5.047 -0.6522 -0.8984 -0.3609
 4357SOL    HW224534   2.357   1.630   5.054  0.8616  2.1775 -0.4513
 4358SOL     OW24535   4.313   0.245   4.590  0.2967  0.0834  0.0035
 4358SOL    HW124536   4.251   0.191   4.541  0.4921 -1.5416  1.5087
 4358SOL    HW224537   4.300   0.335   4.563  1.5997  0.0764 -0.6660
 4359SOL     OW24538   1.877   3.126   3.839  0.3196 -0.2862 -0.4402
 4359SOL    HW124539   1.807   3.073   3.803  0.9666 -0.4902 -1.3724
 4359SOL    HW224540   1.958   3.090   3.802 -1.4689 -2.6024 -2.0449
 4360SOL     OW24541   1.869   3.374  12.395 -0.4962  0.6613  0.2374
 4360SOL    HW124542   1.862   3.283  12.424  1.6993  0.4548  0.1509
 4360SOL    HW224543   1.876   3.382  12.300 -1.7245  0.4335  0.1221
 4361SOL     OW24544   2.200   3.073   2.341 -0.1172  0.4903  0.3296
 4361SOL    HW124545   2.114   3.035   2.321  0.2891 -0.4671  0.4194
 4361SOL    HW224546   2.196   3.095   2.434 -1.6535 -0.9160  0.5979
 4362SOL     OW24547   4.090   4.629   5.714 -0.2651  0.0920 -0.0633
 4362SOL    HW124548   4.163   4.688   5.735 -0.5062  0.5650 -0.5707
 4362SOL    HW224549   4.019   4.687   5.686 -0.4669 -0.7787 -1.3112
 4363SOL     OW24550   1.482   2.292  14.173 -0.1320 -0.3695 -0.4825
 4363SOL    HW124551   1.555   2.241  14.208 -1.1556 -0.0026  2.1460
 4363SOL    HW224552   1.422   2.221  14.150 -1.3323  0.1363  1.1280
 4364SOL     OW24553   4.546   1.315   2.593 -0.4391  0.0834 -0.1087
 4364SOL    HW124554   4.464   1.362   2.607  0.2029  1.6603 -1.6860
 4364SOL    HW224555   4.509   1.236   2.553 -0.5459 -0.5192  1.1681
 4365SOL     OW24556   3.068   1.051   0.713 -0.0632  0.0646  0.0176
 4365SOL    HW124557   3.013   1.074   0.788 -0.5975 -1.6194  0.1595
 4365SOL    HW224558   3.108   0.966   0.735  0.0999 -0.2647 -1.5968
 4366SOL     OW24559   0.551   4.069   5.726  0.0693  0.1054  0.5197
 4366SOL    HW124560   0.617   4.065   5.795  0.8242  0.9063 -0.1541
 4366SOL    HW224561   0.576   4.005   5.660  0.5394 -0.5440  1.3280
 4367SOL     OW24562   0.986   1.169   9.139  0.3618 -0.1857 -0.1055
 4367SOL    HW124563   1.074   1.197   9.115  0.1063  1.5794  1.0110
 4367SOL    HW224564   0.976   1.210   9.225  0.3841  0.4048 -0.3873
 4368SOL     OW24565   3.262   0.435  11.830  0.0021 -0.2307  0.4483
 4368SOL    HW124566   3.244   0.508  11.889 -1.3336  0.2056 -0.4945
 4368SOL    HW224567   3.254   0.468  11.740 -0.5479 -0.1683  0.5191
 4369SOL     OW24568   1.950   0.340   9.057  0.1980 -0.0645 -0.0027
 4369SOL    HW124569   2.007   0.401   9.102 -0.4415  0.4515  0.1130
 4369SOL    HW224570   2.007   0.315   8.985  2.6959  1.1118  1.5490
 4370SOL     OW24571   2.215   2.403  15.412  0.4084  0.2371  0.3769
 4370SOL    HW124572   2.129   2.408  15.371  1.1101  2.8737 -0.7933
 4370SOL    HW224573   2.223   2.308  15.422 -1.1223  0.1061  0.3849
 4371SOL     OW24574   3.157   0.680   1.445 -0.4479  0.3244 -0.3112
 4371SOL    HW124575   3.126   0.624   1.516  1.5827  1.3474  1.3808
 4371SOL    HW224576   3.094   0.752   1.441 -1.4100 -0.5301 -0.4501
 4372SOL     OW24577   1.663   1.298   9.227  0.5913  0.0625 -0.3068
 4372SOL    HW124578   1.621   1.305   9.141 -1.4948 -1.2150  0.6089
 4372SOL    HW224579   1.701   1.385   9.229 -1.7905  1.0608  0.9350
 4373SOL     OW24580   1.108   1.581   6.008 -0.1643  0.1527 -0.3713
 4373SOL    HW124581   1.090   1.600   6.100  0.8651 -1.3629  0.1533
 4373SOL    HW224582   1.062   1.655   5.969  1.1940  0.8820 -0.6030
 4374SOL     OW24583   2.663   4.318   8.145 -0.0216  0.1817  0.2874
 4374SOL    HW124584   2.757   4.321   8.164 -0.1820  0.4794  1.0479
 4374SOL    HW224585   2.640   4.409   8.166 -0.7756 -0.0699  0.5722
 4375SOL     OW24586   2.884   4.413   8.729  0.2627 -0.0972 -0.0171
 4375SOL    HW124587   2.869   4.508   8.730  1.2872  0.0784 -0.9246
 4375SOL    HW224588   2.887   4.399   8.823 -2.0881 -3.3849 -0.4615
 4376SOL     OW24589   2.932   2.652  12.300 -0.3099  0.7516  0.0274
 4376SOL    HW124590   2.852   2.657  12.248 -0.1196 -1.9163 -0.5150
 4376SOL    HW224591   2.928   2.559  12.319  1.1367  0.9695  1.4154
 4377SOL     OW24592   3.793   3.139  12.824  0.0649  0.1133 -0.1756
 4377SOL    HW124593   3.775   3.227  12.856 -0.7732  0.5665 -1.8863
 4377SOL    HW224594   3.785   3.089  12.906 -0.5425 -1.7419 -1.3541
 4378SOL     OW24595   2.296   0.215  11.705 -1.0991 -0.1365  0.5104
 4378SOL    HW124596   2.322   0.123  11.708  3.8496  1.2181 -0.1601
 4378SOL    HW224597   2.343   0.260  11.634  0.3024 -2.0594  0.2342
 4379SOL     OW24598   4.488   0.243   2.633  0.0649 -0.2310  0.2520
 4379SOL    HW124599   4.560   0.188   2.603 -0.3448  0.3199 -1.7929
 4379SOL    HW224600   4.535   0.289   2.702 -2.1994 -2.1652  3.0682
 4380SOL     OW24601   2.282   0.301  13.363 -0.1075  0.0183 -0.2565
 4380SOL    HW124602   2.242   0.349  13.290  1.2144  1.1882 -0.2127
 4380SOL    HW224603   2.367   0.270  13.332  0.5273  1.5673 -0.0805
 4381SOL     OW24604   3.570   2.639   3.195 -0.5493 -0.5116 -0.0142
 4381SOL    HW124605   3.498   2.691   3.161 -1.4629 -1.1208  0.9833
 4381SOL    HW224606   3.603   2.703   3.258  0.6829 -0.9722 -0.1749
 4382SOL     OW24607   4.197   3.708   0.968 -0.3896  0.7163  0.0454
 4382SOL    HW124608   4.171   3.624   0.930 -0.3110  1.5676 -1.8722
 4382SOL    HW224609   4.243   3.760   0.902 -0.6912 -3.1846 -3.1695
 4383SOL     OW24610   4.466   3.866   7.514  0.0172 -0.0207 -0.8256
 4383SOL    HW124611   4.544   3.883   7.567  0.2770  0.3752 -1.3393
 4383SOL    HW224612   4.405   3.928   7.556  0.1389 -1.4039  1.4076
 4384SOL     OW24613   1.066   4.364   2.171  0.0736  0.4384  0.1559
 4384SOL    HW124614   1.075   4.286   2.117 -1.3298  0.6737 -0.4063
 4384SOL    HW224615   1.128   4.349   2.242  0.2585 -1.9041 -0.4962
 4385SOL     OW24616   1.783   0.746   1.916  0.0554 -0.9650  0.2061
 4385SOL    HW124617   1.704   0.734   1.969  0.3471 -2.6566  0.2547
 4385SOL    HW224618   1.821   0.659   1.914  2.0269 -0.0275 -2.6539
 4386SOL     OW24619   2.093   4.104   4.037  0.0369 -0.0389 -0.1699
 4386SOL    HW124620   2.173   4.149   4.010 -0.5102  0.4938 -0.9132
 4386SOL    HW224621   2.057   4.081   3.951  2.1413 -1.2805 -0.7110
 4387SOL     OW24622   1.119   1.569   6.823  0.1644  0.3890 -0.4077
 4387SOL    HW124623   1.052   1.543   6.760 -1.6030  0.1266  1.5758
 4387SOL    HW224624   1.086   1.533   6.905 -0.7161  0.2483 -0.8218
 4388SOL     OW24625   0.862   3.340   4.336 -0.4270  0.7816 -0.4194
 4388SOL    HW124626   0.856   3.425   4.292 -0.0422  1.3900  0.7133
 4388SOL    HW224627   0.876   3.282   4.261  0.0375 -0.2796  0.4893
 4389SOL     OW24628   3.034   0.888   2.579 -0.1976 -0.3171  0.6291
 4389SOL    HW124629   3.088   0.875   2.657 -0.2795  0.0600  0.7510
 4389SOL    HW224630   3.107   0.877   2.518 -0.8291 -1.2200  0.0239
 4390SOL     OW24631   0.770   4.453   2.615 -0.2599  0.1934 -0.3111
 4390SOL    HW124632   0.806   4.395   2.683  0.6268  0.5461 -0.4772
 4390SOL    HW224633   0.801   4.418   2.532 -1.6281 -0.4962 -0.5336
 4391SOL     OW24634   4.571   2.184   1.152 -0.2896 -0.2450 -0.3394
 4391SOL    HW124635   4.572   2.192   1.247  0.1206 -2.5772 -0.1248
 4391SOL    HW224636   4.663   2.181   1.125 -0.5791  0.4897 -1.4100
 4392SOL     OW24637   2.466   0.334   7.674  0.5263  0.0682  0.0907
 4392SOL    HW124638   2.499   0.256   7.718  0.3719 -1.4030 -2.4019
 4392SOL    HW224639   2.520   0.337   7.595  0.5907  0.0181  0.1325
 4393SOL     OW24640   0.612   4.279  16.261  0.0687 -0.3874  0.5172
 4393SOL    HW124641   0.682   4.263  16.197 -0.4281 -0.9120  0.1169
 4393SOL    HW224642   0.541   4.228  16.223  1.2658 -0.6034 -1.4276
 4394SOL     OW24643   3.935   4.495  14.028  0.2570 -0.4108 -0.3532
 4394SOL    HW124644   3.923   4.587  14.054 -0.4478 -1.0070  1.4208
 4394SOL    HW224645   4.010   4.502  13.968  0.5331 -0.5958 -0.0296
 4395SOL     OW24646   4.107   1.977  10.563 -0.6311 -0.0206  0.3562
 4395SOL    HW124647   4.173   1.911  10.540 -0.8190  0.6833 -2.2069
 4395SOL    HW224648   4.066   1.950  10.645 -1.4858 -0.3919 -0.1873
 4396SOL     OW24649   2.014   4.482   1.877 -0.7603  0.1223  0.0855
 4396SOL    HW124650   2.061   4.565   1.890 -0.0606 -0.5940  2.1170
 4396SOL    HW224651   2.051   4.423   1.942  0.4666 -1.8506 -2.4222
 4397SOL     OW24652   4.228   2.477   3.629 -0.6806 -0.3670 -0.6955
 4397SOL    HW124653   4.306   2.426   3.608  0.3573  1.7889 -2.0595
 4397SOL    HW224654   4.176   2.439   3.558 -1.2309 -0.1128 -0.4318
 4398SOL     OW24655   0.938   1.964   0.987 -0.3319  0.1687  0.1803
 4398SOL    HW124656   1.001   1.906   0.943 -0.3243 -0.7132  1.3421
 4398SOL    HW224657   0.892   2.011   0.918 -0.6091  2.1420  1.7166
 4399SOL     OW24658   2.248   3.494  11.696 -0.2074 -0.0282 -0.0986
 4399SOL    HW124659   2.343   3.496  11.691 -0.1051 -0.3968  1.6307
 4399SOL    HW224660   2.233   3.400  11.709 -0.8690  0.0975  0.0278
 4400SOL     OW24661   2.141   0.918   3.785  0.8829  0.2451  0.2096
 4400SOL    HW124662   2.159   0.825   3.771 -0.2233  0.1926 -0.9368
 4400SOL    HW224663   2.074   0.939   3.720 -0.3336  1.7772  1.9797
 4401SOL     OW24664   3.381   4.316   5.739 -0.2735  0.2276  0.4320
 4401SOL    HW124665   3.453   4.296   5.799 -1.8020  0.3356  2.3258
 4401SOL    HW224666   3.364   4.405   5.771  1.9300  1.7467 -2.6520
 4402SOL     OW24667   0.176   0.957   0.408 -0.1247 -0.2458  0.5499
 4402SOL    HW124668   0.101   1.015   0.411 -0.4354 -0.5811 -0.7499
 4402SOL    HW224669   0.144   0.868   0.423 -1.6991  0.2788  0.2342
 4403SOL     OW24670   4.176   2.930   8.081 -0.3024  0.1537 -0.1633
 4403SOL    HW124671   4.255   2.885   8.110 -1.4998 -2.0711 -0.4115
 4403SOL    HW224672   4.192   2.937   7.987  4.7625  0.1788  0.7194
 4404SOL     OW24673   2.282   3.596   6.807 -0.5103 -0.2535  0.3123
 4404SOL    HW124674   2.256   3.506   6.788 -4.0365  1.1764 -1.6427
 4404SOL    HW224675   2.199   3.641   6.789 -0.7591 -0.9558 -0.2897
 4405SOL     OW24676   1.985   1.121   7.972  0.6947 -0.3086  0.5940
 4405SOL    HW124677   1.952   1.041   7.931  0.7419  0.0399 -0.1267
 4405SOL    HW224678   1.945   1.191   7.921  0.1266 -1.2583 -0.2664
 4406SOL     OW24679   4.652   3.667   4.474 -0.0401  0.0927 -0.3144
 4406SOL    HW124680   4.578   3.699   4.421  0.0617  1.2153  0.2036
 4406SOL    HW224681   4.649   3.572   4.465  0.7072  0.3141 -2.8749
 4407SOL     OW24682   0.181   0.673   6.423 -0.3553  0.3715  0.2101
 4407SOL    HW124683   0.227   0.652   6.342 -1.0993  1.3358 -0.4558
 4407SOL    HW224684   0.137   0.595   6.456  1.3431 -1.0882 -0.9741
 4408SOL     OW24685   2.293   0.419   1.802 -0.2893  0.2417 -0.0393
 4408SOL    HW124686   2.314   0.485   1.735  3.4294 -2.6500 -1.6985
 4408SOL    HW224687   2.357   0.451   1.865  0.4828  0.1717 -0.7892
 4409SOL     OW24688   3.310   4.274   7.086 -0.9805 -0.0764 -0.3135
 4409SOL    HW124689   3.364   4.195   7.081 -0.3121  0.3234  0.4113
 4409SOL    HW224690   3.377   4.324   7.134 -1.0571 -1.8691  1.6966
 4410SOL     OW24691   4.555   2.662   4.480 -0.0075 -0.1235 -0.6914
 4410SOL    HW124692   4.486   2.629   4.539  1.7268 -0.1597  1.2968
 4410SOL    HW224693   4.521   2.623   4.399  0.1543 -0.5344 -0.5625
 4411SOL     OW24694   4.637   0.035   7.448  0.4136 -0.0259 -0.3005
 4411SOL    HW124695   4.655   0.125   7.421 -1.3908 -0.0332 -1.5031
 4411SOL    HW224696   4.691   4.715   7.379  0.0821 -1.8305  0.4920
 4412SOL     OW24697   1.712   4.577   7.592 -0.3978 -0.1982 -0.0866
 4412SOL    HW124698   1.626   4.545   7.618 -0.2217  0.0665  0.8315
 4412SOL    HW224699   1.756   4.596   7.675 -1.8648  1.2715  0.3440
 4413SOL     OW24700   2.410   4.547   7.264 -0.5826 -0.4253 -0.0278
 4413SOL    HW124701   2.445   4.535   7.176  0.6203 -2.8814  0.7879
 4413SOL    HW224702   2.468   4.504   7.327 -1.3641  1.4148  1.9653
 4414SOL     OW24703   2.299   3.556   5.088  0.3705 -0.8911  0.5331
 4414SOL    HW124704   2.384   3.524   5.118  1.4456  0.5187 -0.9957
 4414SOL    HW224705   2.267   3.597   5.169  1.3070  0.2679  0.3211
 4415SOL     OW24706   0.958   3.919   5.970  0.4559 -0.3131  0.7187
 4415SOL    HW124707   1.006   3.998   5.944  1.3898 -1.8580 -2.2317
 4415SOL    HW224708   1.016   3.903   6.045  1.4356 -0.5978 -0.0969
 4416SOL     OW24709   1.754   0.857   9.818 -0.4399 -0.3049 -0.0537
 4416SOL    HW124710   1.839   0.866   9.773 -0.4871  2.1813  0.3917
 4416SOL    HW224711   1.688   0.867   9.749 -0.4455 -1.3785 -0.2194
 4417SOL     OW24712   2.694   2.763  17.422  0.0355  0.3332  0.7006
 4417SOL    HW124713   2.749   2.686  17.425 -1.9436 -1.1120 -0.1633
 4417SOL    HW224714   2.705   2.793  17.512  0.3614  2.6482 -0.0865
 4418SOL     OW24715   1.561   3.209  13.303 -0.3979  0.4728  0.4293
 4418SOL    HW124716   1.480   3.177  13.263  1.4064 -3.2352 -0.3296
 4418SOL    HW224717   1.525   3.276  13.360  0.1150  0.5092  0.7124
 4419SOL     OW24718   3.263   0.474   3.402 -0.0704 -0.3570 -0.9155
 4419SOL    HW124719   3.328   0.478   3.332  2.0196 -2.5591  0.9043
 4419SOL    HW224720   3.309   0.424   3.469  0.4060  0.0156 -0.9617
 4420SOL     OW24721   0.142   4.620  16.468  0.0512 -0.2900  0.3873
 4420SOL    HW124722   0.049   4.622  16.445  0.5981 -0.2347 -1.7888
 4420SOL    HW224723   0.141   4.540  16.522 -1.2431  1.0604  2.3623
 4421SOL     OW24724   4.693   4.440   8.586 -0.1029 -0.5536  0.8087
 4421SOL    HW124725   4.631   4.379   8.626 -1.1200  0.1749  0.3550
 4421SOL    HW224726   0.042   4.441   8.652  0.7019  0.1879 -0.0522
 4422SOL     OW24727   4.227   4.435   7.703 -0.5456 -0.0308  0.0319
 4422SOL    HW124728   4.315   4.424   7.738 -0.9929  1.0042  1.4973
 4422SOL    HW224729   4.242   4.464   7.613  0.0418 -0.0410  0.1295
 4423SOL     OW24730   3.710   1.759   6.317  0.5938 -0.4663 -0.3871
 4423SOL    HW124731   3.696   1.717   6.402 -1.4618  1.2283  0.1104
 4423SOL    HW224732   3.719   1.682   6.260 -1.4880 -1.9003  1.2259
 4424SOL     OW24733   1.947   3.703   3.645 -0.3086  0.2718  0.3070
 4424SOL    HW124734   1.890   3.775   3.617 -2.3417 -0.6380  2.0716
 4424SOL    HW224735   1.882   3.634   3.652  0.8558 -0.7612  0.8480
 4425SOL     OW24736   1.613   2.801   2.812 -0.4868 -0.1302  0.0438
 4425SOL    HW124737   1.588   2.841   2.895  2.4586 -1.0037  1.3336
 4425SOL    HW224738   1.624   2.875   2.753  1.3976  1.2312  2.1039
 4426SOL     OW24739   1.027   1.556   8.186  0.7626 -0.4170  0.2115
 4426SOL    HW124740   1.094   1.501   8.146 -0.2774  0.1579 -2.3580
 4426SOL    HW224741   0.953   1.539   8.127  0.3870 -0.9100  0.8198
 4427SOL     OW24742   3.288   1.805   2.321  0.1068  1.2163  0.5007
 4427SOL    HW124743   3.249   1.736   2.268  2.8262  0.6047 -0.7034
 4427SOL    HW224744   3.354   1.839   2.261  0.7235 -0.0119  0.4900
 4428SOL     OW24745   1.225   2.271  14.030 -0.0714  0.1319  0.2193
 4428SOL    HW124746   1.284   2.224  13.972  0.7791  0.9872  0.3827
 4428SOL    HW224747   1.238   2.358  13.994 -0.4930 -0.4284 -1.2587
 4429SOL     OW24748   0.520   2.834   4.086 -0.0487 -0.5941 -0.8591
 4429SOL    HW124749   0.541   2.923   4.058  1.7971 -0.1808  1.8401
 4429SOL    HW224750   0.425   2.834   4.094  0.1305 -1.5566  1.2510
 4430SOL     OW24751   2.189   3.977  17.578  0.0747  0.0585 -0.5575
 4430SOL    HW124752   2.163   3.942  17.493  1.4653  0.8921 -1.3184
 4430SOL    HW224753   2.276   3.940  17.591  0.4671  1.8785  1.7631
 4431SOL     OW24754   3.381   4.609   3.757  0.1581 -0.2340  0.0621
 4431SOL    HW124755   3.380   4.563   3.841 -0.8078 -1.4326 -0.6136
 4431SOL    HW224756   3.291   4.643   3.752  0.4474  0.4197 -0.7572
 4432SOL     OW24757   4.284   3.105   5.178  0.5475  0.1625 -0.2790
 4432SOL    HW124758   4.234   3.184   5.160  0.8015  0.2569 -0.5701
 4432SOL    HW224759   4.297   3.063   5.093  0.0327 -0.0817 -0.2340
 4433SOL     OW24760   0.564   1.034  10.662 -0.4055 -0.1559 -0.5582
 4433SOL    HW124761   0.525   0.971  10.601 -0.0910  1.3702 -2.3399
 4433SOL    HW224762   0.523   1.118  10.642 -0.0910  0.2638  0.5954
 4434SOL     OW24763   3.110   3.591   8.429  0.7014  0.0926  0.4656
 4434SOL    HW124764   3.152   3.509   8.454  0.2041 -0.1376  0.5389
 4434SOL    HW224765   3.185   3.646   8.403  2.1779 -2.2532 -0.1707
 4435SOL     OW24766   3.405   2.923   4.666 -0.0032  0.2632 -0.0181
 4435SOL    HW124767   3.355   2.847   4.696  0.8347 -0.2701  0.0324
 4435SOL    HW224768   3.483   2.877   4.634  1.1627  1.6346  0.8469
 4436SOL     OW24769   4.386   2.269   6.602  0.4588 -0.8012  0.1210
 4436SOL    HW124770   4.334   2.240   6.527 -0.8233  0.1467  0.6525
 4436SOL    HW224771   4.465   2.300   6.559  0.3582 -0.4690  0.1742
 4437SOL     OW24772   1.101   0.509  14.435  0.8960  0.0536 -0.0139
 4437SOL    HW124773   1.123   0.421  14.465  0.5379  0.1585  0.5753
 4437SOL    HW224774   1.102   0.502  14.340 -0.0360  1.6060 -0.1554
 4438SOL     OW24775   0.269   2.458  12.396 -0.4272 -0.3982  0.6251
 4438SOL    HW124776   0.357   2.494  12.403 -0.2749 -1.0263  1.9166
 4438SOL    HW224777   0.251   2.432  12.486 -2.0389  3.0901  1.3064
 4439SOL     OW24778   3.992   0.483   6.106 -0.7244 -0.3262 -0.5064
 4439SOL    HW124779   3.921   0.452   6.162 -1.0682  1.4880  0.0957
 4439SOL    HW224780   3.954   0.460   6.022  0.4424 -2.5926 -0.4212
 4440SOL     OW24781   3.216   0.858   0.868 -0.1367 -0.3976 -0.7368
 4440SOL    HW124782   3.291   0.896   0.912 -0.9839  0.7226 -0.2618
 4440SOL    HW224783   3.175   0.800   0.932  2.7244 -1.1010  0.4284
 4441SOL     OW24784   2.793   1.678  10.589 -0.0981  0.5507  0.3027
 4441SOL    HW124785   2.839   1.670  10.673 -0.0685 -2.2615  0.0008
 4441SOL    HW224786   2.701   1.677  10.615 -0.9590 -1.7008 -2.8326
 4442SOL     OW24787   4.286   2.291   8.220  0.9669  0.2284 -0.0186
 4442SOL    HW124788   4.233   2.230   8.270  1.4511 -0.7976 -0.7370
 4442SOL    HW224789   4.310   2.360   8.282  2.5572  0.0683 -0.4519
 4443SOL     OW24790   2.903   0.141  16.121  0.5285 -0.0672 -0.6971
 4443SOL    HW124791   2.832   0.125  16.059  0.0259 -0.6214  0.0336
 4443SOL    HW224792   2.975   0.088  16.087  0.2818 -1.7576  1.4641
 4444SOL     OW24793   1.750   0.305  11.639  0.2496 -0.3497  0.4370
 4444SOL    HW124794   1.838   0.267  11.648  0.6150  0.3861  0.0474
 4444SOL    HW224795   1.742   0.338  11.729  0.0273 -0.2494  0.3798
 4445SOL     OW24796   1.923   4.151   5.118 -0.3296 -0.4304  0.1005
 4445SOL    HW124797   1.827   4.147   5.120 -0.4406  1.6456 -1.1722
 4445SOL    HW224798   1.938   4.182   5.028 -1.8530 -1.2422 -0.4326
 4446SOL     OW24799   3.585   1.382  11.595 -0.1550 -0.3432 -0.3087
 4446SOL    HW124800   3.517   1.438  11.632  0.7009  0.2566  0.3689
 4446SOL    HW224801   3.531   1.338  11.530 -0.3957 -2.7842  1.5668
 4447SOL     OW24802   0.813   1.124  13.276 -0.5860  0.1410  0.0536
 4447SOL    HW124803   0.789   1.207  13.317  0.5162  1.7076 -2.4980
 4447SOL    HW224804   0.886   1.155  13.223 -0.8885  1.6701  0.5345
 4448SOL     OW24805   3.006   4.345   5.179 -0.2815  0.3843  0.0958
 4448SOL    HW124806   3.041   4.416   5.232  0.1551  1.1792 -1.2401
 4448SOL    HW224807   2.914   4.373   5.187 -0.1482  0.6912  0.5348
 4449SOL     OW24808   1.452   1.035   8.778  0.1207  0.1381  0.1593
 4449SOL    HW124809   1.388   1.097   8.743  0.1342 -0.1091 -0.3107
 4449SOL    HW224810   1.528   1.076   8.736  0.5403  1.0508  1.8026
 4450SOL     OW24811   0.269   1.655   2.501 -0.1230 -0.2643 -0.2143
 4450SOL    HW124812   0.212   1.584   2.528 -1.4496  0.7990 -0.2331
 4450SOL    HW224813   0.235   1.731   2.548 -0.6155  0.0562 -1.1081
 4451SOL     OW24814   0.475   2.514   4.193 -0.0463 -0.2065  0.3815
 4451SOL    HW124815   0.486   2.605   4.164  3.7664 -0.0636  2.2025
 4451SOL    HW224816   0.542   2.513   4.262  0.1664 -2.0857  0.1360
 4452SOL     OW24817   3.779   0.990   7.585  0.9522  0.7214 -0.0061
 4452SOL    HW124818   3.751   0.904   7.617  0.0810  1.3164  0.8285
 4452SOL    HW224819   3.822   0.968   7.503 -1.4401  0.6912 -1.2676
 4453SOL     OW24820   3.303   0.517  13.539  0.3633 -0.5193 -0.7063
 4453SOL    HW124821   3.268   0.577  13.606  0.7990  0.3641 -1.2787
 4453SOL    HW224822   3.345   0.455  13.599  2.9531  2.0251  0.1383
 4454SOL     OW24823   4.593   4.695   4.913  0.3829 -0.2491  0.2236
 4454SOL    HW124824   4.510   0.023   4.917  0.3955 -0.0310 -2.1914
 4454SOL    HW224825   4.572   4.652   4.831  0.7253  0.1961 -0.1046
 4455SOL     OW24826   0.578   1.694   3.233 -0.4362  0.0660 -0.1697
 4455SOL    HW124827   0.543   1.622   3.181 -2.6894  1.8874 -1.1922
 4455SOL    HW224828   0.670   1.666   3.230 -1.0860 -2.1085 -0.0320
 4456SOL     OW24829   0.918   1.143   1.581 -0.1090 -0.4844  0.1891
 4456SOL    HW124830   0.844   1.203   1.566  0.5479  0.1970 -0.3405
 4456SOL    HW224831   0.912   1.120   1.674  0.9984 -0.7940  0.1798
 4457SOL     OW24832   2.693   2.928  12.012 -0.2061  0.3348 -0.2173
 4457SOL    HW124833   2.672   2.983  12.087  1.2199  0.4167  0.1223
 4457SOL    HW224834   2.688   2.843  12.055  1.7889  0.6811  0.7152
 4458SOL     OW24835   3.403   2.739   5.544 -0.1022 -0.4962 -0.1506
 4458SOL    HW124836   3.464   2.673   5.513  1.2477  0.6628  0.0495
 4458SOL    HW224837   3.437   2.754   5.632  1.2132 -0.5267 -0.6610
 4459SOL     OW24838   0.020   1.882  13.209  0.2730  0.0672  0.3800
 4459SOL    HW124839   0.052   1.891  13.120 -1.7697 -2.7857 -0.6641
 4459SOL    HW224840   0.074   1.941  13.261  2.0960 -0.1054 -1.3376
 4460SOL     OW24841   1.772   2.980   4.481 -0.3261 -0.4165  0.5164
 4460SOL    HW124842   1.798   2.908   4.424 -1.9331  0.3815 -1.2665
 4460SOL    HW224843   1.703   3.020   4.427 -0.6515 -2.6736 -0.7439
 4461SOL     OW24844   0.619   2.489   6.629 -0.5181  0.4995 -0.1926
 4461SOL    HW124845   0.594   2.478   6.537 -1.5568 -1.7258  0.3587
 4461SOL    HW224846   0.536   2.475   6.674  0.7082  0.7175  2.1424
 4462SOL     OW24847   1.715   0.772   6.203  0.5159 -0.5806  0.1287
 4462SOL    HW124848   1.710   0.682   6.172 -0.5405  0.4118 -2.6102
 4462SOL    HW224849   1.683   0.757   6.292  0.1798  3.4637  0.7228
 4463SOL     OW24850   4.137   0.844   8.160 -0.1328 -0.3653 -0.1970
 4463SOL    HW124851   4.128   0.917   8.099 -0.5953 -0.4692 -0.2521
 4463SOL    HW224852   4.070   0.873   8.222 -0.3299 -0.6185 -0.2902
 4464SOL     OW24853   2.542   2.342   3.475  0.0095  0.2030  0.4134
 4464SOL    HW124854   2.499   2.423   3.503 -0.0694 -0.1213  1.2111
 4464SOL    HW224855   2.494   2.306   3.401  1.9639 -1.8432  0.1469
 4465SOL     OW24856   2.026   3.726   9.712  0.0888  0.2289 -0.1034
 4465SOL    HW124857   1.957   3.779   9.751 -0.7599 -1.3514  0.5711
 4465SOL    HW224858   2.052   3.683   9.793 -0.2340 -2.0797 -1.2060
 4466SOL     OW24859   0.387   1.240   6.354 -0.0072  0.2195  0.2713
 4466SOL    HW124860   0.463   1.204   6.308  1.3143  2.6989  0.4605
 4466SOL    HW224861   0.323   1.171   6.369  0.8913 -0.8742 -0.9989
 4467SOL     OW24862   0.406   0.196   8.847 -0.4831  0.4513  0.0823
 4467SOL    HW124863   0.442   0.153   8.770  1.6609  1.8073  0.3470
 4467SOL    HW224864   0.313   0.204   8.826 -0.3241  0.3899 -0.6459
 4468SOL     OW24865   4.625   3.917   5.555 -0.1329  0.0791  0.3207
 4468SOL    HW124866   4.719   3.918   5.537 -0.2939  1.8537 -0.4104
 4468SOL    HW224867   4.614   4.006   5.591  1.0133  0.8479 -1.2095
 4469SOL     OW24868   3.615   1.615   4.694 -0.0595 -0.0880  0.8902
 4469SOL    HW124869   3.533   1.627   4.646 -0.4920 -2.3093  1.0732
 4469SOL    HW224870   3.609   1.524   4.724 -1.0306 -0.2014  0.3398
 4470SOL     OW24871   0.301   4.521   4.981  0.6945 -0.0173 -0.0482
 4470SOL    HW124872   0.353   4.593   4.946  1.4950 -0.7570 -0.3682
 4470SOL    HW224873   0.243   4.507   4.906  1.3368  0.9086 -0.7238
 4471SOL     OW24874   0.899   1.256  11.983 -0.1444 -0.2564  0.2974
 4471SOL    HW124875   0.944   1.232  12.065  2.0850 -0.0666 -0.8835
 4471SOL    HW224876   0.813   1.218  12.002  0.5869 -2.6688 -1.2210
 4472SOL     OW24877   1.178   1.793   6.511  0.6256  0.3204  0.2443
 4472SOL    HW124878   1.193   1.737   6.587  1.0949 -0.4831 -0.4466
 4472SOL    HW224879   1.101   1.844   6.535  1.3844  1.7722 -0.4090
 4473SOL     OW24880   2.141   0.532   3.094  0.3004 -0.2764  0.0117
 4473SOL    HW124881   2.058   0.517   3.139 -0.2968  0.9010 -0.6879
 4473SOL    HW224882   2.121   0.502   3.005  0.9295 -3.1741  0.8453
 4474SOL     OW24883   3.055   3.669   6.951  0.1935  0.3569  0.0971
 4474SOL    HW124884   3.070   3.575   6.937  2.6259  0.6245  0.9054
 4474SOL    HW224885   3.049   3.698   6.860  3.5940 -1.7549 -0.8153
 4475SOL     OW24886   2.790   3.133   2.233  0.0717 -0.5090 -0.5712
 4475SOL    HW124887   2.777   3.040   2.250 -2.1928 -0.3204 -1.2647
 4475SOL    HW224888   2.712   3.161   2.184 -1.0907 -0.3912  1.3482
 4476SOL     OW24889   1.540   4.623   2.733 -0.1650  0.3400  0.3995
 4476SOL    HW124890   1.593   4.567   2.677  0.7121  1.4054  0.1684
 4476SOL    HW224891   1.487   4.663   2.665 -0.3267 -0.8419 -0.1717
 4477SOL     OW24892   2.970   0.754   6.732 -0.0370  0.0101 -0.4031
 4477SOL    HW124893   2.954   0.668   6.693  2.4184 -1.1562  1.1592
 4477SOL    HW224894   3.065   0.762   6.719  0.1668 -1.7477  0.0707
 4478SOL     OW24895   0.387   0.448  16.966 -0.7469 -0.4917  0.1964
 4478SOL    HW124896   0.459   0.443  17.029 -0.2835  0.5909 -0.2458
 4478SOL    HW224897   0.339   0.366  16.978  0.5399 -1.2967 -0.0180
 4479SOL     OW24898   1.686   0.446   3.874  0.3493 -0.0375 -0.6342
 4479SOL    HW124899   1.671   0.414   3.963 -1.4269  2.0918 -0.1704
 4479SOL    HW224900   1.628   0.522   3.869 -0.1121 -0.4336 -1.2839
 4480SOL     OW24901   4.204   1.893  10.909  0.1210  0.1696  0.2019
 4480SOL    HW124902   4.143   1.936  10.969 -0.6883  0.3695 -0.7631
 4480SOL    HW224903   4.283   1.944  10.929  1.4802 -0.9379 -2.3138
 4481SOL     OW24904   4.311   0.996  13.855 -0.1313  0.3657 -0.2081
 4481SOL    HW124905   4.252   1.071  13.845 -2.6762 -1.6479 -0.3285
 4481SOL    HW224906   4.361   1.020  13.932 -0.7788  2.2706 -0.3867
 4482SOL     OW24907   2.264   2.255  15.130 -0.5048 -0.0344  0.2312
 4482SOL    HW124908   2.257   2.330  15.071  0.7528 -0.7493 -0.8426
 4482SOL    HW224909   2.179   2.210  15.125 -0.1818 -0.5854 -0.4986
 4483SOL     OW24910   1.114   1.945   3.692 -0.2582  0.4450 -0.0516
 4483SOL    HW124911   1.074   1.858   3.697  3.8094 -1.4927 -1.0384
 4483SOL    HW224912   1.181   1.940   3.623  0.6400 -3.0486  1.0756
 4484SOL     OW24913   1.132   3.522  10.414 -0.1705 -0.2850 -0.1804
 4484SOL    HW124914   1.220   3.504  10.382 -0.7092 -0.7024 -1.4397
 4484SOL    HW224915   1.157   3.575  10.490 -1.4750  2.5288 -1.7277
 4485SOL     OW24916   0.007   4.014  15.273 -0.1529  0.4010  0.4492
 4485SOL    HW124917   0.077   3.976  15.325  2.2987  1.0461 -2.3787
 4485SOL    HW224918   4.713   3.941  15.213 -2.1213  0.9427  0.2287
 4486SOL     OW24919   0.404   0.306   6.861 -0.1446  0.8066  0.7235
 4486SOL    HW124920   0.362   0.275   6.781  0.5807 -0.1543  0.7194
 4486SOL    HW224921   0.416   0.399   6.840 -0.0960  0.7097  0.3146
 4487SOL     OW24922   4.620   4.643  15.760 -0.4568 -0.4348  0.4972
 4487SOL    HW124923   4.556   4.627  15.690  0.9003  0.1989 -0.8908
 4487SOL    HW224924   4.656   4.555  15.771 -1.4208 -0.9480 -0.4192
 4488SOL     OW24925   0.029   2.540   5.501  0.4295 -0.1937 -0.3013
 4488SOL    HW124926   4.666   2.562   5.543 -0.6154 -0.8977 -1.9936
 4488SOL    HW224927   0.011   2.457   5.457  0.2928  0.2531 -1.0813
 4489SOL     OW24928   2.485   1.563   7.138  0.5632  0.0334 -0.0422
 4489SOL    HW124929   2.551   1.570   7.069 -1.1229 -0.4954 -1.7157
 4489SOL    HW224930   2.504   1.485   7.190 -2.1436 -0.4005  0.2792
 4490SOL     OW24931   0.970   0.331   4.543 -0.0701  0.0167  0.2244
 4490SOL    HW124932   1.043   0.338   4.604 -0.1966  0.5828  0.3170
 4490SOL    HW224933   0.895   0.296   4.590 -0.3985 -1.9904 -1.8149
 4491SOL     OW24934   3.511   1.451   3.082  0.0977 -0.1942  0.3114
 4491SOL    HW124935   3.529   1.359   3.060 -2.6091 -0.2342 -1.6608
 4491SOL    HW224936   3.463   1.444   3.165  0.2985  1.5431  0.5722
 4492SOL     OW24937   2.045   3.461   8.432  0.3604  0.2878 -0.2830
 4492SOL    HW124938   1.977   3.457   8.500  1.4429 -0.1901  0.7782
 4492SOL    HW224939   2.125   3.478   8.481  1.2026  0.6950 -1.8127
 4493SOL     OW24940   1.513   4.121   2.729 -0.1285 -0.6090 -0.1863
 4493SOL    HW124941   1.566   4.179   2.674 -1.5700 -1.0323 -2.0073
 4493SOL    HW224942   1.438   4.180   2.737 -0.0354 -0.1650 -2.5989
 4494SOL     OW24943   4.083   3.953   2.147 -0.1594  0.2114  0.0808
 4494SOL    HW124944   4.026   3.909   2.083 -1.1055  0.5167  0.7150
 4494SOL    HW224945   4.110   3.874   2.194  1.3497  0.3594 -0.5244
 4495SOL     OW24946   0.440   3.818  10.569  0.0967 -0.7959  0.3537
 4495SOL    HW124947   0.483   3.739  10.604  1.9219  0.4559  0.9620
 4495SOL    HW224948   0.399   3.797  10.485  2.7909  0.2438 -1.2178
 4496SOL     OW24949   0.228   2.234   2.595 -0.3258 -0.6333  0.0737
 4496SOL    HW124950   0.183   2.251   2.513 -0.6771  1.6141  0.7305
 4496SOL    HW224951   0.318   2.258   2.573 -0.3668 -0.4499  0.1039
 4497SOL     OW24952   0.638   2.765   7.287 -0.3839  0.6071  0.0180
 4497SOL    HW124953   0.718   2.763   7.340 -0.6033  1.9336  0.4045
 4497SOL    HW224954   0.611   2.857   7.281 -1.6172  0.1506 -1.6533
 4498SOL     OW24955   3.466   4.183   3.807  0.1057 -0.2314  0.4108
 4498SOL    HW124956   3.448   4.254   3.869 -2.1310 -1.0480  0.6957
 4498SOL    HW224957   3.535   4.225   3.756 -0.1694 -0.6954 -0.3375
 4499SOL     OW24958   3.747   4.415   4.049 -0.0735  0.2719  0.4384
 4499SOL    HW124959   3.831   4.410   4.003 -0.6263 -1.7470 -0.3158
 4499SOL    HW224960   3.713   4.504   4.041  0.2667  0.2815 -0.8241
 4500SOL     OW24961   2.258   4.140   7.342 -0.0029  0.1471  0.1666
 4500SOL    HW124962   2.310   4.073   7.387  1.8469 -0.0276 -2.2126
 4500SOL    HW224963   2.320   4.173   7.277  2.8744 -0.0071  2.8305
 4501SOL     OW24964   1.266   3.921   1.920  0.0045  0.3985  0.1072
 4501SOL    HW124965   1.280   3.829   1.944 -0.6094  0.6873  1.5991
 4501SOL    HW224966   1.293   3.951   2.007  0.3254  1.3842 -0.3265
 4502SOL     OW24967   1.092   0.798   4.287 -0.1254  0.4868  0.3105
 4502SOL    HW124968   1.144   0.838   4.217 -2.1579  1.5738 -0.5869
 4502SOL    HW224969   1.122   0.708   4.274  1.5982  0.8687  1.7045
 4503SOL     OW24970   2.192   2.400   7.734 -0.1885  0.0199  0.3538
 4503SOL    HW124971   2.218   2.483   7.774  2.8802  0.9429 -3.5751
 4503SOL    HW224972   2.202   2.337   7.805  0.5346 -0.8972 -0.5507
 4504SOL     OW24973   1.880   0.569  11.706 -0.0095  0.7420  0.4345
 4504SOL    HW124974   1.926   0.508  11.763  0.4771 -1.6964 -2.5436
 4504SOL    HW224975   1.888   0.647  11.761  1.7078 -0.1572  1.4479
 4505SOL     OW24976   2.856   2.189   6.755  0.2485  0.3688 -0.5411
 4505SOL    HW124977   2.764   2.215   6.762  0.3150  0.8938 -1.6178
 4505SOL    HW224978   2.897   2.274   6.770  3.2120 -1.3598  1.1964
 4506SOL     OW24979   3.262   4.507   5.547  0.3440 -0.6538 -0.1868
 4506SOL    HW124980   3.247   4.430   5.602 -2.8688  1.6560  2.2137
 4506SOL    HW224981   3.352   4.489   5.520 -0.0921 -2.1026 -0.6834
 4507SOL     OW24982   4.528   1.959   4.866 -0.1304  0.7728 -0.5866
 4507SOL    HW124983   4.496   1.899   4.798  0.0798  0.6184 -0.5471
 4507SOL    HW224984   4.497   1.917   4.946  0.5272  1.0681 -0.1858
 4508SOL     OW24985   1.340   4.583   9.918 -0.1127  0.6192  0.3336
 4508SOL    HW124986   1.254   4.586   9.878 -0.3324 -2.3802  0.6019
 4508SOL    HW224987   1.400   4.573   9.844 -1.3007  0.1974 -0.5724
 4509SOL     OW24988   2.482   3.999   4.291 -0.7491  0.4357  0.3923
 4509SOL    HW124989   2.386   4.001   4.290 -0.8015 -1.8826 -0.0332
 4509SOL    HW224990   2.501   4.027   4.201 -0.8857  1.2445  0.6189
 4510SOL     OW24991   3.059   1.236   0.522 -0.0537  0.2159  0.0092
 4510SOL    HW124992   3.054   1.309   0.584 -1.8922  1.5065 -1.6538
 4510SOL    HW224993   3.083   1.165   0.581 -1.5234  0.5370  1.0173
 4511SOL     OW24994   3.251   0.040   5.667 -0.3739  0.1419 -0.3760
 4511SOL    HW124995   3.331   0.086   5.643  0.1364  0.3308  1.6862
 4511SOL    HW224996   3.270   4.674   5.631  0.9381 -0.0962  0.8854
 4512SOL     OW24997   3.108   3.238   7.100 -0.7182 -0.0317 -0.1948
 4512SOL    HW124998   3.115   3.328   7.134 -2.2414 -0.1959  0.5583
 4512SOL    HW224999   3.132   3.187   7.178 -0.6123 -0.6163 -0.6160
 4513SOL     OW25000   1.612   3.903   8.381 -0.6098  0.4180 -0.5407
 4513SOL    HW125001   1.593   3.863   8.466  0.1440  0.0582 -0.5488
 4513SOL    HW225002   1.524   3.888   8.344 -1.1459 -0.9206  1.2867
 4514SOL     OW25003   3.788   1.951   4.963  0.3612 -0.0124 -0.0883
 4514SOL    HW125004   3.831   1.972   4.880  1.2778  0.1679  0.4322
 4514SOL    HW225005   3.829   1.867   4.985 -0.3798 -0.3499  0.0154
 4515SOL     OW25006   0.526   2.354  17.187  0.1146 -0.1607  0.3760
 4515SOL    HW125007   0.444   2.380  17.146 -0.0634 -1.3744 -0.0556
 4515SOL    HW225008   0.536   2.437  17.232  0.5884  0.4419 -0.8527
 4516SOL     OW25009   1.331   2.175   9.645  0.3080  0.0987 -0.3482
 4516SOL    HW125010   1.319   2.085   9.675  0.1030  0.6778  1.2910
 4516SOL    HW225011   1.313   2.170   9.551 -1.1251 -0.6017 -0.0381
 4517SOL     OW25012   4.661   0.127   3.573 -0.3283  0.0726 -0.1697
 4517SOL    HW125013   4.646   0.075   3.652 -2.8242 -0.2333 -0.8398
 4517SOL    HW225014   4.694   0.061   3.511 -0.2696 -0.4045  0.3661
 4518SOL     OW25015   0.274   0.812   4.121 -0.2727 -0.2388 -0.2076
 4518SOL    HW125016   0.186   0.835   4.150 -0.7141  1.0204 -2.6025
 4518SOL    HW225017   0.304   0.895   4.083  1.0983 -1.8519 -2.6406
 4519SOL     OW25018   2.451   0.826   7.082  0.3178  0.0625  0.2681
 4519SOL    HW125019   2.508   0.751   7.098  2.4519  1.1041 -2.2861
 4519SOL    HW225020   2.377   0.805   7.139 -0.7838  0.1699 -1.1105
 4520SOL     OW25021   4.179   2.246   7.623 -0.2907 -0.0694  0.2559
 4520SOL    HW125022   4.172   2.270   7.715 -0.4056  0.0911  0.2054
 4520SOL    HW225023   4.091   2.270   7.591  0.0828 -0.5110 -1.1060
 4521SOL     OW25024   1.160   1.833  14.828 -0.2443  0.3510  0.0829
 4521SOL    HW125025   1.209   1.762  14.785 -2.6503 -2.5942  2.2498
 4521SOL    HW225026   1.227   1.893  14.860 -1.7449  1.7503  0.6065
 4522SOL     OW25027   2.463   0.218   0.239 -0.0729 -0.7385 -0.0113
 4522SOL    HW125028   2.449   0.142   0.182 -1.6030 -1.6302  1.5953
 4522SOL    HW225029   2.528   0.259   0.181 -1.0973 -0.9891 -1.3509
 4523SOL     OW25030   3.458   0.846   7.483  0.1284  0.8665 -0.3127
 4523SOL    HW125031   3.368   0.817   7.468 -0.0501  1.2774 -0.0344
 4523SOL    HW225032   3.440   0.922   7.538  1.2795  0.7655  0.1872
 4524SOL     OW25033   2.189   2.891   5.464 -0.1393  0.3552 -0.6461
 4524SOL    HW125034   2.274   2.858   5.494  0.0989  0.2758 -1.4092
 4524SOL    HW225035   2.203   2.923   5.375 -1.7595  1.3731 -0.5299
 4525SOL     OW25036   2.665   3.967   7.958 -0.3903 -0.8283  0.0566
 4525SOL    HW125037   2.716   3.900   8.004  1.4281 -1.2516 -2.5658
 4525SOL    HW225038   2.698   4.040   8.009  1.6652 -1.5153 -0.2718
 4526SOL     OW25039   2.623   2.389   2.351 -0.1916 -0.1739  0.1178
 4526SOL    HW125040   2.701   2.420   2.397 -0.4183 -0.7832  0.8942
 4526SOL    HW225041   2.558   2.413   2.417 -0.5349 -0.4674 -0.1183
 4527SOL     OW25042   3.292   2.466   6.271  0.5010 -0.3536  0.5328
 4527SOL    HW125043   3.287   2.480   6.177 -0.8402  0.7437  0.7854
 4527SOL    HW225044   3.217   2.509   6.312  1.2116  0.5272  0.9248
 4528SOL     OW25045   4.114   4.164   8.058 -0.2558 -0.3924  0.0815
 4528SOL    HW125046   4.111   4.154   7.963  2.6437  0.1526 -0.0708
 4528SOL    HW225047   4.053   4.238   8.061 -1.1547 -1.0964 -0.7936
 4529SOL     OW25048   0.538   1.899   7.081 -0.1061  0.7937  0.1015
 4529SOL    HW125049   0.510   1.988   7.062  1.8831  1.0339 -1.6663
 4529SOL    HW225050   0.631   1.913   7.095 -0.3494  2.0723  0.4484
 4530SOL     OW25051   4.599   4.633   9.503 -0.3411 -0.1869  0.1414
 4530SOL    HW125052   4.653   4.647   9.580 -1.0566  0.8497  0.4444
 4530SOL    HW225053   4.570   4.547   9.534  1.6562 -1.3595 -1.2026
 4531SOL     OW25054   2.717   0.939   6.991 -0.8225  0.5807  0.9128
 4531SOL    HW125055   2.633   0.931   7.036 -2.2703 -2.5808 -2.3315
 4531SOL    HW225056   2.702   0.892   6.909  0.6860  1.1545  0.3203
 4532SOL     OW25057   2.462   4.442   6.379 -0.6970  0.0596 -0.0917
 4532SOL    HW125058   2.518   4.404   6.311  1.5204 -0.2708  1.8785
 4532SOL    HW225059   2.534   4.483   6.427  0.9799 -3.8879  0.8072
 4533SOL     OW25060   3.106   0.031   8.285 -0.6172  0.1975 -0.0960
 4533SOL    HW125061   3.031   0.063   8.336 -0.7231  0.0474 -0.1585
 4533SOL    HW225062   3.150   4.704   8.355  2.2144  1.6532 -0.8959
 4534SOL     OW25063   2.442   1.143   1.989 -0.6015  0.1437 -0.0935
 4534SOL    HW125064   2.511   1.106   2.043 -0.1058  0.7652 -0.3038
 4534SOL    HW225065   2.448   1.083   1.914 -1.8056  0.4480 -0.4389
 4535SOL     OW25066   4.317   2.546   4.368 -0.1662 -0.6215  0.8092
 4535SOL    HW125067   4.309   2.574   4.276  1.9075  2.0663  1.4553
 4535SOL    HW225068   4.234   2.579   4.404 -0.3333 -0.8559  0.6444
 4536SOL     OW25069   4.142   3.652   3.329 -0.2955  0.3234  0.1919
 4536SOL    HW125070   4.181   3.693   3.405  1.3670 -1.5051  0.3412
 4536SOL    HW225071   4.048   3.655   3.344 -0.1623 -1.2434  1.4155
 4537SOL     OW25072   0.083   3.571  13.811  0.4953  0.1021  0.4261
 4537SOL    HW125073   4.715   3.606  13.824  0.9585  0.6629  2.0683
 4537SOL    HW225074   0.131   3.637  13.862 -0.0253 -1.1648  2.5560
 4538SOL     OW25075   1.921   4.119  13.007 -0.3746 -0.5232 -0.6326
 4538SOL    HW125076   1.857   4.058  13.043  0.8058 -1.2111  0.2996
 4538SOL    HW225077   1.860   4.183  12.971  0.8404  1.1105  0.1710
 4539SOL     OW25078   1.347   0.194   2.265 -0.2653  0.2901  0.4120
 4539SOL    HW125079   1.255   0.172   2.278 -0.3016  0.1285 -0.1126
 4539SOL    HW225080   1.343   0.213   2.171 -0.9385 -1.3533  0.0946
 4540SOL     OW25081   0.838   3.865   7.420 -0.6127  0.3052 -0.5791
 4540SOL    HW125082   0.833   3.822   7.505 -0.2749  0.7022 -0.3559
 4540SOL    HW225083   0.887   3.944   7.445 -0.3550 -0.7736  2.2478
 4541SOL     OW25084   1.131   3.036  10.508 -0.2481 -0.3045  0.5375
 4541SOL    HW125085   1.051   2.989  10.533  0.0439 -0.9806  0.2051
 4541SOL    HW225086   1.104   3.121  10.545  2.1837  1.7436 -2.4174
 4542SOL     OW25087   3.915   3.462  14.180  0.0244  0.0828  0.1845
 4542SOL    HW125088   3.983   3.480  14.245  0.6759 -0.7760 -0.2643
 4542SOL    HW225089   3.863   3.537  14.209 -0.0163 -0.1359  0.6733
 4543SOL     OW25090   1.992   4.407   4.226 -0.0670  0.3197  0.0657
 4543SOL    HW125091   2.077   4.409   4.181 -0.1399 -2.0669 -0.1794
 4543SOL    HW225092   1.942   4.476   4.184 -0.6828 -0.4319 -0.4151
 4544SOL     OW25093   0.853   0.743  11.358 -0.2096  0.1138  0.7940
 4544SOL    HW125094   0.934   0.772  11.318 -0.3386 -0.2510  0.2590
 4544SOL    HW225095   0.854   0.804  11.431  0.1067 -1.7488  2.3375
 4545SOL     OW25096   3.671   1.836  14.639  0.5007  0.5748 -0.5724
 4545SOL    HW125097   3.586   1.820  14.679  1.2534 -3.1321 -0.4827
 4545SOL    HW225098   3.719   1.884  14.706 -0.9227  1.3329 -0.1038
 4546SOL     OW25099   0.522   1.023   7.818  0.2069  0.0887 -0.3077
 4546SOL    HW125100   0.570   1.098   7.783 -2.0114  1.6075 -0.0972
 4546SOL    HW225101   0.434   1.060   7.820 -0.1464 -0.8253  0.8255
 4547SOL     OW25102   2.201   3.299   5.321  0.1203  0.0536 -0.0315
 4547SOL    HW125103   2.187   3.394   5.329  1.9287  0.3154  0.1407
 4547SOL    HW225104   2.115   3.271   5.290 -0.4502 -0.2230  1.8072
 4548SOL     OW25105   4.347   2.971   4.143 -1.1188  0.6486 -0.1158
 4548SOL    HW125106   4.274   2.910   4.150 -0.8533  0.2620 -0.6561
 4548SOL    HW225107   4.368   2.959   4.236 -0.3188  1.4004 -0.2030
 4549SOL     OW25108   1.127   1.571   5.674 -0.3182  0.0601  0.5251
 4549SOL    HW125109   1.035   1.588   5.696  0.1078  0.4056  2.0468
 4549SOL    HW225110   1.147   1.652   5.627  2.7757 -0.0683  1.6325
 4550SOL     OW25111   3.242   3.435   6.045  0.5793  0.6053  0.1314
 4550SOL    HW125112   3.247   3.475   5.959 -0.0893 -0.3983 -0.3798
 4550SOL    HW225113   3.336   3.420   6.053  0.7059  0.9168 -0.7921
 4551SOL     OW25114   0.340   3.831  15.628 -0.3129 -0.5498 -0.0110
 4551SOL    HW125115   0.347   3.747  15.584 -1.2834 -0.1611 -0.9172
 4551SOL    HW225116   0.245   3.848  15.629 -0.6736 -2.5198 -1.6216
 4552SOL     OW25117   1.765   4.539   1.597 -0.6462 -0.2070  0.0930
 4552SOL    HW125118   1.758   4.511   1.506  3.4350 -0.1468 -0.2512
 4552SOL    HW225119   1.784   4.457   1.643 -1.9179 -0.1658  0.6921
 4553SOL     OW25120   1.488   1.779   8.177 -0.1082  0.2926 -0.2125
 4553SOL    HW125121   1.492   1.874   8.168 -1.1329  0.3832  0.3158
 4553SOL    HW225122   1.492   1.775   8.273  1.4448  0.2230 -0.2808
 4554SOL     OW25123   0.618   4.584   8.205  0.2677  0.3532 -0.0789
 4554SOL    HW125124   0.693   4.585   8.145  1.1975 -1.9912  1.0425
 4554SOL    HW225125   0.558   4.622   8.141  1.2702 -0.0380 -1.2445
 4555SOL     OW25126   2.749   1.395  10.515  0.5451  0.0782  0.2523
 4555SOL    HW125127   2.797   1.451  10.575 -0.2044  1.3341 -0.3231
 4555SOL    HW225128   2.739   1.455  10.441 -0.4440 -0.2658  0.0979
 4556SOL     OW25129   0.501   1.441   1.631 -0.3463 -0.0604 -0.0098
 4556SOL    HW125130   0.480   1.387   1.708 -0.2919  2.1255  1.5301
 4556SOL    HW225131   0.413   1.474   1.612 -1.1673 -0.5995  2.8020
 4557SOL     OW25132   0.032   1.207  11.853  0.1908 -0.1463 -0.2948
 4557SOL    HW125133   4.719   1.295  11.834  3.6160  0.9590 -1.0338
 4557SOL    HW225134   0.121   1.212  11.818  0.8740 -0.2325  1.4223
 4558SOL     OW25135   3.394   1.235  11.442 -0.2788  0.3525  0.2201
 4558SOL    HW125136   3.345   1.173  11.496 -1.6142  2.7578  1.7281
 4558SOL    HW225137   3.328   1.297  11.411 -0.0640  1.8684  2.8017
 4559SOL     OW25138   2.900   2.426  10.408 -0.0610  0.3172 -0.2756
 4559SOL    HW125139   2.836   2.360  10.435 -0.3973  0.3850 -0.9131
 4559SOL    HW225140   2.945   2.429  10.493 -0.0261 -0.8682 -0.2527
 4560SOL     OW25141   0.247   3.371  15.059  0.9249  0.3135  0.4444
 4560SOL    HW125142   0.291   3.327  14.987  1.3689  0.4493  0.6264
 4560SOL    HW225143   0.228   3.294  15.113 -0.5624  1.5020  1.6286
 4561SOL     OW25144   2.828   2.560   2.901  0.5911 -0.0182  0.2949
 4561SOL    HW125145   2.872   2.481   2.934  0.3142 -1.8179 -3.7521
 4561SOL    HW225146   2.831   2.612   2.982 -0.6723  0.2789  0.1501
 4562SOL     OW25147   1.438   1.918   1.035  0.0340 -0.4575  0.0407
 4562SOL    HW125148   1.498   1.871   1.093  0.2103 -1.0655 -0.6375
 4562SOL    HW225149   1.361   1.932   1.091 -0.5646 -0.5433 -0.7587
 4563SOL     OW25150   2.291   3.028   8.582 -0.6424  0.1848  0.5028
 4563SOL    HW125151   2.231   3.091   8.623 -0.6114  1.0470 -0.7978
 4563SOL    HW225152   2.307   3.049   8.490  0.7341 -0.4743  0.6022
 4564SOL     OW25153   0.222   0.012   3.932 -1.0309  0.5407 -0.3708
 4564SOL    HW125154   0.188   4.643   3.937 -2.4851  1.1844  1.1887
 4564SOL    HW225155   0.308   0.013   3.891  0.9188  0.7209  3.7357
 4565SOL     OW25156   2.874   0.776   5.166 -0.4235 -0.3016 -0.4425
 4565SOL    HW125157   2.784   0.782   5.199 -0.2404 -0.9907  0.1798
 4565SOL    HW225158   2.888   0.862   5.127  0.0716  0.2794  1.0105
 4566SOL     OW25159   0.605   3.711  10.905  0.2519  0.5557 -0.0949
 4566SOL    HW125160   0.675   3.656  10.871 -0.6381  1.0587 -2.7597
 4566SOL    HW225161   0.527   3.655  10.899  1.1080 -0.5842 -0.5068
 4567SOL     OW25162   4.504   4.639  13.891  0.1139  0.0893 -0.6723
 4567SOL    HW125163   4.523   4.550  13.859 -0.7166 -0.7522  1.1614
 4567SOL    HW225164   4.560   4.649  13.968 -0.9924  2.1906 -0.1590
 4568SOL     OW25165   2.881   1.796   5.292 -0.7116  0.3052 -0.1050
 4568SOL    HW125166   2.923   1.776   5.208  1.6950 -0.8510  1.3536
 4568SOL    HW225167   2.807   1.736   5.290  0.1544 -0.6755 -2.2097
 4569SOL     OW25168   0.914   4.141   5.286 -0.4109 -0.3319 -0.1300
 4569SOL    HW125169   0.842   4.121   5.226 -1.2726 -0.3231  0.9047
 4569SOL    HW225170   0.890   4.213   5.344 -2.4003 -2.4080  1.6069
 4570SOL     OW25171   2.067   1.878   7.519 -0.4323 -0.0722 -0.2582
 4570SOL    HW125172   1.978   1.914   7.519 -0.8075 -0.9977  2.2441
 4570SOL    HW225173   2.049   1.784   7.513 -0.5801 -0.0951  0.6187
 4571SOL     OW25174   1.382   2.290   2.191  0.0652  0.3499 -0.2458
 4571SOL    HW125175   1.351   2.283   2.101 -2.1148  2.1957  0.3605
 4571SOL    HW225176   1.296   2.301   2.233  0.1773 -3.8372  1.1491
 4572SOL     OW25177   1.064   3.911  10.562  0.3861 -0.3160 -0.4012
 4572SOL    HW125178   1.001   3.982  10.551  1.4649  0.6728 -0.1369
 4572SOL    HW225179   1.039   3.853  10.489  0.8454 -0.0251 -0.7904
 4573SOL     OW25180   1.546   2.975   5.167 -0.5181 -0.5815  0.1345
 4573SOL    HW125181   1.504   3.053   5.132  1.3518 -0.4685 -1.8286
 4573SOL    HW225182   1.535   2.992   5.261  1.2458 -2.9335  0.7666
 4574SOL     OW25183   0.219   0.359   7.880  0.2037  0.1313  0.5782
 4574SOL    HW125184   0.150   0.425   7.882  1.7838  1.7815 -0.7174
 4574SOL    HW225185   0.277   0.403   7.819  1.5968 -1.1313  0.9674
 4575SOL     OW25186   1.528   2.449  16.928 -0.3850 -0.3543  0.1153
 4575SOL    HW125187   1.571   2.493  16.854 -0.7352 -0.6685 -0.2704
 4575SOL    HW225188   1.546   2.505  17.004 -3.3167  0.7763 -0.0202
 4576SOL     OW25189   1.732   1.459   3.942  0.1196 -0.5571  0.3474
 4576SOL    HW125190   1.820   1.429   3.962 -0.4855 -2.3593  0.3281
 4576SOL    HW225191   1.731   1.489   3.851 -2.3416  2.1925  1.2614
 4577SOL     OW25192   3.575   2.604  15.970 -0.2726 -0.2586 -0.1250
 4577SOL    HW125193   3.610   2.536  15.912 -0.6748  0.3735 -1.1010
 4577SOL    HW225194   3.584   2.669  15.900 -3.1701 -0.2334 -0.4704
 4578SOL     OW25195   2.095   2.195   3.473 -0.0347 -0.7201  0.5109
 4578SOL    HW125196   2.066   2.104   3.471  0.1913 -0.7271 -2.6336
 4578SOL    HW225197   2.114   2.211   3.381 -0.4272 -0.0154  0.5507
 4579SOL     OW25198   0.579   1.966  14.442 -0.2694 -0.8603  0.8397
 4579SOL    HW125199   0.615   1.920  14.366  2.7873 -2.3398  3.1955
 4579SOL    HW225200   0.598   1.905  14.514 -2.1644 -2.4230  0.0209
 4580SOL     OW25201   3.544   2.346   3.558 -1.1243  0.2493  0.0514
 4580SOL    HW125202   3.597   2.426   3.551 -1.6845  0.5815 -0.3433
 4580SOL    HW225203   3.457   2.378   3.580 -0.8663  0.2675  1.0443
 4581SOL     OW25204   4.566   3.397   4.761  0.3114 -0.2914 -0.4959
 4581SOL    HW125205   4.601   3.312   4.785 -0.3659 -0.1229  1.1111
 4581SOL    HW225206   4.559   3.402   4.665  0.5140  2.3980 -0.3852
 4582SOL     OW25207   3.160   0.399   5.579  0.4561 -0.2679  0.0639
 4582SOL    HW125208   3.108   0.332   5.535  1.2715 -1.1413  0.4315
 4582SOL    HW225209   3.248   0.363   5.570  1.2533  2.2733 -2.3693
 4583SOL     OW25210   2.349   2.567  15.572  0.0251  0.6422 -0.2822
 4583SOL    HW125211   2.273   2.571  15.630 -0.9509 -3.5645 -1.2522
 4583SOL    HW225212   2.327   2.484  15.529 -1.2497  0.1743  1.2827
 4584SOL     OW25213   4.098   0.515   8.894  0.9379  0.1721 -0.0924
 4584SOL    HW125214   4.039   0.576   8.851  0.5910 -0.3962 -0.4150
 4584SOL    HW225215   4.076   0.437   8.843  0.5033  0.7712 -0.8074
 4585SOL     OW25216   3.569   0.218  16.831  0.6462 -0.5730  0.4800
 4585SOL    HW125217   3.628   0.289  16.807 -0.7866 -0.0438 -1.4810
 4585SOL    HW225218   3.506   0.225  16.759  0.3787  0.4321  0.8118
 4586SOL     OW25219   4.301   3.841  10.170 -0.0220 -0.7226  0.0738
 4586SOL    HW125220   4.370   3.886  10.121 -2.1199  2.1450 -0.2292
 4586SOL    HW225221   4.227   3.880  10.123  1.5097  1.4789 -0.5357
 4587SOL     OW25222   1.259   2.139   6.242 -0.1776  0.2267 -0.4947
 4587SOL    HW125223   1.285   2.077   6.310 -0.2397 -0.1291 -0.7909
 4587SOL    HW225224   1.337   2.144   6.187  0.9608  1.6488  1.2686
 4588SOL     OW25225   4.489   4.467  16.796  0.7606 -0.0168 -0.5429
 4588SOL    HW125226   4.415   4.441  16.850 -1.1398  0.8158 -2.7447
 4588SOL    HW225227   4.465   4.450  16.705  1.0419  2.3455 -1.0538
 4589SOL     OW25228   2.674   1.776   6.456 -0.6827 -0.6530 -0.3342
 4589SOL    HW125229   2.670   1.695   6.406 -0.3998 -1.1488  0.4421
 4589SOL    HW225230   2.738   1.817   6.399 -0.2769 -0.6354  0.1309
 4590SOL     OW25231   0.148   3.496   8.439  0.2118  0.2862  0.2099
 4590SOL    HW125232   0.157   3.443   8.359 -1.5871  3.0860 -1.8089
 4590SOL    HW225233   0.057   3.477   8.460  0.3235 -0.1713  0.2847
 4591SOL     OW25234   2.519   2.440  17.227 -0.0546  0.2899  0.4329
 4591SOL    HW125235   2.500   2.348  17.209 -1.0094  0.3225  1.2252
 4591SOL    HW225236   2.508   2.432  17.322 -0.9286 -1.4843  0.1962
 4592SOL     OW25237   0.216   1.538   8.058  0.4971 -0.6612 -0.0601
 4592SOL    HW125238   0.279   1.497   7.999 -2.0106 -3.1491 -1.0277
 4592SOL    HW225239   0.278   1.590   8.109 -2.0342  1.5181  0.8253
 4593SOL     OW25240   0.665   2.719  14.146  0.6264  0.0348 -0.1981
 4593SOL    HW125241   0.590   2.661  14.158 -0.8665  1.5374 -2.4424
 4593SOL    HW225242   0.719   2.663  14.091 -1.3237 -1.0820 -0.9513
 4594SOL     OW25243   3.713   4.483   4.723  0.5362 -0.2021  0.2981
 4594SOL    HW125244   3.653   4.457   4.653  0.6486  0.0227  0.1222
 4594SOL    HW225245   3.779   4.414   4.726  0.6622 -0.1564 -1.3236
 4595SOL     OW25246   1.165   3.674   2.210 -0.1447 -0.5049  0.7266
 4595SOL    HW125247   1.180   3.597   2.264  1.9163 -0.9446 -0.4889
 4595SOL    HW225248   1.229   3.660   2.141 -1.5605 -1.7419 -0.3241
 4596SOL     OW25249   4.656   4.247   6.786 -0.2422 -0.5165 -0.7158
 4596SOL    HW125250   4.612   4.170   6.823  0.4656 -0.5825 -0.0056
 4596SOL    HW225251   4.709   4.204   6.719 -1.2096 -1.8344 -0.6409
 4597SOL     OW25252   3.662   1.507   0.277 -0.4137 -0.6797  0.7121
 4597SOL    HW125253   3.744   1.458   0.273  0.0732  0.0703  1.4971
 4597SOL    HW225254   3.619   1.490   0.193 -1.2921 -0.9621  1.2202
 4598SOL     OW25255   3.813   3.288   7.854  0.4583 -0.4352 -0.6259
 4598SOL    HW125256   3.887   3.308   7.797  0.8760  0.7310  0.3361
 4598SOL    HW225257   3.864   3.263   7.931  0.3792  2.3397  0.3324
 4599SOL     OW25258   1.786   2.231   5.620  0.3659  0.1143  0.4292
 4599SOL    HW125259   1.727   2.156   5.608 -1.0035  1.7611 -3.0334
 4599SOL    HW225260   1.844   2.202   5.691  0.4319  0.4295  0.5014
 4600SOL     OW25261   3.285   3.824   3.572  0.4108  0.2711 -0.2857
 4600SOL    HW125262   3.257   3.891   3.509  0.8387  0.2435 -0.5021
 4600SOL    HW225263   3.244   3.855   3.653 -0.6905  1.1413 -1.1680
 4601SOL     OW25264   0.616   4.710   9.463 -0.0335  0.3320  0.5934
 4601SOL    HW125265   0.702   4.687   9.500 -0.3518 -1.1329  0.4116
 4601SOL    HW225266   0.638   0.020   9.375 -0.2737 -0.5030  0.2438
 4602SOL     OW25267   2.916   2.225   0.457 -0.0960 -0.0873  0.6537
 4602SOL    HW125268   2.868   2.178   0.526 -2.3635  0.7789 -0.3288
 4602SOL    HW225269   2.849   2.215   0.390 -0.4103  0.6253  0.8574
 4603SOL     OW25270   3.723   3.691  11.236  0.3951 -0.1398  0.4533
 4603SOL    HW125271   3.738   3.642  11.317 -2.8884  0.7552  1.6095
 4603SOL    HW225272   3.792   3.756  11.249 -0.5798  1.0578 -0.3416
 4604SOL     OW25273   2.465   4.542   4.219  0.0373  0.0113  0.1796
 4604SOL    HW125274   2.415   4.597   4.159  0.7329  1.4932  0.9821
 4604SOL    HW225275   2.397   4.480   4.248  0.8532 -0.4838  1.0310
 4605SOL     OW25276   4.369   0.412   8.128  0.2975 -0.6469  0.1389
 4605SOL    HW125277   4.334   0.360   8.200 -1.2382 -1.3369 -1.1006
 4605SOL    HW225278   4.437   0.354   8.094  1.2713  1.1233 -0.9977
 4606SOL     OW25279   1.019   3.892   2.685  0.0706 -0.2135 -0.1649
 4606SOL    HW125280   1.029   3.959   2.618 -0.7096 -0.0000 -0.0664
 4606SOL    HW225281   1.035   3.932   2.770 -0.0355  0.1674 -0.3255
 4607SOL     OW25282   3.781   2.922  10.162  0.7265 -0.1896 -0.0313
 4607SOL    HW125283   3.693   2.925  10.200  0.6195  0.3757 -0.3298
 4607SOL    HW225284   3.822   3.000  10.200  0.0875  0.0617  0.1376
 4608SOL     OW25285   1.473   1.741   2.724  0.2936 -0.2694  0.1015
 4608SOL    HW125286   1.503   1.700   2.806 -2.5762  0.5948  1.5707
 4608SOL    HW225287   1.420   1.675   2.680  1.1726 -0.2978 -0.9162
 4609SOL     OW25288   4.342   3.801   1.394 -0.4056 -0.4440 -0.5511
 4609SOL    HW125289   4.371   3.865   1.330 -0.4695  0.9810  0.8449
 4609SOL    HW225290   4.248   3.822   1.390 -0.9640 -2.5946  0.7327
 4610SOL     OW25291   2.920   3.235   4.049 -0.2414  0.0409 -0.2483
 4610SOL    HW125292   3.006   3.198   4.069 -0.6442  0.2050  1.7282
 4610SOL    HW225293   2.881   3.158   4.007  1.3172 -2.1920  2.4298
 4611SOL     OW25294   0.195   2.960   8.225 -0.0638 -0.4680  0.0841
 4611SOL    HW125295   0.137   2.896   8.184 -0.7787  0.1045  0.1814
 4611SOL    HW225296   0.242   2.902   8.284  0.6439 -0.3057 -0.3269
 4612SOL     OW25297   1.503   1.936   0.762  0.0106  0.0122  0.5421
 4612SOL    HW125298   1.492   1.920   0.856  0.4365  1.5460  0.8565
 4612SOL    HW225299   1.430   1.881   0.734  1.1678 -1.9575  1.4764
 4613SOL     OW25300   4.400   0.962   8.517  0.1290 -0.5572  0.3980
 4613SOL    HW125301   4.398   0.879   8.471 -1.3456 -0.3791  0.1210
 4613SOL    HW225302   4.420   0.930   8.605  0.8011  0.3840  0.5859
 4614SOL     OW25303   4.667   0.369  14.265 -0.4902 -0.1163 -0.5145
 4614SOL    HW125304   4.677   0.309  14.191 -0.2628 -1.4158  0.5541
 4614SOL    HW225305   4.708   0.323  14.338 -1.0070  0.3615  0.0738
 4615SOL     OW25306   3.173   1.399   8.853 -0.2388 -0.4241  0.3408
 4615SOL    HW125307   3.090   1.444   8.865  0.6085  0.6923  2.0333
 4615SOL    HW225308   3.234   1.469   8.879 -1.2898  0.5586  0.1942
 4616SOL     OW25309   1.291   2.896   3.026 -0.3261  0.1851  0.1187
 4616SOL    HW125310   1.369   2.888   3.080 -0.4715 -0.0569  0.2964
 4616SOL    HW225311   1.320   2.951   2.954  0.2966 -0.3496 -0.0397
 4617SOL     OW25312   4.637   4.449   5.050 -0.7481 -0.3401 -0.2427
 4617SOL    HW125313   4.648   4.538   5.016  0.8230 -0.1310  0.8229
 4617SOL    HW225314   4.694   4.448   5.127  0.9295  0.0432 -1.4840
 4618SOL     OW25315   0.257   4.644   9.380  0.6186 -0.0210 -0.1215
 4618SOL    HW125316   0.267   0.010   9.339  0.3634 -0.1318 -0.4121
 4618SOL    HW225317   0.187   4.607   9.327 -0.2429  0.1037  0.9112
 4619SOL     OW25318   2.569   4.673  15.837 -0.1210  0.1625  0.1757
 4619SOL    HW125319   2.655   4.694  15.800  0.2746 -1.5750  0.1066
 4619SOL    HW225320   2.550   0.027  15.894 -0.8394  0.7029 -0.7654
 4620SOL     OW25321   3.876   1.956   8.039  0.0510 -0.6267  0.4156
 4620SOL    HW125322   3.879   1.991   8.128 -0.1669 -0.8038  0.4938
 4620SOL    HW225323   3.896   2.034   7.987  2.2699 -0.8610  0.9272
 4621SOL     OW25324   0.731   2.201   2.178  0.2546  0.3344  0.3113
 4621SOL    HW125325   0.716   2.288   2.214 -2.5951 -0.4555  1.0746
 4621SOL    HW225326   0.701   2.207   2.088 -0.6205 -0.8681  0.5176
 4622SOL     OW25327   1.155   1.426  10.255 -0.7612 -0.4683  0.3433
 4622SOL    HW125328   1.083   1.484  10.281  1.3064  2.0166  0.5407
 4622SOL    HW225329   1.216   1.452  10.323  0.3803  1.4821 -1.4167
 4623SOL     OW25330   3.952   3.604  10.297 -0.1094  0.2863 -0.2357
 4623SOL    HW125331   4.048   3.611  10.297 -0.0573 -0.4614  0.4908
 4623SOL    HW225332   3.934   3.670  10.230 -1.7290 -0.7798 -0.8512
 4624SOL     OW25333   0.982   4.668   9.390 -0.2410  0.3444 -0.3500
 4624SOL    HW125334   1.001   4.703   9.477  1.6440 -0.7278 -0.3311
 4624SOL    HW225335   1.023   4.582   9.396 -0.4266  0.2222 -0.7859
 4625SOL     OW25336   3.437   0.817   5.967  0.2069  0.7970 -0.7042
 4625SOL    HW125337   3.389   0.899   5.973 -1.1303 -0.1480  1.5634
 4625SOL    HW225338   3.460   0.797   6.058 -3.6351  3.3349  0.8318
 4626SOL     OW25339   3.781   1.609   8.786  0.5111 -0.5508 -0.3057
 4626SOL    HW125340   3.850   1.596   8.722 -0.5595  2.2205 -2.0469
 4626SOL    HW225341   3.779   1.524   8.830 -0.3330 -1.0815 -1.3563
 4627SOL     OW25342   2.026   3.024   2.751 -0.2043 -0.3427 -0.1013
 4627SOL    HW125343   2.003   2.957   2.687  0.3956  1.4786 -2.2286
 4627SOL    HW225344   2.099   3.068   2.707 -0.3438 -0.8346 -0.8213
 4628SOL     OW25345   3.158   3.433   5.454  0.1282  0.5887  0.1047
 4628SOL    HW125346   3.192   3.500   5.396  0.7555  1.3274  1.3157
 4628SOL    HW225347   3.098   3.484   5.509  0.0198  1.9238 -1.2533
 4629SOL     OW25348   1.265   4.145   5.254 -0.1681 -0.2722 -0.4468
 4629SOL    HW125349   1.292   4.196   5.178  0.3743  2.6293  1.6722
 4629SOL    HW225350   1.211   4.082   5.206 -0.7873 -0.0245 -0.0793
 4630SOL     OW25351   1.695   0.356   9.328 -0.1788  0.0698  0.1686
 4630SOL    HW125352   1.697   0.268   9.290 -1.8511  0.6938 -1.3399
 4630SOL    HW225353   1.781   0.374   9.368 -0.2088 -0.9019  0.6696
 4631SOL     OW25354   4.069   0.641   2.864  0.4647  0.3597 -0.4004
 4631SOL    HW125355   4.005   0.571   2.854  2.4160 -1.3806 -0.8056
 4631SOL    HW225356   4.089   0.667   2.774  1.1582  0.4160 -0.2271
 4632SOL     OW25357   4.397   2.778   0.254 -0.7356  0.0480  0.3037
 4632SOL    HW125358   4.393   2.806   0.345  2.3745 -2.1891  1.1456
 4632SOL    HW225359   4.347   2.839   0.200  0.6415  1.4846  0.6512
 4633SOL     OW25360   0.716   1.660   1.036  1.1945  0.0708  0.5046
 4633SOL    HW125361   0.635   1.611   1.052  0.3851  1.0111 -0.7613
 4633SOL    HW225362   0.674   1.745   1.024 -2.0739 -1.6933 -0.5966
 4634SOL     OW25363   3.857   2.771   9.130 -0.0866  1.0241  0.0249
 4634SOL    HW125364   3.803   2.770   9.209  1.4847  0.9601  1.1002
 4634SOL    HW225365   3.819   2.699   9.079 -1.0744  1.9933 -0.5942
 4635SOL     OW25366   3.698   4.526   5.037  0.1688 -0.1959  0.7447
 4635SOL    HW125367   3.663   4.530   5.126  0.1595  1.8921  0.6655
 4635SOL    HW225368   3.632   4.568   4.983  0.5840 -0.9317 -0.3277
 4636SOL     OW25369   2.024   3.103   8.238 -0.4708  0.3665  0.6581
 4636SOL    HW125370   2.065   3.017   8.227 -3.1016 -0.8771  0.6814
 4636SOL    HW225371   1.995   3.087   8.327 -0.4913 -1.0403  0.3996
 4637SOL     OW25372   2.200   2.458   7.467 -0.1462 -0.2174 -0.5616
 4637SOL    HW125373   2.177   2.549   7.490  1.5385  0.2185 -0.6111
 4637SOL    HW225374   2.188   2.428   7.557 -1.2670  0.4765 -0.4726
 4638SOL     OW25375   0.517   2.822   0.919  0.4764  0.4297  0.7824
 4638SOL    HW125376   0.498   2.914   0.900  0.0213  0.6477  2.3154
 4638SOL    HW225377   0.597   2.823   0.867  0.4307 -1.6396  0.6621
 4639SOL     OW25378   1.281   3.412   5.039 -0.0379 -0.0890 -0.2275
 4639SOL    HW125379   1.370   3.444   5.051  0.7989 -2.7096  0.6087
 4639SOL    HW225380   1.228   3.491   5.037 -0.1831 -0.0904  3.2486
 4640SOL     OW25381   3.813   0.195   9.365 -0.1491  0.1122 -0.5163
 4640SOL    HW125382   3.899   0.156   9.347 -0.6395  0.0012 -2.6236
 4640SOL    HW225383   3.820   0.211   9.459 -1.5036 -0.1425 -0.3779
 4641SOL     OW25384   2.377   3.358  14.027 -0.5823  0.1957  0.5503
 4641SOL    HW125385   2.451   3.356  13.967 -0.7884 -1.8973  0.3754
 4641SOL    HW225386   2.419   3.333  14.110  0.5843  1.8860  0.4748
 4642SOL     OW25387   2.643   3.271   5.949  0.0841  0.1608  0.0184
 4642SOL    HW125388   2.685   3.192   5.917 -2.2135 -1.9218  2.1825
 4642SOL    HW225389   2.698   3.280   6.027  0.1782 -2.1558  0.1966
 4643SOL     OW25390   3.265   0.709  10.570  0.1777  0.0290 -0.1772
 4643SOL    HW125391   3.316   0.664  10.638 -0.2270 -1.1552 -0.6732
 4643SOL    HW225392   3.328   0.767  10.526 -1.3289 -1.2766 -3.9262
 4644SOL     OW25393   3.635   3.228   9.371 -0.2248 -0.2159 -0.6848
 4644SOL    HW125394   3.657   3.321   9.366  2.2652 -0.7146  0.7161
 4644SOL    HW225395   3.718   3.189   9.399  0.2132  1.3191  0.1456
 4645SOL     OW25396   2.661   4.652   6.428  0.0101 -0.7910 -0.0976
 4645SOL    HW125397   2.751   4.637   6.457  0.3978  1.2466 -0.2662
 4645SOL    HW225398   2.630   4.701   6.505  0.4158 -1.5728  0.5679
 4646SOL     OW25399   2.532   0.335  13.693 -0.0789  0.5016 -0.1656
 4646SOL    HW125400   2.473   0.409  13.676 -0.0616  0.7194  0.6975
 4646SOL    HW225401   2.571   0.318  13.608  1.5118 -2.5130  1.1774
 4647SOL     OW25402   1.331   3.739  12.905 -0.3463  0.6375  0.0706
 4647SOL    HW125403   1.416   3.754  12.948 -0.7847 -0.7481  1.3951
 4647SOL    HW225404   1.363   3.684  12.834 -1.7588  0.2306 -0.2467
 4648SOL     OW25405   3.347   3.681   5.448  0.4009 -0.5032  0.3352
 4648SOL    HW125406   3.316   3.728   5.525  0.3276 -1.1699  0.7151
 4648SOL    HW225407   3.437   3.659   5.476  1.4092 -0.7082 -3.0338
 4649SOL     OW25408   1.771   3.713   4.347 -0.2143  0.4794  0.4326
 4649SOL    HW125409   1.815   3.769   4.410 -0.4903 -0.2867  1.3190
 4649SOL    HW225410   1.841   3.653   4.321 -0.8750 -0.5019  0.8981
 4650SOL     OW25411   2.132   0.791  13.182 -0.1898  0.8134 -0.4670
 4650SOL    HW125412   2.118   0.882  13.155  1.9434  1.1268 -0.5698
 4650SOL    HW225413   2.078   0.789  13.260  1.2814 -0.0030  0.5196
 4651SOL     OW25414   2.059   4.620  16.937  0.2504  0.3543  0.5248
 4651SOL    HW125415   2.062   4.624  16.841 -2.0113 -2.3237  0.3386
 4651SOL    HW225416   1.968   4.599  16.958 -0.0959  0.4345 -0.9156
 4652SOL     OW25417   1.001   4.637   8.328 -0.2403  0.0768 -0.0072
 4652SOL    HW125418   0.943   4.667   8.258 -0.3881 -0.5513 -0.1578
 4652SOL    HW225419   0.944   4.588   8.386 -1.2005 -0.2050 -1.1862
 4653SOL     OW25420   3.850   3.224   8.346 -0.2649  0.3446 -0.3720
 4653SOL    HW125421   3.890   3.189   8.425 -2.3475 -1.1202  0.0073
 4653SOL    HW225422   3.764   3.255   8.374 -0.3298  1.2007 -1.4819
 4654SOL     OW25423   1.619   3.350  17.368 -0.1532 -0.2680  0.0840
 4654SOL    HW125424   1.667   3.270  17.346  2.3999  0.5378  2.6830
 4654SOL    HW225425   1.543   3.317  17.416 -0.1377 -2.7424 -1.5505
 4655SOL     OW25426   1.970   2.135   3.844 -0.0847  0.3798  0.5984
 4655SOL    HW125427   1.896   2.085   3.876  1.0651 -2.0747 -0.5800
 4655SOL    HW225428   1.934   2.178   3.767 -0.5867 -0.8204  0.1690
 4656SOL     OW25429   2.502   2.150  12.188 -0.4267  0.0807  0.3715
 4656SOL    HW125430   2.456   2.104  12.258 -0.6709 -0.4978 -0.1617
 4656SOL    HW225431   2.522   2.077  12.129  0.2064  0.1180  0.5447
 4657SOL     OW25432   0.619   2.715  16.963  0.2230 -0.3567 -0.6670
 4657SOL    HW125433   0.638   2.752  17.049  0.9391  2.0449 -1.8747
 4657SOL    HW225434   0.524   2.699  16.967  0.0109  0.8215 -1.0390
 4658SOL     OW25435   1.680   4.261  10.540 -0.6791 -0.1454  0.2949
 4658SOL    HW125436   1.679   4.201  10.614  0.4558  1.3609  1.5272
 4658SOL    HW225437   1.590   4.288  10.525 -1.0441 -2.3389 -1.5223
 4659SOL     OW25438   0.390   1.966   4.926  0.5578 -0.2164 -0.0291
 4659SOL    HW125439   0.413   2.057   4.909  0.8390 -0.0120  1.4914
 4659SOL    HW225440   0.475   1.927   4.903 -0.6425 -1.5437 -2.2094
 4660SOL     OW25441   2.651   0.891   4.695 -0.1718  0.2713 -0.4051
 4660SOL    HW125442   2.660   0.821   4.631 -0.5875  0.2841 -0.4816
 4660SOL    HW225443   2.724   0.944   4.663  0.4618  0.7082  1.7279
 4661SOL     OW25444   1.758   2.793  15.880  0.4887 -0.0010 -0.0291
 4661SOL    HW125445   1.704   2.806  15.958 -0.5622  1.5978 -1.0376
 4661SOL    HW225446   1.806   2.876  15.876  0.5970 -0.0812 -0.4461
 4662SOL     OW25447   0.280   1.561   6.142  0.0697  0.0086 -0.0332
 4662SOL    HW125448   0.340   1.547   6.215 -2.2794 -2.9331  1.3411
 4662SOL    HW225449   0.223   1.629   6.179 -0.4812  0.0385 -0.9157
 4663SOL     OW25450   3.216   0.318   2.435  0.0221  0.3125  0.0708
 4663SOL    HW125451   3.185   0.408   2.452 -0.4766  0.2160 -0.3251
 4663SOL    HW225452   3.158   0.287   2.366 -1.1375 -1.3304  1.7833
 4664SOL     OW25453   0.126   0.882   5.776  0.2427  0.0830  0.1462
 4664SOL    HW125454   0.109   0.842   5.861  1.9552 -0.0349  0.4175
 4664SOL    HW225455   0.179   0.954   5.811  0.8814  0.1663 -0.9755
 4665SOL     OW25456   3.917   2.613   1.898 -0.4131 -0.2726 -0.2341
 4665SOL    HW125457   3.944   2.629   1.808  2.2094 -1.2471  0.3587
 4665SOL    HW225458   3.995   2.578   1.941  0.0240  1.3303  0.2817
 4666SOL     OW25459   0.666   1.878  15.720 -0.5297  0.0560 -0.0943
 4666SOL    HW125460   0.681   1.972  15.729 -2.8473  0.1367  3.0831
 4666SOL    HW225461   0.645   1.857  15.811  0.4337  1.1103  0.3633
 4667SOL     OW25462   2.935   2.694   0.594  0.1645 -0.0878  0.1688
 4667SOL    HW125463   2.925   2.663   0.683 -1.1883  0.4616  0.2067
 4667SOL    HW225464   2.873   2.642   0.542 -0.1524 -1.2625  1.7462
 4668SOL     OW25465   0.673   4.198   6.746  0.4363  0.2335 -0.5235
 4668SOL    HW125466   0.721   4.158   6.673  2.8795 -0.9135  1.6831
 4668SOL    HW225467   0.591   4.149   6.742  0.9016 -0.4957 -1.1436
 4669SOL     OW25468   2.785   2.050   5.302 -0.4168 -0.3108  0.1178
 4669SOL    HW125469   2.819   1.961   5.312 -2.3249 -0.7783  2.3585
 4669SOL    HW225470   2.724   2.033   5.230  0.2147 -1.0029 -0.2526
 4670SOL     OW25471   0.923   0.839   4.517  0.5114 -0.2905  0.2539
 4670SOL    HW125472   0.835   0.872   4.497  0.0444 -2.5074 -1.4539
 4670SOL    HW225473   0.965   0.826   4.432 -0.8476 -1.9395 -0.1749
 4671SOL     OW25474   1.774   0.292   8.254  1.3725 -0.1691 -0.0143
 4671SOL    HW125475   1.782   0.387   8.246  0.3069  0.1242  2.3959
 4671SOL    HW225476   1.844   0.276   8.317 -0.3987  0.0356  1.9935
 4672SOL     OW25477   2.201   3.607   4.616  0.1595 -0.3505 -0.2966
 4672SOL    HW125478   2.205   3.624   4.522  0.7623  0.8416 -0.0578
 4672SOL    HW225479   2.294   3.605   4.637  0.1065  1.4982  0.1169
 4673SOL     OW25480   4.082   4.266   7.208 -0.9187  0.8460  0.2850
 4673SOL    HW125481   4.156   4.235   7.260 -1.1439 -0.3258 -0.0771
 4673SOL    HW225482   4.058   4.177   7.181 -0.4069  1.5533 -2.4630
 4674SOL     OW25483   1.291   4.716  11.193 -0.1126  0.1741  0.2001
 4674SOL    HW125484   1.268   4.663  11.116 -0.1876 -1.8182  1.5843
 4674SOL    HW225485   1.263   4.656  11.263  0.3088 -1.9096 -1.4073
 4675SOL     OW25486   3.424   4.687   3.079 -0.4532  0.4388  0.7592
 4675SOL    HW125487   3.375   0.034   3.032  2.0480  1.6092 -0.1431
 4675SOL    HW225488   3.433   0.019   3.159 -2.4967 -0.2700  1.4574
 4676SOL     OW25489   0.127   1.055  16.722 -0.0376 -0.2048 -0.8277
 4676SOL    HW125490   0.089   1.004  16.651  0.4260 -1.1017 -0.4370
 4676SOL    HW225491   0.078   1.133  16.748 -1.9537 -1.3718 -0.9181
 4677SOL     OW25492   4.153   2.682   7.464  0.3558 -0.0565 -0.5845
 4677SOL    HW125493   4.132   2.590   7.447  1.5858 -0.5158  0.4420
 4677SOL    HW225494   4.225   2.676   7.526 -1.0218 -2.3633  0.8310
 4678SOL     OW25495   2.551   2.314   0.400 -0.0070  0.5756 -0.0806
 4678SOL    HW125496   2.580   2.249   0.335 -2.3885  0.1238 -0.6994
 4678SOL    HW225497   2.548   2.395   0.348 -0.3193  0.4288 -0.2934
 4679SOL     OW25498   4.548   4.342   6.093 -0.0085  0.0353 -0.3410
 4679SOL    HW125499   4.575   4.279   6.026  0.7794 -0.3281  0.3080
 4679SOL    HW225500   4.494   4.291   6.153 -1.3052  0.2690 -1.2998
 4680SOL     OW25501   3.575   1.964   8.791 -0.0203 -0.2067 -0.2108
 4680SOL    HW125502   3.603   2.055   8.802  1.2300 -0.7620  1.1533
 4680SOL    HW225503   3.599   1.927   8.876 -1.5472  2.7873  1.5650
 4681SOL     OW25504   0.919   1.219   2.465 -0.1662  0.1882  0.1154
 4681SOL    HW125505   0.883   1.152   2.524 -0.1249 -0.8571 -1.0486
 4681SOL    HW225506   0.926   1.170   2.384  1.8597 -0.2523  0.5748
 4682SOL     OW25507   4.192   0.361   3.612  0.2932  0.7386 -0.1983
 4682SOL    HW125508   4.258   0.344   3.680  0.5996  1.5956 -0.2838
 4682SOL    HW225509   4.246   0.375   3.534  0.7861  0.9670  0.1853
 4683SOL     OW25510   0.915   1.333   7.462 -0.1475  0.3087 -0.0818
 4683SOL    HW125511   0.838   1.345   7.406  0.7867 -0.9283 -1.6126
 4683SOL    HW225512   0.880   1.305   7.547  1.0103 -1.4104 -0.1885
 4684SOL     OW25513   2.440   2.466   3.006  0.2278 -0.1339  0.0412
 4684SOL    HW125514   2.406   2.380   2.983  0.4519 -0.1613 -0.1919
 4684SOL    HW225515   2.416   2.531   2.939 -2.5291 -0.2229  0.9673
 4685SOL     OW25516   3.991   0.506   1.197 -0.0719  0.4088  1.0406
 4685SOL    HW125517   3.910   0.529   1.151  1.4976 -0.9170 -2.3707
 4685SOL    HW225518   3.944   0.442   1.251  0.6962 -1.3020 -0.3124
 4686SOL     OW25519   2.580   2.254  11.515 -0.3042  0.0300  0.6981
 4686SOL    HW125520   2.535   2.184  11.466  0.5899  0.3109 -0.5181
 4686SOL    HW225521   2.667   2.237  11.480 -0.2771 -2.2360  1.8700
 4687SOL     OW25522   2.441   1.920   7.058  0.3360  0.2742 -0.1490
 4687SOL    HW125523   2.366   1.943   7.113 -0.3963  0.0352 -1.0504
 4687SOL    HW225524   2.397   1.888   6.980 -0.9052 -0.7067  0.9568
 4688SOL     OW25525   2.897   4.004   3.091 -0.3494 -0.0156  0.1231
 4688SOL    HW125526   2.910   3.997   2.996  0.0585  0.2642  0.1571
 4688SOL    HW225527   2.968   3.950   3.124 -1.4132 -0.2698  1.9586
 4689SOL     OW25528   2.296   2.448   1.420 -0.5387 -0.5625  0.0552
 4689SOL    HW125529   2.322   2.538   1.439  0.1191 -0.4233 -1.4975
 4689SOL    HW225530   2.321   2.403   1.501 -1.7021  0.2512  0.8511
 4690SOL     OW25531   3.416   4.432   3.981  0.0211 -0.3731 -0.0982
 4690SOL    HW125532   3.365   4.423   4.061 -0.7941  2.3128 -0.2988
 4690SOL    HW225533   3.495   4.475   4.012 -0.0827  0.0481 -0.4148
 4691SOL     OW25534   3.516   3.095  12.191  0.5024  0.6437  0.7789
 4691SOL    HW125535   3.482   3.110  12.279  1.0676 -0.7675  1.2378
 4691SOL    HW225536   3.604   3.060  12.208  0.9708  1.4095 -0.0825
 4692SOL     OW25537   3.928   2.907  12.655  0.2043 -0.2603  0.4814
 4692SOL    HW125538   3.892   2.833  12.704  1.1538 -0.0447  1.4966
 4692SOL    HW225539   3.919   2.971  12.726 -1.4163 -0.0479  0.0702
 4693SOL     OW25540   2.487   3.511  11.960 -0.1391  0.4682 -0.0706
 4693SOL    HW125541   2.476   3.518  11.865 -0.9163  0.9627  0.0635
 4693SOL    HW225542   2.491   3.605  11.976 -1.0417  0.4076  0.4604
 4694SOL     OW25543   1.704   2.464   8.028  0.2640 -0.4016 -0.2243
 4694SOL    HW125544   1.710   2.560   8.029 -2.0441 -0.1938 -3.9922
 4694SOL    HW225545   1.788   2.440   7.988  0.8307  0.2888  0.5445
 4695SOL     OW25546   1.380   2.138   7.061  0.1949  0.1610 -0.2318
 4695SOL    HW125547   1.431   2.201   7.012 -1.4214  1.3188 -0.4364
 4695SOL    HW225548   1.364   2.194   7.137  1.6096 -0.2953  0.4033
 4696SOL     OW25549   4.079   4.137   6.919 -0.0645  0.2770  0.5146
 4696SOL    HW125550   4.074   4.213   6.862  0.4715  0.0076  0.1122
 4696SOL    HW225551   4.128   4.177   6.991  1.7276 -1.4094  0.2154
 4697SOL     OW25552   3.649   4.300   9.948 -0.4497 -0.3666 -0.0522
 4697SOL    HW125553   3.586   4.371   9.962  0.5718  0.5939 -0.3583
 4697SOL    HW225554   3.625   4.274   9.859 -0.0039  1.1282 -0.5999
 4698SOL     OW25555   0.257   3.603   4.144 -0.0334 -0.4034 -0.2706
 4698SOL    HW125556   0.227   3.586   4.054 -0.3954  2.3399 -0.6556
 4698SOL    HW225557   0.179   3.582   4.196 -0.0864  0.5887  0.0394
 4699SOL     OW25558   2.251   1.951   8.212 -0.5781  0.3104 -0.2295
 4699SOL    HW125559   2.340   1.951   8.177  0.1237  1.2246  1.5357
 4699SOL    HW225560   2.266   1.956   8.307  0.0698  1.4337 -0.3957
 4700SOL     OW25561   1.236   2.223   2.679 -0.3464 -0.4716  0.1786
 4700SOL    HW125562   1.242   2.305   2.727  0.8075  0.7440 -2.0272
 4700SOL    HW225563   1.141   2.209   2.672 -0.2252 -2.2849  2.2537
 4701SOL     OW25564   3.178   2.915   3.222 -0.1161  0.3890  0.3034
 4701SOL    HW125565   3.117   2.981   3.189 -2.5789 -0.9475  2.2541
 4701SOL    HW225566   3.130   2.871   3.292  1.4585 -0.6335  0.7356
 4702SOL     OW25567   1.600   1.192  13.855 -0.1067  0.4754 -0.1800
 4702SOL    HW125568   1.587   1.098  13.840  2.2273  0.2350 -0.7608
 4702SOL    HW225569   1.647   1.220  13.777  0.6697 -2.9394 -0.9638
 4703SOL     OW25570   3.424   1.284   9.628  0.6906 -0.0571  0.0578
 4703SOL    HW125571   3.464   1.360   9.586  1.5316  0.9915  2.7011
 4703SOL    HW225572   3.330   1.298   9.618  1.1989  1.4871 -2.4594
 4704SOL     OW25573   0.557   1.998   4.087  0.1436  0.1984  0.1088
 4704SOL    HW125574   0.622   1.983   4.156  1.1444  0.0629 -0.8779
 4704SOL    HW225575   0.618   2.044   4.029 -0.0010  0.0550 -0.1533
 4705SOL     OW25576   0.852   2.782   5.067 -0.1449  0.1371  0.1159
 4705SOL    HW125577   0.914   2.777   5.140  1.0236 -0.9053 -0.9559
 4705SOL    HW225578   0.831   2.876   5.070  0.0221  0.2784 -3.2341
 4706SOL     OW25579   4.094   1.426   5.829  0.1167  0.1745  0.4632
 4706SOL    HW125580   4.188   1.444   5.824  0.2301  0.0685  2.5933
 4706SOL    HW225581   4.059   1.508   5.861 -0.6826 -1.0492  2.7298
 4707SOL     OW25582   0.571   0.267   6.189 -0.6420 -0.3012 -0.5761
 4707SOL    HW125583   0.627   0.274   6.266  0.1340 -1.1569 -1.0612
 4707SOL    HW225584   0.577   0.174   6.170 -0.9014  0.0095 -2.1483
 4708SOL     OW25585   0.202   2.326  10.544 -0.8351 -0.4947 -0.4311
 4708SOL    HW125586   0.269   2.327  10.475  0.1895  0.6507  0.5650
 4708SOL    HW225587   0.178   2.419  10.549  2.0028  0.2276 -0.2095
 4709SOL     OW25588   2.232   0.229  15.506  0.5106  0.2005 -0.1805
 4709SOL    HW125589   2.262   0.313  15.472  1.6852  0.4013  1.3689
 4709SOL    HW225590   2.306   0.168  15.501 -0.7840 -1.2741 -1.4458
 4710SOL     OW25591   0.281   4.180   7.091  0.1520  0.2393 -0.0205
 4710SOL    HW125592   0.291   4.276   7.095 -0.3377  0.2834  0.2191
 4710SOL    HW225593   0.332   4.161   7.170 -1.1691 -1.5862  0.3697
 4711SOL     OW25594   3.428   3.179   7.793  0.8703  0.2365 -0.0327
 4711SOL    HW125595   3.485   3.200   7.867 -0.2017  2.5338  0.1494
 4711SOL    HW225596   3.473   3.113   7.742 -1.2662  1.2870 -3.2784
 4712SOL     OW25597   2.892   3.296  11.397 -0.0762 -0.8622 -0.3861
 4712SOL    HW125598   2.905   3.207  11.429 -1.5009 -0.3604  1.5847
 4712SOL    HW225599   2.975   3.329  11.432 -0.9259  2.7354 -1.7778
 4713SOL     OW25600   3.492   4.582  14.356  0.0481  0.4736 -0.0093
 4713SOL    HW125601   3.471   4.543  14.271  1.0447  1.9997 -0.9463
 4713SOL    HW225602   3.538   4.661  14.328 -0.2858  0.4153 -0.7114
 4714SOL     OW25603   1.822   2.149   8.103 -0.7234  0.3341  0.0966
 4714SOL    HW125604   1.895   2.087   8.103 -1.7337 -0.8594  0.9561
 4714SOL    HW225605   1.848   2.210   8.034 -1.2612 -0.8793 -1.2158
 4715SOL     OW25606   0.539   3.641  13.376 -0.3117 -0.3303 -0.1472
 4715SOL    HW125607   0.593   3.573  13.336  2.5652  2.4540 -1.0309
 4715SOL    HW225608   0.461   3.592  13.351 -0.6776  0.8865 -1.3991
 4716SOL     OW25609   0.931   4.230   4.776  0.2170  0.2612  0.5016
 4716SOL    HW125610   0.975   4.197   4.697 -0.1363  2.3960 -0.5862
 4716SOL    HW225611   0.857   4.169   4.772  0.5178 -0.0792  0.1788
 4717SOL     OW25612   3.423   3.502  11.819 -0.3696 -0.4774 -0.3304
 4717SOL    HW125613   3.436   3.584  11.866 -3.2020  0.8344 -1.8532
 4717SOL    HW225614   3.337   3.475  11.852 -1.1988  1.5142 -0.8731
 4718SOL     OW25615   4.163   2.306   4.211  0.0563  0.1038 -0.0039
 4718SOL    HW125616   4.183   2.235   4.272  2.5526 -2.2523 -3.5546
 4718SOL    HW225617   4.122   2.255   4.141  2.4940  0.0110 -1.3676
 4719SOL     OW25618   1.544   3.081   3.446  0.0811  0.4630  0.0763
 4719SOL    HW125619   1.602   3.022   3.400 -2.7491 -3.0437  1.0413
 4719SOL    HW225620   1.475   3.017   3.463  1.3602 -0.8709  0.1331
 4720SOL     OW25621   3.805   0.283   3.450 -0.3063  0.2508 -0.2581
 4720SOL    HW125622   3.864   0.357   3.468 -0.9537  1.0923 -1.6107
 4720SOL    HW225623   3.855   0.223   3.395 -0.1306 -1.8924  2.2368
 4721SOL     OW25624   3.821   0.806   9.348 -0.4580 -0.3651  0.3662
 4721SOL    HW125625   3.821   0.710   9.346 -0.1915 -0.3453 -0.6236
 4721SOL    HW225626   3.801   0.820   9.440  0.3868 -0.0678  0.5019
 4722SOL     OW25627   3.122   4.241  13.691  0.1342 -0.0345 -0.2868
 4722SOL    HW125628   3.151   4.153  13.716 -0.0629 -0.2670 -0.8845
 4722SOL    HW225629   3.166   4.298  13.755 -0.7002  0.9319 -0.5831
 4723SOL     OW25630   4.277   0.560   5.556 -0.2650  0.4565  0.0281
 4723SOL    HW125631   4.328   0.612   5.493 -1.6907  1.1850 -0.5182
 4723SOL    HW225632   4.213   0.621   5.592 -1.4437 -0.5248 -0.3868
 4724SOL     OW25633   2.987   1.770   4.394  0.2162 -0.0149 -0.0790
 4724SOL    HW125634   2.966   1.862   4.410 -0.6808 -0.4625  1.3119
 4724SOL    HW225635   3.072   1.763   4.438  1.1319  3.8220 -1.2230
 4725SOL     OW25636   2.076   3.996  13.190 -0.2085  0.0728 -0.3390
 4725SOL    HW125637   2.123   3.933  13.136  1.5213  0.2610  0.9632
 4725SOL    HW225638   2.029   4.042  13.120 -0.0997  0.6563 -0.0330
 4726SOL     OW25639   4.176   0.131   2.352 -0.6978  0.1535  0.1937
 4726SOL    HW125640   4.119   0.115   2.277 -1.7879  0.0298  1.0528
 4726SOL    HW225641   4.166   0.224   2.371 -2.2662 -0.2878  1.4635
 4727SOL     OW25642   2.200   0.395   5.854 -0.3370  0.1721 -0.0206
 4727SOL    HW125643   2.218   0.489   5.850 -0.1312  0.1033 -0.6567
 4727SOL    HW225644   2.281   0.351   5.879  0.9225  1.6273 -1.5473
 4728SOL     OW25645   4.644   3.202  10.600 -0.2173 -0.2844  0.2221
 4728SOL    HW125646   4.625   3.129  10.659 -0.0157 -0.2895  0.2814
 4728SOL    HW225647   4.699   3.255  10.658 -0.6194  1.9540 -1.4217
 4729SOL     OW25648   1.839   4.317   1.744 -0.4136 -0.1568 -0.0816
 4729SOL    HW125649   1.915   4.364   1.777  1.4642 -1.5555 -2.4182
 4729SOL    HW225650   1.783   4.335   1.819  0.8193  1.5415  0.4302
 4730SOL     OW25651   4.530   0.630   5.382  0.3765 -0.1416  0.3487
 4730SOL    HW125652   4.499   0.698   5.441 -2.3969 -0.2887 -0.8884
 4730SOL    HW225653   4.562   0.568   5.447  1.5062 -0.1426 -0.2119
 4731SOL     OW25654   2.462   4.512   3.163  0.1839  0.7511 -0.0595
 4731SOL    HW125655   2.493   4.476   3.079 -0.1627  2.5019 -0.9460
 4731SOL    HW225656   2.459   4.433   3.217  0.6087  2.9080  3.1179
 4732SOL     OW25657   0.340   2.699   2.812  0.0456 -0.7849  0.1840
 4732SOL    HW125658   0.321   2.743   2.895 -0.2765 -1.7412  0.6203
 4732SOL    HW225659   0.436   2.704   2.820  0.1935 -1.5151 -1.2443
 4733SOL     OW25660   3.765   1.034   2.820 -0.2001 -0.4560  0.1178
 4733SOL    HW125661   3.794   0.949   2.786  0.6464 -0.0411 -0.2078
 4733SOL    HW225662   3.706   1.059   2.749  0.8003 -1.5394 -1.0941
 4734SOL     OW25663   0.191   3.916   6.184  0.2261  0.0395 -0.2600
 4734SOL    HW125664   0.196   3.884   6.274  1.0798 -0.1404 -0.3709
 4734SOL    HW225665   0.274   3.883   6.150  0.1972 -2.2437  1.9034
 4735SOL     OW25666   2.182   1.168  11.760 -0.1163 -0.0445  0.1196
 4735SOL    HW125667   2.169   1.142  11.668  2.0528  0.2111 -0.2634
 4735SOL    HW225668   2.208   1.259  11.748 -1.1167  0.0281 -1.5845
 4736SOL     OW25669   1.014   2.558   0.458 -0.5408 -0.1922  0.0736
 4736SOL    HW125670   1.083   2.570   0.523 -0.8730  1.2023  0.1655
 4736SOL    HW225671   1.011   2.646   0.421 -0.5356  0.3751  1.4571
 4737SOL     OW25672   3.876   3.995   1.618  0.4178  0.2509 -0.2259
 4737SOL    HW125673   3.930   3.969   1.543  0.5454 -0.8779  0.2606
 4737SOL    HW225674   3.882   4.090   1.621  1.7498  0.1040  1.5812
 4738SOL     OW25675   1.328   2.511   8.060 -0.0216  0.6296 -0.8477
 4738SOL    HW125676   1.372   2.434   8.023  1.1052  0.4213  0.9334
 4738SOL    HW225677   1.236   2.486   8.070  0.5350 -1.7481 -1.7604
 4739SOL     OW25678   2.223   2.965  13.584  0.1696 -0.4032 -0.4911
 4739SOL    HW125679   2.163   3.034  13.556  2.1680  1.0298 -1.2490
 4739SOL    HW225680   2.171   2.899  13.630 -1.2999  0.8723 -0.3213
 4740SOL     OW25681   2.286   2.612   7.886  0.1553 -0.2763  0.1371
 4740SOL    HW125682   2.368   2.605   7.933 -0.5400 -4.1315  0.7797
 4740SOL    HW225683   2.221   2.613   7.956  0.4868  1.4953  0.4328
 4741SOL     OW25684   0.383   1.113   7.123 -0.0684  0.2779 -0.6702
 4741SOL    HW125685   0.304   1.158   7.152 -0.7123  0.8639 -3.3861
 4741SOL    HW225686   0.397   1.043   7.186 -1.9700  0.5653  0.0523
 4742SOL     OW25687   2.538   3.328  12.517 -0.3297 -0.4934  0.2291
 4742SOL    HW125688   2.445   3.331  12.492 -0.0917  2.1533 -0.3290
 4742SOL    HW225689   2.530   3.246  12.566  0.7345  0.9626  2.8479
 4743SOL     OW25690   0.760   3.135   2.398  0.1672 -0.4116 -0.2863
 4743SOL    HW125691   0.800   3.174   2.476  1.5962  1.4080 -1.9248
 4743SOL    HW225692   0.701   3.077   2.445 -0.1494  0.4648  0.3812
 4744SOL     OW25693   3.355   0.574   7.866  0.0759  0.3882  0.6909
 4744SOL    HW125694   3.280   0.630   7.844 -0.9119 -0.7972  1.0614
 4744SOL    HW225695   3.433   0.627   7.849  0.7834 -0.7497  0.3944
 4745SOL     OW25696   3.033   4.143   4.540  0.3991 -0.5131 -0.1619
 4745SOL    HW125697   3.090   4.069   4.564 -0.5727 -1.2329 -0.0945
 4745SOL    HW225698   2.999   4.121   4.453  1.1676 -2.0606 -0.0841
 4746SOL     OW25699   2.528   2.980  15.531 -0.4111 -0.4098 -0.3456
 4746SOL    HW125700   2.524   3.075  15.530 -0.8220 -0.4326 -1.4735
 4746SOL    HW225701   2.477   2.966  15.611 -0.2291 -2.0622 -0.5021
 4747SOL     OW25702   0.468   4.296   9.576  0.3296  0.3046 -0.5652
 4747SOL    HW125703   0.373   4.284   9.564  0.5377  1.0303 -2.8244
 4747SOL    HW225704   0.460   4.275   9.669 -1.1795  3.8507  0.1225
 4748SOL     OW25705   3.563   0.634   0.940  0.5769  0.6947  0.0278
 4748SOL    HW125706   3.622   0.709   0.930  0.6208  0.2807 -2.7896
 4748SOL    HW225707   3.496   0.649   0.872  0.5841 -0.1933 -0.1696
 4749SOL     OW25708   3.715   4.415  11.290 -0.3842  0.2102  0.0600
 4749SOL    HW125709   3.768   4.430  11.369 -1.1287  1.0229  0.4016
 4749SOL    HW225710   3.627   4.408  11.327  0.3873 -0.2704  1.8270
 4750SOL     OW25711   4.465   4.595   9.147  0.3706  0.0044 -0.2462
 4750SOL    HW125712   4.536   4.575   9.087  2.2339  2.0225  1.2946
 4750SOL    HW225713   4.388   4.609   9.092 -0.0214 -0.1060  0.2753
 4751SOL     OW25714   3.214   0.834   4.100 -0.1865 -0.1080 -0.6014
 4751SOL    HW125715   3.184   0.814   4.011 -0.5453 -1.4795 -0.1773
 4751SOL    HW225716   3.273   0.907   4.081  1.7349 -1.1899  1.1951
 4752SOL     OW25717   3.842   0.017  16.733 -0.2668  0.2218  0.2299
 4752SOL    HW125718   3.876   0.086  16.790 -0.3856  1.4235 -1.1469
 4752SOL    HW225719   3.771   0.054  16.681  1.6731  0.1258 -2.5110
 4753SOL     OW25720   4.218   3.154  15.902  0.3112 -0.0033 -0.2002
 4753SOL    HW125721   4.122   3.154  15.907  0.4173 -1.1693  1.7295
 4753SOL    HW225722   4.224   3.085  15.836 -0.8280 -0.0588 -0.2439
 4754SOL     OW25723   1.876   3.918   7.465  0.0462  0.3802 -0.4294
 4754SOL    HW125724   1.822   3.845   7.495 -1.1145  0.3911 -2.4600
 4754SOL    HW225725   1.961   3.896   7.502  0.4133  0.8950 -0.9622
 4755SOL     OW25726   1.135   0.524   2.275  0.4419  0.7588  0.1575
 4755SOL    HW125727   1.219   0.569   2.284  0.7297  0.0659  0.9504
 4755SOL    HW225728   1.156   0.458   2.208  0.3538  0.0161  0.8628
 4756SOL     OW25729   0.067   0.537   0.627  0.6576  0.2712  0.0783
 4756SOL    HW125730   4.694   0.553   0.646 -0.0711 -5.1297  0.8707
 4756SOL    HW225731   0.066   0.441   0.624 -0.3203  0.3043 -1.0050
 4757SOL     OW25732   4.010   4.389   1.861  0.8148  0.1360  0.4590
 4757SOL    HW125733   4.048   4.317   1.911 -1.3862 -3.4903 -3.1046
 4757SOL    HW225734   3.959   4.333   1.802  1.2892  1.1615 -0.9232
 4758SOL     OW25735   1.266   4.361   3.748 -0.3416 -0.0390  0.3405
 4758SOL    HW125736   1.207   4.308   3.802 -0.9867  1.2684  0.9279
 4758SOL    HW225737   1.353   4.320   3.749 -0.6788 -0.7481  0.8034
 4759SOL     OW25738   0.628   2.959   8.417  0.0980 -0.1550 -0.0687
 4759SOL    HW125739   0.605   3.041   8.460 -0.6110 -0.5609  0.3212
 4759SOL    HW225740   0.678   2.915   8.485  1.1387 -0.0104 -0.7273
 4760SOL     OW25741   3.551   1.666  15.899 -0.0226  0.2177  0.1559
 4760SOL    HW125742   3.512   1.612  15.830 -0.0841 -0.7563  0.9615
 4760SOL    HW225743   3.480   1.718  15.935  0.0356 -0.8000  1.7271
 4761SOL     OW25744   4.226   2.095   5.172  0.3581  0.1449  0.3854
 4761SOL    HW125745   4.185   2.091   5.086  0.9790 -0.3250  0.1110
 4761SOL    HW225746   4.246   2.002   5.177  2.0288  0.4337 -1.0661
 4762SOL     OW25747   4.177   2.955   6.514 -0.0054 -0.5605 -0.2208
 4762SOL    HW125748   4.103   2.917   6.466 -1.5766  1.1017  0.8579
 4762SOL    HW225749   4.170   2.899   6.592 -0.2182 -0.1678  0.0445
 4763SOL     OW25750   1.676   3.330  10.181  0.4126  0.2388  0.3102
 4763SOL    HW125751   1.599   3.313  10.127  0.0918 -2.3854  1.5664
 4763SOL    HW225752   1.726   3.390  10.125 -0.5411  0.3657 -0.3972
 4764SOL     OW25753   3.030   0.927   3.198  0.2681 -0.1804  0.2375
 4764SOL    HW125754   3.045   0.992   3.267 -0.0951 -0.8189  0.9176
 4764SOL    HW225755   2.939   0.905   3.219  0.1284  0.9697  0.8431
 4765SOL     OW25756   1.109   4.371   5.406 -0.0365  0.3153 -0.7323
 4765SOL    HW125757   1.017   4.377   5.384 -0.2217  1.3789  0.3580
 4765SOL    HW225758   1.131   4.285   5.369  0.7198 -0.0946  0.6447
 4766SOL     OW25759   2.264   0.818   6.697 -0.4957  0.0602  0.5828
 4766SOL    HW125760   2.191   0.857   6.744 -0.5511 -0.4016  0.8805
 4766SOL    HW225761   2.240   0.841   6.608 -0.5027  0.1372  0.6043
 4767SOL     OW25762   3.130   2.042  17.518 -0.0918  0.0549 -0.1248
 4767SOL    HW125763   3.193   2.097  17.565  0.7184 -0.2425 -0.8502
 4767SOL    HW225764   3.047   2.057  17.563  2.0061  1.4614  3.3084
 4768SOL     OW25765   0.968   3.518   1.243 -0.2081 -0.0306  0.0941
 4768SOL    HW125766   1.013   3.447   1.198 -1.2397 -0.8287  0.3175
 4768SOL    HW225767   1.016   3.510   1.326  1.2770  1.0950 -0.6523
 4769SOL     OW25768   3.120   0.326   8.694 -0.3270 -0.6164  0.3817
 4769SOL    HW125769   3.077   0.333   8.779 -2.2120  2.2713 -0.8453
 4769SOL    HW225770   3.207   0.353   8.723 -0.6687  0.7464  0.0934
 4770SOL     OW25771   0.231   2.809   3.750  0.5813  0.1714  0.1346
 4770SOL    HW125772   0.318   2.832   3.717 -1.0467  1.5170 -3.1577
 4770SOL    HW225773   0.200   2.747   3.684  0.8508  1.1960 -0.9511
 4771SOL     OW25774   2.198   1.687  13.481  0.2300  0.5151  0.3893
 4771SOL    HW125775   2.276   1.705  13.429  0.2903 -1.5836 -0.2500
 4771SOL    HW225776   2.190   1.592  13.474  1.5290  0.3854  0.6951
 4772SOL     OW25777   1.391   1.951   5.498  0.1653  0.1449 -0.5489
 4772SOL    HW125778   1.371   1.862   5.471 -0.4650 -0.7020  2.6046
 4772SOL    HW225779   1.314   1.998   5.530  1.5471  0.1946  2.7392
 4773SOL     OW25780   2.391   0.400   9.740 -0.2933  0.2892  0.0954
 4773SOL    HW125781   2.387   0.466   9.810 -1.1210  0.3427 -0.0096
 4773SOL    HW225782   2.333   0.329   9.765  2.8408 -1.8521  1.3046
 4774SOL     OW25783   2.085   2.850  11.356  0.2446 -0.3246 -0.1939
 4774SOL    HW125784   2.148   2.779  11.371  0.2802 -0.0503  0.9477
 4774SOL    HW225785   2.014   2.810  11.406  0.2424  0.6621  0.5925
 4775SOL     OW25786   0.514   2.406   7.806 -0.2981  0.1844  0.0451
 4775SOL    HW125787   0.521   2.360   7.723 -0.6264 -0.0358  0.1410
 4775SOL    HW225788   0.604   2.402   7.840  0.3258  0.9003 -1.5250
 4776SOL     OW25789   3.929   1.364   9.333 -0.0727 -0.0395  0.9112
 4776SOL    HW125790   3.884   1.291   9.376 -1.0857  0.4355  0.6565
 4776SOL    HW225791   3.939   1.427   9.405  2.7717 -0.8333  1.1934
 4777SOL     OW25792   3.070   3.505   2.166 -0.3643 -0.1201 -0.1425
 4777SOL    HW125793   2.979   3.532   2.175 -0.7979 -2.1166  1.5142
 4777SOL    HW225794   3.070   3.409   2.168 -1.3796 -0.1093  0.0022
 4778SOL     OW25795   1.954   0.382   5.992 -0.6835  0.3448  0.0219
 4778SOL    HW125796   2.040   0.419   5.968 -0.7614  0.6941  0.2756
 4778SOL    HW225797   1.949   0.308   5.932 -2.6352  1.1003 -0.7393
 4779SOL     OW25798   1.269   2.372   1.072 -0.1585  0.0161 -0.1422
 4779SOL    HW125799   1.294   2.315   0.999 -1.2681  0.0657 -0.5570
 4779SOL    HW225800   1.352   2.415   1.093  1.5376 -2.6253 -1.3854
 4780SOL     OW25801   4.256   1.035   5.744  0.8365 -0.1176 -0.0947
 4780SOL    HW125802   4.174   1.068   5.781  0.6765 -0.7090  0.0699
 4780SOL    HW225803   4.222   0.955   5.705  0.0227 -1.0104  2.4775
 4781SOL     OW25804   0.970   2.146   2.310 -0.0908  0.1163  0.1855
 4781SOL    HW125805   0.889   2.138   2.259 -0.7054  0.4228  1.1171
 4781SOL    HW225806   1.025   2.130   2.233 -1.0863  0.2139 -0.5463
 4782SOL     OW25807   2.220   2.340   4.169  0.1271  0.2468 -0.5456
 4782SOL    HW125808   2.266   2.257   4.165 -0.3875 -0.0853  0.4840
 4782SOL    HW225809   2.209   2.343   4.264  1.1493 -0.7231 -0.3921
 4783SOL     OW25810   2.249   0.343  11.925 -0.5038  0.4092  0.3674
 4783SOL    HW125811   2.329   0.395  11.936 -1.2544  1.3031  1.6334
 4783SOL    HW225812   2.276   0.296  11.846 -1.2384  0.8709 -0.1598
 4784SOL     OW25813   0.153   4.610   4.735 -0.0014 -0.2405  0.0313
 4784SOL    HW125814   0.127   4.598   4.643  2.6825 -3.2748 -0.3069
 4784SOL    HW225815   0.064   4.635   4.759 -0.0465 -1.1459  0.7983
 4785SOL     OW25816   4.153   0.439   7.017 -0.2747 -0.2266  0.1780
 4785SOL    HW125817   4.100   0.448   7.096  1.4063 -1.3074  1.4123
 4785SOL    HW225818   4.086   0.415   6.953 -1.8746  0.5977  1.5494
 4786SOL     OW25819   1.507   4.009   9.095 -0.1892 -1.0879  0.2309
 4786SOL    HW125820   1.581   3.987   9.151  0.4379  1.1170  0.2692
 4786SOL    HW225821   1.529   3.963   9.014 -0.6832 -0.5012 -0.2366
 4787SOL     OW25822   1.214   3.991   0.060 -0.6797 -0.5068 -0.0533
 4787SOL    HW125823   1.204   4.049  17.667 -4.2059 -2.6802 -1.2595
 4787SOL    HW225824   1.145   3.925   0.049  0.1928 -1.8677  2.6560
 4788SOL     OW25825   1.287   3.884   9.184 -0.4007 -0.0360 -0.1152
 4788SOL    HW125826   1.266   3.924   9.268  2.0165  1.2339 -0.1075
 4788SOL    HW225827   1.373   3.923   9.171 -0.4501  0.4106  0.9515
 4789SOL     OW25828   3.597   2.354   2.539 -0.0452 -0.6040  0.5011
 4789SOL    HW125829   3.621   2.407   2.616 -0.6959 -0.1273  0.3777
 4789SOL    HW225830   3.676   2.301   2.527  0.8214  1.0989 -1.3032
 4790SOL     OW25831   4.592   2.832   8.857 -0.5277 -0.2058 -0.1072
 4790SOL    HW125832   4.518   2.825   8.796 -1.0560 -1.9327  0.7279
 4790SOL    HW225833   4.539   2.847   8.935 -1.3436  0.5326 -0.8009
 4791SOL     OW25834   1.471   0.130   7.421 -0.1133  0.3820  0.5945
 4791SOL    HW125835   1.562   0.107   7.404 -0.2358  1.5250 -1.5992
 4791SOL    HW225836   1.467   0.164   7.510 -2.1262 -1.0016  1.0410
 4792SOL     OW25837   3.442   2.711   3.494  0.0516  0.1585 -0.3047
 4792SOL    HW125838   3.431   2.759   3.412 -0.9018 -2.7148 -1.8463
 4792SOL    HW225839   3.351   2.701   3.520  0.1848 -0.8308 -0.2237
 4793SOL     OW25840   3.218   2.343   5.837 -0.0731  0.4493  0.0436
 4793SOL    HW125841   3.169   2.313   5.914 -0.4099  1.2154  0.1304
 4793SOL    HW225842   3.234   2.256   5.801  1.7885  0.9585 -0.3750
 4794SOL     OW25843   3.684   0.198   3.934 -0.4562 -0.2217 -0.6358
 4794SOL    HW125844   3.681   0.163   3.845 -0.1044 -0.1884 -0.6627
 4794SOL    HW225845   3.761   0.255   3.927  0.1629 -0.9383  0.3973
 4795SOL     OW25846   1.639   2.996   6.460 -0.1646 -0.3732  0.0399
 4795SOL    HW125847   1.684   3.023   6.540  1.5891 -0.7472 -0.8142
 4795SOL    HW225848   1.591   2.921   6.493 -0.4150 -0.1756  0.1303
 4796SOL     OW25849   0.958   1.898   9.699  0.0633 -0.3347 -0.6621
 4796SOL    HW125850   0.870   1.933   9.718  0.4075  0.4224 -0.4730
 4796SOL    HW225851   0.999   1.979   9.670 -3.4674  1.2242 -1.3950
 4797SOL     OW25852   1.450   4.134   5.576  0.2638  0.1213 -0.5550
 4797SOL    HW125853   1.513   4.186   5.627  0.4385  1.7845 -2.4525
 4797SOL    HW225854   1.496   4.052   5.562  0.0965  0.0531 -0.7050
 4798SOL     OW25855   1.304   1.951  14.374 -0.1005  0.7439  0.2707
 4798SOL    HW125856   1.228   1.902  14.406 -0.6121  0.5847 -1.1814
 4798SOL    HW225857   1.275   1.945  14.283 -2.3042 -1.2184  1.0825
 4799SOL     OW25858   2.442   0.639   6.676  0.4819  0.0883 -0.0477
 4799SOL    HW125859   2.399   0.593   6.604  0.0499  0.3308  0.0523
 4799SOL    HW225860   2.367   0.695   6.698 -0.4237 -1.0241 -0.3018
 4800SOL     OW25861   0.389   1.516   6.414 -0.6555 -0.4949 -0.0783
 4800SOL    HW125862   0.399   1.421   6.406  0.7700 -0.2148 -1.4788
 4800SOL    HW225863   0.330   1.518   6.490 -0.8738  0.0853 -0.2669
 4801SOL     OW25864   1.268   2.057   1.281  0.0456  0.4398 -0.6833
 4801SOL    HW125865   1.280   2.131   1.222 -2.0225  0.0270 -1.6071
 4801SOL    HW225866   1.243   2.099   1.363  1.0877  0.8334 -0.5727
 4802SOL     OW25867   0.454   4.322   3.083  0.0391 -0.1368  0.2468
 4802SOL    HW125868   0.371   4.343   3.042 -1.4955  0.1625  3.4747
 4802SOL    HW225869   0.512   4.352   3.013  0.5539  0.0654  0.7553
 4803SOL     OW25870   4.259   3.727   3.578  0.4224  0.0944 -0.2255
 4803SOL    HW125871   4.348   3.693   3.565 -0.4847 -2.2231 -0.4400
 4803SOL    HW225872   4.254   3.713   3.672  2.5306 -0.1731 -0.1498
 4804SOL     OW25873   0.256   1.921   9.268  0.0587 -0.5296  0.0313
 4804SOL    HW125874   0.165   1.949   9.280 -0.2245 -1.0393 -0.8867
 4804SOL    HW225875   0.307   1.980   9.323  1.6227 -0.5178 -1.4074
 4805SOL     OW25876   0.016   3.930   3.485  0.0518 -0.4275  0.4088
 4805SOL    HW125877   0.087   3.892   3.537  0.4595  2.4626  1.9539
 4805SOL    HW225878   0.007   4.008   3.539 -0.4528  1.4226 -2.3454
 4806SOL     OW25879   1.189   2.579   7.313 -0.0086 -0.3187 -0.1448
 4806SOL    HW125880   1.168   2.647   7.248  0.6273 -0.3997 -0.4281
 4806SOL    HW225881   1.199   2.637   7.389  0.0648 -0.3711 -0.1149
 4807SOL     OW25882   3.556   0.893   5.592 -0.2752  0.1907 -0.1793
 4807SOL    HW125883   3.484   0.946   5.627 -2.2208 -3.2288  1.0167
 4807SOL    HW225884   3.569   0.827   5.661 -1.6763 -0.0539 -0.1546
 4808SOL     OW25885   3.177   2.880  16.851  0.4331 -0.1419 -0.5528
 4808SOL    HW125886   3.120   2.836  16.789 -1.0668  0.1199  0.6462
 4808SOL    HW225887   3.252   2.821  16.855  1.1592  0.8375  0.6456
 4809SOL     OW25888   1.378   1.159  15.159 -0.2541 -0.1639 -0.3335
 4809SOL    HW125889   1.284   1.138  15.160  0.1104 -1.6645  1.2120
 4809SOL    HW225890   1.370   1.237  15.214 -2.9127 -2.4009  2.4866
 4810SOL     OW25891   4.328   2.287  16.976  0.0078 -0.5487  0.1149
 4810SOL    HW125892   4.236   2.304  16.956  0.1151 -0.2136 -0.0903
 4810SOL    HW225893   4.360   2.377  16.963  2.2169 -1.2750  0.4937
 4811SOL     OW25894   2.751   3.184   7.316  0.2375  0.0913 -0.0103
 4811SOL    HW125895   2.784   3.098   7.289 -1.6090 -1.0091  1.2355
 4811SOL    HW225896   2.744   3.222   7.228 -3.2782 -0.0581  0.2098
 4812SOL     OW25897   1.805   0.710   2.254  0.5636  0.3397 -0.4065
 4812SOL    HW125898   1.776   0.797   2.280 -1.2599 -1.2173  2.8793
 4812SOL    HW225899   1.736   0.658   2.297 -0.5867  0.6025 -1.9118
 4813SOL     OW25900   3.346   1.066   9.291  0.0382 -0.6337 -0.4651
 4813SOL    HW125901   3.268   1.118   9.274  0.2289 -0.2650 -0.1865
 4813SOL    HW225902   3.408   1.130   9.257  0.0079 -0.1777  0.3483
 4814SOL     OW25903   0.837   3.466  13.662  0.4243  0.2603 -0.1626
 4814SOL    HW125904   0.869   3.482  13.751  1.1156  0.3346 -0.4262
 4814SOL    HW225905   0.796   3.553  13.654 -3.1836 -1.3361  0.8420
 4815SOL     OW25906   2.533   4.573   4.881 -0.4804  0.2996 -0.2353
 4815SOL    HW125907   2.503   4.564   4.791 -0.7327  0.6475 -0.1910
 4815SOL    HW225908   2.461   4.618   4.926 -1.4973 -0.4023 -1.1730
 4816SOL     OW25909   0.255   2.273   3.160  0.0309 -0.2885 -0.7870
 4816SOL    HW125910   0.248   2.218   3.082 -0.7251  1.8194 -2.2022
 4816SOL    HW225911   0.341   2.315   3.160  0.0931 -0.4312  0.7073
 4817SOL     OW25912   1.111   4.247  17.240  0.0376  0.2540 -0.4050
 4817SOL    HW125913   1.122   4.177  17.176  1.6018 -0.0039  0.1589
 4817SOL    HW225914   1.016   4.254  17.253  0.2807 -0.0763  1.5730
 4818SOL     OW25915   1.364   1.191   1.598  0.3423  0.2494 -0.5126
 4818SOL    HW125916   1.316   1.109   1.591 -2.1441  1.4318  2.4723
 4818SOL    HW225917   1.444   1.155   1.636  1.3584  1.0315 -1.9217
 4819SOL     OW25918   0.024   2.872   5.510  0.9575  0.6664  0.5939
 4819SOL    HW125919   0.091   2.869   5.442 -1.6909 -0.8229 -1.9456
 4819SOL    HW225920   0.079   2.857   5.587  0.4043 -0.7922  0.7176
 4820SOL     OW25921   0.816   0.317   7.213 -0.0284 -0.6485  0.1173
 4820SOL    HW125922   0.877   0.289   7.145  0.4708  1.2315 -0.2181
 4820SOL    HW225923   0.734   0.308   7.165 -0.5942  0.6020  0.8387
 4821SOL     OW25924   1.965   1.683   6.491 -0.0876  0.0393  0.0829
 4821SOL    HW125925   1.991   1.669   6.400 -2.1070  1.5542 -0.7333
 4821SOL    HW225926   2.046   1.666   6.541  0.9969 -0.8048 -1.9886
 4822SOL     OW25927   3.887   2.918   2.671 -0.2761  1.5044 -0.3599
 4822SOL    HW125928   3.927   3.005   2.661  0.3079  1.1877 -0.7802
 4822SOL    HW225929   3.889   2.903   2.766  0.0923  2.1137 -0.2708
 4823SOL     OW25930   1.441   4.469  10.140 -0.3217 -0.2345  0.1864
 4823SOL    HW125931   1.426   4.487  10.047  3.0025 -0.3174 -0.3477
 4823SOL    HW225932   1.520   4.416  10.129  0.0747 -0.1640  2.6482
 4824SOL     OW25933   0.070   1.054   5.029  0.0472 -0.2560  0.0068
 4824SOL    HW125934   4.700   1.075   5.053  0.4479  0.8884  0.5287
 4824SOL    HW225935   0.053   0.977   4.976  1.6544 -0.4609 -0.2193
 4825SOL     OW25936   3.722   1.472   6.774  0.0975 -0.0750 -0.1871
 4825SOL    HW125937   3.647   1.522   6.806 -0.9301 -1.9166  0.3199
 4825SOL    HW225938   3.783   1.488   6.846 -1.5458  0.2218  1.1514
 4826SOL     OW25939   3.235   1.802   0.745 -0.6295  0.0475  0.0773
 4826SOL    HW125940   3.225   1.776   0.836  3.8423 -1.0871  0.2480
 4826SOL    HW225941   3.269   1.888   0.769 -0.0117  0.0657 -0.8298
 4827SOL     OW25942   0.100   0.940   6.765 -0.0754 -0.1643  0.0421
 4827SOL    HW125943   0.045   1.012   6.736 -0.6950 -0.2559  1.0252
 4827SOL    HW225944   0.176   0.986   6.801 -0.4994 -0.5118  1.3471
 4828SOL     OW25945   2.220   2.099  15.425 -0.2723  0.2757  0.1870
 4828SOL    HW125946   2.254   2.112  15.513  1.4321 -2.9889 -0.0154
 4828SOL    HW225947   2.283   2.041  15.383 -2.3616 -2.0675  0.2791
 4829SOL     OW25948   2.423   2.577   6.650  0.4099  0.1803 -0.6081
 4829SOL    HW125949   2.385   2.589   6.737  1.3980 -0.0562 -0.1441
 4829SOL    HW225950   2.348   2.573   6.590 -0.8635 -0.0594  1.0064
 4830SOL     OW25951   1.887   3.283   3.441  0.2697  0.0138  0.7262
 4830SOL    HW125952   1.979   3.260   3.425 -0.2628 -1.7211  0.0980
 4830SOL    HW225953   1.849   3.195   3.432 -2.1205  0.9305  2.0609
 4831SOL     OW25954   0.969   4.115   2.242  0.1070  0.4741 -0.0479
 4831SOL    HW125955   0.945   4.157   2.159  0.1545 -1.0657 -0.8248
 4831SOL    HW225956   1.051   4.074   2.217  0.1131  0.5689 -0.1842
 4832SOL     OW25957   2.134   4.412  15.078 -0.1830  0.5274 -0.3521
 4832SOL    HW125958   2.132   4.357  14.999 -4.3051  1.2110 -0.7370
 4832SOL    HW225959   2.226   4.435  15.066  0.2499 -0.9321  0.1061
 4833SOL     OW25960   1.001   0.184   9.263 -0.6879  0.6185  0.0972
 4833SOL    HW125961   1.002   0.095   9.299  2.0777  0.2663 -0.8611
 4833SOL    HW225962   1.068   0.169   9.196 -0.6060 -2.3362  0.8208
 4834SOL     OW25963   4.178   3.113   0.936 -0.6945 -0.4832 -0.1177
 4834SOL    HW125964   4.115   3.041   0.935  0.4864 -1.5125 -1.7218
 4834SOL    HW225965   4.213   3.122   0.847 -2.8525  0.5613 -0.8382
 4835SOL     OW25966   3.150   0.501   8.483 -0.5500 -0.3659 -0.2537
 4835SOL    HW125967   3.157   0.423   8.537  1.2221  0.4530  0.7283
 4835SOL    HW225968   3.116   0.568   8.542  1.4729  1.1320 -0.7561
 4836SOL     OW25969   2.055   2.524   9.815 -0.0142 -0.2855 -0.7129
 4836SOL    HW125970   2.076   2.609   9.855  2.7324 -1.9856  1.4689
 4836SOL    HW225971   1.960   2.540   9.814 -0.0565 -0.4848  1.1893
 4837SOL     OW25972   3.368   3.830   9.452  0.1210  0.1797 -0.1096
 4837SOL    HW125973   3.352   3.832   9.357 -3.5854  0.0456  0.4965
 4837SOL    HW225974   3.285   3.851   9.495 -1.6796 -3.4111 -1.8007
 4838SOL     OW25975   1.459   1.257  10.223 -0.0584  0.0170 -1.0162
 4838SOL    HW125976   1.494   1.304  10.298 -0.3819 -2.0578  0.4360
 4838SOL    HW225977   1.536   1.222  10.177  0.1555 -0.4097 -0.3302
 4839SOL     OW25978   3.334   4.015  13.845 -0.8229  0.1798 -0.0835
 4839SOL    HW125979   3.304   3.924  13.848  1.9047 -0.7380 -0.6507
 4839SOL    HW225980   3.325   4.029  13.939  0.7347  0.9588 -0.0534
 4840SOL     OW25981   0.491   1.211  12.923 -0.2235 -0.7175  0.4777
 4840SOL    HW125982   0.492   1.163  13.006  0.2476  1.2688  1.6115
 4840SOL    HW225983   0.533   1.144  12.869  0.0644  0.2624 -0.5072
 4841SOL     OW25984   2.228   2.888   6.848  0.4728 -0.4300 -0.3087
 4841SOL    HW125985   2.149   2.834   6.858 -0.8733  1.4397 -0.9213
 4841SOL    HW225986   2.257   2.877   6.938  1.1039  0.1714 -0.4415
 4842SOL     OW25987   0.606   2.323   6.876 -0.5035 -0.1261  0.3724
 4842SOL    HW125988   0.524   2.324   6.827 -0.8132 -0.8601  0.8732
 4842SOL    HW225989   0.662   2.283   6.810 -1.0178  0.4527 -0.4110
 4843SOL     OW25990   4.216   0.536  13.096 -0.0875 -0.3390 -0.0770
 4843SOL    HW125991   4.274   0.460  13.088 -1.6354 -1.5958  0.6823
 4843SOL    HW225992   4.269   0.578  13.164  1.6808 -4.1602  0.9031
 4844SOL     OW25993   3.006   2.278   5.629 -0.4081  0.0671  0.3942
 4844SOL    HW125994   3.009   2.183   5.638  2.2265  0.1333  0.2601
 4844SOL    HW225995   2.979   2.305   5.716  1.0218  1.2510  0.4762
 4845SOL     OW25996   3.311   1.449   2.598  0.2170 -0.8692 -0.3107
 4845SOL    HW125997   3.332   1.439   2.505 -0.1655 -0.7249 -0.4117
 4845SOL    HW225998   3.227   1.495   2.592  0.4942 -0.0770  1.8035
 4846SOL     OW25999   1.283   0.869   6.999 -0.0946  0.0764  0.4136
 4846SOL    HW126000   1.341   0.793   7.007  0.7347  0.6469 -0.1865
 4846SOL    HW226001   1.197   0.831   6.984 -0.2713  0.0885  1.3443
 4847SOL     OW26002   4.030   4.498   0.990 -0.6527 -0.4315 -0.0811
 4847SOL    HW126003   4.106   4.445   1.015 -0.8877 -0.5785  0.3213
 4847SOL    HW226004   3.992   4.505   1.077  0.2442  2.2403  0.1030
 4848SOL     OW26005   3.526   4.450  14.597 -0.5159 -0.0617 -1.1032
 4848SOL    HW126006   3.476   4.470  14.675  0.3836 -0.1976 -0.4888
 4848SOL    HW226007   3.507   4.517  14.531  1.7353  1.0736 -0.5836
 4849SOL     OW26008   0.020   2.462   2.607 -0.0715 -0.2967  0.1065
 4849SOL    HW126009   0.083   2.396   2.634 -0.7119 -0.9521  0.0068
 4849SOL    HW226010   0.078   2.537   2.598 -0.6765  0.0136 -1.2024
 4850SOL     OW26011   2.638   2.136   7.109  0.0531  0.1011  0.2287
 4850SOL    HW126012   2.557   2.184   7.088 -0.9300 -1.4019  0.6226
 4850SOL    HW226013   2.609   2.045   7.110  0.8042 -0.1016  3.2721
 4851SOL     OW26014   1.384   1.895   7.768  0.1519 -0.8917 -0.2875
 4851SOL    HW126015   1.336   1.926   7.845  1.9712 -0.0343  0.5053
 4851SOL    HW226016   1.343   1.946   7.699  0.2033 -0.1828  0.2070
 4852SOL     OW26017   2.281   4.695   1.772 -0.2666  0.4361  0.1438
 4852SOL    HW126018   2.362   4.653   1.799  0.5212  1.1636 -1.0900
 4852SOL    HW226019   2.281   4.656   1.685  1.8394 -1.2689  0.9213
 4853SOL     OW26020   3.513   3.227   7.277 -0.3883  0.0315 -0.4811
 4853SOL    HW126021   3.555   3.190   7.355 -0.4844 -0.5886 -0.7236
 4853SOL    HW226022   3.560   3.183   7.206  0.4776  0.4390 -0.1668
 4854SOL     OW26023   4.436   0.170  12.639  0.4557 -0.1350 -0.5798
 4854SOL    HW126024   4.482   0.200  12.718 -0.7985  1.1975 -0.3665
 4854SOL    HW226025   4.462   0.078  12.638  0.8014 -0.0648  2.4012
 4855SOL     OW26026   3.992   2.129   4.013 -0.0392  0.2570 -0.1265
 4855SOL    HW126027   4.001   2.045   3.969  0.2161 -0.0346  0.4745
 4855SOL    HW226028   4.039   2.185   3.951 -0.0519 -1.2586 -1.4901
 4856SOL     OW26029   0.075   1.557   2.220  0.2343 -0.2261  0.5584
 4856SOL    HW126030   4.700   1.551   2.227  0.0172 -0.7427 -2.9405
 4856SOL    HW226031   0.085   1.556   2.125  0.6055  1.5342  0.5730
 4857SOL     OW26032   2.096   0.960   6.020  0.3248  0.5025  0.0506
 4857SOL    HW126033   2.017   1.008   5.997  0.9834  1.7414  0.3926
 4857SOL    HW226034   2.159   1.027   6.046  1.0066  0.2338 -0.8854
 4858SOL     OW26035   2.044   3.163   7.191 -0.3091 -0.3618  0.6036
 4858SOL    HW126036   2.118   3.147   7.250 -0.6252 -1.2575  0.7445
 4858SOL    HW226037   2.051   3.258   7.184  1.8942 -0.3231  3.1557
 4859SOL     OW26038   2.488   3.619   4.617 -0.3943 -0.0050 -0.2721
 4859SOL    HW126039   2.546   3.619   4.693 -0.7894 -1.1446  0.0365
 4859SOL    HW226040   2.525   3.693   4.569 -0.3236  0.1478  0.0187
 4860SOL     OW26041   2.177   1.089   4.622 -0.4295 -0.5586  0.3240
 4860SOL    HW126042   2.149   1.031   4.693 -0.1312 -1.1616 -0.0549
 4860SOL    HW226043   2.190   1.167   4.676  2.2111 -1.2219  0.6550
 4861SOL     OW26044   2.878   0.329   8.570 -0.4139 -0.3314  0.0802
 4861SOL    HW126045   2.850   0.405   8.621  2.6741  0.7764  0.1104
 4861SOL    HW226046   2.970   0.329   8.596 -0.3313  2.0783 -0.2242
 4862SOL     OW26047   4.277   4.164   7.363 -0.1847  0.1123  0.7056
 4862SOL    HW126048   4.358   4.213   7.352 -0.8143  1.0646  0.2716
 4862SOL    HW226049   4.260   4.176   7.456  0.4340 -0.0879  0.8425
 4863SOL     OW26050   0.421   0.971   0.021  0.3532 -0.0889 -0.0450
 4863SOL    HW126051   0.504   0.949  17.662  1.1023 -0.3407  1.5457
 4863SOL    HW226052   0.410   1.065   0.006  1.4610  0.2690  1.2917
 4864SOL     OW26053   3.517   3.498   7.345 -0.1484 -0.2075  0.1905
 4864SOL    HW126054   3.468   3.477   7.424  1.7028 -0.1221  1.3598
 4864SOL    HW226055   3.490   3.433   7.279  0.6483 -1.0141  0.6610
 4865SOL     OW26056   2.546   2.271  16.228 -0.2188  0.0157  0.1411
 4865SOL    HW126057   2.634   2.306  16.218 -0.5406  0.9484  0.6172
 4865SOL    HW226058   2.493   2.292  16.151  1.1374  1.7866 -0.2853
 4866SOL     OW26059   2.657   1.757  15.358  0.3006 -0.2909 -0.0095
 4866SOL    HW126060   2.740   1.805  15.363  0.4622 -0.4677 -0.8682
 4866SOL    HW226061   2.633   1.759  15.265 -0.5108 -0.2792  0.2058
 4867SOL     OW26062   2.473   1.068   2.390 -0.5627 -0.3790 -0.0620
 4867SOL    HW126063   2.560   1.050   2.357 -0.3377  0.5826  0.0223
 4867SOL    HW226064   2.488   1.149   2.438  0.9578 -1.2816  0.9855
 4868SOL     OW26065   0.344   3.899   1.170  0.5551 -0.0184  0.6266
 4868SOL    HW126066   0.399   3.889   1.248  1.1327 -0.5239  0.1440
 4868SOL    HW226067   0.345   3.995   1.165  1.7717  0.0887  3.0388
 4869SOL     OW26068   4.435   2.757   5.304  0.0887  0.6663 -0.4034
 4869SOL    HW126069   4.428   2.779   5.397 -0.1829 -1.7381  0.1397
 4869SOL    HW226070   4.495   2.825   5.273  0.0837  0.7821 -0.1584
 4870SOL     OW26071   3.916   3.154   6.309  0.2005  0.6157  0.1601
 4870SOL    HW126072   3.910   3.060   6.328 -0.7019  0.4933 -0.7278
 4870SOL    HW226073   4.009   3.159   6.284 -0.1481  0.1513 -1.2596
 4871SOL     OW26074   1.048   4.325  14.073 -0.0754  0.3455  0.3884
 4871SOL    HW126075   1.111   4.396  14.086  1.2144 -0.0591 -3.5778
 4871SOL    HW226076   0.971   4.354  14.123 -0.4827  0.4352 -0.2807
 4872SOL     OW26077   2.293   2.924   3.052  0.6674  0.4991  0.2998
 4872SOL    HW126078   2.376   2.890   3.018  0.8751  1.1531  0.1545
 4872SOL    HW226079   2.316   2.903   3.142  0.6196  1.1677  0.4709
 4873SOL     OW26080   4.167   0.770   9.186  0.3447 -0.0089 -0.5738
 4873SOL    HW126081   4.192   0.781   9.277  0.9821 -0.9447 -0.6282
 4873SOL    HW226082   4.213   0.690   9.158 -2.4431 -1.3948 -1.2289
 4874SOL     OW26083   0.982   3.197   5.968  0.5373  0.2487 -0.1270
 4874SOL    HW126084   0.926   3.180   5.893  2.6225  0.6158 -1.7607
 4874SOL    HW226085   0.980   3.110   6.008 -1.6972 -0.3328 -1.5372
 4875SOL     OW26086   4.150   0.723  16.750 -0.1345 -0.2656 -0.5131
 4875SOL    HW126087   4.200   0.662  16.695  3.8681  2.6795 -0.1334
 4875SOL    HW226088   4.107   0.768  16.677 -0.2736  0.4062 -0.0106
 4876SOL     OW26089   2.220   1.267  15.981  0.0017  0.3354  0.1817
 4876SOL    HW126090   2.229   1.361  15.992 -0.0745  0.5056 -1.3085
 4876SOL    HW226091   2.233   1.249  15.888  1.4526  1.6696  0.1378
 4877SOL     OW26092   1.974   3.261   7.829 -0.1959  0.6861  0.2335
 4877SOL    HW126093   1.905   3.234   7.770 -0.6658  1.9769  0.1798
 4877SOL    HW226094   1.999   3.175   7.863 -1.4778  0.0948 -0.3408
 4878SOL     OW26095   1.811   4.385  16.330  0.5299  0.2300 -0.0878
 4878SOL    HW126096   1.743   4.363  16.394 -0.5610  1.3988 -0.8452
 4878SOL    HW226097   1.772   4.453  16.274  1.8610  0.6516 -0.4963
 4879SOL     OW26098   2.364   0.899  15.251 -0.1616 -0.5909  0.1541
 4879SOL    HW126099   2.309   0.975  15.268  0.0083 -0.5709  0.6022
 4879SOL    HW226100   2.396   0.922  15.164 -0.5151  0.9722  0.4501
 4880SOL     OW26101   3.792   3.851   0.190 -0.3691 -0.1269 -0.3045
 4880SOL    HW126102   3.869   3.810   0.229 -0.7117 -0.7758 -0.3111
 4880SOL    HW226103   3.723   3.801   0.233 -1.2971 -0.3939 -2.0920
 4881SOL     OW26104   0.188   1.956   5.875 -0.3822 -0.0630  0.1599
 4881SOL    HW126105   0.220   1.867   5.865 -1.9581 -0.4654 -1.2834
 4881SOL    HW226106   0.112   1.950   5.932 -1.2848 -0.8308 -1.1271
 4882SOL     OW26107   0.686   3.590   7.332  0.3093 -0.2599 -0.1195
 4882SOL    HW126108   0.756   3.643   7.293  1.3338 -1.5362 -0.0027
 4882SOL    HW226109   0.647   3.643   7.401  0.8816  1.1452 -0.8543
 4883SOL     OW26110   3.063   3.828  13.303  0.0127  0.0447  0.4417
 4883SOL    HW126111   3.100   3.831  13.215  2.1082 -0.1502  1.3325
 4883SOL    HW226112   3.129   3.771  13.342 -0.3905 -0.2242  0.7380
 4884SOL     OW26113   3.714   4.332  16.267  0.7763  0.2445  0.0023
 4884SOL    HW126114   3.735   4.412  16.218  0.4477 -0.5105 -1.3506
 4884SOL    HW226115   3.784   4.271  16.243 -0.3802 -2.0633  2.5992
 4885SOL     OW26116   2.747   3.807   2.846 -0.2841  0.3361  0.3922
 4885SOL    HW126117   2.793   3.737   2.799 -0.3582  0.4516  0.1463
 4885SOL    HW226118   2.789   3.884   2.808 -2.3049 -0.1219 -2.8151
 4886SOL     OW26119   2.064   4.066   7.672 -0.1297 -0.7033 -0.5210
 4886SOL    HW126120   2.106   4.039   7.590  0.5161  1.3366 -0.8541
 4886SOL    HW226121   1.999   4.129   7.640 -0.2476 -0.6095 -0.0890
 4887SOL     OW26122   0.793   0.875  10.590  0.0616  0.4222  0.4785
 4887SOL    HW126123   0.731   0.939  10.624  0.4540  1.0355  0.0306
 4887SOL    HW226124   0.764   0.879  10.498 -2.3410 -1.0504  1.1546
 4888SOL     OW26125   1.327   2.430   9.766 -0.6636 -0.1793 -0.1014
 4888SOL    HW126126   1.307   2.482   9.688 -1.9747  1.8833  1.6121
 4888SOL    HW226127   1.324   2.342   9.729  1.7387 -0.4667  0.4180
 4889SOL     OW26128   2.292   3.735  15.710 -0.2472  0.2890 -0.9213
 4889SOL    HW126129   2.337   3.792  15.647  1.1807  2.9688  2.5346
 4889SOL    HW226130   2.202   3.743  15.680 -0.2703  0.6143 -0.7700
 4890SOL     OW26131   4.513   0.935   3.762 -0.3223 -0.1431  0.3910
 4890SOL    HW126132   4.588   0.959   3.816  1.4028 -1.4069 -1.4432
 4890SOL    HW226133   4.503   1.004   3.696  0.1744 -0.0388  0.4296
 4891SOL     OW26134   3.273   0.015   2.688 -0.1346  0.5518 -0.1794
 4891SOL    HW126135   3.192   4.713   2.643  0.6786  0.3205 -1.5221
 4891SOL    HW226136   3.256   4.716   2.780  0.4687 -1.2000 -0.4273
 4892SOL     OW26137   2.817   0.464   6.682  0.1197 -0.0682  0.2074
 4892SOL    HW126138   2.809   0.409   6.604  2.0377  0.3331 -0.2796
 4892SOL    HW226139   2.903   0.439   6.717 -0.1506 -1.1244  0.1061
 4893SOL     OW26140   0.259   3.821   0.162  0.2685  0.5144 -0.1746
 4893SOL    HW126141   0.243   3.746   0.218 -1.7243  0.8746 -0.2704
 4893SOL    HW226142   0.214   3.796   0.081 -2.4257  0.5436  1.3168
 4894SOL     OW26143   1.711   4.695   8.635 -0.2091 -0.3259 -0.4383
 4894SOL    HW126144   1.689   4.604   8.616  1.5849 -0.2110 -3.0413
 4894SOL    HW226145   1.647   0.022   8.582 -0.0409 -0.0410 -0.3862
 4895SOL     OW26146   1.793   1.579   5.141  0.6211  0.0641  0.1369
 4895SOL    HW126147   1.873   1.622   5.112 -0.6301  2.4116  0.1638
 4895SOL    HW226148   1.785   1.606   5.233  0.9170 -1.1781  0.5368
 4896SOL     OW26149   0.675   2.619  16.502 -0.3076  0.7426 -0.3471
 4896SOL    HW126150   0.714   2.652  16.583  3.4430 -0.8071 -1.5190
 4896SOL    HW226151   0.741   2.647  16.438  1.5617  1.6174  1.9803
 4897SOL     OW26152   0.768   0.423   2.215 -0.1361 -0.5725 -0.0347
 4897SOL    HW126153   0.754   0.329   2.217 -1.9490 -0.3304 -0.9556
 4897SOL    HW226154   0.819   0.435   2.135 -0.2456  2.2668  0.3165
 4898SOL     OW26155   0.635   1.819   0.472 -0.0678  0.1935  0.2902
 4898SOL    HW126156   0.715   1.853   0.432  0.3036 -1.8960 -0.7179
 4898SOL    HW226157   0.576   1.805   0.398 -1.7456  0.7055  1.5413
 4899SOL     OW26158   3.029   0.005   9.021 -0.2381 -0.2997  0.1222
 4899SOL    HW126159   3.093   0.070   9.050 -2.1106  0.8188  1.7189
 4899SOL    HW226160   2.972   0.063   8.971  0.9872 -0.5677 -1.6395
 4900SOL     OW26161   1.719   2.045   4.483  0.1920  0.5850 -0.2509
 4900SOL    HW126162   1.721   2.094   4.566  0.1262  2.7423 -1.5288
 4900SOL    HW226163   1.773   2.101   4.427  1.0346 -0.7438 -0.7667
 4901SOL     OW26164   1.695   2.997   2.668 -0.3518  0.1292  0.2016
 4901SOL    HW126165   1.656   3.067   2.720  0.3946 -0.9028  2.1925
 4901SOL    HW226166   1.781   3.031   2.645  0.6601 -0.9426  2.3645
 4902SOL     OW26167   2.305   1.528  17.100  0.4612 -0.0284  0.8240
 4902SOL    HW126168   2.250   1.466  17.052  0.9542  1.4166 -1.5884
 4902SOL    HW226169   2.370   1.479  17.150  1.6398 -1.2120 -1.8825
 4903SOL     OW26170   3.056   1.364  11.986 -0.8791 -0.6102  0.4843
 4903SOL    HW126171   3.030   1.448  12.023 -1.1162 -0.6502  0.4126
 4903SOL    HW226172   3.103   1.319  12.056 -2.0441 -2.0374  0.3491
 4904SOL     OW26173   3.633   2.124   5.334 -0.3353 -0.7094 -0.4193
 4904SOL    HW126174   3.724   2.111   5.306 -0.6505 -2.4838 -0.6243
 4904SOL    HW226175   3.606   2.036   5.363  0.8913 -1.0912 -0.4256
 4905SOL     OW26176   1.399   0.553   2.322 -0.1220 -0.3594  0.4784
 4905SOL    HW126177   1.440   0.623   2.373 -1.0127 -0.0308  0.7247
 4905SOL    HW226178   1.448   0.478   2.357  1.4376  0.2825 -0.3086
 4906SOL     OW26179   1.698   1.319   5.738  0.2836 -0.8147 -0.0561
 4906SOL    HW126180   1.777   1.274   5.768  0.3645 -0.6599 -0.0390
 4906SOL    HW226181   1.729   1.409   5.740  1.1214 -1.0917 -1.2261
 4907SOL     OW26182   4.291   4.684   9.380  0.3114 -0.1570  0.0299
 4907SOL    HW126183   4.378   4.689   9.341  0.0626 -0.3391 -0.5483
 4907SOL    HW226184   4.314   4.644   9.464  3.4710  0.9372 -0.3468
 4908SOL     OW26185   1.376   1.914   5.170 -0.4957  0.2310 -0.6923
 4908SOL    HW126186   1.366   1.846   5.237  2.4486  0.8942  0.4166
 4908SOL    HW226187   1.350   1.993   5.216  2.4115 -0.4948  2.2475
 4909SOL     OW26188   2.742   1.306   0.729 -0.1080  0.1145  0.0501
 4909SOL    HW126189   2.739   1.244   0.656  0.5716  1.2483 -0.9361
 4909SOL    HW226190   2.792   1.373   0.683  0.4395  0.6326  1.4054
 4910SOL     OW26191   2.822   3.825   4.619  0.3986  0.2919  0.4651
 4910SOL    HW126192   2.900   3.834   4.566  0.1887  0.7219  0.2236
 4910SOL    HW226193   2.754   3.841   4.553  0.6043  0.1141  0.2133
 4911SOL     OW26194   0.789   1.054  16.119  0.1293  0.2249 -0.3857
 4911SOL    HW126195   0.797   1.148  16.102 -1.6743  0.4853  0.1537
 4911SOL    HW226196   0.815   1.058  16.211 -0.1499  0.2261 -0.3058
 4912SOL     OW26197   4.424   0.137   9.624  0.1235  0.2598  0.7888
 4912SOL    HW126198   4.400   0.045   9.624 -1.9633  0.7839 -0.6300
 4912SOL    HW226199   4.488   0.141   9.695 -0.8525  0.6353  1.6458
 4913SOL     OW26200   3.616   0.234   0.099  0.4779  0.1502 -0.1773
 4913SOL    HW126201   3.656   0.319   0.119 -0.3118 -0.1734  2.8315
 4913SOL    HW226202   3.523   0.254   0.090  0.6863  0.7199 -1.0217
 4914SOL     OW26203   1.664   3.104   1.143 -0.1776  0.4151 -0.3832
 4914SOL    HW126204   1.644   3.183   1.194  1.3004  2.1688 -2.4798
 4914SOL    HW226205   1.710   3.052   1.209 -1.2048 -0.5278 -0.4227
 4915SOL     OW26206   2.936   2.957   8.378 -0.3434  0.1301 -0.8580
 4915SOL    HW126207   3.030   2.941   8.388 -0.1469  0.6960 -1.7662
 4915SOL    HW226208   2.948   3.005   8.295 -1.8590  1.3030 -0.4004
 4916SOL     OW26209   0.369   0.086   4.182  0.4895  0.3874  0.3379
 4916SOL    HW126210   0.295   0.144   4.198  1.5371  1.8139  0.0582
 4916SOL    HW226211   0.351   0.042   4.099  1.6305 -0.0548  0.3176
 4917SOL     OW26212   0.653   2.253   4.323  0.2657 -0.2482 -0.4414
 4917SOL    HW126213   0.643   2.168   4.366 -0.3493 -0.4473 -0.9798
 4917SOL    HW226214   0.612   2.312   4.386 -1.9090 -1.9088 -0.3005
 4918SOL     OW26215   1.456   1.604   8.724  0.1608 -0.1117  0.1319
 4918SOL    HW126216   1.374   1.559   8.744 -0.1093 -0.1871 -1.1109
 4918SOL    HW226217   1.429   1.690   8.692  1.2556  0.3331  0.4234
 4919SOL     OW26218   0.717   3.373   3.172 -0.4284  0.4732 -0.3811
 4919SOL    HW126219   0.754   3.461   3.172  3.2287 -1.0723 -1.0398
 4919SOL    HW226220   0.724   3.350   3.079 -2.2529  1.5634 -0.7980
 4920SOL     OW26221   1.620   0.835   2.752 -0.1062 -0.1915  0.6184
 4920SOL    HW126222   1.562   0.901   2.789 -0.1775  0.4026 -0.5604
 4920SOL    HW226223   1.697   0.885   2.725 -0.9778  0.7281 -0.1764
 4921SOL     OW26224   1.936   1.712  12.686 -0.1854  0.5395  0.2878
 4921SOL    HW126225   1.898   1.626  12.704  2.7644 -0.8063  0.1267
 4921SOL    HW226226   1.949   1.697  12.592 -1.9516  1.4285 -0.0891
 4922SOL     OW26227   2.007   3.220  14.240 -0.3585  0.3244 -0.3288
 4922SOL    HW126228   2.018   3.275  14.162 -0.5832  1.2216  0.2747
 4922SOL    HW226229   1.918   3.188  14.223 -0.1550  0.0644 -0.8935
 4923SOL     OW26230   2.541   4.075   6.529  1.0082  0.3431  0.0852
 4923SOL    HW126231   2.525   4.111   6.616 -2.0563 -0.3453 -0.1949
 4923SOL    HW226232   2.451   4.067   6.497 -0.4717  1.3540  4.0698
 4924SOL     OW26233   4.479   2.475   5.299  0.4315 -0.2611 -0.3017
 4924SOL    HW126234   4.489   2.471   5.394  0.0105 -0.3441 -0.2634
 4924SOL    HW226235   4.457   2.568   5.297  0.0870 -0.3460 -0.3855
 4925SOL     OW26236   0.670   1.996   6.780 -0.6022  0.0791 -0.2305
 4925SOL    HW126237   0.664   1.994   6.875 -0.7012 -1.4216 -0.2715
 4925SOL    HW226238   0.743   1.934   6.773 -0.3597  0.1550  1.6457
 4926SOL     OW26239   4.239   3.402   6.060  0.6927  0.0202 -0.0435
 4926SOL    HW126240   4.237   3.498   6.059 -0.8204 -0.0036  0.8005
 4926SOL    HW226241   4.296   3.396   6.137 -1.9492  0.6039  1.9660
 4927SOL     OW26242   2.221   3.203   7.413 -0.1451  0.4061  0.0904
 4927SOL    HW126243   2.139   3.167   7.445  1.1074 -0.9962  1.6810
 4927SOL    HW226244   2.249   3.231   7.500  1.9020 -3.0362  0.5303
 4928SOL     OW26245   2.807   3.547   2.724 -0.0683 -0.0858  0.1785
 4928SOL    HW126246   2.897   3.580   2.721 -0.0719 -0.1598 -0.6967
 4928SOL    HW226247   2.803   3.498   2.642  0.5066 -0.0496  0.1285
 4929SOL     OW26248   0.467   4.463   9.341 -0.0935 -0.2435  0.0291
 4929SOL    HW126249   0.477   4.421   9.426  0.1742  1.0708  0.6523
 4929SOL    HW226250   0.386   4.510   9.358  0.7501  0.6070  1.6613
 4930SOL     OW26251   2.106   1.337   5.979  0.1551 -0.2181  0.4136
 4930SOL    HW126252   2.198   1.316   5.963  0.3289  0.9359 -0.0751
 4930SOL    HW226253   2.103   1.401   6.050  1.0897  0.0542  0.2028
 4931SOL     OW26254   2.101   3.596   2.396  0.4228  0.4936 -0.5336
 4931SOL    HW126255   2.067   3.680   2.427 -0.9808 -1.0159  1.9801
 4931SOL    HW226256   2.022   3.543   2.402  0.3848  0.5556 -0.4916
 4932SOL     OW26257   2.400   3.915   1.753  0.6636 -0.0881 -0.4972
 4932SOL    HW126258   2.338   3.893   1.822 -0.5727 -1.1826 -1.9329
 4932SOL    HW226259   2.474   3.938   1.809 -0.6612  1.0733  0.7719
 4933SOL     OW26260   4.310   3.904   2.865 -0.6309 -0.2425  0.4035
 4933SOL    HW126261   4.403   3.879   2.858 -0.6276 -0.0429 -0.2370
 4933SOL    HW226262   4.296   3.846   2.940 -1.5497  0.1787  0.5453
 4934SOL     OW26263   3.668   4.369  15.534  0.4312 -0.2009 -1.0416
 4934SOL    HW126264   3.746   4.315  15.546  0.7823  0.0595 -2.1548
 4934SOL    HW226265   3.646   4.356  15.442  1.0603  0.5526 -1.2969
 4935SOL     OW26266   0.235   3.043   2.799  0.1711  0.1721 -0.1314
 4935SOL    HW126267   0.329   3.051   2.812  0.1371  1.1640 -0.4700
 4935SOL    HW226268   0.220   3.009   2.711  1.9238  0.0091 -0.3593
 4936SOL     OW26269   2.780   4.158  12.217  0.0126  0.7584 -0.0986
 4936SOL    HW126270   2.727   4.208  12.155 -0.8703  2.4597  2.0199
 4936SOL    HW226271   2.829   4.224  12.266  1.2967 -0.5176  0.3479
 4937SOL     OW26272   0.483   2.641   8.200  0.0879 -0.1877  0.3828
 4937SOL    HW126273   0.455   2.698   8.272 -0.2239  0.3894 -0.1959
 4937SOL    HW226274   0.449   2.694   8.128 -2.2624  0.2002  1.7818
 4938SOL     OW26275   0.803   2.662   1.002 -0.8705 -0.4590 -0.0538
 4938SOL    HW126276   0.791   2.757   1.003 -1.4871 -0.5561  1.6846
 4938SOL    HW226277   0.729   2.624   0.955 -0.5971  0.7981 -1.4913
 4939SOL     OW26278   3.606   3.990  16.278  0.4622 -0.2886 -0.7414
 4939SOL    HW126279   3.533   4.049  16.261  0.0796 -0.4511  0.3425
 4939SOL    HW226280   3.596   3.966  16.370 -0.7393  3.0873 -0.0176
 4940SOL     OW26281   3.940   2.431   7.684  0.8467  0.1249 -0.0708
 4940SOL    HW126282   3.898   2.463   7.763  0.2059 -0.4245 -0.1812
 4940SOL    HW226283   3.869   2.400   7.627  1.1801 -0.4969 -0.1508
 4941SOL     OW26284   2.564   2.721   7.959  0.2176 -0.1595  0.1379
 4941SOL    HW126285   2.614   2.654   8.007  0.7265  0.0190 -0.1468
 4941SOL    HW226286   2.618   2.800   7.950 -2.4823  1.2088 -3.8607
 4942SOL     OW26287   0.270   2.923   3.456 -0.0222  0.0931  0.2837
 4942SOL    HW126288   0.316   2.929   3.373 -0.8898 -1.3047 -0.2853
 4942SOL    HW226289   0.341   2.885   3.508  1.2798  2.0264 -0.0713
 4943SOL     OW26290   4.037   0.879   5.984 -0.0938 -0.1656  0.1409
 4943SOL    HW126291   4.086   0.797   5.990 -0.4010  0.0473  5.0115
 4943SOL    HW226292   3.951   0.849   6.015 -0.8043  0.2173 -1.4263
 4944SOL     OW26293   2.745   1.748   9.082  0.4864  0.9000 -0.6476
 4944SOL    HW126294   2.763   1.782   8.994 -1.3968  2.3628 -0.4715
 4944SOL    HW226295   2.713   1.662   9.053  0.8891 -0.0441  1.7021
 4945SOL     OW26296   1.586   0.417   6.321 -0.2481 -0.7056  0.5021
 4945SOL    HW126297   1.620   0.462   6.244 -0.1767 -0.0383  0.9272
 4945SOL    HW226298   1.666   0.369   6.340 -1.7943 -4.0174 -1.2392
 4946SOL     OW26299   3.608   2.797   7.068 -0.0637 -0.1008  0.3717
 4946SOL    HW126300   3.521   2.821   7.100 -0.6989  1.4133 -2.5327
 4946SOL    HW226301   3.607   2.851   6.989 -0.4561  0.5174  0.8017
 4947SOL     OW26302   4.323   4.471   8.776  0.1837 -0.0516  0.0885
 4947SOL    HW126303   4.355   4.388   8.741 -1.5097 -0.6814  0.0363
 4947SOL    HW226304   4.266   4.497   8.704 -1.2676 -2.1077  0.4856
 4948SOL     OW26305   3.542   0.847   6.271  0.3969  0.6503 -0.3869
 4948SOL    HW126306   3.575   0.884   6.353 -1.8287  0.2807  0.6916
 4948SOL    HW226307   3.497   0.771   6.308  1.3182  0.8733  1.1704
 4949SOL     OW26308   2.248   1.517  12.482 -0.5388 -0.1628 -0.4662
 4949SOL    HW126309   2.197   1.591  12.452  2.1274  1.0960 -1.8950
 4949SOL    HW226310   2.192   1.476  12.548  2.5723 -2.9819  0.4505
 4950SOL     OW26311   0.496   0.183   9.889 -0.3716  0.2003  0.3845
 4950SOL    HW126312   0.487   0.146   9.801  0.9411 -0.2467  0.4332
 4950SOL    HW226313   0.455   0.268   9.872  0.6333  0.7880  0.8508
 4951SOL     OW26314   1.411   0.434   4.263 -0.2889 -0.0702 -0.5883
 4951SOL    HW126315   1.450   0.430   4.350  2.0148 -1.2448 -1.7008
 4951SOL    HW226316   1.317   0.430   4.282  0.1621 -0.9610  1.4819
 4952SOL     OW26317   2.251   1.241  16.307 -0.6965 -0.4444 -0.0696
 4952SOL    HW126318   2.171   1.284  16.277  1.3431  1.9674 -2.0627
 4952SOL    HW226319   2.230   1.153  16.275  1.0491 -1.3253  1.1996
 4953SOL     OW26320   3.331   0.249   5.228  0.0567 -0.5940 -0.6314
 4953SOL    HW126321   3.378   0.222   5.149 -0.1126  1.6497 -1.5037
 4953SOL    HW226322   3.279   0.170   5.242  1.4790 -1.1305  1.5247
 4954SOL     OW26323   2.284   1.285   6.517 -0.0305 -0.1276  0.0045
 4954SOL    HW126324   2.326   1.274   6.602 -2.6707  0.3738  1.3577
 4954SOL    HW226325   2.301   1.379   6.510  2.5011 -0.5030  0.9353
 4955SOL     OW26326   1.643   2.432   8.349 -0.2800 -0.0007  0.1923
 4955SOL    HW126327   1.631   2.519   8.386  2.0413  0.7396 -0.8103
 4955SOL    HW226328   1.634   2.455   8.256  1.7529  0.0963  0.0287
 4956SOL     OW26329   3.640   1.831   9.292 -0.3731 -0.2001 -0.0822
 4956SOL    HW126330   3.665   1.844   9.200  0.0003 -1.2194 -0.1230
 4956SOL    HW226331   3.725   1.834   9.337 -0.4263  2.3046 -0.1751
 4957SOL     OW26332   4.010   0.937   4.396 -0.1405  0.2160 -0.5440
 4957SOL    HW126333   3.945   0.925   4.327  0.5352  1.3375 -1.3840
 4957SOL    HW226334   3.963   0.930   4.480 -3.4531 -1.3024 -2.5362
 4958SOL     OW26335   1.785   1.453   0.951  0.2865 -0.9192 -0.5115
 4958SOL    HW126336   1.776   1.360   0.974  0.6757 -1.1249 -1.1736
 4958SOL    HW226337   1.805   1.441   0.858  1.1082 -2.6737 -0.1004
 4959SOL     OW26338   1.672   2.879   7.232 -0.1469 -0.5423 -0.0398
 4959SOL    HW126339   1.590   2.854   7.276  0.5858  0.4752  1.9090
 4959SOL    HW226340   1.684   2.970   7.257  0.6479 -1.2188  2.0464
 4960SOL     OW26341   4.060   4.279   9.370  0.6729  0.0894  0.4503
 4960SOL    HW126342   4.069   4.356   9.313 -0.1389 -1.6093 -1.9990
 4960SOL    HW226343   4.128   4.308   9.430 -0.0125  0.7235  0.9173
 4961SOL     OW26344   3.171   2.959   3.543  0.4002 -0.6048 -0.1068
 4961SOL    HW126345   3.107   3.030   3.547  0.8687 -0.1491 -0.6202
 4961SOL    HW226346   3.117   2.880   3.536 -2.4379  1.4213 -1.0379
 4962SOL     OW26347   0.664   1.078   8.170  0.1892 -0.1207 -0.1621
 4962SOL    HW126348   0.725   1.013   8.205 -0.1510 -0.2657  0.1602
 4962SOL    HW226349   0.721   1.130   8.113  0.1896 -0.1002 -0.1428
 4963SOL     OW26350   1.239   2.860   8.206 -0.6958 -0.4649 -0.3211
 4963SOL    HW126351   1.271   2.770   8.198  0.0389 -0.2556  0.3467
 4963SOL    HW226352   1.324   2.895   8.233 -1.6558  0.7812  1.1018
 4964SOL     OW26353   4.270   2.394   2.683 -0.1998 -0.6251  0.5023
 4964SOL    HW126354   4.244   2.335   2.612  1.4037 -0.3335 -0.3450
 4964SOL    HW226355   4.346   2.431   2.637 -2.3347  2.5687 -0.3983
 4965SOL     OW26356   2.103   2.433  12.480  0.0173  0.4122  0.0985
 4965SOL    HW126357   2.073   2.436  12.389  1.2551  1.0879 -0.2978
 4965SOL    HW226358   2.063   2.516  12.506 -1.0614 -0.0340 -0.1486
 4966SOL     OW26359   2.632   3.406   3.311  0.9943  0.0045 -0.1464
 4966SOL    HW126360   2.669   3.483   3.269 -0.5210  0.8179  0.0048
 4966SOL    HW226361   2.697   3.336   3.303  0.1817 -0.9939  1.8857
 4967SOL     OW26362   3.160   3.134   5.954  0.1481 -0.0180  0.6024
 4967SOL    HW126363   3.239   3.152   5.902 -1.7867  0.1854 -2.3044
 4967SOL    HW226364   3.169   3.178   6.038 -0.4757  1.7190 -0.2341
 4968SOL     OW26365   0.079   0.566   4.169  0.1460  0.6603 -0.4413
 4968SOL    HW126366   0.083   0.490   4.112  0.2456 -0.9143  1.6749
 4968SOL    HW226367   0.164   0.547   4.209 -0.3954  0.5555  0.6587
 4969SOL     OW26368   3.515   2.438   6.402 -0.4046  0.0668  0.3224
 4969SOL    HW126369   3.561   2.401   6.327  0.8252  0.0291  1.1075
 4969SOL    HW226370   3.425   2.454   6.371  0.4033  1.1155 -1.4984
 4970SOL     OW26371   2.291   1.894   7.654 -0.1800  0.4022  0.0540
 4970SOL    HW126372   2.213   1.891   7.599 -0.1464 -0.4905  0.0520
 4970SOL    HW226373   2.319   1.803   7.647  0.4480  0.7084 -1.3316
 4971SOL     OW26374   1.037   2.854   4.782  0.7325 -1.1454 -0.9468
 4971SOL    HW126375   1.075   2.847   4.870  0.9684 -0.9128 -1.0308
 4971SOL    HW226376   0.998   2.767   4.772 -1.2964 -0.3330 -0.1843
 4972SOL     OW26377   0.056   4.127  11.262 -0.1630  0.3614  0.3141
 4972SOL    HW126378   0.088   4.184  11.192 -0.5291 -1.3666 -1.2647
 4972SOL    HW226379   4.685   4.152  11.248 -0.2567 -0.5142 -0.6429
 4973SOL     OW26380   0.583   2.665   2.500  0.7758 -0.4543  0.1288
 4973SOL    HW126381   0.541   2.608   2.564 -2.2175  0.0289 -1.3758
 4973SOL    HW226382   0.555   2.628   2.416 -0.7191  1.6521 -0.2873
 4974SOL     OW26383   1.917   0.429   8.731  0.1700  0.1919 -0.3966
 4974SOL    HW126384   1.891   0.505   8.680  1.2678  0.1934 -0.9670
 4974SOL    HW226385   1.837   0.376   8.736  0.5420 -0.2549  0.8918
 4975SOL     OW26386   0.413   3.455  10.928  0.0254  0.0672  0.2237
 4975SOL    HW126387   0.338   3.444  10.986  0.9830 -1.0298  1.2546
 4975SOL    HW226388   0.493   3.442  10.979  0.7912 -1.4294 -1.3725
 4976SOL     OW26389   4.484   4.615   8.487 -0.1426  0.4917  0.1098
 4976SOL    HW126390   4.576   4.597   8.503 -0.5193  0.1869  1.9149
 4976SOL    HW226391   4.451   4.526   8.478 -2.4720  1.0372  3.0151
 4977SOL     OW26392   3.088   0.384   0.551 -0.4577  0.5202 -0.1708
 4977SOL    HW126393   3.178   0.354   0.564 -0.4467  1.1595  1.2707
 4977SOL    HW226394   3.050   0.379   0.639 -0.3110 -0.9293 -0.1766
 4978SOL     OW26395   1.090   3.928   5.189 -0.0097 -0.0002  0.1784
 4978SOL    HW126396   1.018   3.897   5.134 -0.1763 -0.7688  0.8340
 4978SOL    HW226397   1.056   4.010   5.224  1.0787 -0.2471  1.8473
 4979SOL     OW26398   3.469   2.687  14.750 -0.1736  0.2353  0.7909
 4979SOL    HW126399   3.398   2.752  14.750 -1.8964 -1.6434 -1.2833
 4979SOL    HW226400   3.473   2.658  14.841 -2.2088 -0.3022  0.7096
 4980SOL     OW26401   2.811   2.241  11.370 -0.6491 -0.8575  0.3796
 4980SOL    HW126402   2.733   2.219  11.320 -1.0817 -2.9175  1.9451
 4980SOL    HW226403   2.875   2.234  11.299  0.5590 -1.0115  1.4757
 4981SOL     OW26404   4.289   1.350   5.568  0.2193  0.1232  0.1149
 4981SOL    HW126405   4.308   1.432   5.614  1.5316  1.0232 -2.0242
 4981SOL    HW226406   4.219   1.319   5.624 -0.4649  0.4909 -0.5382
 4982SOL     OW26407   0.198   3.372  10.524 -0.5276  0.1334  0.2397
 4982SOL    HW126408   0.206   3.298  10.584  3.5207  2.3482  2.4284
 4982SOL    HW226409   0.277   3.424  10.535 -0.8911  0.5250  0.9752
 4983SOL     OW26410   3.945   3.953   6.764  0.1813  0.0849  0.0936
 4983SOL    HW126411   3.960   4.007   6.841 -0.9633 -1.4118  1.3723
 4983SOL    HW226412   3.955   3.863   6.797 -2.9768  0.4231  1.9676
 4984SOL     OW26413   4.435   2.703   6.845 -0.2013 -0.2196 -0.6261
 4984SOL    HW126414   4.362   2.679   6.788 -0.0891 -0.6179 -0.5979
 4984SOL    HW226415   4.386   2.759   6.906  1.8349 -1.1827  1.8737
 4985SOL     OW26416   0.226   1.247  13.115  0.4692  0.8157 -0.2204
 4985SOL    HW126417   0.215   1.212  13.026  0.4204  1.1958 -0.3637
 4985SOL    HW226418   0.140   1.249  13.156  1.4113  2.8237  1.6601
 4986SOL     OW26419   4.016   0.045  14.025  0.5846 -0.0913 -1.1120
 4986SOL    HW126420   4.007   0.140  14.026  0.5177 -0.1005  0.7625
 4986SOL    HW226421   3.989   0.039  14.117  0.0746  2.0348 -1.1258
 4987SOL     OW26422   1.923   0.183   3.341  0.0521 -0.6181  0.6072
 4987SOL    HW126423   1.922   0.088   3.331 -2.7650 -0.5470  0.2480
 4987SOL    HW226424   1.848   0.200   3.398  0.1059 -3.2362  1.4522
 4988SOL     OW26425   0.018   1.028   8.056 -0.2725 -0.1683 -0.1393
 4988SOL    HW126426   0.003   1.037   7.962 -0.6012  0.2104 -0.0487
 4988SOL    HW226427   4.659   0.983   8.086 -0.2452 -1.0821 -1.4195
 4989SOL     OW26428   0.493   3.068   1.565 -0.3128  0.7571  0.4646
 4989SOL    HW126429   0.529   3.136   1.621 -0.4205 -0.0257  1.4899
 4989SOL    HW226430   0.470   3.002   1.630  0.4443  1.0488  1.0263
 4990SOL     OW26431   2.637   2.432   2.045  0.7173 -0.1594  0.5314
 4990SOL    HW126432   2.653   2.407   2.136  2.3727  0.1268  0.3188
 4990SOL    HW226433   2.708   2.495   2.034  0.1830  0.1393 -1.1593
 4991SOL     OW26434   2.521   1.359   7.306 -0.1336 -0.1365 -0.5155
 4991SOL    HW126435   2.501   1.269   7.280  3.3271 -1.4501  1.2532
 4991SOL    HW226436   2.445   1.367   7.363 -0.0357 -0.6677 -0.3177
 4992SOL     OW26437   2.239   4.397   5.762  0.0732 -0.4027 -0.6517
 4992SOL    HW126438   2.180   4.351   5.703 -1.5397  0.7613  0.0739
 4992SOL    HW226439   2.319   4.417   5.712 -0.6839  0.7260 -1.4068
 4993SOL     OW26440   1.702   3.375   8.310 -0.9589  0.1896  0.1752
 4993SOL    HW126441   1.759   3.356   8.384  1.8680  4.2282 -0.9676
 4993SOL    HW226442   1.662   3.457   8.339  1.6053  1.0155  1.3375
 4994SOL     OW26443   1.269   3.308   7.597 -0.4094  0.1057  0.0833
 4994SOL    HW126444   1.218   3.292   7.676  0.3585  3.4434  1.2131
 4994SOL    HW226445   1.195   3.317   7.537 -1.1599  0.7178  1.1043
 4995SOL     OW26446   1.867   1.114   2.785 -0.6455 -0.7080 -0.5007
 4995SOL    HW126447   1.903   1.122   2.873 -0.5078  1.3065 -0.7257
 4995SOL    HW226448   1.885   1.202   2.752 -0.3817 -0.9433 -0.9925
 4996SOL     OW26449   4.547   0.112   6.014  0.3403  0.3464 -0.0040
 4996SOL    HW126450   4.486   0.041   6.033  0.2964 -0.2884 -2.5771
 4996SOL    HW226451   4.500   0.164   5.949 -2.4713  2.3430  3.5781
 4997SOL     OW26452   3.640   2.276   6.226 -0.6811 -0.0350  0.3083
 4997SOL    HW126453   3.646   2.184   6.202  3.6841  0.2484  0.2207
 4997SOL    HW226454   3.638   2.315   6.138 -0.8176 -1.1488 -0.1799
 4998SOL     OW26455   1.256   1.386   7.115  0.3683 -0.0736 -0.2619
 4998SOL    HW126456   1.205   1.371   7.194  0.4410  1.1063  0.0199
 4998SOL    HW226457   1.192   1.371   7.046  0.8740 -3.2423 -0.0228
 4999SOL     OW26458   3.541   1.253   8.043  0.0867  0.0252 -0.0241
 4999SOL    HW126459   3.479   1.195   8.087  0.6502 -0.3314  0.3000
 4999SOL    HW226460   3.606   1.274   8.110 -0.2761 -3.1733  1.3093
 5000SOL     OW26461   0.376   2.897  13.185 -0.2524 -0.4612  0.1466
 5000SOL    HW126462   0.290   2.924  13.217 -0.8448 -3.2259  0.9008
 5000SOL    HW226463   0.382   2.816  13.235  2.6060 -0.0354  0.5213
 5001SOL     OW26464   0.288   0.918   9.904 -0.4793 -0.1254 -0.1976
 5001SOL    HW126465   0.355   0.983   9.885  0.5565 -1.3011 -0.5989
 5001SOL    HW226466   0.333   0.842   9.867  0.4048  0.1718  0.2798
 5002SOL     OW26467   4.464   4.497  11.910 -0.5233 -0.1264  0.1264
 5002SOL    HW126468   4.552   4.490  11.946 -0.3169 -1.1184 -0.5551
 5002SOL    HW226469   4.445   4.406  11.934 -1.1905 -0.6760 -2.4910
 5003SOL     OW26470   0.927   0.872   3.468 -0.5073  0.2841 -0.0503
 5003SOL    HW126471   0.845   0.888   3.421  0.0822 -2.2671 -1.9651
 5003SOL    HW226472   0.927   0.944   3.531 -0.3836  2.3161 -2.3845
 5004SOL     OW26473   4.469   0.671   7.419 -0.1983 -0.1005 -0.3530
 5004SOL    HW126474   4.387   0.668   7.468  0.4197 -2.9232  0.5090
 5004SOL    HW226475   4.453   0.747   7.363  0.9716 -0.2168 -0.8562
 5005SOL     OW26476   3.514   4.234   8.034  0.1795 -0.2048  0.6006
 5005SOL    HW126477   3.546   4.211   7.947 -1.9849 -0.4208 -0.1352
 5005SOL    HW226478   3.460   4.159   8.058  1.6687 -1.0474  1.3223
 5006SOL     OW26479   3.820   3.542   6.737  0.5240 -0.2172 -0.3230
 5006SOL    HW126480   3.830   3.476   6.668  0.3370 -1.4964  0.8599
 5006SOL    HW226481   3.738   3.587   6.717 -0.0838 -1.8642 -1.5672
 5007SOL     OW26482   1.931   4.349  13.189 -0.5113 -0.6026  0.9395
 5007SOL    HW126483   1.921   4.283  13.120 -1.2290 -0.6073  1.0503
 5007SOL    HW226484   1.858   4.407  13.170  0.5279  0.7790  1.1294
 5008SOL     OW26485   1.072   1.712  11.272  0.1272  0.4130  0.0037
 5008SOL    HW126486   1.028   1.780  11.221 -1.8360  0.1933  1.4100
 5008SOL    HW226487   1.118   1.753  11.344 -1.4723 -0.0846  1.3077
 5009SOL     OW26488   1.347   2.487  13.914  0.5632 -0.1389  0.1775
 5009SOL    HW126489   1.353   2.496  14.010  1.5172 -0.2311  0.1290
 5009SOL    HW226490   1.311   2.574  13.896 -0.0648 -0.8815 -2.0859
 5010SOL     OW26491   0.226   2.735   1.518  0.3353 -0.3083 -0.5168
 5010SOL    HW126492   0.322   2.740   1.511  0.3581 -0.5723 -0.4087
 5010SOL    HW226493   0.222   2.658   1.575  0.2400  0.6437  0.7785
 5011SOL     OW26494   3.463   0.218   7.080  0.0639 -0.0541 -0.1996
 5011SOL    HW126495   3.526   0.288   7.066 -1.3115  1.3015  0.4018
 5011SOL    HW226496   3.512   0.141   7.109  1.3563  0.4870 -0.9569
 5012SOL     OW26497   2.111   0.683   6.084 -0.4781 -0.1449  0.0824
 5012SOL    HW126498   2.084   0.673   5.992  1.6822 -3.0749 -0.2283
 5012SOL    HW226499   2.188   0.738   6.073  0.9136 -2.1586 -0.0698
 5013SOL     OW26500   3.063   0.102   5.917 -0.3152  0.4302 -0.0366
 5013SOL    HW126501   3.107   0.101   5.832 -1.1636  0.3963 -0.4758
 5013SOL    HW226502   2.982   0.142   5.886 -0.8967  0.3082  1.3071
 5014SOL     OW26503   4.182   2.300   5.911  0.1220 -0.3786 -0.0744
 5014SOL    HW126504   4.159   2.258   5.828 -1.5925  1.4443 -0.5204
 5014SOL    HW226505   4.113   2.262   5.963  0.0962 -1.3952 -0.8518
 5015SOL     OW26506   4.227   3.047   4.686 -0.0870  0.7854  0.1930
 5015SOL    HW126507   4.179   2.985   4.631  2.5126 -1.7269  0.7945
 5015SOL    HW226508   4.163   3.114   4.711  0.0230  0.6189  0.9120
 5016SOL     OW26509   2.560   1.743  10.178 -0.2068 -0.3130 -0.0034
 5016SOL    HW126510   2.510   1.794  10.241  0.4373 -0.8692  0.9666
 5016SOL    HW226511   2.520   1.784  10.102 -0.1337  0.9137  0.6154
 5017SOL     OW26512   0.963   2.275   5.364 -0.5919  0.3733 -0.2500
 5017SOL    HW126513   0.912   2.284   5.284 -1.0255 -0.7817 -0.0907
 5017SOL    HW226514   0.883   2.301   5.410 -0.6733 -0.0113 -0.1791
 5018SOL     OW26515   2.595   2.540   7.397 -0.1099  0.2304 -0.2472
 5018SOL    HW126516   2.505   2.554   7.369 -1.0306 -1.3484  1.9823
 5018SOL    HW226517   2.628   2.533   7.307  2.2437  1.1426  0.5268
 5019SOL     OW26518   2.646   0.074  16.489  0.5741 -0.2943  0.1288
 5019SOL    HW126519   2.740   0.091  16.478  0.3191 -0.1879 -1.8375
 5019SOL    HW226520   2.643   0.099  16.581  0.7938  0.7233 -0.1395
 5020SOL     OW26521   4.591   1.209  10.552 -0.7565 -0.4155 -0.0258
 5020SOL    HW126522   4.610   1.130  10.502 -1.5057  0.5930 -1.9434
 5020SOL    HW226523   4.499   1.227  10.535 -0.6337 -1.3403 -1.7000
 5021SOL     OW26524   1.846   2.298   3.306  0.3587  0.4441  0.1504
 5021SOL    HW126525   1.802   2.228   3.258  1.9518 -0.1741 -0.4174
 5021SOL    HW226526   1.936   2.278   3.280  0.1931  0.2946 -0.3106
 5022SOL     OW26527   3.059   0.873  13.205 -0.0627 -0.8629  0.2208
 5022SOL    HW126528   2.993   0.921  13.155 -0.5097 -0.4621  1.1994
 5022SOL    HW226529   3.086   0.943  13.264 -1.8617  1.0925 -1.2684
 5023SOL     OW26530   3.298   2.950  12.044  0.0403 -0.0292  0.2054
 5023SOL    HW126531   3.353   2.984  12.114  2.9742  0.2620 -2.2505
 5023SOL    HW226532   3.219   2.938  12.097 -0.9964  3.2002 -0.5902
 5024SOL     OW26533   0.304   3.932  14.584 -0.5720 -0.4445  0.3054
 5024SOL    HW126534   0.330   3.942  14.492  1.4485 -1.0462  0.7977
 5024SOL    HW226535   0.290   4.020  14.620 -0.7251 -0.2929 -0.1132
 5025SOL     OW26536   2.795   2.642   5.698  0.1576 -0.2525 -0.1837
 5025SOL    HW126537   2.843   2.617   5.777  1.1027 -0.2842 -0.7651
 5025SOL    HW226538   2.729   2.575   5.680  2.3120 -2.4636  0.2160
 5026SOL     OW26539   0.280   4.501  14.735  0.5662 -0.1978  0.5576
 5026SOL    HW126540   0.296   4.413  14.768 -2.4710 -1.9232 -2.5464
 5026SOL    HW226541   0.369   4.522  14.707  1.1196  2.8250  4.6361
 5027SOL     OW26542   2.887   1.611  14.866  0.1362 -0.3967 -0.2292
 5027SOL    HW126543   2.971   1.646  14.835  0.2282 -1.6256 -1.3705
 5027SOL    HW226544   2.909   1.521  14.890  0.2114 -0.4195 -0.3772
 5028SOL     OW26545   2.861   3.590  13.037  0.1260  0.5657  0.2283
 5028SOL    HW126546   2.835   3.526  13.104 -0.2506  0.5409  0.0528
 5028SOL    HW226547   2.911   3.536  12.975  0.7241  0.6683  0.6135
 5029SOL     OW26548   2.430   2.945   7.526  0.0450 -0.3447  0.4384
 5029SOL    HW126549   2.523   2.930   7.540  0.1718 -0.5499 -0.6451
 5029SOL    HW226550   2.419   3.019   7.586 -1.0504 -0.2286  0.0978
 5030SOL     OW26551   2.024   0.876  11.235  0.2666 -0.1250 -0.1588
 5030SOL    HW126552   2.016   0.971  11.244  2.5590  0.1159 -0.6160
 5030SOL    HW226553   1.999   0.859  11.144 -2.1968  0.1035  0.4715
 5031SOL     OW26554   1.205   4.485  10.290  0.2425  0.5525 -0.4373
 5031SOL    HW126555   1.289   4.486  10.244  1.1529 -0.6208  1.2077
 5031SOL    HW226556   1.219   4.532  10.372 -0.4713 -1.6151  0.9498
 5032SOL     OW26557   3.846   1.195   9.749  0.5648 -0.0560 -0.2240
 5032SOL    HW126558   3.855   1.102   9.767 -1.1438 -0.4317 -1.2792
 5032SOL    HW226559   3.829   1.237   9.833  0.1425  2.3751 -1.5166
 5033SOL     OW26560   1.234   0.798  10.452  0.1534  0.6357  0.5466
 5033SOL    HW126561   1.173   0.842  10.393  1.5577  1.2029 -0.4739
 5033SOL    HW226562   1.313   0.790  10.399 -1.6159  0.0074 -2.0084
 5034SOL     OW26563   1.992   3.362   8.171  0.1463 -0.1356  0.2177
 5034SOL    HW126564   2.021   3.271   8.169  1.9866  0.4779 -0.7679
 5034SOL    HW226565   1.968   3.375   8.262 -1.2875  0.0571 -0.1816
 5035SOL     OW26566   4.241   0.964   7.666  0.5045 -0.6283 -0.2443
 5035SOL    HW126567   4.178   0.961   7.595  1.4907  1.7294 -1.2175
 5035SOL    HW226568   4.242   1.054   7.699 -0.0886 -1.5459  2.3166
 5036SOL     OW26569   1.811   4.270   8.248  0.0562  0.5860 -0.4311
 5036SOL    HW126570   1.809   4.189   8.298 -2.7202  1.1043  0.3336
 5036SOL    HW226571   1.827   4.340   8.312 -0.4207  1.6607 -1.4738
 5037SOL     OW26572   1.771   3.926  17.611 -0.3040 -0.0093  0.1730
 5037SOL    HW126573   1.718   4.006  17.604 -0.7098 -0.3424 -0.6195
 5037SOL    HW226574   1.722   3.878  17.677  0.3065  0.9505  1.3242
 5038SOL     OW26575   4.211   0.801  11.998 -0.2472  0.2737 -0.3667
 5038SOL    HW126576   4.144   0.759  12.052 -1.0625 -0.6873 -2.1374
 5038SOL    HW226577   4.269   0.726  11.983  0.5403  1.1975 -1.8774
 5039SOL     OW26578   2.586   1.455   8.726  0.6206 -0.8382  0.3122
 5039SOL    HW126579   2.500   1.463   8.766  0.5008  1.5779 -0.4212
 5039SOL    HW226580   2.562   1.467   8.634  1.8332 -0.5311  0.0287
 5040SOL     OW26581   2.955   0.919   7.767  0.2342 -0.1109  0.3955
 5040SOL    HW126582   2.860   0.921   7.775  0.4458  0.1293  2.8368
 5040SOL    HW226583   2.983   0.989   7.826  0.2595  0.8602 -0.7637
 5041SOL     OW26584   0.154   3.508   6.891  0.0680 -0.2436  0.3255
 5041SOL    HW126585   0.160   3.602   6.909 -1.2526  0.2837 -2.0409
 5041SOL    HW226586   0.196   3.469   6.968 -1.4820  0.6456  1.6416
 5042SOL     OW26587   3.125   2.918   5.583  0.4505 -0.0688 -0.4139
 5042SOL    HW126588   3.191   2.983   5.559  0.6039  0.1453  0.5835
 5042SOL    HW226589   3.046   2.960   5.548 -0.9302 -1.8007  0.5871
 5043SOL     OW26590   0.384   4.305   2.079 -0.3495  0.3212 -0.2196
 5043SOL    HW126591   0.437   4.240   2.126 -0.6241 -0.2816 -0.7419
 5043SOL    HW226592   0.333   4.246   2.023 -0.1803  0.8041 -0.8753
 5044SOL     OW26593   3.192   0.922  12.922 -0.2658  0.1241  0.1009
 5044SOL    HW126594   3.106   0.963  12.937  1.0528  2.6774  0.7448
 5044SOL    HW226595   3.155   0.837  12.946 -2.4186  1.0920  0.2591
 5045SOL     OW26596   0.131   4.500   4.281  0.3800  0.4698 -0.2509
 5045SOL    HW126597   0.203   4.464   4.331 -0.2663  1.3581  1.3264
 5045SOL    HW226598   0.063   4.433   4.281  0.6659  0.1777 -1.2617
 5046SOL     OW26599   2.980   0.076   6.387  0.0218  0.0378 -0.1978
 5046SOL    HW126600   3.004   0.006   6.325 -2.1955 -1.3754  0.5418
 5046SOL    HW226601   2.953   0.021   6.460  0.0401  1.7712  1.1014
 5047SOL     OW26602   1.533   2.637   9.719 -0.6658 -0.0736 -0.4502
 5047SOL    HW126603   1.466   2.595   9.664 -0.6439 -0.4845 -0.1658
 5047SOL    HW226604   1.602   2.650   9.655 -1.0421  0.9635 -0.6575
 5048SOL     OW26605   4.675   3.837   7.674  0.0800  0.4326  0.0128
 5048SOL    HW126606   4.685   3.771   7.606 -0.0151 -1.3439  1.7399
 5048SOL    HW226607   4.712   3.784   7.744 -1.2873 -2.9036 -1.8318
 5049SOL     OW26608   3.261   4.609   8.453 -0.0131 -1.1785  0.3498
 5049SOL    HW126609   3.337   4.650   8.413 -0.8196  1.0313  1.0663
 5049SOL    HW226610   3.276   4.516   8.436  2.6046 -0.5266 -0.9197
 5050SOL     OW26611   3.931   3.594   1.466  0.3750  0.6933 -0.5393
 5050SOL    HW126612   3.995   3.524   1.477 -0.8391 -0.5508 -1.3987
 5050SOL    HW226613   3.867   3.544   1.415 -0.1775  0.8574 -0.0202
 5051SOL     OW26614   2.527   3.970   5.378  0.3526  0.7690  0.4760
 5051SOL    HW126615   2.480   3.891   5.348 -0.9383  2.5261 -2.1973
 5051SOL    HW226616   2.498   4.039   5.318  1.0705  0.2743 -0.4418
 5052SOL     OW26617   1.744   3.595  10.063  0.0962  0.4505  0.4669
 5052SOL    HW126618   1.826   3.563  10.025  0.3996  1.9435 -0.1200
 5052SOL    HW226619   1.761   3.689  10.056  3.5754 -0.6250 -5.6537
 5053SOL     OW26620   0.719   3.480   8.690 -0.2144  0.2818  0.0840
 5053SOL    HW126621   0.735   3.574   8.689  2.2798 -0.1518  0.7594
 5053SOL    HW226622   0.628   3.488   8.718 -0.6010  0.8276 -1.3116
 5054SOL     OW26623   3.574   3.864  16.523  0.3283 -0.2470  0.6599
 5054SOL    HW126624   3.503   3.881  16.585 -1.8930  0.6238 -2.1015
 5054SOL    HW226625   3.574   3.768  16.519 -0.7741 -0.2311  0.0223
 5055SOL     OW26626   1.620   3.229  15.060  0.1809 -0.4781  0.7362
 5055SOL    HW126627   1.591   3.139  15.073 -1.8757  0.2205  0.9095
 5055SOL    HW226628   1.577   3.250  14.976  1.7630 -0.3436 -0.0420
 5056SOL     OW26629   1.452   1.956   2.885 -0.0081 -0.3411  0.0839
 5056SOL    HW126630   1.447   1.881   2.826 -0.4000  0.2383 -0.6322
 5056SOL    HW226631   1.491   2.027   2.834  1.9358 -0.6797  1.1361
 5057SOL     OW26632   2.044   0.332   7.902  0.2688 -0.3898  0.0395
 5057SOL    HW126633   2.090   0.359   7.981  1.8104  0.5801 -1.2069
 5057SOL    HW226634   1.973   0.395   7.891 -1.0561 -2.0149 -0.8446
 5058SOL     OW26635   1.997   3.660   2.733 -0.3564  0.1053  0.1821
 5058SOL    HW126636   1.985   3.704   2.649 -0.3592 -1.7125 -0.7524
 5058SOL    HW226637   2.092   3.670   2.744 -0.2974 -1.5508  1.1482
 5059SOL     OW26638   4.662   0.068   6.272  0.1559 -0.0483  0.1903
 5059SOL    HW126639   4.612   0.106   6.345  0.7610  2.6018 -0.7694
 5059SOL    HW226640   4.611   0.102   6.199  0.0868  4.5617  2.3593
 5060SOL     OW26641   3.383   0.504   9.425  0.1226  0.0912 -0.1602
 5060SOL    HW126642   3.441   0.564   9.378 -0.8743  1.4452  0.3236
 5060SOL    HW226643   3.363   0.443   9.354 -0.0754 -0.3455  0.2781
 5061SOL     OW26644   1.719   1.360  12.346 -0.4337  0.0759  0.0280
 5061SOL    HW126645   1.722   1.287  12.284  2.6747 -1.2728  1.7626
 5061SOL    HW226646   1.765   1.430  12.299 -1.1373  2.2300  2.5813
 5062SOL     OW26647   2.535   4.278  13.274  0.2573  0.6684 -0.3496
 5062SOL    HW126648   2.533   4.234  13.189 -2.3313 -1.6272  0.8747
 5062SOL    HW226649   2.447   4.314  13.284 -0.5470 -2.2231  2.8825
 5063SOL     OW26650   4.523   2.106   9.333  0.1552  0.1811 -0.0255
 5063SOL    HW126651   4.582   2.157   9.278  0.8206  0.9007  1.3275
 5063SOL    HW226652   4.452   2.089   9.271  0.7980 -0.5674 -0.5450
 5064SOL     OW26653   4.235   4.622   5.210  0.2511 -0.1324 -0.5171
 5064SOL    HW126654   4.161   4.650   5.156  0.7062  0.0080 -1.0630
 5064SOL    HW226655   4.259   4.537   5.173 -0.3909 -0.6859  0.3484
 5065SOL     OW26656   3.475   3.044  12.468  0.0325 -0.2325 -0.1457
 5065SOL    HW126657   3.550   3.101  12.486 -0.1171  0.2947 -1.2001
 5065SOL    HW226658   3.485   2.976  12.535  1.5057 -1.1525 -1.3021
 5066SOL     OW26659   1.778   3.583  10.956  0.2975 -0.3565  0.0714
 5066SOL    HW126660   1.811   3.619  10.874  1.3261 -2.1825 -0.3263
 5066SOL    HW226661   1.850   3.522  10.968 -1.0173 -2.2732 -1.8403
 5067SOL     OW26662   4.436   0.150   4.057  0.3023 -0.3464 -0.1579
 5067SOL    HW126663   4.505   0.142   3.992 -0.0330  3.5701 -1.0068
 5067SOL    HW226664   4.470   0.201   4.131  2.4292 -0.6839 -0.9153
 5068SOL     OW26665   0.885   0.642   9.361 -0.5021  0.2350  0.4233
 5068SOL    HW126666   0.935   0.710   9.316 -2.2108  2.8910  2.5246
 5068SOL    HW226667   0.942   0.566   9.348 -1.3967 -0.3683 -0.0099
 5069SOL     OW26668   1.409   1.672   4.715  0.2767 -0.4204 -0.1481
 5069SOL    HW126669   1.425   1.680   4.809  0.3398 -2.8201  0.0420
 5069SOL    HW226670   1.496   1.692   4.681 -0.3872  1.5019 -0.7241
 5070SOL     OW26671   4.373   1.257   9.054 -0.2544  0.1197  0.8192
 5070SOL    HW126672   4.434   1.213   9.114  1.2350 -1.2366 -1.6847
 5070SOL    HW226673   4.295   1.206   9.077 -0.8473  0.8854  0.4889
 5071SOL     OW26674   4.668   3.662   8.194 -0.0909 -0.4026  0.1395
 5071SOL    HW126675   4.605   3.590   8.194  1.0443 -1.4163  2.1077
 5071SOL    HW226676   4.624   3.721   8.255  0.1692 -0.8346  0.7537
 5072SOL     OW26677   1.088   3.471  15.235 -0.0506 -0.4873  0.1349
 5072SOL    HW126678   1.021   3.410  15.266 -1.3363  0.9177  0.1202
 5072SOL    HW226679   1.059   3.559  15.259 -1.6499 -0.7372 -0.8982
 5073SOL     OW26680   4.626   0.238  11.818 -0.4881 -0.0093 -0.3321
 5073SOL    HW126681   4.569   0.304  11.780  0.2637  0.2918 -0.9265
 5073SOL    HW226682   4.646   0.184  11.742 -0.6812 -0.3704 -0.1280
 5074SOL     OW26683   2.144   4.645   7.724 -0.1962  0.3488 -0.2219
 5074SOL    HW126684   2.211   4.664   7.790  0.7277 -0.8920 -0.7955
 5074SOL    HW226685   2.142   0.013   7.687  1.5564  0.5132  0.0921
 5075SOL     OW26686   0.878   3.559  10.499 -0.4090 -0.0218 -0.4164
 5075SOL    HW126687   0.867   3.565  10.404 -6.3195 -1.4492  0.2204
 5075SOL    HW226688   0.967   3.525  10.499  0.1567  1.4488 -1.2259
 5076SOL     OW26689   2.016   3.300   0.245 -0.1436  0.2202  0.2133
 5076SOL    HW126690   2.107   3.280   0.224 -1.0930 -2.5188 -1.3418
 5076SOL    HW226691   1.967   3.273   0.167  1.1308 -2.8560  0.4897
 5077SOL     OW26692   4.287   1.330   4.665 -0.2290 -0.1351  0.0776
 5077SOL    HW126693   4.217   1.275   4.629 -2.5953  2.1364  1.2227
 5077SOL    HW226694   4.275   1.326   4.760 -1.0483 -2.1682 -0.1204
 5078SOL     OW26695   0.435   3.444   3.230 -0.5771 -0.3119  0.0459
 5078SOL    HW126696   0.441   3.525   3.280 -1.5955  0.1952 -0.6456
 5078SOL    HW226697   0.525   3.414   3.232 -1.3006 -2.4936 -0.6493
 5079SOL     OW26698   4.337   3.512   8.667  0.2703  0.3556 -0.1674
 5079SOL    HW126699   4.272   3.513   8.596  0.7210  0.3734 -0.5782
 5079SOL    HW226700   4.367   3.603   8.666  1.6333 -0.0980  1.3100
 5080SOL     OW26701   1.647   4.146   5.142 -0.0017 -0.3924 -0.2645
 5080SOL    HW126702   1.573   4.086   5.130 -0.8098  0.7742 -1.0640
 5080SOL    HW226703   1.604   4.225   5.175  0.7009  0.1162 -0.5827
 5081SOL     OW26704   1.913   1.635   4.752  0.4046  0.0294 -0.3147
 5081SOL    HW126705   1.921   1.634   4.848 -0.6336 -1.3298 -0.2458
 5081SOL    HW226706   1.860   1.714   4.740  1.9594  0.9475 -1.1122
 5082SOL     OW26707   1.237   0.699   0.124  0.1293 -0.4768  0.4290
 5082SOL    HW126708   1.254   0.708   0.030 -0.9733  0.2674  0.3024
 5082SOL    HW226709   1.322   0.708   0.167 -0.7003 -1.9640  2.3674
 5083SOL     OW26710   1.357   0.335  15.144  0.9442 -0.0675 -0.4070
 5083SOL    HW126711   1.336   0.245  15.119  1.6893 -0.3060 -0.1719
 5083SOL    HW226712   1.325   0.387  15.070 -3.2584  0.6451  1.8981
 5084SOL     OW26713   4.507   0.189   7.220 -0.0307  0.0230  0.1295
 5084SOL    HW126714   4.585   0.213   7.170  0.6809  0.1395  1.2885
 5084SOL    HW226715   4.488   0.260   7.281  2.6591  0.8430  0.0081
 5085SOL     OW26716   0.687   1.892   3.428 -0.2906  0.2574  0.2265
 5085SOL    HW126717   0.651   1.973   3.464 -2.0977 -0.7091  0.5893
 5085SOL    HW226718   0.610   1.836   3.427  0.6421 -1.0669  2.0484
 5086SOL     OW26719   3.579   4.657   1.767  0.1797 -0.0461  0.0338
 5086SOL    HW126720   3.579   0.026   1.802  1.0660 -0.0671  0.0670
 5086SOL    HW226721   3.513   4.666   1.698 -0.4747 -0.9200  0.5343
 5087SOL     OW26722   4.347   0.779   1.235 -0.0723  0.2723 -0.0895
 5087SOL    HW126723   4.299   0.725   1.173 -0.4124  0.7706 -0.2568
 5087SOL    HW226724   4.296   0.792   1.315 -1.0162  1.8454 -0.9507
 5088SOL     OW26725   2.705   0.665   1.715  0.0074  0.6036 -0.4766
 5088SOL    HW126726   2.686   0.720   1.791 -0.6277 -1.3693  0.7653
 5088SOL    HW226727   2.618   0.637   1.688  1.4799 -3.1324 -1.2844
 5089SOL     OW26728   4.634   3.267  15.242  0.0451  0.4211 -0.2277
 5089SOL    HW126729   0.001   3.230  15.222  0.4264  0.9479  0.4623
 5089SOL    HW226730   4.644   3.311  15.327 -1.4329 -1.2291  0.8159
 5090SOL     OW26731   3.881   4.210  11.997 -0.4463 -0.2024 -0.4127
 5090SOL    HW126732   3.969   4.236  12.024 -1.2460  0.2277  1.8222
 5090SOL    HW226733   3.842   4.194  12.083 -1.7379  0.5703 -0.8568
 5091SOL     OW26734   1.754   1.792  10.790 -0.3068 -0.2081  0.1906
 5091SOL    HW126735   1.737   1.857  10.858  0.3941 -0.0925  0.2503
 5091SOL    HW226736   1.813   1.730  10.833 -1.8936 -0.3923  2.1240
 5092SOL     OW26737   2.178   3.207  14.798 -0.0595 -0.1147 -0.2054
 5092SOL    HW126738   2.201   3.125  14.755 -0.9678 -1.2053  1.3767
 5092SOL    HW226739   2.233   3.272  14.755 -0.0515 -0.6869 -1.0635
 5093SOL     OW26740   2.078   2.258   8.829 -0.2786  0.2459  0.7528
 5093SOL    HW126741   2.143   2.234   8.895  0.8344  1.2645  0.0381
 5093SOL    HW226742   2.125   2.336   8.800  1.9472 -1.3735 -0.0427
 5094SOL     OW26743   0.754   3.141   7.966  0.5170 -0.8096  0.3070
 5094SOL    HW126744   0.846   3.142   7.992 -0.0225 -1.0167  2.2152
 5094SOL    HW226745   0.722   3.065   8.013 -1.1907  0.2038  0.7816
 5095SOL     OW26746   1.650   2.417   7.177 -0.0219 -0.2462  0.3843
 5095SOL    HW126747   1.727   2.469   7.155  0.2205 -1.1662 -0.9007
 5095SOL    HW226748   1.641   2.444   7.269  0.1889  0.7346  0.1153
 5096SOL     OW26749   4.217   2.834   2.799  0.0118 -0.3114 -0.2768
 5096SOL    HW126750   4.261   2.763   2.846 -1.5916 -1.7894 -0.9995
 5096SOL    HW226751   4.169   2.863   2.877 -0.7838 -0.3338 -0.7611
 5097SOL     OW26752   2.353   0.676  15.916 -0.3163 -0.0950 -0.0057
 5097SOL    HW126753   2.370   0.760  15.957 -0.0008  0.1738 -0.6931
 5097SOL    HW226754   2.381   0.694  15.826 -1.0174  0.6269 -0.0817
 5098SOL     OW26755   2.477   2.439   4.153 -0.2672 -0.2737 -0.2246
 5098SOL    HW126756   2.471   2.454   4.248  0.7783  1.8581 -0.4792
 5098SOL    HW226757   2.389   2.407   4.137  0.1352 -0.1617 -2.6364
 5099SOL     OW26758   1.086   0.535   7.539  0.4351  0.2350  0.5317
 5099SOL    HW126759   1.102   0.515   7.631  2.4110  2.6830  0.7134
 5099SOL    HW226760   1.005   0.485   7.526 -1.2377  2.1645  3.5388
 5100SOL     OW26761   2.453   0.471   1.021 -0.0730  0.4501 -0.0307
 5100SOL    HW126762   2.478   0.528   0.948  0.1914  0.9539  0.4541
 5100SOL    HW226763   2.524   0.481   1.084 -1.5245  0.5585  1.5922
 5101SOL     OW26764   0.618   3.278   8.483 -0.1973  0.0739  0.0299
 5101SOL    HW126765   0.530   3.310   8.500 -1.0183 -2.4667  0.4738
 5101SOL    HW226766   0.657   3.342   8.542  0.0775  0.5966 -0.7129
 5102SOL     OW26767   4.266   3.999  11.132 -0.3321  0.5724 -0.4491
 5102SOL    HW126768   4.256   3.974  11.223  0.7770 -0.9288 -0.7415
 5102SOL    HW226769   4.342   4.058  11.142  0.1017  0.2206 -1.6407
 5103SOL     OW26770   1.994   0.351   9.792  0.0033  0.7372  0.2403
 5103SOL    HW126771   1.903   0.319   9.796  0.3017 -0.0321  0.9358
 5103SOL    HW226772   2.030   0.281   9.737 -0.3042  1.1966 -0.5433
 5104SOL     OW26773   4.258   1.492   4.194 -0.0231 -0.2478 -0.4013
 5104SOL    HW126774   4.164   1.492   4.212  0.4385  1.2269  1.9649
 5104SOL    HW226775   4.266   1.397   4.193 -2.3227 -0.4744  2.9906
 5105SOL     OW26776   1.145   2.138   4.962 -0.8785  0.3068  0.1846
 5105SOL    HW126777   1.141   2.118   4.868  0.0273 -1.5302  0.5538
 5105SOL    HW226778   1.142   2.234   4.962 -0.9023  0.3065  0.1344
 5106SOL     OW26779   1.129   0.465   4.322  0.5536 -0.2020 -0.2383
 5106SOL    HW126780   1.052   0.440   4.374  1.4866  0.1274  1.3049
 5106SOL    HW226781   1.100   0.461   4.231  0.3092  1.7047 -0.2581
 5107SOL     OW26782   1.048   0.417   4.029  0.0847 -0.4477  0.5968
 5107SOL    HW126783   0.956   0.441   4.020  0.3112  0.1863 -0.0969
 5107SOL    HW226784   1.045   0.346   3.965 -1.0956  0.3974 -0.3024
 5108SOL     OW26785   1.294   1.451   4.266  0.3041  0.3407 -0.1035
 5108SOL    HW126786   1.311   1.430   4.358  0.9764  0.9207 -0.0912
 5108SOL    HW226787   1.381   1.484   4.243 -0.1817 -0.3189 -2.8490
 5109SOL     OW26788   4.518   3.670   0.525 -0.4960  0.3717  0.3464
 5109SOL    HW126789   4.470   3.695   0.446  0.3701 -1.0992 -0.6372
 5109SOL    HW226790   4.456   3.683   0.597  0.6544  0.7502  1.2517
 5110SOL     OW26791   3.994   3.568   4.290  0.3006 -0.7477 -0.1668
 5110SOL    HW126792   3.935   3.642   4.282 -0.2363 -0.9917  1.4860
 5110SOL    HW226793   4.031   3.583   4.377  0.3305  1.0432 -0.4933
 5111SOL     OW26794   1.833   1.392   2.679 -0.4069  0.2356 -0.1452
 5111SOL    HW126795   1.754   1.355   2.639 -0.5540  0.2496  0.1327
 5111SOL    HW226796   1.799   1.461   2.736 -0.4292  1.2681 -1.4101
 5112SOL     OW26797   0.641   3.508   5.884  0.3080  0.1685  0.6036
 5112SOL    HW126798   0.731   3.538   5.871  0.3064 -0.4026 -0.6798
 5112SOL    HW226799   0.645   3.421   5.845  2.5866  0.3718  0.3346
 5113SOL     OW26800   3.044   3.075   0.925 -0.1632  0.3269 -0.1007
 5113SOL    HW126801   3.062   2.994   0.974  0.6788 -0.3415 -1.4989
 5113SOL    HW226802   3.096   3.133   0.980 -0.5112 -0.4384  1.0503
 5114SOL     OW26803   2.407   1.619  13.309 -0.5421 -0.2704  0.1354
 5114SOL    HW126804   2.389   1.551  13.244 -2.2618  0.0128  0.3201
 5114SOL    HW226805   2.428   1.690  13.249 -1.6148  1.0273  1.3144
 5115SOL     OW26806   2.947   0.768   0.744 -0.2534 -0.0401 -0.0938
 5115SOL    HW126807   2.935   0.715   0.823  0.8153  1.5054  1.0987
 5115SOL    HW226808   2.895   0.846   0.759 -0.4747  0.3461 -2.8072
 5116SOL     OW26809   2.659   0.876  12.320  0.8176 -0.4558  0.6478
 5116SOL    HW126810   2.608   0.842  12.394  1.2021 -3.3634 -0.4412
 5116SOL    HW226811   2.598   0.941  12.285 -0.2609 -2.5188 -1.3097
 5117SOL     OW26812   2.893   0.390   3.590 -0.1170 -0.0950  0.0268
 5117SOL    HW126813   2.915   0.318   3.530  1.0775 -1.9910  2.7031
 5117SOL    HW226814   2.929   0.344   3.666 -0.8763 -1.2440 -0.3144
 5118SOL     OW26815   0.843   2.728  10.905 -0.1701 -0.2503 -0.1795
 5118SOL    HW126816   0.862   2.681  10.824 -1.8345  0.2074 -0.8199
 5118SOL    HW226817   0.910   2.696  10.966  1.2010  1.2042 -0.9294
 5119SOL     OW26818   0.220   4.195   6.092 -0.2739  0.0961  0.1029
 5119SOL    HW126819   0.261   4.109   6.093  2.6864  1.5152 -0.8129
 5119SOL    HW226820   0.243   4.235   6.176 -1.1414 -1.0913  0.9100
 5120SOL     OW26821   1.683   4.435  12.658  0.1049  0.0530 -0.1655
 5120SOL    HW126822   1.599   4.436  12.705 -0.9258 -3.4164 -1.9346
 5120SOL    HW226823   1.733   4.497  12.711  0.6054 -1.6473  1.3366
 5121SOL     OW26824   1.095   0.513   3.097 -0.4397  0.2254  0.3949
 5121SOL    HW126825   1.152   0.511   3.020 -0.3129  0.2174  0.4894
 5121SOL    HW226826   1.154   0.485   3.167  1.3738  1.6358 -0.5660
 5122SOL     OW26827   1.762   1.504   7.228 -0.2055  0.1936 -0.3578
 5122SOL    HW126828   1.689   1.496   7.289  1.3112 -0.1180  1.4072
 5122SOL    HW226829   1.729   1.484   7.140  0.9547 -0.1150 -0.7191
 5123SOL     OW26830   4.159   1.923  14.358  0.0398  0.1231 -0.2403
 5123SOL    HW126831   4.247   1.951  14.382 -1.1520  0.4349  3.7462
 5123SOL    HW226832   4.117   1.911  14.443  1.1518  2.1035  0.5927
 5124SOL     OW26833   4.102   0.741  13.891 -0.0314 -0.0032 -0.3868
 5124SOL    HW126834   4.117   0.823  13.939 -3.1302  0.5673 -0.4303
 5124SOL    HW226835   4.055   0.684  13.952 -2.9926  0.8132 -1.9382
 5125SOL     OW26836   3.173   3.621   5.248 -0.2729 -0.1587  0.2395
 5125SOL    HW126837   3.143   3.673   5.173  0.3306 -1.1369 -0.6674
 5125SOL    HW226838   3.234   3.678   5.295 -1.4412  0.3974  1.1040
 5126SOL     OW26839   0.073   3.972   4.702 -0.2979 -0.0460 -0.3304
 5126SOL    HW126840   4.713   3.920   4.711 -0.2397 -0.0226  0.3885
 5126SOL    HW226841   0.051   4.029   4.776 -0.5596 -1.1126  0.4138
 5127SOL     OW26842   3.322   4.118   5.539  0.3901  0.1852 -0.5308
 5127SOL    HW126843   3.245   4.158   5.497 -2.7175 -1.7631  3.3064
 5127SOL    HW226844   3.344   4.194   5.593  1.8741 -0.5264 -0.1409
 5128SOL     OW26845   2.172   2.231   5.651  0.4690  0.0166  0.6760
 5128SOL    HW126846   2.147   2.318   5.683  1.5735  0.3777  0.5322
 5128SOL    HW226847   2.096   2.179   5.677 -0.5529  1.1877  0.0415
 5129SOL     OW26848   2.617   2.455   5.642 -0.0145 -0.2171 -0.0709
 5129SOL    HW126849   2.577   2.370   5.658 -2.2815  0.9470  0.4388
 5129SOL    HW226850   2.615   2.460   5.546  0.3106 -2.3500 -0.1885
 5130SOL     OW26851   4.398   4.247  12.012 -0.2825 -0.3977  0.1374
 5130SOL    HW126852   4.415   4.164  11.967 -0.8223  1.3360 -3.2969
 5130SOL    HW226853   4.445   4.230  12.094  0.2257 -0.0013 -0.0719
 5131SOL     OW26854   1.500   3.606  10.862  0.2422 -0.5283 -0.3149
 5131SOL    HW126855   1.593   3.596  10.879  0.1147  2.9488  2.5670
 5131SOL    HW226856   1.469   3.521  10.830 -1.0904 -0.0568 -0.2968
 5132SOL     OW26857   3.415   4.695   5.895  0.4269  0.2170  0.3229
 5132SOL    HW126858   3.352   4.638   5.851  1.1746 -1.1662  1.0592
 5132SOL    HW226859   3.460   0.016   5.821  0.7409 -1.0204 -0.1700
 5133SOL     OW26860   3.990   2.244   6.432  0.1325 -0.2116 -0.3990
 5133SOL    HW126861   3.961   2.307   6.499 -1.3617 -0.9410 -0.3540
 5133SOL    HW226862   3.915   2.185   6.433  0.5174 -0.6995 -0.6841
 5134SOL     OW26863   1.843   4.324   7.510 -0.2493  0.3377  0.0768
 5134SOL    HW126864   1.785   4.398   7.495 -1.0681 -0.0182  1.4844
 5134SOL    HW226865   1.915   4.366   7.559 -0.6633 -1.5043  2.2596
 5135SOL     OW26866   4.602   1.358   8.727 -0.5267 -0.1380 -0.0022
 5135SOL    HW126867   4.583   1.446   8.762  0.1673 -0.1587  0.4335
 5135SOL    HW226868   4.676   1.368   8.667  0.2675 -0.7434  0.8849
 5136SOL     OW26869   4.548   4.158   8.493  0.1047 -0.4311  0.1831
 5136SOL    HW126870   4.575   4.189   8.580  1.7038 -1.1849 -0.0392
 5136SOL    HW226871   4.465   4.205   8.487  1.3679  1.5054 -2.3052
 5137SOL     OW26872   0.085   2.488  13.847  0.0274 -0.1075 -0.0152
 5137SOL    HW126873   0.084   2.393  13.860 -3.3724 -0.1780 -0.6910
 5137SOL    HW226874   0.062   2.521  13.934 -2.1927 -0.0833 -0.6034
 5138SOL     OW26875   4.456   0.573   3.952  0.4990 -0.3829 -0.1784
 5138SOL    HW126876   4.544   0.604   3.931  1.3272 -0.9412  2.3819
 5138SOL    HW226877   4.417   0.658   3.976  0.0177 -0.7101  0.2132
 5139SOL     OW26878   4.099   4.309  11.354  0.9164 -0.2514  0.3947
 5139SOL    HW126879   4.135   4.246  11.416 -1.0969 -0.8635  0.9454
 5139SOL    HW226880   4.034   4.360  11.402  0.3589 -0.4974 -0.1078
 5140SOL     OW26881   3.826   1.435  11.475  0.3325 -0.6111  0.3632
 5140SOL    HW126882   3.744   1.425  11.523 -1.1343 -0.8496 -2.1851
 5140SOL    HW226883   3.886   1.486  11.530 -1.8875  2.5645 -0.1213
 5141SOL     OW26884   1.725   0.082   5.074  0.1611 -0.2933 -0.5420
 5141SOL    HW126885   1.661   0.028   5.119  2.3239 -1.4973  1.1145
 5141SOL    HW226886   1.677   0.099   4.993  0.6036 -0.2339 -0.7901
 5142SOL     OW26887   0.569   1.552   2.884 -0.6165 -0.3183  0.4608
 5142SOL    HW126888   0.584   1.646   2.895 -1.3644 -0.0411 -0.8601
 5142SOL    HW226889   0.655   1.531   2.848 -1.2495 -0.2608 -1.1068
 5143SOL     OW26890   2.438   1.653   4.142  0.0163 -0.0199  0.1928
 5143SOL    HW126891   2.478   1.575   4.180  1.5073  1.4739  1.6892
 5143SOL    HW226892   2.514   1.711   4.147  1.2877 -1.5863 -0.9740
 5144SOL     OW26893   1.702   4.557   9.162 -0.2265  0.0777  0.5792
 5144SOL    HW126894   1.784   4.520   9.195 -1.0770 -1.9565  0.4348
 5144SOL    HW226895   1.718   4.646   9.191  0.8196  0.0404  0.1303
 5145SOL     OW26896   2.409   3.117   4.666  0.1945 -0.0362  0.0306
 5145SOL    HW126897   2.426   3.105   4.760  0.9064 -1.0284 -0.2268
 5145SOL    HW226898   2.419   3.211   4.650  0.3339  0.0716  0.7647
 5146SOL     OW26899   1.030   2.639   1.194  0.9206  0.1726  0.4088
 5146SOL    HW126900   0.955   2.632   1.136  0.1705  0.9789  1.2782
 5146SOL    HW226901   1.046   2.547   1.216  0.0425 -0.6581 -2.5074
 5147SOL     OW26902   0.941   4.571   6.012 -0.3614 -0.6839 -0.0392
 5147SOL    HW126903   1.036   4.569   6.010 -0.2966  2.6496  0.4414
 5147SOL    HW226904   0.928   4.664   5.996 -0.6797 -0.7274 -0.0360
 5148SOL     OW26905   1.009   2.592  11.153  0.2660 -0.0036 -0.1891
 5148SOL    HW126906   0.970   2.637  11.228  1.7792  0.2403  0.4480
 5148SOL    HW226907   1.101   2.589  11.182  0.8710 -2.1316 -2.3165
 5149SOL     OW26908   4.405   1.791  12.278 -0.2917 -0.7447  0.0776
 5149SOL    HW126909   4.494   1.810  12.247 -0.3418 -0.2928  0.2144
 5149SOL    HW226910   4.358   1.836  12.208  0.0228 -1.7748 -0.8043
 5150SOL     OW26911   2.816   0.146  13.289  0.0169 -0.1592  0.3657
 5150SOL    HW126912   2.903   0.106  13.281  0.3012 -0.0421  2.7965
 5150SOL    HW226913   2.815   0.223  13.233  2.0328 -1.5826 -1.6069
 5151SOL     OW26914   1.974   4.618  16.384  0.0255 -0.3698  0.2870
 5151SOL    HW126915   1.928   4.604  16.301 -1.2699  2.3254  0.5325
 5151SOL    HW226916   1.993   4.712  16.381  0.5135 -0.5318 -1.9026
 5152SOL     OW26917   2.298   3.224  12.443  0.5304  0.1627 -0.1776
 5152SOL    HW126918   2.231   3.168  12.481  2.2891 -1.4606  0.5523
 5152SOL    HW226919   2.265   3.242  12.355 -0.0942  1.1572  0.2646
 5153SOL     OW26920   0.498   2.852  10.205 -0.1352 -0.1167 -0.3264
 5153SOL    HW126921   0.441   2.920  10.241 -1.4459 -0.5098 -1.6560
 5153SOL    HW226922   0.571   2.900  10.166  1.1280 -0.9813  0.9658
 5154SOL     OW26923   1.300   2.198   5.233  0.3225  0.1813  0.6012
 5154SOL    HW126924   1.291   2.206   5.138 -2.8904  0.5924  0.9428
 5154SOL    HW226925   1.225   2.256   5.250 -0.2737 -0.5770  0.5728
 5155SOL     OW26926   2.554   0.305  12.954  0.7372 -0.5333  0.1849
 5155SOL    HW126927   2.531   0.220  12.990 -3.8867  0.4166 -0.5445
 5155SOL    HW226928   2.647   0.301  12.931  1.1146  0.7137  1.5116
 5156SOL     OW26929   1.173   0.987   1.518  0.5436 -0.0687  0.4333
 5156SOL    HW126930   1.105   1.031   1.568  1.3531 -0.3849  1.8158
 5156SOL    HW226931   1.154   1.022   1.431  3.3429 -0.3246 -0.2947
 5157SOL     OW26932   2.766   1.220   4.277  0.1181  0.3508 -0.0925
 5157SOL    HW126933   2.829   1.158   4.314 -0.6418 -0.8319 -0.7681
 5157SOL    HW226934   2.724   1.177   4.202 -2.2543  0.6437  1.0769
 5158SOL     OW26935   0.014   0.940   9.883 -0.3828  0.3032  0.3582
 5158SOL    HW126936   4.704   0.992   9.808 -1.2503  1.2128  1.3359
 5158SOL    HW226937   0.108   0.956   9.885 -0.3589  0.4512 -2.5245
 5159SOL     OW26938   2.371   1.173   8.982 -0.1627  0.4790 -0.1661
 5159SOL    HW126939   2.387   1.109   9.052 -1.4150 -0.4481 -0.7353
 5159SOL    HW226940   2.320   1.242   9.023 -3.5399 -3.3379  1.9891
 5160SOL     OW26941   2.552   1.408   5.130  0.1758 -0.3416  0.2062
 5160SOL    HW126942   2.591   1.321   5.121  0.7919 -0.1529  1.0147
 5160SOL    HW226943   2.463   1.384   5.156 -0.4689  2.7213  0.8597
 5161SOL     OW26944   3.446   1.758   3.095 -0.4426 -0.3042 -0.0258
 5161SOL    HW126945   3.479   1.844   3.068  0.6152 -0.3060  1.2882
 5161SOL    HW226946   3.495   1.751   3.176  0.1022  0.7032 -0.2729
 5162SOL     OW26947   3.605   3.608   5.492  0.0941  0.3098  0.3114
 5162SOL    HW126948   3.599   3.522   5.450  2.9910  0.2207  0.0412
 5162SOL    HW226949   3.675   3.594   5.556 -0.8728 -0.4193  1.1951
 5163SOL     OW26950   2.712   2.877   4.809 -0.3657  0.5205  0.5442
 5163SOL    HW126951   2.640   2.839   4.860  0.0685 -0.3544  0.5149
 5163SOL    HW226952   2.691   2.970   4.817  2.6702  1.2249  0.3046
 5164SOL     OW26953   4.036   1.736   6.279  0.3786 -0.1367 -0.1494
 5164SOL    HW126954   4.018   1.825   6.250  0.9065 -0.3633 -1.1835
 5164SOL    HW226955   4.008   1.687   6.202  1.5177 -1.1505  0.0670
 5165SOL     OW26956   2.105   2.768   9.956  0.4623  0.3821 -0.5071
 5165SOL    HW126957   2.038   2.797  10.018 -0.7188  2.3302 -2.7406
 5165SOL    HW226958   2.136   2.847   9.913  0.8792  0.6815  0.3539
 5166SOL     OW26959   3.124   2.591  10.632  0.4080 -0.5151 -0.2160
 5166SOL    HW126960   3.107   2.581  10.539 -2.6836 -2.2978  0.5404
 5166SOL    HW226961   3.047   2.639  10.664 -0.5736 -2.2419  0.0175
 5167SOL     OW26962   2.330   2.944   2.781 -0.7160  0.4744 -0.1313
 5167SOL    HW126963   2.284   2.959   2.863 -1.4111 -1.1349 -0.2220
 5167SOL    HW226964   2.263   2.977   2.722  0.5797  0.7428 -1.4392
 5168SOL     OW26965   0.352   1.950   3.904  0.0530 -0.3066  0.2651
 5168SOL    HW126966   0.362   2.019   3.839  1.4029  0.2116  1.0294
 5168SOL    HW226967   0.437   1.907   3.902  0.6060  0.9853 -4.1190
 5169SOL     OW26968   3.723   3.991   4.438  0.4292 -0.5399 -0.2304
 5169SOL    HW126969   3.747   4.037   4.519  1.4609  0.5351 -1.1501
 5169SOL    HW226970   3.704   4.065   4.380  0.8099 -1.3312 -1.3481
 5170SOL     OW26971   1.002   4.222   9.964  0.2329 -0.6576 -0.4641
 5170SOL    HW126972   0.979   4.143  10.012  0.7251 -0.3363  0.3017
 5170SOL    HW226973   1.005   4.280  10.040  0.5528 -0.2797 -0.7670
 5171SOL     OW26974   2.784   1.346   7.855 -0.0892  0.4401 -0.3193
 5171SOL    HW126975   2.856   1.387   7.807  0.5083 -1.0652 -0.6969
 5171SOL    HW226976   2.748   1.417   7.907 -0.2036  1.3374 -1.6190
 5172SOL     OW26977   0.903   3.494   7.838  0.0603 -0.2302 -0.6998
 5172SOL    HW126978   0.898   3.410   7.793  1.8533 -1.4028  1.2860
 5172SOL    HW226979   0.939   3.475   7.924 -0.7816 -0.4974 -0.4048
 5173SOL     OW26980   1.758   0.154  17.142 -0.2534  0.0861 -0.2076
 5173SOL    HW126981   1.734   0.242  17.115 -0.1866  0.3919  0.7358
 5173SOL    HW226982   1.826   0.178  17.204 -0.8137  0.1377  0.3880
 5174SOL     OW26983   1.340   2.037   4.001  0.1789 -0.0490  0.0936
 5174SOL    HW126984   1.435   2.047   3.993 -0.2513  2.4662 -1.6614
 5174SOL    HW226985   1.350   1.944   4.022  1.5685  0.2836  0.9654
 5175SOL     OW26986   0.041   3.148   0.841 -0.1164  0.5210 -0.0675
 5175SOL    HW126987   4.676   3.118   0.872 -0.2889 -0.4437 -1.5204
 5175SOL    HW226988   0.014   3.227   0.794 -1.2183  0.1717 -0.0037
 5176SOL     OW26989   0.683   0.281  11.858 -0.2039  0.8582  0.2012
 5176SOL    HW126990   0.632   0.304  11.781 -0.0147  0.0412 -0.1695
 5176SOL    HW226991   0.711   0.190  11.847 -1.5853  0.6252 -1.3028
 5177SOL     OW26992   2.718   4.048   6.335 -0.1263 -0.1840  0.4008
 5177SOL    HW126993   2.652   4.006   6.281 -0.7624 -1.4385  2.1593
 5177SOL    HW226994   2.667   4.050   6.416 -0.4916  1.7720  0.1174
 5178SOL     OW26995   3.198   1.204  14.236 -0.3016 -0.0207 -0.0510
 5178SOL    HW126996   3.199   1.279  14.295 -0.2413  0.9537 -1.2832
 5178SOL    HW226997   3.255   1.236  14.165  0.8710 -1.1265  0.3843
 5179SOL     OW26998   0.778   0.468   0.245  0.1799 -0.4231  0.3334
 5179SOL    HW126999   0.772   0.376   0.217 -0.0528 -1.0074  2.3219
 5179SOL    HW227000   0.685   0.477   0.266  0.3445 -0.7191  1.1775
 5180SOL     OW27001   2.034   2.730  13.585  0.1390  0.8453  0.4075
 5180SOL    HW127002   1.987   2.791  13.642  0.8328  1.7816 -0.0130
 5180SOL    HW227003   2.037   2.650  13.637 -2.0034  0.3701 -0.2199
 5181SOL     OW27004   4.607   0.511  13.971  0.3998  0.3389 -0.0817
 5181SOL    HW127005   4.557   0.454  13.912 -1.6618  3.6264 -1.4793
 5181SOL    HW227006   4.562   0.492  14.053  0.6279  2.8796  0.5968
 5182SOL     OW27007   2.598   2.356   1.650 -0.1597  0.0630  0.5155
 5182SOL    HW127008   2.620   2.449   1.651 -0.2836  0.1095 -0.6691
 5182SOL    HW227009   2.580   2.351   1.744  0.3380 -1.8434  0.5190
 5183SOL     OW27010   1.110   3.071   3.341  0.3437 -0.1511  0.3096
 5183SOL    HW127011   1.096   3.122   3.421  1.3059 -1.1639  1.1259
 5183SOL    HW227012   1.180   3.020   3.381  2.5296  1.7143 -1.1352
 5184SOL     OW27013   1.515   0.693   3.231 -0.5153  0.3726 -0.2758
 5184SOL    HW127014   1.543   0.692   3.140 -0.5916  1.0524 -0.3049
 5184SOL    HW227015   1.438   0.749   3.218  1.0164  2.6138  0.3652
 5185SOL     OW27016   0.809   0.386   6.378  0.0327  0.2357  1.4133
 5185SOL    HW127017   0.876   0.380   6.310 -0.3945  0.1178  1.0050
 5185SOL    HW227018   0.821   0.300   6.419  1.9150  0.7173  1.8706
 5186SOL     OW27019   3.377   0.693   3.184 -0.0868 -0.2796  0.3310
 5186SOL    HW127020   3.386   0.777   3.140  0.1584 -0.9654 -0.9283
 5186SOL    HW227021   3.297   0.659   3.144  0.0226 -2.6556  2.1106
 5187SOL     OW27022   4.399   2.254   7.083  0.0077 -0.3695 -0.4041
 5187SOL    HW127023   4.310   2.289   7.090  0.8380  1.4051  1.1711
 5187SOL    HW227024   4.446   2.325   7.040 -1.0193  0.2410 -0.5277
 5188SOL     OW27025   2.393   3.121   6.253  0.0315 -0.2353  0.7719
 5188SOL    HW127026   2.339   3.060   6.203 -2.5053  2.3018  0.3694
 5188SOL    HW227027   2.344   3.203   6.247 -1.5021 -1.2298 -0.1380
 5189SOL     OW27028   1.345   2.011  12.216 -0.2962 -0.0456  0.1366
 5189SOL    HW127029   1.427   2.034  12.259 -0.0003 -0.6358 -0.1044
 5189SOL    HW227030   1.307   2.095  12.192  0.5001 -0.0635 -1.1697
 5190SOL     OW27031   1.924   1.612   8.792  0.1725  0.0752  0.6293
 5190SOL    HW127032   1.868   1.682   8.827 -1.5867 -0.2311 -1.5974
 5190SOL    HW227033   1.860   1.551   8.755  0.5947  0.0328 -0.0269
 5191SOL     OW27034   1.844   4.351   6.199 -0.3730  0.6315 -0.2477
 5191SOL    HW127035   1.829   4.256   6.198 -0.2076  0.6122 -0.7211
 5191SOL    HW227036   1.904   4.364   6.125  2.5537 -1.3409  1.7660
 5192SOL     OW27037   4.627   3.347   7.820  0.1999 -0.2062 -0.0736
 5192SOL    HW127038   4.674   3.407   7.878  1.1017 -3.2680  2.3701
 5192SOL    HW227039   4.545   3.393   7.802 -0.1858 -1.4023 -1.3189
 5193SOL     OW27040   4.210   1.697   1.299  0.2510 -0.7700  0.2305
 5193SOL    HW127041   4.125   1.741   1.297  0.9204  0.5104 -0.0788
 5193SOL    HW227042   4.264   1.760   1.252 -0.0536  0.6234  1.7339
 5194SOL     OW27043   2.431   0.492   8.179  0.9902  0.4095  0.1666
 5194SOL    HW127044   2.511   0.511   8.130  1.0220  1.1527  0.5097
 5194SOL    HW227045   2.455   0.436   8.254  3.2703  0.7365 -0.3080
 5195SOL     OW27046   3.926   3.082   8.069  0.1698 -0.0354 -0.2045
 5195SOL    HW127047   4.003   3.030   8.094  0.4794  0.0956 -0.9031
 5195SOL    HW227048   3.895   3.107   8.156  0.8832 -1.3490  0.4244
 5196SOL     OW27049   2.658   0.706   9.116  0.3301 -0.1391  0.2242
 5196SOL    HW127050   2.697   0.785   9.154  0.2500  1.0991 -2.2274
 5196SOL    HW227051   2.601   0.675   9.186  0.2579 -1.0982 -0.2665
 5197SOL     OW27052   1.030   0.781   7.040  0.1908 -0.0605 -0.0138
 5197SOL    HW127053   1.037   0.713   7.107  1.3144 -2.0473 -2.1383
 5197SOL    HW227054   0.936   0.798   7.046  0.2118 -0.8841  2.5821
 5198SOL     OW27055   2.733   4.591   1.712 -1.1222 -1.0651 -0.0827
 5198SOL    HW127056   2.774   4.677   1.707 -2.1270 -0.7940 -3.6949
 5198SOL    HW227057   2.736   4.547   1.627  0.4313 -1.8999  0.3971
 5199SOL     OW27058   2.159   0.424  13.157 -0.8071  0.4555 -0.2492
 5199SOL    HW127059   2.140   0.401  13.066 -2.1264 -3.0004  0.9031
 5199SOL    HW227060   2.090   0.488  13.175 -0.3824  0.5838  0.9302
 5200SOL     OW27061   3.091   0.002  15.960  0.0829 -0.2383 -0.1717
 5200SOL    HW127062   3.178   4.683  15.958 -0.5613 -1.7051  0.1626
 5200SOL    HW227063   3.053   4.652  15.907  0.1853 -0.2936 -0.1715
 5201SOL     OW27064   1.888   1.557  11.327  0.0189 -0.0313  0.3742
 5201SOL    HW127065   1.883   1.577  11.421  0.9022  1.1716  0.1742
 5201SOL    HW227066   1.874   1.463  11.316  2.9294 -0.2862 -1.1578
 5202SOL     OW27067   1.672   2.186   6.605  0.3839  0.2922  0.3301
 5202SOL    HW127068   1.687   2.281   6.605  1.0597  0.1854  0.7158
 5202SOL    HW227069   1.614   2.168   6.531 -1.9715 -1.1495  2.5075
 5203SOL     OW27070   1.797   2.665   9.623 -0.1657  0.0540  0.3260
 5203SOL    HW127071   1.874   2.715   9.596 -0.4946  1.0648  1.2700
 5203SOL    HW227072   1.797   2.602   9.551 -0.1136 -0.9662  1.2119
 5204SOL     OW27073   2.084   4.322  14.018 -0.0007  0.2236  0.2021
 5204SOL    HW127074   2.158   4.342  13.961  0.8726  1.8431  1.8836
 5204SOL    HW227075   2.014   4.351  13.961 -0.6593  1.0606  1.4342
 5205SOL     OW27076   1.830   1.941   8.397  0.4585  0.4848 -0.1003
 5205SOL    HW127077   1.757   1.998   8.372  0.4513  0.3647 -0.3555
 5205SOL    HW227078   1.787   1.861   8.426  1.0603  0.4345  0.6426
 5206SOL     OW27079   0.352   3.995   3.230  0.2716 -0.5633 -0.2131
 5206SOL    HW127080   0.262   3.990   3.197 -0.8469 -0.0507  2.8350
 5206SOL    HW227081   0.357   3.906   3.266 -0.4590 -0.2606  0.6259
 5207SOL     OW27082   2.584   3.357   7.778  0.2666  0.4899 -0.4077
 5207SOL    HW127083   2.662   3.332   7.729  0.8740  1.5346  0.0228
 5207SOL    HW227084   2.587   3.321   7.866  1.8327  1.6220  0.0088
 5208SOL     OW27085   3.905   0.394   2.755 -0.1644 -0.2920 -0.1744
 5208SOL    HW127086   3.937   0.304   2.767 -0.3678 -0.4382 -0.7121
 5208SOL    HW227087   3.825   0.379   2.705 -1.3178  0.2817  1.5165
 5209SOL     OW27088   4.521   3.048   5.546  0.6449  0.8846  0.1652
 5209SOL    HW127089   4.534   3.069   5.454 -0.3561  1.1913  0.1028
 5209SOL    HW227090   4.585   2.978   5.558  0.8317  1.0445  0.0955
 5210SOL     OW27091   3.618   0.926  11.979  0.5002  0.2188  0.0054
 5210SOL    HW127092   3.651   0.851  12.028  2.8343  1.9955  1.1406
 5210SOL    HW227093   3.649   1.006  12.021  1.6494  1.1498 -2.5915
 5211SOL     OW27094   4.707   3.122   3.767  0.2782  0.8078 -0.8829
 5211SOL    HW127095   0.008   3.063   3.839 -1.7061  0.0450 -0.9196
 5211SOL    HW227096   0.073   3.147   3.734  1.2355 -1.2443  0.0501
 5212SOL     OW27097   3.904   2.504  12.350 -1.1216 -0.5344 -0.2878
 5212SOL    HW127098   3.861   2.428  12.388 -2.5383  0.7082  0.5987
 5212SOL    HW227099   3.945   2.547  12.425  0.5543 -1.8044 -0.4719
 5213SOL     OW27100   1.518   4.625  16.864  0.4694  0.2537  0.2141
 5213SOL    HW127101   1.585   4.689  16.841  0.9928 -0.7221 -1.0072
 5213SOL    HW227102   1.535   4.613  16.958 -2.0181  1.2857  0.7956
 5214SOL     OW27103   4.365   3.356   6.409  0.3110 -0.6449 -0.3459
 5214SOL    HW127104   4.418   3.343   6.330  1.1518  0.0372  0.1024
 5214SOL    HW227105   4.408   3.439   6.428  1.2527 -1.2669  0.2550
 5215SOL     OW27106   2.190   0.248   5.200 -0.2415 -0.2995  0.4266
 5215SOL    HW127107   2.126   0.177   5.209 -0.4447 -0.4894 -2.5364
 5215SOL    HW227108   2.272   0.206   5.226 -0.1857 -0.4508  0.0114
 5216SOL     OW27109   1.077   2.889   7.982 -0.3057  0.7117 -0.4379
 5216SOL    HW127110   1.142   2.862   8.047 -1.9277 -0.2947  0.7497
 5216SOL    HW227111   1.028   2.951   8.037 -0.3216 -0.6226  1.0389
 5217SOL     OW27112   2.133   4.622  16.646 -0.5746  0.4423 -0.2029
 5217SOL    HW127113   2.195   4.636  16.575 -0.7582 -1.4838 -0.7380
 5217SOL    HW227114   2.080   4.701  16.637 -0.8442  0.3427  0.4935
 5218SOL     OW27115   1.634   1.347   7.022 -0.4157 -0.0393  0.2528
 5218SOL    HW127116   1.690   1.351   6.944  1.2746  1.0937  1.5286
 5218SOL    HW227117   1.551   1.373   6.980 -0.4760 -0.2291  0.2561
 5219SOL     OW27118   1.747   3.359   7.597  0.2370  0.1014 -0.5354
 5219SOL    HW127119   1.681   3.396   7.538 -0.5179 -0.6315 -0.1688
 5219SOL    HW227120   1.721   3.387   7.685  0.6673 -2.3178  0.3566
 5220SOL     OW27121   2.195   0.199   4.050 -0.1494  0.1392  0.6479
 5220SOL    HW127122   2.183   0.290   4.023  0.9382 -0.5218 -1.9817
 5220SOL    HW227123   2.134   0.160   3.987  0.9684  0.7183 -0.7837
 5221SOL     OW27124   1.337   1.137   4.972  0.0340 -0.4796  0.3747
 5221SOL    HW127125   1.334   1.075   4.899  1.2378  0.0611 -0.1315
 5221SOL    HW227126   1.378   1.207   4.922 -0.3973  0.2289  1.0063
 5222SOL     OW27127   4.277   3.781  12.864  0.3364  0.6333 -0.2199
 5222SOL    HW127128   4.301   3.797  12.955 -0.7879  0.5625  0.0829
 5222SOL    HW227129   4.255   3.864  12.821 -0.3413 -0.3505 -1.7842
 5223SOL     OW27130   4.670   1.620  14.514 -0.1399  0.1874  0.4784
 5223SOL    HW127131   4.659   1.704  14.558 -1.6104  0.5851 -0.6341
 5223SOL    HW227132   4.592   1.579  14.552 -1.2926  1.7801 -0.1711
 5224SOL     OW27133   3.450   4.463  13.004  0.5018  0.3214 -0.0584
 5224SOL    HW127134   3.378   4.433  13.061  1.3439  0.1028  0.9016
 5224SOL    HW227135   3.460   4.401  12.932  0.3660 -0.2149  0.3827
 5225SOL     OW27136   2.000   1.377   3.896  0.6360  0.1219  0.0971
 5225SOL    HW127137   2.046   1.449   3.940  1.0706 -0.8693  1.2433
 5225SOL    HW227138   2.069   1.325   3.857  3.8008  3.2549  1.5192
 5226SOL     OW27139   3.431   2.527   6.825 -0.0456  0.5343 -0.2824
 5226SOL    HW127140   3.471   2.440   6.813 -0.0109  0.2677  1.8320
 5226SOL    HW227141   3.342   2.515   6.856  0.2089 -0.5290  0.0305
 5227SOL     OW27142   1.648   2.463   7.433  0.0225  0.2675 -0.0227
 5227SOL    HW127143   1.576   2.526   7.446  1.0794  1.0762  1.9847
 5227SOL    HW227144   1.721   2.514   7.467 -0.7928  1.1139  0.4781
 5228SOL     OW27145   2.948   3.913  13.525 -0.1849 -0.3277  0.1543
 5228SOL    HW127146   2.965   3.886  13.435  1.6263 -1.7669  0.9395
 5228SOL    HW227147   2.861   3.948  13.508 -1.8641 -5.1016 -0.9345
 5229SOL     OW27148   1.623   2.624   4.956  0.1635 -0.6197  0.0567
 5229SOL    HW127149   1.690   2.690   4.939 -0.6164 -0.6079 -2.9530
 5229SOL    HW227150   1.547   2.641   4.901  0.8547 -1.5372 -1.1801
 5230SOL     OW27151   0.496   3.709   6.675 -1.3054  0.3085 -0.2016
 5230SOL    HW127152   0.474   3.793   6.715  1.6663  1.2842 -0.6264
 5230SOL    HW227153   0.437   3.647   6.719  0.0191 -0.5416  0.3933
 5231SOL     OW27154   0.361   4.490   9.059  0.0120 -0.3196  0.1134
 5231SOL    HW127155   0.366   4.581   9.087 -0.1805  0.0643 -1.1041
 5231SOL    HW227156   0.409   4.443   9.128  2.8953  0.0672 -1.6349
 5232SOL     OW27157   3.297   0.811   4.891  0.4550 -0.0653 -0.4355
 5232SOL    HW127158   3.312   0.892   4.939 -1.2803 -0.3309  0.5541
 5232SOL    HW227159   3.384   0.775   4.908  0.5201  0.4852  0.3770
 5233SOL     OW27160   1.038   3.575   0.388  0.4791 -0.2272 -0.4335
 5233SOL    HW127161   0.961   3.522   0.407  0.2643  0.8758  1.7913
 5233SOL    HW227162   1.055   3.612   0.475  0.6894 -0.1592 -0.5019
 5234SOL     OW27163   3.260   3.188  11.634  0.6377 -0.2405  0.2152
 5234SOL    HW127164   3.309   3.145  11.704 -0.5701 -2.8106 -0.5242
 5234SOL    HW227165   3.322   3.190  11.562  0.1368 -0.8815 -0.2321
 5235SOL     OW27166   2.979   3.880   5.544 -0.2352  0.3563 -0.5052
 5235SOL    HW127167   3.009   3.971   5.544 -2.1790  1.0060 -1.1165
 5235SOL    HW227168   2.921   3.883   5.468  0.0424  1.7473 -0.6647
 5236SOL     OW27169   0.046   2.213   6.223 -0.7953  0.7070  0.1858
 5236SOL    HW127170   0.004   2.128   6.213 -1.8447  0.9741  2.1956
 5236SOL    HW227171   0.050   2.239   6.131  0.8449  0.9351  0.3100
 5237SOL     OW27172   4.263   3.902   5.629 -0.3804  0.9194  0.9908
 5237SOL    HW127173   4.326   3.908   5.700  0.0784 -1.0178  0.7247
 5237SOL    HW227174   4.223   3.815   5.635  2.0363 -0.1301  1.6553
 5238SOL     OW27175   1.479   1.425   9.874 -0.1286 -0.2816 -0.6345
 5238SOL    HW127176   1.402   1.450   9.926  1.5531 -0.6383  1.9998
 5238SOL    HW227177   1.439   1.418   9.787 -0.0562  0.2628 -0.7060
 5239SOL     OW27178   0.198   0.729   0.789  0.0955 -0.4440 -0.5765
 5239SOL    HW127179   0.145   0.752   0.866  0.4176  1.3743 -0.9028
 5239SOL    HW227180   0.142   0.734   0.712 -1.0113  2.3032  0.4375
 5240SOL     OW27181   2.778   0.169   2.096 -0.4566  0.3634  0.9533
 5240SOL    HW127182   2.750   0.250   2.138 -0.7021  0.0664  1.3687
 5240SOL    HW227183   2.693   0.132   2.070  0.0651  0.2395 -0.5699
 5241SOL     OW27184   3.128   0.901   7.295  0.7463 -0.5024 -0.0756
 5241SOL    HW127185   3.037   0.898   7.265 -0.3989 -0.6920  3.4001
 5241SOL    HW227186   3.139   0.826   7.355  0.7652 -2.2185 -2.2287
 5242SOL     OW27187   3.859   0.305   1.338 -0.2042 -0.5196  0.2883
 5242SOL    HW127188   3.805   0.297   1.416 -0.0576 -0.8431  0.3587
 5242SOL    HW227189   3.812   0.251   1.274  0.5377  1.6472 -2.1128
 5243SOL     OW27190   2.063   1.057   4.395  0.8954 -0.5658 -0.1486
 5243SOL    HW127191   2.101   1.059   4.482  0.1899 -1.4261  0.1799
 5243SOL    HW227192   2.000   1.130   4.398  1.0510 -0.5227  1.8517
 5244SOL     OW27193   0.375   1.532   7.106 -0.2266 -0.3088 -0.6410
 5244SOL    HW127194   0.318   1.586   7.051 -0.0517  0.7316  0.1740
 5244SOL    HW227195   0.311   1.469   7.138 -0.0926 -0.5356 -0.8224
 5245SOL     OW27196   4.057   0.777   7.317 -0.0439  0.6591 -0.1849
 5245SOL    HW127197   3.966   0.796   7.295 -0.0431 -0.6967 -1.4473
 5245SOL    HW227198   4.081   0.865   7.344  1.8217  0.4695 -1.2088
 5246SOL     OW27199   2.399   3.607  12.223 -0.0384  0.1294  0.1454
 5246SOL    HW127200   2.486   3.579  12.253 -0.3165 -1.7349 -0.7989
 5246SOL    HW227201   2.348   3.527  12.236  0.6154 -0.5789 -1.6550
 5247SOL     OW27202   2.222   2.028   3.908 -0.9523 -0.0911 -0.2648
 5247SOL    HW127203   2.171   1.953   3.878 -1.2701  0.5507 -1.3062
 5247SOL    HW227204   2.155   2.091   3.881 -2.0703 -1.2518 -0.1910
 5248SOL     OW27205   1.597   0.441  14.190  0.1334  0.2196 -0.5404
 5248SOL    HW127206   1.680   0.487  14.202  0.2902  0.1414 -1.3381
 5248SOL    HW227207   1.608   0.362  14.243  2.4922  1.0748  0.2319
 5249SOL     OW27208   0.984   3.171   3.798  0.2210 -0.6684 -0.7472
 5249SOL    HW127209   1.050   3.140   3.735  1.5575 -1.3041  0.9726
 5249SOL    HW227210   0.906   3.148   3.748 -0.3357 -1.9874  0.7279
 5250SOL     OW27211   0.567   4.711   6.146 -0.2757  0.9795 -0.0044
 5250SOL    HW127212   0.646   4.658   6.160 -1.0322  0.7874  3.6714
 5250SOL    HW227213   0.511   4.665   6.209  1.9922 -3.7671 -1.4048
 5251SOL     OW27214   0.023   4.180   5.472  0.6179 -0.2947 -0.2190
 5251SOL    HW127215   4.655   4.218   5.474  0.1516 -1.3871 -0.0892
 5251SOL    HW227216   0.070   4.233   5.537 -0.6887  0.2216  0.3278
 5252SOL     OW27217   3.709   3.603   5.750  0.2137  0.2046  0.0242
 5252SOL    HW127218   3.672   3.517   5.765  0.7109 -0.1205 -0.6245
 5252SOL    HW227219   3.632   3.660   5.749 -0.6722 -0.9848  1.0320
 5253SOL     OW27220   3.329   3.655   0.746 -0.1416 -0.5734 -0.4269
 5253SOL    HW127221   3.318   3.715   0.820 -1.5619 -1.3592 -0.0081
 5253SOL    HW227222   3.333   3.577   0.802  4.6491  0.7333  1.0570
 5254SOL     OW27223   2.497   1.982   1.333 -0.4490 -0.3847  0.0456
 5254SOL    HW127224   2.489   2.037   1.411 -0.1462 -1.9223  1.1650
 5254SOL    HW227225   2.441   2.032   1.274  0.3144 -0.6836 -0.9311
 5255SOL     OW27226   4.519   0.259   4.294  0.2923 -0.1680 -0.1985
 5255SOL    HW127227   4.504   0.189   4.358  0.8919 -1.7293 -1.7743
 5255SOL    HW227228   4.586   0.313   4.336 -1.0202  0.4441  1.1318
 5256SOL     OW27229   3.372   3.809   6.687  0.8071 -0.4941  0.0032
 5256SOL    HW127230   3.318   3.872   6.734 -0.9529  1.0765 -4.1356
 5256SOL    HW227231   3.300   3.758   6.651  0.5551 -0.6632  0.7593
 5257SOL     OW27232   2.163   3.174   3.455 -0.4001 -0.2439 -0.2511
 5257SOL    HW127233   2.213   3.250   3.488 -0.2845  0.0216 -1.0319
 5257SOL    HW227234   2.191   3.170   3.364 -0.3838  0.8784 -0.2939
 5258SOL     OW27235   1.862   1.858   2.460 -0.1200 -0.3212 -0.0928
 5258SOL    HW127236   1.785   1.867   2.517 -1.5108 -2.8636 -1.5785
 5258SOL    HW227237   1.844   1.786   2.400 -2.6110  0.6118 -0.4882
 5259SOL     OW27238   3.106   1.173   9.236  0.5511  0.1516  0.0547
 5259SOL    HW127239   3.024   1.198   9.192  1.2680 -0.7629 -1.7986
 5259SOL    HW227240   3.160   1.139   9.165  1.4894  0.7924  0.4679
 5260SOL     OW27241   3.505   3.003   4.189 -0.6088 -0.3807 -0.1538
 5260SOL    HW127242   3.466   3.086   4.163  2.3931  0.5999 -1.5050
 5260SOL    HW227243   3.426   2.953   4.212 -1.4216  1.6397  1.4065
 5261SOL     OW27244   4.181   1.452   5.317 -0.0477 -0.0215  0.3314
 5261SOL    HW127245   4.231   1.414   5.389 -1.7484 -2.2069  0.3194
 5261SOL    HW227246   4.192   1.541   5.351  0.1682 -0.4157  1.2993
 5262SOL     OW27247   3.537   2.177   8.268  0.4294  0.5367  0.1252
 5262SOL    HW127248   3.446   2.154   8.287  0.3474  2.2290  1.7730
 5262SOL    HW227249   3.543   2.131   8.184 -1.8198  0.5700 -0.0740
 5263SOL     OW27250   2.221   2.601   6.429 -0.1988 -0.2764  0.0434
 5263SOL    HW127251   2.161   2.637   6.365 -0.7711 -2.8060 -0.8599
 5263SOL    HW227252   2.179   2.519   6.456 -1.4165  0.0556 -0.8807
 5264SOL     OW27253   2.902   1.456   9.133 -0.3508  0.1741  0.0194
 5264SOL    HW127254   2.960   1.525   9.100  0.1284  0.3031  1.1347
 5264SOL    HW227255   2.934   1.450   9.223 -1.9789  3.1932  0.8026
 5265SOL     OW27256   2.687   1.633   4.862 -0.6213 -0.0238 -0.1539
 5265SOL    HW127257   2.617   1.629   4.926  1.1910 -0.8543  1.7610
 5265SOL    HW227258   2.722   1.722   4.872  1.7098 -0.7119 -2.0444
 5266SOL     OW27259   3.774   4.152   1.981  0.0602  0.1729  0.6501
 5266SOL    HW127260   3.812   4.179   2.065  1.3941  1.8148 -0.4716
 5266SOL    HW227261   3.846   4.095   1.954  0.6408  0.5257  1.4321
 5267SOL     OW27262   4.108   3.355  17.558 -0.3230 -0.1202  0.5846
 5267SOL    HW127263   4.167   3.313  17.496  1.0504 -0.0798  1.8448
 5267SOL    HW227264   4.159   3.437  17.560  0.6426 -0.8016  5.0668
 5268SOL     OW27265   2.819   4.177   5.744  0.1599  0.1534  0.5320
 5268SOL    HW127266   2.759   4.138   5.681 -0.4599  1.0920  0.5526
 5268SOL    HW227267   2.853   4.090   5.767 -2.2118 -1.6177 -2.6830
 5269SOL     OW27268   4.090   1.876  16.038  0.0546  0.1087 -0.0340
 5269SOL    HW127269   4.061   1.865  16.129  0.7316  1.5024  0.3358
 5269SOL    HW227270   4.070   1.968  16.022  2.2874  0.7705  1.1478
 5270SOL     OW27271   1.192   0.566  16.061 -0.1379  0.0930  0.8496
 5270SOL    HW127272   1.253   0.496  16.087 -0.5099 -1.0085 -1.2485
 5270SOL    HW227273   1.127   0.527  16.003  0.1373 -0.1060  0.6724
 5271SOL     OW27274   1.630   3.315   1.305 -0.5177  0.1281  0.1770
 5271SOL    HW127275   1.709   3.370   1.303 -0.2984 -0.1510  1.1136
 5271SOL    HW227276   1.557   3.377   1.304 -0.3144  0.3915  1.4617
 5272SOL     OW27277   2.974   0.724   7.008  0.3618  0.0193  0.1128
 5272SOL    HW127278   2.927   0.796   7.051  0.4278 -0.9027  1.7150
 5272SOL    HW227279   2.951   0.733   6.916  1.8605  1.2657 -0.1318
 5273SOL     OW27280   0.459   2.842   4.397 -0.2009 -0.3172  0.2434
 5273SOL    HW127281   0.365   2.819   4.397 -0.4722  0.7955  3.2733
 5273SOL    HW227282   0.478   2.801   4.482  0.6202  1.8630  1.1066
 5274SOL     OW27283   3.928   4.443  17.091 -0.0155  0.3243  0.0479
 5274SOL    HW127284   3.876   4.367  17.120 -0.5804  0.2514 -1.1558
 5274SOL    HW227285   3.922   4.439  16.996 -0.6775  0.3278  0.0877
 5275SOL     OW27286   4.101   4.154   2.340 -0.0995 -0.1158 -0.4903
 5275SOL    HW127287   4.081   4.080   2.284 -2.9372  0.6609 -0.5116
 5275SOL    HW227288   4.014   4.176   2.373  0.4758 -0.1721  1.0721
 5276SOL     OW27289   2.305   1.715   9.790 -0.2394 -0.0024 -0.1157
 5276SOL    HW127290   2.384   1.758   9.825  0.1536 -0.3784 -0.5383
 5276SOL    HW227291   2.240   1.729   9.858 -0.8558 -3.1658 -0.0818
 5277SOL     OW27292   2.650   3.197  17.470 -0.3969  0.2192  0.1120
 5277SOL    HW127293   2.662   3.231  17.558  0.8995 -0.9013  0.3684
 5277SOL    HW227294   2.708   3.253  17.417 -0.9461 -0.1464 -0.8744
 5278SOL     OW27295   3.686   3.750  12.585 -0.8486 -0.1492 -0.3832
 5278SOL    HW127296   3.662   3.664  12.551  0.8732 -0.6865 -0.1961
 5278SOL    HW227297   3.614   3.765  12.648  0.6011 -1.2724  1.5425
 5279SOL     OW27298   2.542   2.449  14.494  0.0057 -0.1080  0.6131
 5279SOL    HW127299   2.467   2.494  14.455 -0.6860 -1.5742  0.2169
 5279SOL    HW227300   2.496   2.365  14.501  1.8820 -1.1149  0.8396
 5280SOL     OW27301   1.947   0.757   6.565  0.6773  0.5247 -0.5980
 5280SOL    HW127302   1.889   0.750   6.490 -0.7033 -2.1447  0.7062
 5280SOL    HW227303   2.005   0.831   6.547  0.9460  0.6590  0.8271
 5281SOL     OW27304   1.753   2.744   8.106  0.5394 -0.2651 -0.5446
 5281SOL    HW127305   1.760   2.834   8.073  0.8712  0.1440  0.6179
 5281SOL    HW227306   1.839   2.711   8.083 -0.8003 -1.9104 -3.1807
 5282SOL     OW27307   1.163   3.696  11.619 -0.5182  0.5142  0.0214
 5282SOL    HW127308   1.151   3.661  11.707  0.4094 -1.5499 -0.6545
 5282SOL    HW227309   1.088   3.754  11.610 -0.4838  0.6576  0.6972
 5283SOL     OW27310   1.030   1.832  14.321  0.0135 -0.7568 -0.0670
 5283SOL    HW127311   0.977   1.783  14.385 -0.7413 -1.4070 -1.1885
 5283SOL    HW227312   0.982   1.908  14.289 -0.4738 -1.3767 -0.8160
 5284SOL     OW27313   3.725   1.146   9.136 -1.0039 -0.0544  0.1021
 5284SOL    HW127314   3.772   1.175   9.057 -0.1906 -0.2084  0.5257
 5284SOL    HW227315   3.798   1.101   9.179  0.0540  1.9284  0.3784
 5285SOL     OW27316   0.848   4.417   0.474 -0.5119 -0.1884  0.4949
 5285SOL    HW127317   0.894   4.368   0.542  2.0320  1.7451  0.1830
 5285SOL    HW227318   0.806   4.346   0.426 -1.7191  0.4645  0.5737
 5286SOL     OW27319   1.726   0.931   2.382  0.3369  0.2166  0.5001
 5286SOL    HW127320   1.635   0.963   2.384  0.5289  0.7829  0.0017
 5286SOL    HW227321   1.713   0.862   2.448 -2.6694 -0.6486 -0.9726
 5287SOL     OW27322   4.237   2.666   5.129  0.0127  0.6453  0.2068
 5287SOL    HW127323   4.290   2.705   5.199  0.6734  0.3415 -0.1254
 5287SOL    HW227324   4.199   2.593   5.179 -0.0261 -1.7457 -3.3386
 5288SOL     OW27325   0.426   4.565   3.777 -0.0074 -0.2482  0.5581
 5288SOL    HW127326   0.437   4.514   3.696  2.3163  1.5442 -0.2479
 5288SOL    HW227327   0.511   4.542   3.815 -1.4566 -0.0459  3.8784
 5289SOL     OW27328   0.340   0.134   5.162  0.2795  0.3822 -0.4161
 5289SOL    HW127329   0.258   0.085   5.159 -0.2473  1.2052  0.4219
 5289SOL    HW227330   0.368   0.116   5.251 -1.4529 -1.2989 -0.2126
 5290SOL     OW27331   0.239   3.644  16.328 -0.6757 -0.4831  0.0616
 5290SOL    HW127332   0.216   3.709  16.262 -1.6384 -1.0615 -0.1634
 5290SOL    HW227333   0.334   3.655  16.325 -0.9780  2.1677  0.4422
 5291SOL     OW27334   2.003   0.508   2.190  0.3864 -0.9639  0.0140
 5291SOL    HW127335   1.944   0.581   2.211  1.2657 -0.8331  2.0904
 5291SOL    HW227336   1.993   0.495   2.096  1.3454 -0.2298 -0.1975
 5292SOL     OW27337   1.642   4.030   3.813 -0.6081  0.0819  0.0139
 5292SOL    HW127338   1.645   3.944   3.855 -0.1586  0.0126 -0.1572
 5292SOL    HW227339   1.554   4.057   3.840 -0.3044  2.1620 -1.1367
 5293SOL     OW27340   2.761   1.271  13.176 -0.4642 -0.0715 -0.9044
 5293SOL    HW127341   2.749   1.365  13.187  0.8337 -0.0599  0.4393
 5293SOL    HW227342   2.707   1.235  13.247  1.0672  1.2860  0.9569
 5294SOL     OW27343   0.841   2.323   5.123  0.5303  0.6462  0.3333
 5294SOL    HW127344   0.865   2.336   5.031  1.2937  1.7440  0.6814
 5294SOL    HW227345   0.806   2.235   5.110  0.9438  0.7216 -1.2907
 5295SOL     OW27346   0.110   1.743   7.509  0.5516  0.0039  0.6041
 5295SOL    HW127347   0.040   1.693   7.551  1.1929  0.6148  2.4266
 5295SOL    HW227348   0.079   1.828   7.540 -2.0769 -0.9533  0.6173
 5296SOL     OW27349   2.156   1.657   2.707  0.0168  0.0261 -0.1507
 5296SOL    HW127350   2.112   1.597   2.646  1.0190  0.1023 -0.9372
 5296SOL    HW227351   2.240   1.613   2.712 -0.3461 -0.6513  0.0583
 5297SOL     OW27352   4.627   2.401   8.088  0.3790 -0.2622  0.0242
 5297SOL    HW127353   4.613   2.421   8.180  3.4140 -0.5712  0.5389
 5297SOL    HW227354   4.581   2.317   8.088 -3.3321  1.7829  1.7676
 5298SOL     OW27355   2.723   2.540   6.132 -0.0292  0.2315 -0.2812
 5298SOL    HW127356   2.635   2.577   6.144 -0.5642 -0.7084 -1.2725
 5298SOL    HW227357   2.758   2.622   6.098 -0.8965  0.5545 -0.4200
 5299SOL     OW27358   1.458   3.889  10.127 -0.1137  0.4235  0.5914
 5299SOL    HW127359   1.432   3.925  10.043 -0.7953 -0.3139  0.4854
 5299SOL    HW227360   1.376   3.894  10.176 -0.5105 -3.1729  0.3284
 5300SOL     OW27361   4.432   4.638   7.836 -0.2104 -0.4202  0.0963
 5300SOL    HW127362   4.376   4.711   7.810  0.6781 -0.3067 -1.4891
 5300SOL    HW227363   4.479   4.603   7.760 -1.4337  0.5847 -1.1364
 5301SOL     OW27364   3.418   3.160   5.830  0.4132 -0.7658  0.0235
 5301SOL    HW127365   3.481   3.095   5.798  3.5594  1.7703  1.0943
 5301SOL    HW227366   3.394   3.218   5.757 -1.8208 -1.2063  0.4235
 5302SOL     OW27367   2.299   0.960  10.168 -0.3998 -0.3387  0.1610
 5302SOL    HW127368   2.249   0.930  10.093 -1.1544 -0.1788  0.6035
 5302SOL    HW227369   2.254   0.908  10.234 -1.0407  0.1463  0.1129
 5303SOL     OW27370   2.451   1.262  17.629 -0.5647 -0.0313  1.0722
 5303SOL    HW127371   2.401   1.343  17.632 -0.6289  0.0239 -2.2555
 5303SOL    HW227372   2.378   1.203  17.649 -1.0382 -0.2012 -1.2149
 5304SOL     OW27373   2.635   3.670   0.515  0.3682  0.0329  0.2749
 5304SOL    HW127374   2.569   3.611   0.477 -1.0461  0.9764  1.2726
 5304SOL    HW227375   2.598   3.672   0.603  1.7959  0.3703  0.8728
 5305SOL     OW27376   3.501   0.101   4.628  0.1956 -0.1237  0.0020
 5305SOL    HW127377   3.536   0.186   4.601 -1.0172  0.6153  0.7462
 5305SOL    HW227378   3.409   0.126   4.637 -0.3160 -2.9427  2.6678
 5306SOL     OW27379   4.384   2.048  15.540 -0.1077  0.1928  0.9121
 5306SOL    HW127380   4.413   2.096  15.618  0.8711  1.2287 -0.0850
 5306SOL    HW227381   4.469   2.026  15.503 -0.3767 -1.8138  1.4694
 5307SOL     OW27382   4.414   4.403   4.348 -0.2240 -0.2110 -0.0305
 5307SOL    HW127383   4.392   4.405   4.441 -2.3999  3.3841 -0.6275
 5307SOL    HW227384   4.394   4.310   4.336 -0.0836 -0.2939  0.3655
 5308SOL     OW27385   2.337   4.620  13.558 -0.2261  0.5712  0.4296
 5308SOL    HW127386   2.256   4.623  13.610  0.3076 -1.2710  1.3578
 5308SOL    HW227387   2.300   4.573  13.484  0.8444  1.0628 -0.4161
 5309SOL     OW27388   1.089   0.053   6.306 -0.1622  0.1495  0.1218
 5309SOL    HW127389   1.166   0.007   6.338  0.2248  1.8275  1.6444
 5309SOL    HW227390   1.125   0.137   6.278  0.3725  0.2044  0.9493
 5310SOL     OW27391   1.109   1.657   1.871 -0.1643 -0.5486 -0.5785
 5310SOL    HW127392   1.066   1.727   1.823  1.2734  1.1732  0.6397
 5310SOL    HW227393   1.071   1.584   1.822  0.2748 -2.3510  1.7501
 5311SOL     OW27394   0.693   0.613   3.376  0.7665  0.0019 -0.0581
 5311SOL    HW127395   0.718   0.602   3.284 -0.1735 -1.2185 -0.1664
 5311SOL    HW227396   0.659   0.702   3.367 -0.1533 -0.0477  2.8687
 5312SOL     OW27397   1.405   0.260  13.428 -0.1770  0.3764 -0.2624
 5312SOL    HW127398   1.439   0.344  13.459  1.5157 -0.3317 -0.2119
 5312SOL    HW227399   1.392   0.222  13.515  3.1053 -1.7219 -0.6785
 5313SOL     OW27400   2.233   2.226   7.182  0.3314 -0.1242 -0.2001
 5313SOL    HW127401   2.214   2.133   7.167  3.7233 -0.5515 -1.8767
 5313SOL    HW227402   2.146   2.264   7.197  0.6020 -0.9789  3.4756
 5314SOL     OW27403   4.227   4.674   2.561  0.1359 -0.1356 -0.8711
 5314SOL    HW127404   4.165   4.603   2.545 -1.8838  1.7421 -1.2554
 5314SOL    HW227405   4.229   0.006   2.481  0.7519  0.4762 -0.4512
 5315SOL     OW27406   1.536   0.007   1.552 -0.0324 -0.6817 -0.4766
 5315SOL    HW127407   1.607   4.679   1.594 -0.1514  0.5634  1.1676
 5315SOL    HW227408   1.535   4.682   1.467 -3.0755  1.6014 -1.6524
 5316SOL     OW27409   2.566   1.051  12.997 -0.1182  0.2540  0.0777
 5316SOL    HW127410   2.661   1.060  13.004 -0.3981  0.6728  3.6020
 5316SOL    HW227411   2.562   1.048  12.902 -0.1889  0.3271  0.0786
 5317SOL     OW27412   2.390   2.832   2.388  0.2206  0.6031  0.8205
 5317SOL    HW127413   2.331   2.906   2.375  0.2921  0.3619 -0.8762
 5317SOL    HW227414   2.338   2.765   2.344  1.8236 -1.0524  1.4651
 5318SOL     OW27415   3.776   0.491   0.388 -0.2087 -0.2795 -0.0361
 5318SOL    HW127416   3.845   0.555   0.407 -0.2731 -0.6897  1.6304
 5318SOL    HW227417   3.723   0.525   0.316  1.9953 -0.2747 -1.6563
 5319SOL     OW27418   4.105   1.291   7.341  0.1391  0.1062 -0.6652
 5319SOL    HW127419   4.162   1.333   7.406  2.5806 -2.1280 -1.3542
 5319SOL    HW227420   4.029   1.347   7.324  0.3335  0.6402  0.2154
 5320SOL     OW27421   1.243   4.129   7.089 -0.5152  0.2188 -0.4534
 5320SOL    HW127422   1.263   4.116   7.181  0.5225 -0.6520 -0.8066
 5320SOL    HW227423   1.156   4.169   7.097  0.0324  1.0272  1.4558
 5321SOL     OW27424   4.596   0.275   8.788  0.0749 -0.6194  0.4632
 5321SOL    HW127425   4.606   0.252   8.881  0.0350  1.5609  1.0141
 5321SOL    HW227426   4.502   0.292   8.787  0.0091 -1.0506 -0.3453
 5322SOL     OW27427   3.099   4.088  11.314  0.2379 -0.3508 -0.0400
 5322SOL    HW127428   3.105   4.015  11.376  0.9001  0.9594  1.4675
 5322SOL    HW227429   3.186   4.129  11.314 -0.1133  0.4001  2.7795
 5323SOL     OW27430   2.245   4.436   8.073  0.0867 -0.3375 -0.0364
 5323SOL    HW127431   2.207   4.428   8.160  0.7221 -1.7963  0.1100
 5323SOL    HW227432   2.190   4.392   8.008  0.8290  0.1013 -0.9630
 5324SOL     OW27433   2.951   3.550   7.592 -0.1034  0.2814 -0.9327
 5324SOL    HW127434   3.039   3.587   7.599  0.1795 -1.0047  2.6831
 5324SOL    HW227435   2.908   3.573   7.675  2.4416 -0.2489  0.5221
 5325SOL     OW27436   1.536   2.678   5.226  0.1579  0.6606  0.3391
 5325SOL    HW127437   1.585   2.638   5.154  0.2162  2.0214 -0.3803
 5325SOL    HW227438   1.538   2.770   5.199  0.0310 -0.0360 -2.0037
 5326SOL     OW27439   3.593   0.278  16.194 -0.4653  0.1365  0.6516
 5326SOL    HW127440   3.655   0.210  16.221 -0.8085 -1.6026 -2.8535
 5326SOL    HW227441   3.520   0.255  16.251 -0.9219  0.1951  0.0925
 5327SOL     OW27442   2.252   2.209   1.293  0.5225  0.2273 -0.0227
 5327SOL    HW127443   2.247   2.297   1.330  0.2042 -0.4044  1.4362
 5327SOL    HW227444   2.320   2.219   1.227  1.1917  1.6321  0.8770
 5328SOL     OW27445   0.113   1.644   1.111  0.0792  0.0109 -0.1100
 5328SOL    HW127446   0.152   1.639   1.023  1.8621 -1.6401  0.7784
 5328SOL    HW227447   0.020   1.621   1.104 -0.4825  2.1280  0.3484
 5329SOL     OW27448   2.347   0.181   3.083 -0.9818 -0.1579  0.0439
 5329SOL    HW127449   2.268   0.126   3.088 -0.7821 -0.5345 -0.8332
 5329SOL    HW227450   2.331   0.229   3.002  0.2923  0.4650  0.1608
 5330SOL     OW27451   1.696   4.151   6.692  0.6725 -0.0409  0.0502
 5330SOL    HW127452   1.775   4.199   6.669 -0.1043  0.9846 -0.4519
 5330SOL    HW227453   1.731   4.063   6.704  0.3422 -0.5032 -2.2862
 5331SOL     OW27454   0.373   2.427  14.436 -0.1287 -0.1417  0.2071
 5331SOL    HW127455   0.379   2.343  14.391 -1.5388  0.3724 -0.9356
 5331SOL    HW227456   0.402   2.407  14.525 -1.1380 -0.2373  0.5122
 5332SOL     OW27457   2.247   2.496   4.730 -0.3147 -0.1083  0.5562
 5332SOL    HW127458   2.175   2.557   4.745 -0.1754  0.4738 -1.2146
 5332SOL    HW227459   2.309   2.562   4.700 -3.2257  1.2807 -2.3627
 5333SOL     OW27460   4.672   3.611   7.936  0.2791 -0.7627 -0.6566
 5333SOL    HW127461   4.684   3.623   8.030  2.6517 -0.0202 -1.0501
 5333SOL    HW227462   4.581   3.635   7.921  1.1139  0.7845 -3.2088
 5334SOL     OW27463   4.190   0.744  16.221  0.0537  0.5586  0.3710
 5334SOL    HW127464   4.138   0.769  16.298  1.4253  2.4107  0.7036
 5334SOL    HW227465   4.202   0.832  16.184  2.0122 -0.2420 -0.9035
 5335SOL     OW27466   0.213   3.402   4.622 -0.4654  0.1170  0.4762
 5335SOL    HW127467   0.274   3.331   4.639 -2.0777 -1.6818 -1.2703
 5335SOL    HW227468   0.199   3.435   4.711  0.3856  2.4834 -0.2658
 5336SOL     OW27469   1.693   0.078   8.074  0.2036  0.1384 -0.1116
 5336SOL    HW127470   1.609   0.090   8.030 -0.9165  1.7896  2.5437
 5336SOL    HW227471   1.704   0.155   8.129  1.2535 -1.1084  1.4183
 5337SOL     OW27472   4.211   3.167   3.686 -0.6594  0.2593  1.2644
 5337SOL    HW127473   4.282   3.228   3.669  0.3324 -1.5963 -1.1097
 5337SOL    HW227474   4.266   3.100   3.727 -0.2921 -1.5723 -2.1908
 5338SOL     OW27475   1.524   1.631   2.957 -0.9754 -0.1231 -0.4304
 5338SOL    HW127476   1.450   1.651   3.014  0.4836  0.0066  1.4267
 5338SOL    HW227477   1.506   1.538   2.943  1.5897 -0.3807 -2.0700
 5339SOL     OW27478   3.569   1.736   8.654 -0.2860 -0.6818  0.2100
 5339SOL    HW127479   3.562   1.828   8.678  2.1075 -0.5454  0.4637
 5339SOL    HW227480   3.665   1.727   8.647 -0.2883  1.1413 -2.4166
 5340SOL     OW27481   3.244   0.367   7.722  0.4838  0.5918  0.3034
 5340SOL    HW127482   3.242   0.292   7.782  0.9511  1.5481  1.5138
 5340SOL    HW227483   3.282   0.437   7.774  0.5010  0.1554  0.8716
 5341SOL     OW27484   2.872   3.078  11.558  0.5111 -0.2724 -0.1945
 5341SOL    HW127485   2.835   3.059  11.644 -0.5148 -0.7246 -0.7412
 5341SOL    HW227486   2.957   3.034  11.567  0.8774  0.0733 -1.9363
 5342SOL     OW27487   2.373   2.302   6.444  0.5965 -0.0057  0.7245
 5342SOL    HW127488   2.362   2.323   6.352  0.1168 -0.5169  0.6696
 5342SOL    HW227489   2.454   2.251   6.440  1.8895  2.0607  0.3195
 5343SOL     OW27490   0.933   3.718   5.346  0.3252  0.5230  0.1703
 5343SOL    HW127491   0.973   3.757   5.423  1.9151  1.0556 -0.9192
 5343SOL    HW227492   0.915   3.796   5.293 -0.8613  0.5370  0.5997
 5344SOL     OW27493   1.136   1.834   7.889  0.2021  1.0003 -0.4564
 5344SOL    HW127494   1.071   1.840   7.819 -0.2064 -0.8266 -0.2419
 5344SOL    HW227495   1.101   1.886   7.962 -1.4446 -0.3943 -0.2327
 5345SOL     OW27496   3.063   2.178  10.450 -0.0497  0.0887 -0.4772
 5345SOL    HW127497   2.973   2.165  10.420  0.3906  3.1487 -3.0939
 5345SOL    HW227498   3.090   2.089  10.475 -0.0650  0.1102 -0.3842
 5346SOL     OW27499   4.431   0.878  11.735 -0.1504  0.3904 -0.1692
 5346SOL    HW127500   4.466   0.796  11.769  1.7889  0.8584 -1.0518
 5346SOL    HW227501   4.351   0.892  11.785 -0.6642  0.6329 -1.0578
 5347SOL     OW27502   1.800   2.162   1.355 -0.3479  0.4429 -0.1106
 5347SOL    HW127503   1.729   2.102   1.380  1.1474 -0.7298  1.3112
 5347SOL    HW227504   1.788   2.166   1.260 -0.6691 -1.3271 -0.1435
 5348SOL     OW27505   3.940   4.136   6.545 -0.1338  0.0453 -0.2339
 5348SOL    HW127506   3.920   4.050   6.581 -0.8054 -0.0004 -0.7101
 5348SOL    HW227507   3.996   4.107   6.473  0.1665  1.1615 -0.4515
 5349SOL     OW27508   2.403   0.788   6.145 -0.0572 -0.4200 -0.0105
 5349SOL    HW127509   2.424   0.820   6.058  2.2316  1.4020  1.2098
 5349SOL    HW227510   2.460   0.711   6.143 -0.9928 -1.1474  1.7448
 5350SOL     OW27511   0.274   4.033   2.238 -0.3303  0.4616  0.1702
 5350SOL    HW127512   0.359   4.041   2.196 -0.5002 -3.0544 -0.8344
 5350SOL    HW227513   0.261   3.942   2.213  1.0183 -0.4010  2.6395
 5351SOL     OW27514   3.563   0.738   7.256  0.3977  0.2293 -0.4386
 5351SOL    HW127515   3.516   0.656   7.270  1.3844  0.0018  1.6362
 5351SOL    HW227516   3.503   0.798   7.301 -1.5198 -3.7874  2.3240
 5352SOL     OW27517   1.200   2.805   4.996 -0.3246  0.0418  0.3888
 5352SOL    HW127518   1.196   2.728   5.052  2.0297 -0.2987  0.0716
 5352SOL    HW227519   1.220   2.868   5.065 -1.6480  0.7924  0.1020
 5353SOL     OW27520   2.126   1.500   3.602  0.1497  0.3588  0.1158
 5353SOL    HW127521   2.179   1.434   3.648 -1.0103 -1.3204 -0.9714
 5353SOL    HW227522   2.039   1.478   3.637 -1.3893  1.0968 -3.2536
 5354SOL     OW27523   1.749   0.042   5.649  0.5052 -0.0501  0.2603
 5354SOL    HW127524   1.758   4.719   5.563  3.8981  0.1260  0.5429
 5354SOL    HW227525   1.693   4.700   5.696 -1.0075  1.6378  0.6789
 5355SOL     OW27526   4.587   0.955   2.673  0.2770  0.2107  0.2070
 5355SOL    HW127527   4.565   0.863   2.679  0.5739 -0.0921 -3.2771
 5355SOL    HW227528   4.518   0.984   2.613  1.5411  0.0707 -1.3228
 5356SOL     OW27529   0.924   1.972   4.371 -0.7010  0.0090 -0.4760
 5356SOL    HW127530   0.837   1.932   4.380 -0.0209 -1.2673  0.4072
 5356SOL    HW227531   0.912   2.036   4.301 -1.1904 -1.4468 -1.7307
 5357SOL     OW27532   2.808   1.538   5.720 -0.5004  0.0966  0.3098
 5357SOL    HW127533   2.745   1.583   5.665  1.0976  2.2517  0.2571
 5357SOL    HW227534   2.823   1.454   5.676 -0.1536  0.4090 -0.1674
 5358SOL     OW27535   3.982   4.249   8.765  0.0979  0.4200 -0.1726
 5358SOL    HW127536   3.979   4.232   8.859 -2.1540 -0.4499 -0.4099
 5358SOL    HW227537   4.040   4.177   8.740  0.5398  1.0395 -0.9381
 5359SOL     OW27538   3.095   2.530   2.649  0.2695 -0.3156 -0.3642
 5359SOL    HW127539   3.182   2.494   2.631  1.1487  0.7541  1.6661
 5359SOL    HW227540   3.110   2.547   2.742  0.7825 -1.9081 -0.1582
 5360SOL     OW27541   2.893   0.084   8.458 -0.1998  0.7447 -0.2476
 5360SOL    HW127542   2.901   0.037   8.541 -1.6089  1.7169  0.4390
 5360SOL    HW227543   2.872   0.172   8.489  4.6524  1.7563  0.1045
 5361SOL     OW27544   4.505   4.606   1.541  0.0485 -0.2024  0.0789
 5361SOL    HW127545   4.422   4.559   1.546 -0.1870  0.1997 -0.0513
 5361SOL    HW227546   4.557   4.552   1.482 -0.8730 -2.0299  0.9457
 5362SOL     OW27547   1.735   2.031   3.958 -0.4997  0.2381  0.0583
 5362SOL    HW127548   1.775   1.963   4.013  1.8878  1.1848 -0.4980
 5362SOL    HW227549   1.728   2.097   4.027 -0.4211 -0.7786  1.0413
 5363SOL     OW27550   4.344   4.621  11.224 -0.1049 -0.6868  0.2577
 5363SOL    HW127551   4.401   4.675  11.280 -0.5579  0.0492  0.0053
 5363SOL    HW227552   4.273   4.682  11.204  0.9994  1.0198  1.5164
 5364SOL     OW27553   4.532   0.002  12.990 -0.3678  0.1211  0.0418
 5364SOL    HW127554   4.586   0.069  12.947 -1.0519  1.2653  0.9537
 5364SOL    HW227555   4.503   0.057  13.063  1.8176  0.6290  0.5472
 5365SOL     OW27556   1.636   3.952   4.541 -0.0510  0.8133 -0.1261
 5365SOL    HW127557   1.725   3.959   4.505 -0.1842  0.8386 -0.4547
 5365SOL    HW227558   1.660   3.908   4.622 -0.7250  1.1562  0.2581
 5366SOL     OW27559   1.241   1.101  11.937 -0.2185  0.0393 -0.4683
 5366SOL    HW127560   1.297   1.091  12.014  0.6085  0.9376 -0.9517
 5366SOL    HW227561   1.291   1.041  11.881 -0.2407  0.0910 -0.5443
 5367SOL     OW27562   2.978   4.395   2.502  0.0440 -0.8674  0.4829
 5367SOL    HW127563   3.044   4.410   2.569  1.6871  0.5865 -1.4423
 5367SOL    HW227564   3.033   4.415   2.426 -1.8133  0.9875 -0.3868
 5368SOL     OW27565   3.021   2.718  16.681  0.4124  0.1076  0.0456
 5368SOL    HW127566   2.937   2.736  16.638 -0.1019 -1.4094  0.4164
 5368SOL    HW227567   3.047   2.643  16.627 -1.2469 -0.5944  0.2167
 5369SOL     OW27568   4.560   3.954   8.756  0.2233 -0.0779  0.2620
 5369SOL    HW127569   4.510   3.932   8.835 -1.0808 -1.9156 -1.0632
 5369SOL    HW227570   4.644   3.977   8.794  0.0159  0.7651  0.2015
 5370SOL     OW27571   0.382   0.374  13.753 -0.0800 -0.7433 -0.3478
 5370SOL    HW127572   0.288   0.378  13.773 -0.1733 -3.4098 -0.2660
 5370SOL    HW227573   0.404   0.448  13.697  1.0559 -1.0038 -0.2436
 5371SOL     OW27574   1.632   0.919   0.309  0.3978  0.6218  0.3569
 5371SOL    HW127575   1.569   0.988   0.285  0.4290  0.3990 -0.3530
 5371SOL    HW227576   1.580   0.839   0.304 -0.4317  1.2436 -0.9982
 5372SOL     OW27577   1.170   1.108   6.411  0.3548  0.0800  0.2759
 5372SOL    HW127578   1.215   1.110   6.495  0.1892  3.1693  0.2879
 5372SOL    HW227579   1.134   1.196   6.406 -1.3085 -0.5890  0.5848
 5373SOL     OW27580   0.243   3.102   5.147 -0.1396 -0.2647  0.1742
 5373SOL    HW127581   0.271   3.136   5.062 -2.6628 -0.1519 -0.6023
 5373SOL    HW227582   0.274   3.168   5.208  1.4337 -1.3417  0.5434
 5374SOL     OW27583   4.430   2.488   7.389  0.0485 -0.3780 -0.1592
 5374SOL    HW127584   4.365   2.507   7.322 -1.5005 -3.9959  0.2758
 5374SOL    HW227585   4.426   2.550   7.462  1.2460  0.7680 -1.0839
 5375SOL     OW27586   2.259   1.363   7.423  0.8946  0.0786  0.2071
 5375SOL    HW127587   2.207   1.319   7.491 -0.5383  0.6735 -0.5003
 5375SOL    HW227588   2.184   1.379   7.365  1.6453  1.5853 -0.3395
 5376SOL     OW27589   3.490   2.549   2.771 -0.1876 -0.1796  0.0718
 5376SOL    HW127590   3.439   2.468   2.759 -0.9935  0.5731 -1.6152
 5376SOL    HW227591   3.506   2.545   2.865 -0.7224  1.6781  0.2464
 5377SOL     OW27592   0.689   3.662   7.748 -0.0086 -0.3284 -0.1812
 5377SOL    HW127593   0.624   3.605   7.790 -0.8938 -0.4165 -1.6639
 5377SOL    HW227594   0.763   3.610   7.778  0.9793  0.9558 -0.4089
 5378SOL     OW27595   3.229   0.524   5.032 -0.3444  0.1068  0.1057
 5378SOL    HW127596   3.304   0.538   4.974  0.7760  1.8311  1.9431
 5378SOL    HW227597   3.196   0.439   5.004  2.6378 -1.1780  0.4806
 5379SOL     OW27598   2.080   0.045  10.032  0.2473 -0.2787  0.4934
 5379SOL    HW127599   2.063   4.700  10.100 -0.0496 -0.8807 -0.1620
 5379SOL    HW227600   2.020   0.008   9.968  2.2230 -2.0456 -0.3494
 5380SOL     OW27601   1.284   3.743   5.248  0.0387 -0.3591 -0.1386
 5380SOL    HW127602   1.336   3.810   5.204  0.1533  0.3182  1.0066
 5380SOL    HW227603   1.198   3.781   5.234  1.1073  4.0274  4.7679
 5381SOL     OW27604   3.125   4.569  12.796  0.3761  0.0579 -0.1939
 5381SOL    HW127605   3.065   4.623  12.744  2.1895  1.9797 -0.2986
 5381SOL    HW227606   3.214   4.590  12.768 -0.2749 -0.3318 -2.5208
 5382SOL     OW27607   0.462   0.079   9.655  0.5933  0.3104 -0.2288
 5382SOL    HW127608   0.443   4.713   9.693  2.6193  0.5325  1.2600
 5382SOL    HW227609   0.510   0.039   9.582  0.8666 -0.4121  0.3477
 5383SOL     OW27610   1.763   1.146   3.698  0.2191  0.0555  1.1189
 5383SOL    HW127611   1.733   1.224   3.651  1.7838  0.0681  0.1496
 5383SOL    HW227612   1.819   1.192   3.760 -1.0090 -0.3722  2.5679
 5384SOL     OW27613   3.029   2.372   9.387  0.0435  0.4708  0.1468
 5384SOL    HW127614   2.996   2.291   9.349 -1.4138  1.0518  0.1415
 5384SOL    HW227615   2.977   2.372   9.468 -0.1595  0.4660  0.0177
 5385SOL     OW27616   4.293   3.293  17.354 -0.1430  0.1112 -0.3863
 5385SOL    HW127617   4.253   3.349  17.288  0.3622  1.0028  0.0530
 5385SOL    HW227618   4.342   3.238  17.293  0.6641  0.7274 -0.2914
 5386SOL     OW27619   1.587   0.046   4.588  0.0595  0.5712 -0.4785
 5386SOL    HW127620   1.496   0.069   4.606  0.2588  2.9317 -2.4815
 5386SOL    HW227621   1.581   0.009   4.500  0.2834 -0.6523  0.0254
 5387SOL     OW27622   3.977   0.438  10.462  0.2149 -0.0256 -0.0066
 5387SOL    HW127623   3.919   0.362  10.464 -1.6894  1.4417  0.0364
 5387SOL    HW227624   4.053   0.395  10.502  0.4638 -1.0073 -1.5157
 5388SOL     OW27625   2.714   2.903   5.771  0.1362 -0.0922 -0.0305
 5388SOL    HW127626   2.759   2.830   5.728 -0.4988  0.8190 -2.2970
 5388SOL    HW227627   2.776   2.960   5.817  1.8359 -0.9137 -1.2739
 5389SOL     OW27628   0.947   3.305   1.938  0.0314  0.5645 -0.0415
 5389SOL    HW127629   0.858   3.324   1.968  0.0833  0.1322  0.3957
 5389SOL    HW227630   0.995   3.281   2.018  0.1436 -0.0688 -0.2982
 5390SOL     OW27631   4.714   2.171   2.795  0.1541  0.2082  0.2558
 5390SOL    HW127632   4.625   2.142   2.773  0.8158 -1.8143  0.2815
 5390SOL    HW227633   4.697   2.225   2.872 -0.8738  0.3609 -0.0744
 5391SOL     OW27634   3.922   3.295   4.306 -0.0716  0.2028  0.1791
 5391SOL    HW127635   3.964   3.379   4.287 -3.2504  1.8171  0.2210
 5391SOL    HW227636   3.839   3.299   4.260 -0.1260 -0.2258  0.2431
 5392SOL     OW27637   3.989   3.075   2.890  0.1785 -0.3216 -0.2430
 5392SOL    HW127638   3.973   3.032   2.974  1.7042 -0.5445 -0.0596
 5392SOL    HW227639   4.073   3.118   2.905 -0.5185  1.0319 -0.1783
 5393SOL     OW27640   0.867   0.397   7.479  0.0571  0.5410  0.0752
 5393SOL    HW127641   0.809   0.340   7.529  0.0600  0.1662 -0.3520
 5393SOL    HW227642   0.853   0.375   7.387  0.0849 -1.0227  0.4612
 5394SOL     OW27643   3.921   3.350   8.628  0.2431  0.2740  0.2775
 5394SOL    HW127644   3.880   3.265   8.647 -0.0525  0.4817  0.5723
 5394SOL    HW227645   3.946   3.369   8.718  1.4264 -0.8400  0.1864
 5395SOL     OW27646   4.178   1.813   0.244  1.0905 -0.2273 -0.1037
 5395SOL    HW127647   4.155   1.720   0.238 -0.2019 -0.1322  3.8148
 5395SOL    HW227648   4.250   1.815   0.180  0.6508  0.1413 -0.5850
 5396SOL     OW27649   2.962   4.479  17.319 -0.3222 -0.2309 -0.0372
 5396SOL    HW127650   2.913   4.561  17.309 -1.3716 -0.9419 -0.6906
 5396SOL    HW227651   2.928   4.440  17.400 -1.0679  1.3130  0.3871
 5397SOL     OW27652   2.918   1.080  13.069 -0.1238 -0.2360  0.3374
 5397SOL    HW127653   2.935   1.106  12.978  1.0307  0.7179  0.8250
 5397SOL    HW227654   2.863   1.155  13.093 -0.2799 -0.2952  0.1604
 5398SOL     OW27655   3.664   4.666   8.561 -0.0397  0.1374 -0.9178
 5398SOL    HW127656   3.603   4.610   8.609 -0.6699  1.1931 -0.4915
 5398SOL    HW227657   3.735   4.602   8.564 -0.5382 -0.3072  1.2008
 5399SOL     OW27658   0.337   0.697   5.139 -0.2430  0.9863 -0.7872
 5399SOL    HW127659   0.328   0.602   5.139  1.7411  0.7772  0.7343
 5399SOL    HW227660   0.249   0.734   5.134 -0.3441  0.7127 -1.0005
 5400SOL     OW27661   1.253   0.387   8.807  0.5528 -0.1031 -0.3684
 5400SOL    HW127662   1.341   0.351   8.796  0.1734 -0.3622 -2.7299
 5400SOL    HW227663   1.203   0.312   8.774 -0.8636 -1.1782  4.3426
 5401SOL     OW27664   1.899   0.341   5.588 -0.8108  0.2789  0.3065
 5401SOL    HW127665   1.963   0.403   5.552 -1.6525  0.5250 -0.7589
 5401SOL    HW227666   1.833   0.326   5.522  1.1481  0.2763 -1.6520
 5402SOL     OW27667   4.399   1.631   5.352  0.4305 -0.0487  0.2133
 5402SOL    HW127668   4.421   1.579   5.275 -1.1937 -1.6007  0.7857
 5402SOL    HW227669   4.484   1.629   5.397  1.1076  0.4916 -1.0537
 5403SOL     OW27670   2.321   0.614   8.437 -0.2088  0.3614  0.2867
 5403SOL    HW127671   2.399   0.576   8.396 -0.2571  0.9051 -0.3118
 5403SOL    HW227672   2.330   0.707   8.414  0.1852  0.8808  2.4592
 5404SOL     OW27673   3.567   1.304   4.248 -0.4709 -0.2828 -0.1800
 5404SOL    HW127674   3.504   1.366   4.212 -0.2992 -0.0068  0.0010
 5404SOL    HW227675   3.625   1.303   4.172 -0.6504 -0.7046 -0.3145
 5405SOL     OW27676   0.349   0.476   2.716 -0.0043 -0.5882  0.0995
 5405SOL    HW127677   0.289   0.441   2.651 -0.0092  2.3426 -1.4858
 5405SOL    HW227678   0.411   0.522   2.659  0.5903 -2.6158 -0.8785
 5406SOL     OW27679   1.827   0.312   6.401  0.1861 -0.3494  0.4796
 5406SOL    HW127680   1.816   0.288   6.493 -1.5447 -0.0025  0.3666
 5406SOL    HW227681   1.839   0.224   6.363  1.5022 -0.0426  0.1729
 5407SOL     OW27682   1.181   2.671   0.635 -0.1219 -0.2098 -0.6077
 5407SOL    HW127683   1.231   2.596   0.668 -0.6092  0.1027  0.8433
 5407SOL    HW227684   1.254   2.730   0.616 -0.1457  0.5849  1.8052
 5408SOL     OW27685   1.773   0.303   4.306  0.0701 -0.2404 -0.6036
 5408SOL    HW127686   1.756   0.322   4.398 -1.4872 -0.6781 -0.8071
 5408SOL    HW227687   1.835   0.230   4.309  2.4197  1.7513 -0.7655
 5409SOL     OW27688   1.136   3.188   4.307  0.3940 -0.0861 -0.1245
 5409SOL    HW127689   1.146   3.274   4.347 -1.0763  0.3115 -0.6103
 5409SOL    HW227690   1.046   3.184   4.275  0.7741  0.2744 -1.1974
 5410SOL     OW27691   1.524   0.277   6.750 -0.1830 -0.1340 -0.6157
 5410SOL    HW127692   1.549   0.202   6.804  0.0036 -0.0171 -0.5412
 5410SOL    HW227693   1.597   0.270   6.689  1.0716 -2.7657  1.2047
 5411SOL     OW27694   1.327   4.116  10.738  0.1122 -0.6087 -0.5954
 5411SOL    HW127695   1.420   4.101  10.756  0.3393  1.6262  0.0613
 5411SOL    HW227696   1.271   4.052  10.783 -1.6498  1.7638  0.5991
 5412SOL     OW27697   0.061   1.034   8.400  0.0824 -0.4547 -0.6631
 5412SOL    HW127698   0.153   1.022   8.421  0.2472  0.1018 -1.0569
 5412SOL    HW227699   0.031   0.944   8.390  0.5985 -0.6660 -0.2805
 5413SOL     OW27700   1.449   4.583   1.289 -0.8039 -0.3641  0.5702
 5413SOL    HW127701   1.431   4.580   1.195 -1.3640 -0.8139  0.6871
 5413SOL    HW227702   1.446   4.489   1.310 -1.6400 -0.3186  0.6404
 5414SOL     OW27703   2.740   3.952   3.320 -0.4086 -0.0837 -0.4111
 5414SOL    HW127704   2.809   3.978   3.259 -0.0692  0.4334  0.1892
 5414SOL    HW227705   2.767   4.018   3.385 -0.1353  1.3502 -1.9764
 5415SOL     OW27706   1.275   0.347   5.018  0.4941  0.4171  0.4848
 5415SOL    HW127707   1.314   0.406   5.082  0.3718 -1.5346  2.3767
 5415SOL    HW227708   1.272   0.267   5.070  1.4383  0.6687  0.9286
 5416SOL     OW27709   2.156   1.421   4.257 -0.1135 -0.0646 -0.2534
 5416SOL    HW127710   2.078   1.366   4.266  0.8401 -1.2736  0.7065
 5416SOL    HW227711   2.170   1.472   4.336 -0.6063  0.9736 -0.8390
 5417SOL     OW27712   1.850   0.421   0.848  0.0092  0.7373  0.0120
 5417SOL    HW127713   1.754   0.423   0.844  0.0899 -0.6844 -2.4791
 5417SOL    HW227714   1.863   0.463   0.933 -0.5795  2.7177 -0.8722
 5418SOL     OW27715   4.224   2.877   8.387 -0.0288 -0.3630  0.0899
 5418SOL    HW127716   4.281   2.826   8.329 -0.2592  2.5372 -2.6519
 5418SOL    HW227717   4.137   2.883   8.347  0.2942 -1.1211 -0.7294
 5419SOL     OW27718   0.968   3.047   2.903 -0.3335  0.1721 -0.4072
 5419SOL    HW127719   1.047   3.101   2.910 -1.0357  1.2671 -0.9715
 5419SOL    HW227720   0.998   2.993   2.831 -0.1934 -1.3822  0.8221
 5420SOL     OW27721   3.842   0.782  15.844  0.0849 -0.2562  0.1933
 5420SOL    HW127722   3.840   0.744  15.932 -0.2188  0.4557  0.4993
 5420SOL    HW227723   3.771   0.846  15.851 -2.5774 -3.1214 -0.5729
 5421SOL     OW27724   1.454   4.574  17.646  0.6906  0.7286 -0.4867
 5421SOL    HW127725   1.545   4.553  17.668  0.0295 -0.8480  0.7746
 5421SOL    HW227726   1.409   4.528   0.035  1.9457  0.9732  0.4614
 5422SOL     OW27727   1.766   0.623   7.529 -0.0791 -0.8844  0.2240
 5422SOL    HW127728   1.671   0.613   7.524 -0.1719 -0.2909  0.7187
 5422SOL    HW227729   1.797   0.533   7.517 -1.0033 -0.5856 -4.4420
 5423SOL     OW27730   1.489   3.905   7.650  0.4218 -0.3407  0.4211
 5423SOL    HW127731   1.524   3.993   7.666  0.2449  0.1381 -1.7772
 5423SOL    HW227732   1.544   3.882   7.575  1.1312 -0.6270  1.0320
 5424SOL     OW27733   3.812   1.726  15.935  0.2053 -0.2988  0.2443
 5424SOL    HW127734   3.716   1.726  15.933  0.1420  1.1923  4.0931
 5424SOL    HW227735   3.832   1.635  15.957  1.4207  0.2139  1.2501
 5425SOL     OW27736   3.778   2.870  14.545 -0.7834  0.3730 -0.1033
 5425SOL    HW127737   3.716   2.890  14.615 -1.5655  2.1656 -1.3126
 5425SOL    HW227738   3.805   2.957  14.515 -1.2049 -0.0171 -1.6058
 5426SOL     OW27739   1.327   0.189   8.430  0.2301 -0.1869 -0.8839
 5426SOL    HW127740   1.273   0.110   8.424  0.4349 -0.2311 -2.2756
 5426SOL    HW227741   1.253   0.244   8.451  0.7322  0.2046 -0.1309
 5427SOL     OW27742   1.570   0.944  13.749  0.2169  0.0834 -0.2294
 5427SOL    HW127743   1.595   0.879  13.683 -0.7115 -0.6323  0.1293
 5427SOL    HW227744   1.476   0.929  13.743  0.1752  0.8044 -1.4999
 5428SOL     OW27745   2.022   2.085  13.349 -0.4853  0.0370  0.4823
 5428SOL    HW127746   1.958   2.100  13.280  1.1169 -0.6109 -1.1259
 5428SOL    HW227747   2.058   2.172  13.368  0.1734 -0.5146  1.7381
 5429SOL     OW27748   3.439   1.892  12.855 -0.0826  0.3495 -0.1077
 5429SOL    HW127749   3.414   1.969  12.906 -0.8447 -0.1302  0.2453
 5429SOL    HW227750   3.403   1.821  12.909  1.7051  0.7270  1.5614
 5430SOL     OW27751   4.108   3.976   8.252 -0.0929 -0.0685  0.0965
 5430SOL    HW127752   4.094   4.059   8.207 -1.5838  0.1822  1.0335
 5430SOL    HW227753   4.101   3.934   8.166  0.6272  3.1157 -1.5240
 5431SOL     OW27754   4.210   3.447   5.449 -0.0317 -0.2126  0.2668
 5431SOL    HW127755   4.284   3.421   5.394  0.2500  0.4495  0.3365
 5431SOL    HW227756   4.180   3.358   5.469 -2.7299  1.0247  1.8343
 5432SOL     OW27757   2.503   1.139   3.052  0.4760  0.1506 -0.4307
 5432SOL    HW127758   2.491   1.232   3.033  1.4435  0.1298 -1.1209
 5432SOL    HW227759   2.492   1.141   3.147 -0.1485  0.6377 -0.5115
 5433SOL     OW27760   1.008   2.020  16.622  0.0767  0.1068  0.0182
 5433SOL    HW127761   0.943   1.955  16.596  1.3039 -0.5398 -1.4168
 5433SOL    HW227762   1.064   1.971  16.683 -0.2618 -2.2535 -1.5308
 5434SOL     OW27763   1.872   2.168   7.046 -0.6265 -0.1396  0.3226
 5434SOL    HW127764   1.920   2.092   7.012  0.5045  0.5631  0.3548
 5434SOL    HW227765   1.841   2.209   6.965 -1.1009 -1.9991 -0.4375
 5435SOL     OW27766   4.683   2.742  13.267 -0.0129 -0.6452 -0.0901
 5435SOL    HW127767   4.636   2.824  13.253  1.2078 -0.4803 -3.1955
 5435SOL    HW227768   4.669   2.730  13.361 -0.7000  1.8011  0.1148
 5436SOL     OW27769   3.636   2.830   5.177  0.0215  0.1542  0.4537
 5436SOL    HW127770   3.578   2.845   5.102  2.5304  1.6398 -1.1845
 5436SOL    HW227771   3.670   2.742   5.160  1.6691  0.8067  0.3811
 5437SOL     OW27772   3.069   4.196   3.610 -0.1969  0.2355 -0.4509
 5437SOL    HW127773   3.076   4.288   3.587 -3.4498  0.1729 -1.7264
 5437SOL    HW227774   3.029   4.196   3.697 -1.9695  0.4543 -1.2740
 5438SOL     OW27775   3.942   3.928  11.029  0.6129  0.1566 -0.1984
 5438SOL    HW127776   3.936   3.921  11.124 -0.6160 -1.8814 -0.4076
 5438SOL    HW227777   4.018   3.985  11.021  0.4503  0.6443  1.6870
 5439SOL     OW27778   0.674   0.299   4.581 -0.7245 -0.2096  0.6090
 5439SOL    HW127779   0.641   0.380   4.620  0.5229  1.4640 -1.7768
 5439SOL    HW227780   0.616   0.289   4.506 -0.5764  0.7879  0.3643
 5440SOL     OW27781   0.091   3.334   8.923  0.9254 -0.5276  0.4732
 5440SOL    HW127782   0.079   3.261   8.862 -2.0155  0.4392 -0.1314
 5440SOL    HW227783   0.004   3.342   8.961  1.0526  1.6565  0.3176
 5441SOL     OW27784   4.500   3.550   7.324 -0.3313  0.1616  0.2679
 5441SOL    HW127785   4.541   3.467   7.297 -1.7084 -0.1305 -0.9316
 5441SOL    HW227786   4.492   3.598   7.242 -1.7426 -2.0840 -0.9209
 5442SOL     OW27787   1.620   3.154   7.032 -0.0507 -0.0275  0.0830
 5442SOL    HW127788   1.631   3.063   7.003 -1.4383  0.1165 -0.8721
 5442SOL    HW227789   1.702   3.196   7.008  0.7392 -1.4645  0.2541
 5443SOL     OW27790   4.527   2.426   3.449 -0.7084 -0.3221 -0.2820
 5443SOL    HW127791   4.487   2.362   3.390 -0.3352  1.0800 -2.0410
 5443SOL    HW227792   4.466   2.499   3.440  0.0788  0.1788 -1.5194
 5444SOL     OW27793   2.681   0.658  16.940 -0.4866 -0.5897 -0.1311
 5444SOL    HW127794   2.599   0.640  16.985 -0.7496  1.0220  0.0303
 5444SOL    HW227795   2.738   0.716  16.990  0.0288 -0.1557 -1.2278
 5445SOL     OW27796   0.995   3.595  10.868  0.1062 -0.1773  0.0475
 5445SOL    HW127797   0.905   3.588  10.838  0.4106 -2.3684 -0.3203
 5445SOL    HW227798   1.015   3.506  10.898 -0.5231 -0.9038 -1.6998
 5446SOL     OW27799   2.513   0.149   1.948  0.2203 -0.3933 -0.2136
 5446SOL    HW127800   2.485   0.157   1.857  0.3210  0.2862 -0.1786
 5446SOL    HW227801   2.524   0.054   1.956 -2.0674 -0.5279  1.2890
 5447SOL     OW27802   4.260   0.294   9.471  0.1471 -0.0947  0.3271
 5447SOL    HW127803   4.315   0.241   9.529  1.8763  0.0485 -1.1574
 5447SOL    HW227804   4.216   0.219   9.431 -0.4738 -0.5773  1.9007
 5448SOL     OW27805   0.298   1.790   4.167  0.1470 -0.0364 -0.1712
 5448SOL    HW127806   0.310   1.854   4.096  0.8009 -1.2494 -1.1735
 5448SOL    HW227807   0.213   1.821   4.196  0.5969  0.9063  0.1338
 5449SOL     OW27808   3.541   3.334   0.970 -0.0867  0.0969 -0.4338
 5449SOL    HW127809   3.526   3.264   1.033  0.1690  0.2977 -0.1534
 5449SOL    HW227810   3.467   3.394   0.977 -1.4381 -1.3439 -2.5128
 5450SOL     OW27811   4.013   1.333   6.180 -0.1738  0.1767  0.5836
 5450SOL    HW127812   4.087   1.317   6.239  1.4433  0.9517 -1.2480
 5450SOL    HW227813   4.056   1.322   6.096  1.4055 -1.0036  1.5600
 5451SOL     OW27814   0.446   3.551  10.684 -0.3408 -0.3751 -0.7526
 5451SOL    HW127815   0.500   3.479  10.652 -0.6577 -1.2401  0.6778
 5451SOL    HW227816   0.432   3.524  10.775 -0.6623 -0.8487 -0.9430
 5452SOL     OW27817   3.554   3.419  13.576 -0.1397  0.1056 -0.3541
 5452SOL    HW127818   3.549   3.363  13.653  0.5392  1.3983  0.6329
 5452SOL    HW227819   3.583   3.351  13.515 -2.3077 -1.5438  0.4628
 5453SOL     OW27820   3.528   0.814  14.180  0.1862 -0.3685  0.1172
 5453SOL    HW127821   3.479   0.816  14.098 -2.2810 -1.9101  1.5705
 5453SOL    HW227822   3.571   0.900  14.179 -2.3774  0.8648 -3.7531
 5454SOL     OW27823   2.733   0.602  12.624  0.4651  0.1487 -0.3071
 5454SOL    HW127824   2.709   0.625  12.714  1.6310  1.5607 -0.3670
 5454SOL    HW227825   2.672   0.665  12.585  2.2838 -0.1266 -3.5583
 5455SOL     OW27826   2.978   0.992   1.022  0.1605  0.5980  0.1181
 5455SOL    HW127827   3.022   0.908   1.033 -0.2327  0.4139  0.2960
 5455SOL    HW227828   3.046   1.047   1.060  0.6104 -0.8359  1.3641
 5456SOL     OW27829   1.493   2.516   1.402 -0.2561 -0.1441 -0.3197
 5456SOL    HW127830   1.522   2.574   1.472  1.9230 -1.5316 -0.0613
 5456SOL    HW227831   1.479   2.436   1.454  0.5422  0.0876  0.2540
 5457SOL     OW27832   0.696   0.375   6.655 -0.6585  0.0401 -0.2319
 5457SOL    HW127833   0.762   0.432   6.616 -0.6096 -0.8496 -1.4417
 5457SOL    HW227834   0.624   0.434   6.676  0.2033  1.8128 -2.3450
 5458SOL     OW27835   4.153   0.632   5.932  0.4441 -0.1759  0.1253
 5458SOL    HW127836   4.249   0.629   5.931  0.3845 -2.0523 -0.0092
 5458SOL    HW227837   4.132   0.574   6.005  0.7025 -1.1290 -0.5471
 5459SOL     OW27838   4.682   4.313   8.290 -0.4701  0.2856 -0.1534
 5459SOL    HW127839   0.002   4.387   8.335  0.5164  0.7556 -1.7637
 5459SOL    HW227840   4.664   4.259   8.366  0.0414 -0.1158 -0.3122
 5460SOL     OW27841   4.537   3.501   1.837  0.3114  0.5949  0.5851
 5460SOL    HW127842   4.601   3.474   1.903  0.1238  0.4750  0.7193
 5460SOL    HW227843   4.457   3.529   1.883 -0.9047 -1.2915 -0.3986
 5461SOL     OW27844   3.183   4.368   4.437  0.6160  0.6564  0.3649
 5461SOL    HW127845   3.146   4.456   4.444 -0.8649  0.0778 -0.2553
 5461SOL    HW227846   3.112   4.317   4.475 -0.4397  1.2422 -0.8216
 5462SOL     OW27847   0.804   4.555   7.682  0.9392 -0.2680  0.0905
 5462SOL    HW127848   0.866   4.627   7.678 -0.6599  0.9373 -3.1419
 5462SOL    HW227849   0.733   4.594   7.631 -1.0327  0.3816  3.3151
 5463SOL     OW27850   2.626   3.489  12.318 -0.1955  0.2196 -0.0439
 5463SOL    HW127851   2.600   3.433  12.391  4.7972  1.8567  3.0222
 5463SOL    HW227852   2.706   3.452  12.279  0.5819  0.4632  1.3282
 5464SOL     OW27853   0.839   4.597   3.273 -0.2560  0.0719  0.3551
 5464SOL    HW127854   0.860   4.566   3.361  0.3446 -0.6704 -0.0517
 5464SOL    HW227855   0.822   4.689   3.292 -4.5326 -0.2520 -1.9802
 5465SOL     OW27856   3.011   3.615   5.617  0.0726  0.5161  0.8567
 5465SOL    HW127857   3.003   3.705   5.585  0.0545 -0.0389 -0.6684
 5465SOL    HW227858   3.020   3.629   5.712  0.6338  2.5523  0.5072
 5466SOL     OW27859   2.533   2.077  16.463  0.0263  0.6827  0.6714
 5466SOL    HW127860   2.620   2.037  16.458 -0.0849  0.3414  1.3879
 5466SOL    HW227861   2.527   2.127  16.382  0.7702 -1.4813 -0.7453
 5467SOL     OW27862   0.541   0.045   5.871  0.6955  0.1431  0.2172
 5467SOL    HW127863   0.470   4.700   5.865  0.0065  1.0020 -0.9467
 5467SOL    HW227864   0.552   0.051   5.966  0.3340 -0.8807  0.3304
 5468SOL     OW27865   4.639   3.086   8.534  0.6395 -0.1068  0.2787
 5468SOL    HW127866   4.596   3.165   8.568  0.2928 -0.6114  1.0101
 5468SOL    HW227867   4.598   3.018   8.587 -0.5131  0.3505 -0.0081
 5469SOL     OW27868   0.147   0.060   6.444  0.1134 -0.1993 -0.0833
 5469SOL    HW127869   0.081   0.063   6.375  0.3988  0.1610 -0.3402
 5469SOL    HW227870   0.082   0.065   6.515  1.9692  0.6487  1.5358
 5470SOL     OW27871   3.562   3.922   1.952  0.3837 -0.3894 -0.1165
 5470SOL    HW127872   3.510   4.002   1.944 -0.0551 -0.7684 -1.1196
 5470SOL    HW227873   3.525   3.862   1.887 -0.1443  0.1382 -0.3086
 5471SOL     OW27874   3.121   0.477   6.768  0.0457 -0.0015 -0.4981
 5471SOL    HW127875   3.158   0.519   6.845  1.0983  0.9388 -1.5189
 5471SOL    HW227876   3.151   0.386   6.780 -0.0883  0.0520  0.2342
 5472SOL     OW27877   3.529   3.805   7.608 -0.3549 -0.4121  0.3920
 5472SOL    HW127878   3.477   3.828   7.685  2.0851 -0.5872  2.1016
 5472SOL    HW227879   3.465   3.786   7.540 -0.4681  0.8262  0.1521
 5473SOL     OW27880   4.527   0.680   4.378  0.3876 -0.2428 -0.2670
 5473SOL    HW127881   4.511   0.743   4.308  1.4171  0.1055 -0.1882
 5473SOL    HW227882   4.449   0.625   4.370 -0.6467  1.3413 -0.9847
 5474SOL     OW27883   0.645   3.294   6.476 -1.0686  0.0073  0.1545
 5474SOL    HW127884   0.558   3.311   6.512 -1.0191  0.2915  0.1402
 5474SOL    HW227885   0.698   3.360   6.522  0.0766  0.0355 -1.1961
 5475SOL     OW27886   0.335   2.873   7.420 -0.3399 -0.4009  0.5672
 5475SOL    HW127887   0.319   2.809   7.490  1.6018 -1.4596  0.0410
 5475SOL    HW227888   0.255   2.858   7.370 -0.9964  0.6658  1.2974
 5476SOL     OW27889   0.801   3.226   5.479  0.1114  0.1587 -0.2601
 5476SOL    HW127890   0.828   3.308   5.521  0.8311  0.4558 -1.3038
 5476SOL    HW227891   0.884   3.197   5.442  1.9534  2.3919  2.1505
 5477SOL     OW27892   4.518   1.099   5.695 -0.1698  0.5423 -0.1854
 5477SOL    HW127893   4.546   1.008   5.683  0.5351  0.4316  2.3785
 5477SOL    HW227894   4.428   1.083   5.722 -0.6024  1.0887 -1.3272
 5478SOL     OW27895   3.481   2.010  10.656  0.0122  0.5075  0.0934
 5478SOL    HW127896   3.562   2.008  10.707 -0.5891  1.2321  1.0835
 5478SOL    HW227897   3.446   1.930  10.697  0.0056  0.6764  0.4222
 5479SOL     OW27898   2.201   4.397  14.238 -0.2651 -0.1883  0.4450
 5479SOL    HW127899   2.217   4.305  14.260 -2.3032 -0.6948 -0.1832
 5479SOL    HW227900   2.141   4.385  14.164 -0.6680  0.4049  0.6792
 5480SOL     OW27901   2.785   2.401  14.642  0.5617 -0.4709  0.0225
 5480SOL    HW127902   2.799   2.428  14.551  2.4857 -0.0767  0.4310
 5480SOL    HW227903   2.692   2.419  14.647  0.6798  0.3209 -0.6107
 5481SOL     OW27904   1.235   1.105   9.890  0.0664 -0.3199  0.2676
 5481SOL    HW127905   1.280   1.022   9.872 -0.1231 -0.2734 -0.4369
 5481SOL    HW227906   1.249   1.108   9.984 -1.8746  0.6815  0.5278
 5482SOL     OW27907   2.088   2.129   6.817 -0.4444 -0.1155 -0.1291
 5482SOL    HW127908   2.159   2.193   6.809 -0.6165  0.2974  1.5442
 5482SOL    HW227909   2.076   2.129   6.722 -0.4522  0.3135 -0.1271
 5483SOL     OW27910   1.631   4.156   7.645 -0.2395 -0.0350 -0.8821
 5483SOL    HW127911   1.666   4.156   7.734  0.7521 -3.6004 -1.2594
 5483SOL    HW227912   1.711   4.193   7.609 -0.3203 -0.3317 -1.3683
 5484SOL     OW27913   1.641   0.674   2.486 -0.3673  0.1170 -0.8555
 5484SOL    HW127914   1.583   0.693   2.559 -1.0229 -0.1222 -1.3071
 5484SOL    HW227915   1.720   0.657   2.537 -0.4606  0.7512 -0.5013
 5485SOL     OW27916   3.822   2.683   5.441  0.6169  0.4679 -0.5907
 5485SOL    HW127917   3.892   2.618   5.439  0.8711  0.7312 -0.2334
 5485SOL    HW227918   3.740   2.644   5.413  0.3500  0.6672 -0.0804
 5486SOL     OW27919   4.138   1.642  10.573  0.4134  0.5144 -0.1454
 5486SOL    HW127920   4.096   1.622  10.657  0.0278 -0.5855 -0.5994
 5486SOL    HW227921   4.064   1.635  10.513  0.9792 -3.8931 -0.3380
 5487SOL     OW27922   3.009   0.910  14.778 -0.5452 -0.5959 -0.5390
 5487SOL    HW127923   2.931   0.855  14.788 -0.8138 -0.1195 -0.0121
 5487SOL    HW227924   3.058   0.886  14.856  0.5184 -0.7735 -1.2676
 5488SOL     OW27925   0.825   1.783   2.152 -0.0052  0.4067  0.0627
 5488SOL    HW127926   0.901   1.726   2.154 -0.9555 -0.7785  2.2660
 5488SOL    HW227927   0.761   1.735   2.100 -0.3874 -1.1708  2.0100
 5489SOL     OW27928   0.341   2.795  14.624  0.5788 -0.1653 -0.3819
 5489SOL    HW127929   0.289   2.859  14.673  2.6184  1.2441 -0.0697
 5489SOL    HW227930   0.419   2.794  14.679  2.5288  1.4786 -3.0464
 5490SOL     OW27931   2.033   3.312   3.986  0.2098  0.3380  0.4733
 5490SOL    HW127932   1.991   3.243   3.934  0.0312  0.0923  0.9424
 5490SOL    HW227933   1.956   3.334   4.038  0.0291 -2.2995  1.2919
 5491SOL     OW27934   3.987   1.849  11.471  0.0844 -0.4258  0.4313
 5491SOL    HW127935   3.901   1.890  11.465 -1.6003 -3.9402  0.9431
 5491SOL    HW227936   3.963   1.770  11.519  1.7733 -1.4322 -0.3861
 5492SOL     OW27937   2.345   2.744   3.877 -0.0258 -0.4357 -1.0449
 5492SOL    HW127938   2.268   2.689   3.875  2.0706 -3.4068 -0.0329
 5492SOL    HW227939   2.409   2.697   3.930 -0.8335 -0.1679  0.1731
 5493SOL     OW27940   1.092   1.271  14.976  0.5817  0.4673  0.0980
 5493SOL    HW127941   1.009   1.236  14.944  2.8937 -2.9562 -2.1004
 5493SOL    HW227942   1.107   1.215  15.052  1.1293 -1.8455 -1.7124
 5494SOL     OW27943   0.016   1.216   4.526  0.2087 -0.0558  0.5863
 5494SOL    HW127944   0.082   1.279   4.496 -1.0141  1.5412  1.2239
 5494SOL    HW227945   0.010   1.150   4.457 -0.1752  1.4761 -0.8330
 5495SOL     OW27946   2.041   0.043   3.881  0.2998 -0.1694  0.0724
 5495SOL    HW127947   1.977   0.113   3.867  2.1743  2.2900  3.6664
 5495SOL    HW227948   2.054   0.009   3.793  0.4672 -0.5274  0.2361
 5496SOL     OW27949   2.488   2.250   5.189 -0.7538  0.0033 -0.5754
 5496SOL    HW127950   2.537   2.167   5.181  1.2808  1.1601 -0.1619
 5496SOL    HW227951   2.485   2.284   5.100  1.6121  1.9791  0.0966
 5497SOL     OW27952   3.350   4.424   8.182 -0.3125 -0.3006 -0.5901
 5497SOL    HW127953   3.405   4.368   8.127  0.3273  0.5247 -0.7994
 5497SOL    HW227954   3.337   4.361   8.253 -0.8945  1.3790  0.7952
 5498SOL     OW27955   3.775   0.363  16.714 -0.1797 -0.1773 -1.0160
 5498SOL    HW127956   3.839   0.339  16.781 -0.4093 -1.1467 -1.1443
 5498SOL    HW227957   3.779   0.459  16.718  0.0739 -0.1908 -0.9515
 5499SOL     OW27958   3.222   0.950   3.014 -0.0035  0.1477 -0.0861
 5499SOL    HW127959   3.141   0.928   3.061  0.3178 -1.5843 -0.3256
 5499SOL    HW227960   3.199   0.903   2.934 -0.5046  1.7351 -0.8563
 5500SOL     OW27961   0.362   2.732   5.546  0.0869  0.0431 -0.2759
 5500SOL    HW127962   0.435   2.788   5.572  1.0673 -1.7598  0.8303
 5500SOL    HW227963   0.327   2.778   5.470 -0.6307 -0.5259 -0.2890
 5501SOL     OW27964   4.436   1.835  10.578  0.0806 -0.0029  0.0851
 5501SOL    HW127965   4.404   1.917  10.615 -0.3778  0.5270 -1.5057
 5501SOL    HW227966   4.531   1.837  10.592  0.1377  0.2840 -0.3514
 5502SOL     OW27967   1.974   0.166   5.770 -0.0615  0.1298 -0.0736
 5502SOL    HW127968   1.897   0.122   5.735 -0.8677  1.7064 -0.2771
 5502SOL    HW227969   1.970   0.236   5.706 -0.0816 -0.4081 -0.6598
 5503SOL     OW27970   1.844   0.201   7.009 -0.2622  0.0284 -0.4714
 5503SOL    HW127971   1.764   0.182   6.960 -0.8679 -1.1030  0.9421
 5503SOL    HW227972   1.907   0.177   6.941  0.9309  1.6810  0.0560
 5504SOL     OW27973   0.752   2.131   6.124 -0.1142  0.0473  0.2625
 5504SOL    HW127974   0.696   2.202   6.094  0.0552 -0.1385 -0.4898
 5504SOL    HW227975   0.682   2.070   6.146 -1.6610  2.3459  1.7341
 5505SOL     OW27976   0.885   1.915  12.911 -0.1619 -0.3810 -0.3413
 5505SOL    HW127977   0.874   1.942  12.820  0.5741 -1.5863 -0.7926
 5505SOL    HW227978   0.912   1.824  12.896  1.0568  0.1653 -1.4045
 5506SOL     OW27979   2.304   1.878   5.485 -0.1840 -0.2467 -0.8306
 5506SOL    HW127980   2.263   1.811   5.431  0.8994 -0.0289 -1.9336
 5506SOL    HW227981   2.247   1.954   5.476 -0.7824 -0.8351 -1.8960
 5507SOL     OW27982   1.515   0.989   5.133 -0.0562 -0.3144  0.2808
 5507SOL    HW127983   1.431   0.979   5.088  0.8472  1.1095 -1.7327
 5507SOL    HW227984   1.493   1.072   5.176  0.8418  0.5179 -0.8562
 5508SOL     OW27985   2.758   3.081   4.497  0.5723  0.1037 -0.1764
 5508SOL    HW127986   2.837   3.135   4.503  0.9250 -0.5592  1.0505
 5508SOL    HW227987   2.718   3.089   4.583 -0.5078  0.8579 -0.7501
 5509SOL     OW27988   1.221   1.649   3.451  0.0928 -0.2560  0.1460
 5509SOL    HW127989   1.201   1.741   3.435  0.2452 -0.3914 -0.8603
 5509SOL    HW227990   1.195   1.642   3.543  0.6700  0.8199  0.3930
 5510SOL     OW27991   1.455   0.012   7.941 -0.1276 -0.3989 -0.1245
 5510SOL    HW127992   1.457   4.637   7.929  0.2988  0.1152 -4.2333
 5510SOL    HW227993   1.371   0.026   7.985  1.0161  0.8762  1.6513
 5511SOL     OW27994   2.503   4.525  12.215  0.5011 -0.1262 -0.1921
 5511SOL    HW127995   2.501   4.437  12.178 -2.6539  0.3002 -1.0862
 5511SOL    HW227996   2.551   4.498  12.293 -0.1771 -0.4748  0.1120
 5512SOL     OW27997   3.577   4.285   5.911 -0.1515  0.3282 -0.3934
 5512SOL    HW127998   3.573   4.364   5.965 -1.0218  1.4955 -2.1588
 5512SOL    HW227999   3.671   4.280   5.898 -0.4554 -2.4915 -1.3257
 5513SOL     OW28000   0.437   3.896   6.899 -0.0993 -0.8565  0.4125
 5513SOL    HW128001   0.349   3.868   6.926 -0.2504 -0.5189  0.2673
 5513SOL    HW228002   0.458   3.942   6.980  0.2390  0.9547 -0.7253
 5514SOL     OW28003   0.465   1.684  15.524 -0.1548 -0.5784  0.4590
 5514SOL    HW128004   0.526   1.615  15.550  0.6116  0.2158  0.7953
 5514SOL    HW228005   0.427   1.706  15.609 -3.7425 -1.6883 -0.8633
 5515SOL     OW28006   1.493   3.768   6.542 -0.0733 -0.0765 -0.0630
 5515SOL    HW128007   1.496   3.690   6.487  1.0631  0.5805 -0.9338
 5515SOL    HW228008   1.510   3.719   6.623  0.2041 -0.1248 -0.1488
 5516SOL     OW28009   2.344   2.143   0.503 -0.1069 -0.9335 -0.7882
 5516SOL    HW128010   2.410   2.203   0.469  0.1447  0.0894  1.5621
 5516SOL    HW228011   2.406   2.082   0.543  0.3322  1.4495  2.1460
 5517SOL     OW28012   2.291   0.784   4.264 -0.7510  0.4371 -0.0875
 5517SOL    HW128013   2.218   0.842   4.241 -0.2945  1.3963  0.8890
 5517SOL    HW228014   2.237   0.711   4.291  0.5067 -0.0827  1.0208
 5518SOL     OW28015   0.549   2.620  17.331 -0.1279  0.5771 -0.2010
 5518SOL    HW128016   0.594   2.704  17.320  0.3451  0.6600  2.3328
 5518SOL    HW228017   0.604   2.576  17.396 -0.2646  0.4357 -0.1805
 5519SOL     OW28018   2.827   4.499   3.608 -0.3355  0.2790 -0.4314
 5519SOL    HW128019   2.889   4.521   3.539  0.0126 -0.8573 -0.4949
 5519SOL    HW228020   2.753   4.498   3.547 -0.2143  0.8666 -0.5814
 5520SOL     OW28021   4.447   0.475  14.171 -0.3077 -0.1040  0.4430
 5520SOL    HW128022   4.369   0.444  14.218 -0.6142  0.0348  0.0290
 5520SOL    HW228023   4.521   0.455  14.228  0.1717  1.9803  0.5536
 5521SOL     OW28024   0.242   3.814  15.020 -0.2176 -0.0482  0.3165
 5521SOL    HW128025   0.315   3.822  14.960  0.3492  0.8260  1.1288
 5521SOL    HW228026   0.164   3.788  14.971 -0.3327  1.1870 -0.1563
 5522SOL     OW28027   1.020   3.870   3.636 -0.2642  0.1964 -0.1497
 5522SOL    HW128028   0.931   3.878   3.601  1.1168 -0.1098 -3.7469
 5522SOL    HW228029   1.021   3.828   3.722  0.2379  1.1804  0.3241
 5523SOL     OW28030   1.627   1.704  17.619  0.0383  0.3386 -0.2869
 5523SOL    HW128031   1.692   1.745  17.675  0.3604 -0.4822 -0.0713
 5523SOL    HW228032   1.665   1.723  17.533 -3.0694  1.6556 -1.3857
 5524SOL     OW28033   4.331   2.252  14.571 -0.5371  0.3626  0.1175
 5524SOL    HW128034   4.332   2.185  14.503 -0.3241  1.5439 -1.0390
 5524SOL    HW228035   4.239   2.262  14.597 -0.4964  1.6941 -0.2568
 5525SOL     OW28036   3.348   3.859   0.348  0.3538  0.7865  0.1577
 5525SOL    HW128037   3.440   3.846   0.324  0.1763 -0.0928 -0.0235
 5525SOL    HW228038   3.325   3.946   0.314 -0.3583  0.2139 -0.8119
 5526SOL     OW28039   4.078   4.354   2.703  0.2474  0.3507  0.9726
 5526SOL    HW128040   4.109   4.441   2.729 -3.7308  2.5780 -1.6402
 5526SOL    HW228041   4.045   4.325   2.788 -1.6055 -1.7186 -0.4692
 5527SOL     OW28042   0.486   0.733  10.874 -0.5368  0.1869  0.0117
 5527SOL    HW128043   0.507   0.810  10.820 -1.6637  0.3567 -0.1882
 5527SOL    HW228044   0.522   0.666  10.816 -1.2325 -2.2743  2.4407
 5528SOL     OW28045   3.853   4.142  12.286 -0.1413  0.3406 -0.1196
 5528SOL    HW128046   3.903   4.093  12.221  0.1358  0.8812 -0.3140
 5528SOL    HW228047   3.885   4.095  12.363 -0.3847 -2.1370 -1.5704
 5529SOL     OW28048   3.443   0.377   2.283 -0.8275 -0.2482  0.3030
 5529SOL    HW128049   3.356   0.365   2.320  0.5448  0.5786  3.7601
 5529SOL    HW228050   3.465   0.292   2.246  1.7551  0.4372  0.2630
 5530SOL     OW28051   2.874   4.393   3.244 -0.0218 -0.2247 -0.0357
 5530SOL    HW128052   2.914   4.439   3.319  1.0174 -0.9616 -0.1392
 5530SOL    HW228053   2.853   4.308   3.283  0.6537 -0.2565  0.2760
 5531SOL     OW28054   3.272   1.028  16.268 -0.3882  0.3012  0.0025
 5531SOL    HW128055   3.235   0.963  16.328 -0.3602  2.3864  2.2446
 5531SOL    HW228056   3.217   1.102  16.292 -0.7415 -1.1155  3.5170
 5532SOL     OW28057   4.630   1.747   4.517 -0.1676 -0.2130 -0.1693
 5532SOL    HW128058   4.573   1.703   4.454 -0.5613 -1.5200  1.1026
 5532SOL    HW228059   4.619   1.838   4.490  4.0811  0.8960  1.7616
 5533SOL     OW28060   2.485   1.006   8.802  0.6828 -0.1134 -0.1123
 5533SOL    HW128061   2.439   1.071   8.854 -2.8617 -1.4160 -1.6505
 5533SOL    HW228062   2.447   0.926   8.838  0.2344 -0.0913 -0.5473
 5534SOL     OW28063   0.623   1.303   5.552  0.1792  0.2166 -0.3834
 5534SOL    HW128064   0.576   1.221   5.566 -0.4526  0.8358  1.0601
 5534SOL    HW228065   0.558   1.344   5.495 -0.3260  1.9539  1.4815
 5535SOL     OW28066   1.535   4.313  15.377  0.5604 -0.1910 -0.1499
 5535SOL    HW128067   1.479   4.258  15.431  0.5287 -0.9026 -0.9205
 5535SOL    HW228068   1.605   4.335  15.438  0.2101  0.0331  0.1686
 5536SOL     OW28069   1.430   3.084  14.306 -0.0492 -0.1514 -0.1141
 5536SOL    HW128070   1.339   3.086  14.338 -0.0948  1.2748 -0.3309
 5536SOL    HW228071   1.431   2.990  14.284  1.3382 -0.5665  1.8166
 5537SOL     OW28072   1.517   3.611   5.898  0.2636  0.1731 -0.3320
 5537SOL    HW128073   1.584   3.678   5.883 -0.1445  0.3935 -1.2103
 5537SOL    HW228074   1.540   3.560   5.820  0.0223 -0.4348  0.0002
 5538SOL     OW28075   2.469   2.683  17.591 -0.3434  0.2025  0.9538
 5538SOL    HW128076   2.390   2.722  17.629 -0.7180  0.4858 -0.1411
 5538SOL    HW228077   2.477   2.733  17.510 -2.6212 -0.2794  0.4189
 5539SOL     OW28078   0.248   0.691  15.438 -0.0710  0.2907  0.3885
 5539SOL    HW128079   0.331   0.661  15.476 -1.2483  1.7642  4.1111
 5539SOL    HW228080   0.231   0.771  15.487 -1.1960  1.4034 -1.7959
 5540SOL     OW28081   0.385   1.505   8.295 -0.1143 -0.2006  0.6902
 5540SOL    HW128082   0.361   1.435   8.235  0.8197 -0.2591  0.3772
 5540SOL    HW228083   0.357   1.466   8.378  0.8375  0.7341  1.4500
 5541SOL     OW28084   4.211   0.228   0.782 -0.4190 -0.4475  0.1377
 5541SOL    HW128085   4.147   0.187   0.839  1.4075 -2.4668  0.7227
 5541SOL    HW228086   4.160   0.300   0.745 -2.2770 -0.6059  2.4379
 5542SOL     OW28087   3.223   4.250   4.188 -0.1525 -0.1310 -0.3680
 5542SOL    HW128088   3.176   4.296   4.118  0.6939 -2.3350 -2.3811
 5542SOL    HW228089   3.199   4.290   4.272 -0.5183  1.0912 -1.0613
 5543SOL     OW28090   3.462   0.074   8.412 -0.0155  0.5054  0.6103
 5543SOL    HW128091   3.432   0.127   8.486  0.7555 -2.0371  2.7149
 5543SOL    HW228092   3.537   0.031   8.452  0.6002  1.1430  0.1388
 5544SOL     OW28093   0.616   2.631  11.672 -0.3622 -0.1678  0.0727
 5544SOL    HW128094   0.593   2.575  11.597 -0.2353 -0.4259  0.2254
 5544SOL    HW228095   0.580   2.717  11.648  0.8707 -0.3722 -2.5573
 5545SOL     OW28096   3.897   3.923   9.430 -0.5069 -0.1544  0.2001
 5545SOL    HW128097   3.860   4.006   9.400 -1.2560  0.3193  2.4731
 5545SOL    HW228098   3.985   3.941   9.463 -1.5757  1.2193  2.2858
 5546SOL     OW28099   1.673   1.390   2.231 -0.2011 -0.7052  0.4128
 5546SOL    HW128100   1.594   1.434   2.200 -1.0354 -1.9945  0.7177
 5546SOL    HW228101   1.740   1.459   2.226 -0.2878 -0.5941  0.7711
 5547SOL     OW28102   3.145   0.491   9.567 -0.3850 -0.2378 -0.1956
 5547SOL    HW128103   3.239   0.473   9.571 -0.4014 -0.0929  0.8552
 5547SOL    HW228104   3.106   0.405   9.555 -2.5820  1.0868 -2.5273
 5548SOL     OW28105   4.393   4.413   2.089  0.4691 -0.6789 -0.0415
 5548SOL    HW128106   4.357   4.411   2.178 -0.5702  1.9573 -0.4052
 5548SOL    HW228107   4.382   4.505   2.068 -0.9702 -1.0077 -0.7605
 5549SOL     OW28108   2.759   0.963  13.293  0.3179  0.2582 -1.1212
 5549SOL    HW128109   2.795   1.015  13.222 -0.8659  2.2589 -0.2399
 5549SOL    HW228110   2.733   1.020  13.365 -0.1586  0.0173 -1.1047
 5550SOL     OW28111   0.226   3.021   1.499  0.3742  0.1143  0.5147
 5550SOL    HW128112   0.320   3.016   1.481  0.5401  1.8092  0.8489
 5550SOL    HW228113   0.198   2.930   1.502 -0.0414  0.1680 -1.4822
 5551SOL     OW28114   4.046   1.190  13.178 -0.3483  0.0940  0.1884
 5551SOL    HW128115   4.035   1.097  13.197  3.1184 -0.2983  0.2280
 5551SOL    HW228116   3.983   1.207  13.108 -0.2158  0.0021  0.0459
 5552SOL     OW28117   0.450   0.508  15.849  0.9393  0.0056  0.6371
 5552SOL    HW128118   0.358   0.529  15.859  0.8339  0.0406 -0.4184
 5552SOL    HW228119   0.469   0.535  15.759 -1.3458  0.6349  0.3646
 5553SOL     OW28120   2.395   3.086  11.809 -0.0305  0.4863 -0.0696
 5553SOL    HW128121   2.399   3.130  11.894 -3.1603  1.0417 -0.2034
 5553SOL    HW228122   2.332   3.143  11.765  0.3693  0.6478 -0.4400
 5554SOL     OW28123   0.198   4.607   2.449  0.4921 -0.7026  0.5934
 5554SOL    HW128124   0.266   4.674   2.434 -0.6103  0.4575  0.7628
 5554SOL    HW228125   0.214   4.564   2.365 -0.3279  0.8521 -0.3592
 5555SOL     OW28126   4.613   3.311   7.263  0.3642  0.1798  0.3518
 5555SOL    HW128127   4.564   3.231   7.280 -0.8052  1.1257  1.4203
 5555SOL    HW228128   4.672   3.274   7.198 -0.9706  0.2322 -0.8760
 5556SOL     OW28129   2.583   3.366   2.131 -0.1481 -0.2355 -0.9104
 5556SOL    HW128130   2.530   3.440   2.100  1.3269  0.8018 -0.9748
 5556SOL    HW228131   2.549   3.342   2.217  1.1154  0.6342 -0.1684
 5557SOL     OW28132   2.382   1.682  16.567  0.3177  0.7010 -0.2096
 5557SOL    HW128133   2.476   1.697  16.577  0.3162 -0.3080  1.4823
 5557SOL    HW228134   2.384   1.595  16.527 -1.4105 -0.0400  1.3204
 5558SOL     OW28135   2.427   1.545   8.248 -0.0305 -0.0605 -0.1023
 5558SOL    HW128136   2.353   1.588   8.291  0.4382 -1.8890  2.5417
 5558SOL    HW228137   2.455   1.603   8.177  0.7090 -0.3273 -0.0325
 5559SOL     OW28138   3.766   1.465   2.764 -0.0790  0.5631  0.7198
 5559SOL    HW128139   3.688   1.416   2.738  0.6137  0.3160 -0.8773
 5559SOL    HW228140   3.808   1.422   2.838 -0.2547  0.8548  0.9904
 5560SOL     OW28141   0.176   0.762  10.094 -0.4859 -0.2263 -0.1876
 5560SOL    HW128142   0.255   0.732  10.139  0.7411  1.1376 -1.4310
 5560SOL    HW228143   0.222   0.816  10.029 -1.8772  1.9152  0.6268
 5561SOL     OW28144   0.718   3.870  15.877  0.2974  0.6283  0.2286
 5561SOL    HW128145   0.790   3.879  15.940 -0.0734  0.4585  0.6734
 5561SOL    HW228146   0.659   3.836  15.944  0.4020 -2.4681 -1.2630
 5562SOL     OW28147   1.990   2.203  12.971 -0.2394 -0.5251  0.1510
 5562SOL    HW128148   1.963   2.243  13.054 -0.3349  2.0951 -1.1636
 5562SOL    HW228149   1.913   2.151  12.948 -1.3078 -0.0368  2.5724
 5563SOL     OW28150   0.053   3.255  14.685  0.5538  0.0830 -0.1494
 5563SOL    HW128151   0.021   3.304  14.609 -0.9419 -0.7696 -0.0763
 5563SOL    HW228152   0.059   3.333  14.740  0.2345  0.1304 -0.1837
 5564SOL     OW28153   3.730   0.139   5.183 -0.3775  0.4757  0.6725
 5564SOL    HW128154   3.707   0.230   5.201 -1.3426  0.7563 -2.0640
 5564SOL    HW228155   3.643   0.110   5.157  0.6731 -3.0780  1.2017
 5565SOL     OW28156   3.634   1.557   0.568 -0.1670 -0.5672  0.0913
 5565SOL    HW128157   3.712   1.503   0.573  0.1874 -0.1063 -0.4565
 5565SOL    HW228158   3.617   1.565   0.662  0.6770 -0.3921  0.2220
 5566SOL     OW28159   0.787   3.225  16.932 -0.3843  0.1834  0.0825
 5566SOL    HW128160   0.753   3.307  16.896  0.0356 -1.1655 -3.3756
 5566SOL    HW228161   0.866   3.217  16.880 -0.0515  2.1979  0.2951
 5567SOL     OW28162   2.486   0.112   5.773  0.0085 -0.4323  0.0683
 5567SOL    HW128163   2.464   0.144   5.861 -0.5665 -0.8533  0.0810
 5567SOL    HW228164   2.574   0.083   5.798  0.3416  0.1497 -0.4439
 5568SOL     OW28165   2.849   4.339   5.504  0.6666 -0.1816  0.2848
 5568SOL    HW128166   2.769   4.291   5.484  0.3011  0.5459  0.0059
 5568SOL    HW228167   2.873   4.380   5.421  3.0026 -2.2735 -0.0749
 5569SOL     OW28168   3.594   4.508   4.331  0.6209 -0.0911 -0.6370
 5569SOL    HW128169   3.645   4.576   4.375  1.2291 -0.4961 -0.7128
 5569SOL    HW228170   3.650   4.476   4.260  1.6909  1.9563 -0.7013
 5570SOL     OW28171   0.755   0.839   1.145  0.3521  0.1517 -0.0861
 5570SOL    HW128172   0.766   0.810   1.235  0.4768  1.9726  0.4640
 5570SOL    HW228173   0.823   0.801   1.089 -0.5313  0.1640 -1.1703
 5571SOL     OW28174   1.615   1.990  11.271 -0.4028  0.1037  0.5229
 5571SOL    HW128175   1.634   2.031  11.354 -0.3564 -1.3030  1.2160
 5571SOL    HW228176   1.536   1.944  11.300 -2.5114  1.0484 -3.6106
 5572SOL     OW28177   2.467   0.382   2.322 -0.0514  0.0141  0.8843
 5572SOL    HW128178   2.473   0.298   2.366  0.8303 -0.8367 -0.8138
 5572SOL    HW228179   2.499   0.445   2.387 -1.9094  0.0059  1.8053
 5573SOL     OW28180   0.237   4.159  15.487  0.0501 -0.1908  0.3914
 5573SOL    HW128181   0.297   4.166  15.562  1.2076  2.2955 -0.7650
 5573SOL    HW228182   0.283   4.091  15.438  0.3192  1.3103 -1.4446
 5574SOL     OW28183   3.638   4.444   9.322 -0.4775 -0.0917 -0.1839
 5574SOL    HW128184   3.579   4.515   9.348 -1.6710 -1.7310  1.5711
 5574SOL    HW228185   3.715   4.499   9.306 -0.9981  0.5972 -0.3640
 5575SOL     OW28186   1.884   2.934  10.383 -0.0350  0.2864 -0.6116
 5575SOL    HW128187   1.811   2.970  10.434  2.2160  0.6208  2.3762
 5575SOL    HW228188   1.906   2.851  10.426  0.0315  0.8962  0.5246
 5576SOL     OW28189   3.943   2.453   6.572 -0.2445 -0.2636 -0.4555
 5576SOL    HW128190   4.013   2.518   6.564 -2.8354  2.6541  0.4136
 5576SOL    HW228191   3.866   2.505   6.548  0.1644 -0.8965 -3.0827
 5577SOL     OW28192   1.015   0.090   5.849 -0.0558  0.4324 -0.4148
 5577SOL    HW128193   1.001   0.016   5.790 -2.1143  0.4265  0.1060
 5577SOL    HW228194   0.931   0.134   5.842  0.6408  1.6206 -1.2103
 5578SOL     OW28195   0.300   0.426  11.436  0.0613 -0.0921  0.3702
 5578SOL    HW128196   0.369   0.462  11.379  1.3228 -0.7816  1.4528
 5578SOL    HW228197   0.227   0.433  11.375  0.1728  0.1867  0.2637
 5579SOL     OW28198   1.913   3.684  17.587 -0.1646  0.1666  1.1167
 5579SOL    HW128199   1.896   3.774  17.614  2.9854  1.1431 -0.2085
 5579SOL    HW228200   1.888   3.652  17.673 -0.6303  0.4196  1.0775
 5580SOL     OW28201   0.887   1.315  12.410  0.2035 -0.1047 -0.5910
 5580SOL    HW128202   0.940   1.302  12.332  1.3517  0.2912  0.1189
 5580SOL    HW228203   0.878   1.410  12.401  0.8006 -0.0018 -0.1405
 5581SOL     OW28204   2.732   3.465  12.661 -0.1439  0.4412 -0.8190
 5581SOL    HW128205   2.757   3.418  12.741  0.4970  0.6896 -0.8781
 5581SOL    HW228206   2.659   3.415  12.625 -0.8301 -0.5861  1.9961
 5582SOL     OW28207   2.230   1.211   3.331  0.3135  0.0510 -0.4677
 5582SOL    HW128208   2.220   1.301   3.299  1.0414  0.0648 -0.6722
 5582SOL    HW228209   2.323   1.192   3.318 -0.1883 -1.7317 -1.4896
 5583SOL     OW28210   1.380   4.441   9.286  0.0657 -0.2734 -0.4676
 5583SOL    HW128211   1.470   4.445   9.252 -0.9764  0.3512 -3.1566
 5583SOL    HW228212   1.321   4.461   9.214  1.4083 -0.6896 -1.6918
 5584SOL     OW28213   2.132   0.328   8.852 -0.5591  0.4597  0.0165
 5584SOL    HW128214   2.081   0.394   8.806  1.3473  2.4906  0.7779
 5584SOL    HW228215   2.102   0.248   8.809 -0.2089 -0.5404  1.5956
 5585SOL     OW28216   0.184   1.476   3.444 -0.1909  0.6833 -0.1819
 5585SOL    HW128217   0.140   1.543   3.497  0.7742  1.8957 -0.8886
 5585SOL    HW228218   0.154   1.507   3.358 -2.3201 -1.9078 -0.3552
 5586SOL     OW28219   3.713   4.294   0.679 -0.3721 -0.0485 -0.2320
 5586SOL    HW128220   3.748   4.376   0.714 -0.6427 -0.2367  0.4731
 5586SOL    HW228221   3.640   4.279   0.739  0.7013 -0.6948  0.9208
 5587SOL     OW28222   0.854   3.809   2.474 -0.3542 -0.0157  0.3012
 5587SOL    HW128223   0.940   3.779   2.504 -0.3419  0.5253  0.8018
 5587SOL    HW228224   0.808   3.798   2.557 -2.8345  0.3555 -1.0088
 5588SOL     OW28225   1.313   1.636   7.814 -0.0082 -0.5015  0.4963
 5588SOL    HW128226   1.259   1.695   7.866  1.3729  0.7526  0.5104
 5588SOL    HW228227   1.333   1.704   7.750 -1.3662  0.8192  1.4943
 5589SOL     OW28228   2.829   0.382   7.736  0.0963  0.4349  0.3609
 5589SOL    HW128229   2.834   0.443   7.662  1.1362  0.2275  0.2619
 5589SOL    HW228230   2.783   0.307   7.698 -0.4292 -0.1279  2.1309
 5590SOL     OW28231   0.530   4.685   2.295 -0.6835  0.3119 -0.2935
 5590SOL    HW128232   0.532   4.654   2.386 -0.7223 -0.9507 -0.7311
 5590SOL    HW228233   0.557   4.608   2.246 -0.6771  0.1622 -0.0534
 5591SOL     OW28234   0.069   0.099   1.903 -0.5991 -0.0300  0.1053
 5591SOL    HW128235   0.103   0.015   1.935 -0.5028  0.4681  1.3458
 5591SOL    HW228236   0.032   0.129   1.986 -2.9117 -0.4159 -0.8009
 5592SOL     OW28237   2.008   2.725  15.386 -0.0272  0.1778  0.2890
 5592SOL    HW128238   1.992   2.751  15.295  0.0862 -0.2800  0.1357
 5592SOL    HW228239   2.100   2.751  15.398  0.0862 -0.0801  0.0013
 5593SOL     OW28240   0.527   3.691   7.502  0.6226  0.2338  0.3938
 5593SOL    HW128241   0.485   3.776   7.513 -2.0421 -0.7940 -2.0667
 5593SOL    HW228242   0.559   3.677   7.591  1.3003  0.4169  0.1810
 5594SOL     OW28243   0.585   2.717   6.049  0.1254  0.1215  0.4498
 5594SOL    HW128244   0.516   2.718   6.117  0.4856  0.2301  0.8138
 5594SOL    HW228245   0.664   2.725   6.102  1.1511  0.2973 -1.1311
 5595SOL     OW28246   1.526   3.066   5.987  0.2701 -0.0714 -0.3902
 5595SOL    HW128247   1.446   3.060   5.936 -0.3542  0.0664  0.5619
 5595SOL    HW228248   1.560   3.147   5.949 -0.4168  0.3885 -0.0206
 5596SOL     OW28249   3.683   2.050   8.542 -0.0653  0.2794  0.0685
 5596SOL    HW128250   3.636   2.117   8.494 -1.2298  0.0054  0.8336
 5596SOL    HW228251   3.614   2.015   8.599  0.8226 -1.6341 -0.0202
 5597SOL     OW28252   1.645   3.177  13.945  0.2356  0.6605  0.2857
 5597SOL    HW128253   1.581   3.167  13.875 -0.2654 -0.0742  0.8452
 5597SOL    HW228254   1.711   3.229  13.899  0.9518 -0.6338 -0.1823
 5598SOL     OW28255   1.970   4.057   0.845  0.0294  0.0130 -0.1764
 5598SOL    HW128256   2.009   4.129   0.797 -1.0719  1.2684  0.8041
 5598SOL    HW228257   1.964   4.088   0.935 -2.8207  0.5273 -0.5180
 5599SOL     OW28258   1.388   4.311   6.488  0.3720 -0.1693  0.0375
 5599SOL    HW128259   1.406   4.298   6.582 -1.1968  0.6260  0.4438
 5599SOL    HW228260   1.385   4.220   6.458 -1.8140 -1.4397  4.1363
 5600SOL     OW28261   3.763   3.658  16.779 -0.0660 -0.4516 -0.6897
 5600SOL    HW128262   3.737   3.726  16.840  1.3382  0.8152 -1.5006
 5600SOL    HW228263   3.680   3.639  16.738 -0.4833  0.6727 -0.3681
 5601SOL     OW28264   0.483   4.316   7.307 -0.1414  0.5729 -0.5099
 5601SOL    HW128265   0.532   4.364   7.374  0.0204 -0.8027  0.3591
 5601SOL    HW228266   0.491   4.378   7.234 -0.7215  0.8478 -0.3373
 5602SOL     OW28267   4.265   0.086   5.797 -0.5454  0.1665 -0.2694
 5602SOL    HW128268   4.207   0.114   5.868  0.2616 -0.0103  0.4663
 5602SOL    HW228269   4.313   0.168   5.782 -0.0391 -0.3747 -1.5545
 5603SOL     OW28270   0.354   2.874  14.369 -0.0731  0.6956  0.0629
 5603SOL    HW128271   0.342   2.830  14.453  1.4922 -0.5675 -0.3799
 5603SOL    HW228272   0.387   2.956  14.407 -2.3345  1.1861  0.9606
 5604SOL     OW28273   3.729   4.074   9.205  0.1513  0.2582  0.1485
 5604SOL    HW128274   3.696   4.080   9.294  2.7378 -0.5724  1.1359
 5604SOL    HW228275   3.711   4.164   9.175 -1.7802  0.6031  2.3512
 5605SOL     OW28276   1.030   1.433  14.781 -0.8817 -0.0333 -0.0723
 5605SOL    HW128277   0.982   1.489  14.843  0.6471 -0.2082  1.2776
 5605SOL    HW228278   1.070   1.377  14.847 -0.1802 -0.2387 -0.6742
 5606SOL     OW28279   2.857   2.241   6.439 -0.8457 -0.0363  0.5391
 5606SOL    HW128280   2.909   2.223   6.517 -0.6738  1.3178  0.7324
 5606SOL    HW228281   2.904   2.314   6.399 -1.3337 -0.0778 -0.1249
 5607SOL     OW28282   1.877   4.320  14.515 -0.0782 -0.7307  0.3981
 5607SOL    HW128283   1.848   4.304  14.425  0.9559  0.5845 -0.1741
 5607SOL    HW228284   1.804   4.279  14.561 -0.7688 -0.2505 -0.2776
 5608SOL     OW28285   0.913   0.643   2.733 -0.1744 -0.2856 -0.5134
 5608SOL    HW128286   1.004   0.635   2.703 -0.2466  1.9634 -1.3421
 5608SOL    HW228287   0.889   0.552   2.747 -2.5391  0.4280 -0.0083
 5609SOL     OW28288   1.005   0.267   8.362 -0.5293 -0.3387  0.0266
 5609SOL    HW128289   0.912   0.276   8.383 -0.0723  0.9284  1.4945
 5609SOL    HW228290   1.035   0.211   8.434 -1.6559  2.9615  3.0865
 5610SOL     OW28291   0.433   1.559  12.293  0.0532  0.4201 -0.5132
 5610SOL    HW128292   0.434   1.597  12.381 -1.4721 -1.0357  0.1289
 5610SOL    HW228293   0.454   1.634  12.237 -0.8699  1.4543  0.5294
 5611SOL     OW28294   3.984   1.939   4.745 -0.4340 -0.0474 -0.1008
 5611SOL    HW128295   3.936   1.858   4.726 -0.0341 -0.7002  1.6664
 5611SOL    HW228296   3.951   2.006   4.685 -0.0925  0.8619  0.7160
 5612SOL     OW28297   0.929   4.223   0.684 -0.5892  0.2001 -0.4697
 5612SOL    HW128298   0.859   4.167   0.716  0.6749 -0.7650  0.6375
 5612SOL    HW228299   0.962   4.162   0.618  0.0774  0.5544 -0.4699
 5613SOL     OW28300   1.409   1.979   4.648  0.3501  0.1124 -0.2263
 5613SOL    HW128301   1.479   2.043   4.638  0.5922 -0.0595  0.3802
 5613SOL    HW228302   1.416   1.919   4.575 -1.9528  0.5697 -0.8338
 5614SOL     OW28303   3.150   0.560   7.192 -0.6573 -1.0397 -0.0847
 5614SOL    HW128304   3.096   0.576   7.114  2.6980 -1.3709 -2.4537
 5614SOL    HW228305   3.085   0.535   7.258  0.2360 -2.0543  0.4002
 5615SOL     OW28306   1.476   0.193  11.713 -0.1226 -0.0642  0.0184
 5615SOL    HW128307   1.495   0.134  11.640 -1.0363  0.9155 -1.0330
 5615SOL    HW228308   1.515   0.275  11.683 -1.1037 -0.0566 -1.2335
 5616SOL     OW28309   3.776   4.369   1.111 -0.1972 -0.3746 -0.5564
 5616SOL    HW128310   3.757   4.451   1.066 -2.8314 -0.7710 -0.1733
 5616SOL    HW228311   3.777   4.307   1.038  0.3738 -0.6151 -0.3450
 5617SOL     OW28312   4.364   3.447   7.843 -0.0539 -0.3061 -0.0759
 5617SOL    HW128313   4.282   3.418   7.803 -1.1981 -0.2378  2.2512
 5617SOL    HW228314   4.369   3.385   7.915  0.8880 -1.5393 -1.2072
 5618SOL     OW28315   3.832   3.735   8.595  0.1515  0.2393 -0.0536
 5618SOL    HW128316   3.894   3.779   8.537  0.2841 -1.8363 -1.4880
 5618SOL    HW228317   3.859   3.755   8.685  1.2862  0.8522 -0.5321
 5619SOL     OW28318   4.445   2.622  11.105 -0.0529 -0.1863 -0.1703
 5619SOL    HW128319   4.355   2.607  11.076 -0.2216 -0.0453  0.2726
 5619SOL    HW228320   4.451   2.568  11.184  1.7511 -3.1370 -2.3558
 5620SOL     OW28321   3.979   0.655   8.006  0.0501  0.5346 -0.3298
 5620SOL    HW128322   4.060   0.678   8.051  0.3999 -0.0383 -0.6629
 5620SOL    HW228323   4.007   0.676   7.917  1.6871 -1.4356 -0.2863
 5621SOL     OW28324   0.921   0.110  16.274 -0.5916 -0.4477  0.2945
 5621SOL    HW128325   0.869   0.185  16.245  2.8499  2.3436  1.3269
 5621SOL    HW228326   0.925   0.124  16.369 -0.5331  1.0732  0.0594
 5622SOL     OW28327   1.978   2.731   5.584  0.3368  0.1948  0.3466
 5622SOL    HW128328   2.053   2.764   5.534  1.1870  0.3617  1.7302
 5622SOL    HW228329   1.971   2.652   5.530  0.4842 -0.2524  0.9868
 5623SOL     OW28330   0.417   2.996   3.228 -0.4211  0.5346 -0.8604
 5623SOL    HW128331   0.464   3.011   3.146  1.8328 -0.1667  0.2884
 5623SOL    HW228332   0.493   3.018   3.282 -1.1789  0.9698  0.0270
 5624SOL     OW28333   3.418   3.953  16.904  0.1746  0.9454 -0.2414
 5624SOL    HW128334   3.512   3.937  16.915 -0.4653 -0.8806  2.5267
 5624SOL    HW228335   3.389   3.930  16.992 -3.3029 -0.5351 -1.7711
 5625SOL     OW28336   2.874   0.234   6.201 -0.5170 -0.3605 -0.0134
 5625SOL    HW128337   2.914   0.185   6.273  0.1869 -0.7439 -0.6638
 5625SOL    HW228338   2.891   0.176   6.127 -1.4566 -1.4909  0.6665
 5626SOL     OW28339   2.115   3.141   4.667 -0.0215 -0.0218  0.1957
 5626SOL    HW128340   2.132   3.212   4.729 -0.1962  1.9510 -1.9852
 5626SOL    HW228341   2.193   3.122   4.615 -1.3703 -3.2691 -0.6494
 5627SOL     OW28342   1.764   2.397   6.884 -0.0479  0.1928 -0.1047
 5627SOL    HW128343   1.764   2.421   6.791 -1.5311 -0.3390 -0.2382
 5627SOL    HW228344   1.671   2.405   6.909 -0.5819  0.7646 -2.2959
 5628SOL     OW28345   1.746   3.314   2.101  0.0458 -0.3774 -0.5317
 5628SOL    HW128346   1.765   3.349   2.014 -2.6257  0.1910 -0.8803
 5628SOL    HW228347   1.678   3.248   2.083 -0.8317  0.6546 -1.0249
 5629SOL     OW28348   1.568   3.799  13.022  0.1037  0.1266  0.2831
 5629SOL    HW128349   1.589   3.886  13.056 -0.1016  1.1748 -2.2725
 5629SOL    HW228350   1.627   3.796  12.947  0.1658  0.2344  0.3269
 5630SOL     OW28351   2.467   1.699   4.552 -0.3239 -0.6056 -0.0384
 5630SOL    HW128352   2.497   1.764   4.615  0.8712  0.2170 -1.4650
 5630SOL    HW228353   2.522   1.709   4.474  0.2174  0.3929  0.4696
 5631SOL     OW28354   3.208   3.462   0.250 -0.3592  0.3817  0.0388
 5631SOL    HW128355   3.193   3.504   0.335  1.1178  0.1184  0.4350
 5631SOL    HW228356   3.302   3.473   0.238 -0.1791 -1.0525  0.1617
 5632SOL     OW28357   0.585   0.475   5.253  0.2433 -1.1668  0.2161
 5632SOL    HW128358   0.508   0.449   5.202  0.7456  0.0955 -1.1847
 5632SOL    HW228359   0.552   0.558   5.286  2.7581 -0.4341  0.9090
 5633SOL     OW28360   0.345   1.921   5.609 -0.5776 -0.1495 -0.1025
 5633SOL    HW128361   0.316   1.986   5.545  2.1582  0.3618 -0.8554
 5633SOL    HW228362   0.312   1.961   5.689  0.3647 -1.4872  0.9678
 5634SOL     OW28363   2.193   3.821   3.528  0.2066  0.0604 -0.0113
 5634SOL    HW128364   2.259   3.757   3.553  1.5689  1.1014 -0.9219
 5634SOL    HW228365   2.113   3.769   3.541  1.3036 -1.5772  0.1384
 5635SOL     OW28366   3.052   0.618   4.142  0.2302 -0.4741 -0.4270
 5635SOL    HW128367   3.119   0.684   4.125  0.4386 -0.2973  1.1062
 5635SOL    HW228368   3.027   0.648   4.229 -1.1704 -1.3585 -0.5257
 5636SOL     OW28369   3.587   0.745  14.434 -0.2607  0.2745 -0.1479
 5636SOL    HW128370   3.505   0.767  14.478  0.3757 -0.2169  1.2828
 5636SOL    HW228371   3.557   0.760  14.344  0.3149 -1.7332 -0.6722
 5637SOL     OW28372   3.343   4.617  12.652  0.7213  0.4395 -0.6687
 5637SOL    HW128373   3.355   4.644  12.561  1.6265  1.3624 -0.2734
 5637SOL    HW228374   3.378   4.529  12.668 -4.4347 -1.7159 -1.3887
 5638SOL     OW28375   0.177   4.702   7.303 -0.2062 -0.0361  0.2925
 5638SOL    HW128376   0.168   4.608   7.287 -0.6188  0.3227 -1.6078
 5638SOL    HW228377   0.244   0.004   7.238  0.7242 -1.1162  0.9053
 5639SOL     OW28378   3.433   4.322   2.609 -0.4516 -0.2888 -0.8975
 5639SOL    HW128379   3.374   4.384   2.652  0.1555  0.3499 -0.9914
 5639SOL    HW228380   3.492   4.384   2.567 -1.4344  0.1483 -1.6442
 5640SOL     OW28381   0.579   2.641  10.023  0.7816  0.1636 -0.5210
 5640SOL    HW128382   0.650   2.602  10.073  0.5976 -1.3290 -1.4289
 5640SOL    HW228383   0.542   2.705  10.084 -0.4465 -1.0100 -0.0393
 5641SOL     OW28384   4.518   2.651  14.320 -0.1544 -0.2054 -0.1040
 5641SOL    HW128385   4.427   2.672  14.341  0.2640  1.7958 -0.3441
 5641SOL    HW228386   4.514   2.556  14.307 -1.6126  0.1185 -2.0807
 5642SOL     OW28387   0.208   4.584   8.844 -0.3468  0.1796  0.0186
 5642SOL    HW128388   0.267   4.570   8.918  1.0997 -3.3406 -1.8017
 5642SOL    HW228389   0.263   4.556   8.771  1.5155  2.8517  0.4205
 5643SOL     OW28390   3.928   2.187  10.479  0.2171  0.0315  0.0375
 5643SOL    HW128391   3.913   2.187  10.385 -2.5369 -2.3431  0.4925
 5643SOL    HW228392   3.994   2.118  10.488 -0.4516 -0.7333 -0.9143
 5644SOL     OW28393   1.231   3.352   5.908 -0.3376 -0.1906  0.5575
 5644SOL    HW128394   1.265   3.347   5.819 -5.1383  0.9507 -1.3281
 5644SOL    HW228395   1.163   3.284   5.904  1.3889 -1.7532 -1.9694
 5645SOL     OW28396   3.510   1.640   2.012  0.4039  0.3510 -0.1192
 5645SOL    HW128397   3.416   1.650   2.030  0.2344  0.0364 -0.8024
 5645SOL    HW228398   3.519   1.550   2.041 -0.3566  0.6403  0.9922
 5646SOL     OW28399   3.212   2.812  15.191  0.3896  0.5478  0.4052
 5646SOL    HW128400   3.228   2.746  15.123  1.1190  0.0154  1.0938
 5646SOL    HW228401   3.153   2.765  15.250  2.0012 -1.3345  0.5450
 5647SOL     OW28402   1.117   1.458   3.291 -0.0409 -0.1705  0.1706
 5647SOL    HW128403   1.166   1.511   3.353 -1.8181 -1.5388  2.7502
 5647SOL    HW228404   1.041   1.511   3.269 -0.3486 -0.9739 -0.7163
 5648SOL     OW28405   4.296   3.059  12.057 -0.1999  0.3090  0.4261
 5648SOL    HW128406   4.270   3.004  12.131 -1.7260  0.9550  0.3760
 5648SOL    HW228407   4.391   3.046  12.064  0.0924  1.6878 -0.8920
 5649SOL     OW28408   4.705   3.648   7.485  0.4444 -0.1611  0.6697
 5649SOL    HW128409   0.024   3.643   7.398 -0.5494 -1.1389  0.2761
 5649SOL    HW228410   4.618   3.613   7.466 -0.6951  2.4689  1.1182
 5650SOL     OW28411   2.824   4.387  13.077  0.2712 -0.0240  0.1185
 5650SOL    HW128412   2.897   4.326  13.089 -0.0437 -0.6870 -1.3927
 5650SOL    HW228413   2.774   4.345  13.008 -1.2967  1.4297  0.3572
 5651SOL     OW28414   3.739   2.656  16.190  0.4761 -0.0980 -0.1013
 5651SOL    HW128415   3.650   2.626  16.170  0.7404 -2.2144  2.0125
 5651SOL    HW228416   3.789   2.598  16.133  1.7692  1.2486 -0.3365
 5652SOL     OW28417   2.466   1.061   4.473 -0.2956  0.1282  0.4134
 5652SOL    HW128418   2.532   1.090   4.536  0.3827  2.8736 -1.5915
 5652SOL    HW228419   2.391   1.039   4.529 -0.9359 -2.7391 -1.5599
 5653SOL     OW28420   2.034   0.427   1.118 -0.0567  0.3405  0.3171
 5653SOL    HW128421   1.971   0.355   1.120 -0.1393  0.3601 -1.3457
 5653SOL    HW228422   1.975   0.501   1.099 -2.1536 -1.3908  0.1274
 5654SOL     OW28423   3.720   0.543   3.687 -0.7907 -0.1115 -0.0220
 5654SOL    HW128424   3.786   0.521   3.622 -1.1048  2.7916 -1.3250
 5654SOL    HW228425   3.740   0.470   3.745  1.0489  0.8388  0.5078
 5655SOL     OW28426   2.220   3.899   5.905  0.1566  0.1979  0.2221
 5655SOL    HW128427   2.247   3.876   5.816  1.3990  0.4102  0.5468
 5655SOL    HW228428   2.147   3.959   5.891 -1.0723 -1.3361  0.0612
 5656SOL     OW28429   4.109   2.975  10.936  0.1364  0.1659 -0.2884
 5656SOL    HW128430   4.032   3.031  10.949 -0.0750 -0.1154 -0.3352
 5656SOL    HW228431   4.178   3.039  10.954 -0.1432  0.3195  0.2368
 5657SOL     OW28432   2.981   2.789   0.888  0.0516 -0.0680 -0.1889
 5657SOL    HW128433   2.922   2.714   0.884 -0.4945  0.2819  1.2140
 5657SOL    HW228434   2.927   2.859   0.852 -1.8690 -1.1936  0.5339
 5658SOL     OW28435   2.553   0.719   3.849 -0.2253  0.8819  0.1879
 5658SOL    HW128436   2.552   0.627   3.877  0.9202  0.6554 -0.4937
 5658SOL    HW228437   2.463   0.740   3.874  0.7180  2.0050  2.6668
 5659SOL     OW28438   1.800   1.739   0.135  0.6218 -0.4192  0.3244
 5659SOL    HW128439   1.887   1.700   0.124  0.9166 -0.0254  1.2321
 5659SOL    HW228440   1.759   1.688   0.205  0.2955  0.0255  0.4558
 5660SOL     OW28441   2.592   4.357  10.058 -0.3788  0.6305  0.9005
 5660SOL    HW128442   2.528   4.428  10.054 -3.1862 -1.8203  2.2496
 5660SOL    HW228443   2.597   4.341  10.152  0.4058 -1.3967  0.5161
 5661SOL     OW28444   1.295   1.629  11.174 -0.2437 -0.6488 -0.2049
 5661SOL    HW128445   1.200   1.629  11.183 -0.2586 -0.2155 -0.3725
 5661SOL    HW228446   1.306   1.571  11.099  0.6493 -0.7389 -0.0082
 5662SOL     OW28447   1.975   4.146   4.276  0.2285 -0.3591 -0.3787
 5662SOL    HW128448   1.958   4.240   4.275  2.5270  0.0598 -0.2525
 5662SOL    HW228449   2.011   4.123   4.190 -1.4264 -1.3033 -0.8203
 5663SOL     OW28450   2.919   0.676   6.017 -0.1581  0.5622  0.5299
 5663SOL    HW128451   2.963   0.610   6.071  0.2061  1.3399  1.1867
 5663SOL    HW228452   2.991   0.733   5.991 -0.3760  1.5419  2.0390
 5664SOL     OW28453   4.670   2.145  10.813 -0.3752  0.3278  0.2183
 5664SOL    HW128454   4.602   2.210  10.834 -1.0380 -1.4176  3.4295
 5664SOL    HW228455   0.026   2.187  10.852 -0.1018 -0.9234  1.0365
 5665SOL     OW28456   4.258   2.760  10.801  0.1438  0.0470 -0.1208
 5665SOL    HW128457   4.319   2.804  10.741  0.4915 -0.7726 -0.3602
 5665SOL    HW228458   4.251   2.824  10.871  0.2288  1.8866 -1.7742
 5666SOL     OW28459   1.224   4.612  11.446 -0.0069 -0.3760  0.3386
 5666SOL    HW128460   1.175   4.533  11.467  1.0295 -0.9490  0.6180
 5666SOL    HW228461   1.203   4.680  11.510  1.0577 -1.7275  2.1152
 5667SOL     OW28462   0.756   3.550  10.749  0.1880  0.0564  0.1466
 5667SOL    HW128463   0.772   3.575  10.658  0.5827  0.9408  0.4584
 5667SOL    HW228464   0.723   3.461  10.744 -1.7173  0.6326  2.7924
 5668SOL     OW28465   1.407   4.381  17.106 -0.2342  0.5003  1.1850
 5668SOL    HW128466   1.375   4.336  17.028 -0.1633  2.0641  0.2450
 5668SOL    HW228467   1.489   4.421  17.077 -0.5753 -0.6496 -1.4066
 5669SOL     OW28468   0.346   3.552   4.448  0.5196 -0.7023  0.0014
 5669SOL    HW128469   0.283   3.623   4.435  2.8104  1.1245 -1.1148
 5669SOL    HW228470   0.303   3.497   4.513  0.4067  0.8714  1.2328
 5670SOL     OW28471   1.321   3.050   5.809  0.5158  0.1668  0.2428
 5670SOL    HW128472   1.294   3.092   5.728 -0.7749 -0.4146  0.3749
 5670SOL    HW228473   1.244   2.997   5.826 -1.5037  2.9931 -0.0987
 5671SOL     OW28474   2.520   3.308   5.498  0.3583 -0.1077  0.2597
 5671SOL    HW128475   2.499   3.225   5.457 -1.7810  0.6070 -0.0931
 5671SOL    HW228476   2.606   3.298   5.539  0.8699 -0.4176 -0.8829
 5672SOL     OW28477   4.408   2.413   5.785  0.2849  0.1376  0.5092
 5672SOL    HW128478   4.349   2.365   5.843 -0.5088 -0.1448 -0.5087
 5672SOL    HW228479   4.403   2.495   5.832 -2.5211 -0.0496  0.5304
 5673SOL     OW28480   0.062   2.727   6.489 -0.8128  0.1933 -0.2157
 5673SOL    HW128481   0.087   2.668   6.561 -2.7615 -0.3768  0.0083
 5673SOL    HW228482   0.041   2.806   6.538 -2.5663 -0.0490 -0.5507
 5674SOL     OW28483   2.501   0.100   4.372 -0.6652  0.1372 -0.0792
 5674SOL    HW128484   2.448   0.180   4.375 -1.8538 -0.7129  1.3748
 5674SOL    HW228485   2.473   0.070   4.285 -0.3253 -1.4302  0.3457
 5675SOL     OW28486   1.115   0.094  11.948  0.7114 -0.1663 -0.0345
 5675SOL    HW128487   1.041   0.153  11.957  1.1935  0.0764  2.3081
 5675SOL    HW228488   1.190   0.148  11.975  0.3985 -0.1105  0.7289
 5676SOL     OW28489   2.392   1.585   7.945  0.2237 -0.3930  0.1951
 5676SOL    HW128490   2.404   1.678   7.924 -1.3293 -0.2288  0.0899
 5676SOL    HW228491   2.299   1.573   7.926 -0.0166 -0.5157  1.4518
 5677SOL     OW28492   1.494   3.215   3.109  0.4385  0.7545 -0.2969
 5677SOL    HW128493   1.519   3.299   3.147  1.6747  0.9156 -1.4598
 5677SOL    HW228494   1.398   3.217   3.116  0.4747  1.4488 -0.0396
 5678SOL     OW28495   3.286   2.437   3.658  0.0909 -0.1594  0.0139
 5678SOL    HW128496   3.258   2.514   3.608  1.4143  0.5332  0.3406
 5678SOL    HW228497   3.214   2.377   3.641 -0.4247  0.8449 -1.4132
 5679SOL     OW28498   3.436   4.036   7.097  0.1273  0.2230  0.0362
 5679SOL    HW128499   3.529   4.048   7.119  0.1481 -0.7199  0.4702
 5679SOL    HW228500   3.409   3.974   7.164  0.9781 -1.2492 -0.9907
 5680SOL     OW28501   4.285   1.412   0.518 -0.1317  0.2514  0.2407
 5680SOL    HW128502   4.309   1.361   0.595  1.5172  0.4550 -0.1424
 5680SOL    HW228503   4.277   1.496   0.564  2.2469  0.1141  0.9197
 5681SOL     OW28504   4.476   0.566   4.933  0.0513  0.2487  0.5109
 5681SOL    HW128505   4.468   0.492   4.993  1.3425 -1.0789 -0.9668
 5681SOL    HW228506   4.389   0.561   4.894  0.8274  0.4674 -1.2239
 5682SOL     OW28507   3.835   1.582   9.173  0.4903 -0.2052  0.2115
 5682SOL    HW128508   3.839   1.548   9.262  0.4812  3.2094  1.4982
 5682SOL    HW228509   3.927   1.571   9.150  0.7233  0.3781  0.8729
 5683SOL     OW28510   3.065   0.650   4.478 -0.1267  0.1775  0.2851
 5683SOL    HW128511   2.994   0.586   4.481  0.0863 -0.1072 -1.1540
 5683SOL    HW228512   3.078   0.669   4.571  1.1471 -1.6817  0.4815
 5684SOL     OW28513   0.501   2.416  11.521  0.4701 -0.2921 -0.0234
 5684SOL    HW128514   0.416   2.443  11.555  0.3495  0.2363 -0.7436
 5684SOL    HW228515   0.466   2.353  11.458  1.1887 -1.0275  0.3113
 5685SOL     OW28516   2.173   4.348   0.574 -0.2586  0.0463  0.2214
 5685SOL    HW128517   2.080   4.367   0.585 -0.3385  0.0745 -0.4671
 5685SOL    HW228518   2.197   4.329   0.664  1.7340 -0.0581 -0.3249
 5686SOL     OW28519   4.206   3.368   5.100 -0.1872 -0.1364 -0.1897
 5686SOL    HW128520   4.195   3.391   5.008 -2.5060 -0.6715 -0.0428
 5686SOL    HW228521   4.127   3.396   5.146  0.4384  2.7678 -0.8455
 5687SOL     OW28522   4.240   4.301   4.080 -0.2017  0.1265  0.2363
 5687SOL    HW128523   4.289   4.381   4.063 -2.0213  1.5239  1.5897
 5687SOL    HW228524   4.311   4.238   4.069 -1.5873 -1.6648  1.5376
 5688SOL     OW28525   0.052   2.206   4.317  0.6179  0.6986 -0.2638
 5688SOL    HW128526   0.057   2.259   4.238  0.9733  0.5505 -0.3393
 5688SOL    HW228527   0.121   2.252   4.366 -1.1302  0.8252  2.0821
 5689SOL     OW28528   3.129   1.100   6.804 -0.3922 -0.0346  0.2977
 5689SOL    HW128529   3.091   1.131   6.722 -1.7292  1.5855  1.5126
 5689SOL    HW228530   3.161   1.013   6.780 -1.6682 -0.5083  0.3151
 5690SOL     OW28531   2.245   1.527   4.534 -0.2017  0.4331  0.1920
 5690SOL    HW128532   2.268   1.463   4.601 -0.2760  0.5936  0.3711
 5690SOL    HW228533   2.317   1.588   4.549 -0.3349  0.5094  0.5131
 5691SOL     OW28534   1.626   4.440   8.574 -0.2302 -0.6290  0.9124
 5691SOL    HW128535   1.575   4.363   8.551 -3.3247  1.7084 -0.0615
 5691SOL    HW228536   1.681   4.457   8.497 -1.5698 -0.9983 -0.1239
 5692SOL     OW28537   2.072   4.304   7.231 -0.6659  0.0395 -0.4570
 5692SOL    HW128538   2.114   4.270   7.309 -0.2228  0.3260 -0.5735
 5692SOL    HW228539   2.017   4.227   7.220 -2.0925  0.6589  2.4690
 5693SOL     OW28540   0.853   2.369  11.117  0.1514  0.0698 -0.6410
 5693SOL    HW128541   0.824   2.363  11.208 -2.9333 -0.6167 -1.6574
 5693SOL    HW228542   0.906   2.448  11.127  1.3511 -0.4404 -2.9507
 5694SOL     OW28543   4.467   4.392   0.890 -0.5338  0.0206 -0.6139
 5694SOL    HW128544   4.381   4.372   0.854 -0.1803 -2.2768 -0.1288
 5694SOL    HW228545   4.453   4.474   0.937 -0.4271  0.8862 -2.0619
 5695SOL     OW28546   0.512   4.058   2.986 -1.0194  0.2251  0.6592
 5695SOL    HW128547   0.521   4.153   2.995 -2.4128  0.2781  1.4515
 5695SOL    HW228548   0.437   4.027   3.036 -0.4155 -0.2411  1.2778
 5696SOL     OW28549   1.461   3.112   0.437  0.0026 -0.6253 -0.3199
 5696SOL    HW128550   1.464   3.125   0.532 -1.3553 -1.1463 -0.1979
 5696SOL    HW228551   1.551   3.123   0.406 -0.2504  1.6910 -0.2801
 5697SOL     OW28552   4.044   4.280   3.807  0.0799 -0.6292 -0.2289
 5697SOL    HW128553   4.120   4.284   3.749  0.2964  0.5996  0.1574
 5697SOL    HW228554   4.008   4.191   3.802  1.0917 -0.9009 -2.8287
 5698SOL     OW28555   0.335   4.476   0.031  0.2357  0.6116  0.2613
 5698SOL    HW128556   0.264   4.425  17.676 -0.4426  1.1485  0.8209
 5698SOL    HW228557   0.315   4.467   0.124  4.5497  1.5008  1.2905
 5699SOL     OW28558   1.504   2.839   1.188 -0.4502 -0.2348 -0.2024
 5699SOL    HW128559   1.440   2.774   1.217  0.1004  0.1687  1.9000
 5699SOL    HW228560   1.576   2.789   1.150  0.1537  1.6153 -1.4728
 5700SOL     OW28561   4.144   0.892   0.958  0.3882  0.0780 -0.2242
 5700SOL    HW128562   4.113   0.802   0.964  2.0956 -0.4067  1.1424
 5700SOL    HW228563   4.096   0.935   1.029 -1.0694 -0.2679 -1.0024
 5701SOL     OW28564   3.144   2.392   0.476 -0.4336 -0.0230  0.1704
 5701SOL    HW128565   3.053   2.370   0.495 -0.3923  0.1381  0.5580
 5701SOL    HW228566   3.173   2.312   0.432  3.5960  0.7571  1.4058
 5702SOL     OW28567   3.179   0.072   3.648  0.1102  0.3320 -0.1186
 5702SOL    HW128568   3.242   0.138   3.677  0.8333 -0.0067 -0.9308
 5702SOL    HW228569   3.177   0.074   3.552  0.4646  1.3608 -0.1107
 5703SOL     OW28570   4.067   2.888  11.978 -0.0951 -0.0778  0.3389
 5703SOL    HW128571   4.098   2.899  12.068 -1.0866 -0.9866  0.7897
 5703SOL    HW228572   4.138   2.834  11.944 -1.8052 -0.4533 -2.6474
 5704SOL     OW28573   4.401   3.367  10.796 -0.0069  0.1847 -0.2496
 5704SOL    HW128574   4.492   3.378  10.823  0.0366  2.8117 -1.4989
 5704SOL    HW228575   4.411   3.283  10.752  0.8422 -0.6785  1.5660
 5705SOL     OW28576   1.122   3.283   2.932  0.2772 -0.3871  0.1261
 5705SOL    HW128577   1.152   3.372   2.914 -1.7804 -0.1948 -2.4180
 5705SOL    HW228578   1.132   3.267   3.026 -0.6385  1.4830  0.5385
 5706SOL     OW28579   0.122   2.525   4.949 -0.0328  0.2629  0.4019
 5706SOL    HW128580   0.040   2.546   4.903 -0.4136 -0.5823  0.6994
 5706SOL    HW228581   0.177   2.592   4.907 -0.6868 -1.1776 -2.7272
 5707SOL     OW28582   3.144   3.644   6.658  0.0582 -0.0892  0.3199
 5707SOL    HW128583   3.097   3.629   6.576  1.6403  0.4783 -0.7151
 5707SOL    HW228584   3.159   3.554   6.687 -0.7340 -0.2878  0.0913
 5708SOL     OW28585   3.889   4.537   9.961 -0.0448  0.7978  0.7385
 5708SOL    HW128586   3.919   4.527  10.052  0.4441 -0.0503  0.4786
 5708SOL    HW228587   3.797   4.555   9.983  0.3252  3.5041  0.1266
 5709SOL     OW28588   3.786   3.630  11.489 -0.0208 -0.1064  0.6266
 5709SOL    HW128589   3.701   3.592  11.510  0.7815 -0.8582  2.4282
 5709SOL    HW228590   3.838   3.616  11.568  0.7299  2.5547  0.6205
 5710SOL     OW28591   3.906   2.923   7.175  0.3537 -0.1645  0.7926
 5710SOL    HW128592   3.889   2.851   7.114  0.1559  0.8501 -0.3800
 5710SOL    HW228593   3.826   2.973   7.155  2.1655  2.1975 -0.5768
 5711SOL     OW28594   2.383   0.065   5.313  0.8204  0.1708 -0.0624
 5711SOL    HW128595   2.369   0.018   5.395 -1.8527  1.2116  0.0564
 5711SOL    HW228596   2.469   0.102   5.330  1.5164 -0.9153 -1.1253
 5712SOL     OW28597   3.593   3.729  10.492 -0.6562  0.1153  0.5962
 5712SOL    HW128598   3.529   3.774  10.547 -0.2862 -0.5556  1.5619
 5712SOL    HW228599   3.601   3.641  10.527  0.0947 -0.0905 -0.0947
 5713SOL     OW28600   0.500   0.511   5.609  0.2106  0.2482  0.5063
 5713SOL    HW128601   0.464   0.544   5.527 -3.3432 -1.3557  1.4480
 5713SOL    HW228602   0.587   0.552   5.604  0.7274 -1.1345 -1.8728
 5714SOL     OW28603   0.122   0.211   6.831  0.0388  0.2959  0.0892
 5714SOL    HW128604   0.176   0.133   6.842  0.7068  0.7199 -0.2216
 5714SOL    HW228605   0.133   0.252   6.746  1.8161 -0.4017 -0.0096
 5715SOL     OW28606   4.571   1.161  16.972  0.0194  0.2570  0.9337
 5715SOL    HW128607   4.628   1.121  17.037  0.5985  0.5311  0.5908
 5715SOL    HW228608   4.629   1.189  16.901  0.2491 -2.0597  0.2353
 5716SOL     OW28609   0.989   3.510  13.900  0.1580 -0.0098  0.1194
 5716SOL    HW128610   1.077   3.472  13.901  0.4355  0.6371  0.5039
 5716SOL    HW228611   0.955   3.462  13.974 -0.4428  0.1386 -0.0628
 5717SOL     OW28612   0.834   3.742   0.920  0.5643  0.5724 -0.2439
 5717SOL    HW128613   0.782   3.663   0.937 -0.5101  1.1173 -0.9332
 5717SOL    HW228614   0.824   3.754   0.825  1.7241  2.9826 -0.0692
 5718SOL     OW28615   0.654   2.985  13.968 -0.7228  0.1026  0.3388
 5718SOL    HW128616   0.628   3.018  14.054 -2.1180 -0.7033  0.2282
 5718SOL    HW228617   0.699   2.908  14.001 -2.1123 -1.0403 -0.4029
 5719SOL     OW28618   0.679   2.177   0.487 -0.3944  0.4144  0.3105
 5719SOL    HW128619   0.706   2.111   0.423  0.0465  0.4402  0.4701
 5719SOL    HW228620   0.736   2.252   0.473  0.6757 -0.6675 -0.9636
 5720SOL     OW28621   0.552   0.212   8.576  0.5724 -0.0431  0.1386
 5720SOL    HW128622   0.480   0.249   8.524  0.5284  0.6956  0.7401
 5720SOL    HW228623   0.569   0.123   8.545 -0.4386 -1.9648  5.0695
 5721SOL     OW28624   1.992   2.820   8.645  0.0296 -0.0877  0.7290
 5721SOL    HW128625   1.910   2.788   8.684  0.2809 -1.4843  0.1069
 5721SOL    HW228626   2.055   2.772   8.699  0.9423 -1.0600 -1.1733
 5722SOL     OW28627   1.830   2.820   4.934  0.2513 -0.0225 -0.1920
 5722SOL    HW128628   1.814   2.845   4.843 -1.1048 -2.2972 -0.5852
 5722SOL    HW228629   1.783   2.885   4.986 -0.7823  0.0102 -1.1709
 5723SOL     OW28630   3.976   1.970   7.669 -0.7361  0.0530 -0.1155
 5723SOL    HW128631   3.932   2.036   7.723  0.4888 -0.3469  1.3833
 5723SOL    HW228632   3.937   1.992   7.585 -0.5748  0.3580 -0.1098
 5724SOL     OW28633   2.486   4.424  15.247 -0.8275  0.3204 -0.3656
 5724SOL    HW128634   2.492   4.519  15.239  1.0242  0.1571 -1.0470
 5724SOL    HW228635   2.500   4.396  15.157  0.5710 -1.9690  0.5642
 5725SOL     OW28636   4.113   1.782   7.778 -0.2126 -0.1801  0.5145
 5725SOL    HW128637   4.060   1.843   7.728 -0.3034 -0.7458 -0.0731
 5725SOL    HW228638   4.045   1.720   7.803 -1.6436  1.4502  0.6657
 5726SOL     OW28639   1.825   4.058   2.545 -0.1659 -0.4552 -0.0942
 5726SOL    HW128640   1.786   4.141   2.574  2.0917  0.3039  0.7513
 5726SOL    HW228641   1.900   4.088   2.494 -1.4004 -1.6343 -2.6124
 5727SOL     OW28642   3.272   4.192  16.793 -0.2843  0.3301  0.5524
 5727SOL    HW128643   3.307   4.265  16.844 -1.4735 -1.4606  3.9604
 5727SOL    HW228644   3.311   4.112  16.829  0.3653  1.1789  1.7308
 5728SOL     OW28645   3.192   1.340  14.818  0.5392 -0.1974  0.2323
 5728SOL    HW128646   3.258   1.380  14.874  0.5998 -0.6701  0.4916
 5728SOL    HW228647   3.106   1.354  14.859 -0.6784  1.1050 -2.7158
 5729SOL     OW28648   0.147   0.224  16.037 -0.3729 -0.2039  0.1011
 5729SOL    HW128649   0.180   0.286  16.102  0.8789  2.8074 -3.4102
 5729SOL    HW228650   0.226   0.205  15.986 -0.0677  1.0805  0.0964
 5730SOL     OW28651   3.862   4.153  11.265  0.4791  0.0141  0.5662
 5730SOL    HW128652   3.779   4.202  11.257 -0.4241 -1.1580  2.8832
 5730SOL    HW228653   3.932   4.217  11.270  0.7812 -0.1725 -1.3103
 5731SOL     OW28654   1.424   3.006  15.373 -0.1865 -0.4419  0.2294
 5731SOL    HW128655   1.358   2.936  15.369 -0.9641  0.2718  0.4629
 5731SOL    HW228656   1.469   2.984  15.455  0.3001 -0.0535  0.0669
 5732SOL     OW28657   0.189   3.259   8.235  0.5742  0.2249  0.2893
 5732SOL    HW128658   0.234   3.287   8.155  0.8209 -0.2777  0.2526
 5732SOL    HW228659   0.168   3.168   8.213  1.5610  0.3849 -1.2845
 5733SOL     OW28660   0.963   2.537  16.570  0.3691 -0.5765 -0.0028
 5733SOL    HW128661   0.903   2.462  16.579  2.3262 -2.0986  0.4743
 5733SOL    HW228662   0.954   2.559  16.663 -1.2672  0.8629 -0.5132
 5734SOL     OW28663   3.082   2.718   8.573  0.4037 -0.1780 -0.3113
 5734SOL    HW128664   3.048   2.770   8.646 -1.0393 -1.1762 -0.2837
 5734SOL    HW228665   3.120   2.642   8.618  0.9365  0.4519  0.3075
 5735SOL     OW28666   4.656   3.584  16.336  0.1401 -0.5710 -0.3141
 5735SOL    HW128667   0.006   3.640  16.303 -0.6569  1.0279  0.6835
 5735SOL    HW228668   4.585   3.599  16.273 -0.6620  0.7870  0.8957
 5736SOL     OW28669   2.154   4.383   4.923  0.6779  0.2118 -0.3001
 5736SOL    HW128670   2.171   4.311   4.863 -0.4153  0.2161 -0.6230
 5736SOL    HW228671   2.140   4.456   4.862 -0.8898 -0.2934 -0.5325
 5737SOL     OW28672   2.938   0.033   7.128  0.2233 -0.9122 -0.0516
 5737SOL    HW128673   2.935   0.020   7.223 -0.9047  2.3109  0.3644
 5737SOL    HW228674   2.938   0.127   7.109  2.6421 -1.7206 -3.9435
 5738SOL     OW28675   1.393   2.850  10.670 -0.2616 -0.4270 -0.0345
 5738SOL    HW128676   1.338   2.792  10.723 -1.7211 -0.6696 -1.8000
 5738SOL    HW228677   1.357   2.936  10.693  0.9947  0.1299 -0.1451
 5739SOL     OW28678   0.314   0.830  13.182 -0.3393 -0.2793  0.5540
 5739SOL    HW128679   0.264   0.782  13.116 -1.0481 -0.3287  1.1277
 5739SOL    HW228680   0.394   0.857  13.136  0.4088  1.2845  2.7533
 5740SOL     OW28681   1.167   4.046   9.414 -0.0144 -0.7069 -0.2705
 5740SOL    HW128682   1.249   4.094   9.405 -0.8197 -0.0246 -3.9620
 5740SOL    HW228683   1.131   4.071   9.499 -0.3796  0.8501 -0.8916
 5741SOL     OW28684   4.126   4.344   6.464  0.3244  0.4112 -0.7272
 5741SOL    HW128685   4.069   4.279   6.504 -0.9409  0.8201 -1.8494
 5741SOL    HW228686   4.063   4.409   6.433 -0.3103  1.3546  2.6017
 5742SOL     OW28687   4.497   1.768   6.308 -0.4798 -0.3753  0.2480
 5742SOL    HW128688   4.408   1.733   6.304 -0.5145 -0.2524 -0.0687
 5742SOL    HW228689   4.497   1.777   6.403 -0.8499  0.3399  0.1815
 5743SOL     OW28690   0.929   4.275   9.375 -0.5623 -0.4895  0.0197
 5743SOL    HW128691   0.840   4.297   9.348 -0.5073 -0.0826  0.1809
 5743SOL    HW228692   0.965   4.245   9.291  1.4413  1.1746  0.2930
 5744SOL     OW28693   0.691   4.063   4.785 -0.7471  0.2011  0.2960
 5744SOL    HW128694   0.686   4.024   4.872  0.9424 -0.1582  0.2397
 5744SOL    HW228695   0.656   3.989   4.736 -2.4815  2.5396 -1.9527
 5745SOL     OW28696   2.502   2.042   8.185 -0.5360 -0.2693  0.2837
 5745SOL    HW128697   2.573   1.979   8.196 -1.3807 -1.3765 -0.5881
 5745SOL    HW228698   2.521   2.107   8.253 -0.9515  2.0818 -1.8544
 5746SOL     OW28699   0.692   2.533  14.597  0.4754 -0.1782  0.1728
 5746SOL    HW128700   0.697   2.622  14.563 -1.3131 -0.4544 -0.8411
 5746SOL    HW228701   0.670   2.483  14.518  2.5388 -0.3100 -0.3214
 5747SOL     OW28702   2.400   0.463   3.778  0.2344 -0.2234  0.7160
 5747SOL    HW128703   2.446   0.401   3.834  1.5464 -0.8239 -1.0177
 5747SOL    HW228704   2.425   0.433   3.690 -1.0393  1.8403 -0.3680
 5748SOL     OW28705   1.323   2.160  16.810 -0.8535  0.1878  0.5753
 5748SOL    HW128706   1.274   2.154  16.728  1.0879  0.6866 -0.6180
 5748SOL    HW228707   1.259   2.127  16.873 -2.3407 -1.1676 -1.6151
 5749SOL     OW28708   2.483   4.152   7.189 -0.0320  0.2106  0.0483
 5749SOL    HW128709   2.512   4.097   7.262  3.4263  0.8105 -0.9135
 5749SOL    HW228710   2.558   4.143   7.131 -0.0633  0.7822 -0.0783
 5750SOL     OW28711   0.708   2.312   4.033 -0.2305 -0.7885  1.0578
 5750SOL    HW128712   0.632   2.317   3.975  0.0283 -2.7701  0.5187
 5750SOL    HW228713   0.673   2.274   4.114 -3.4375  0.4084  0.2272
 5751SOL     OW28714   0.352   2.131   4.165 -0.0359 -0.3621  0.1704
 5751SOL    HW128715   0.413   2.070   4.125  0.1613 -0.4141  0.5499
 5751SOL    HW228716   0.341   2.198   4.097  1.3648 -0.0204  0.2815
 5752SOL     OW28717   2.909   0.442   4.513  0.0185  0.4922  0.1235
 5752SOL    HW128718   2.857   0.396   4.446  0.4358 -0.5212  0.5033
 5752SOL    HW228719   2.889   0.382   4.584 -1.2823 -0.2301 -0.8440
 5753SOL     OW28720   1.634   1.578  11.155  0.0665  0.5586 -0.4744
 5753SOL    HW128721   1.703   1.579  11.221  0.0872  0.0350 -0.4866
 5753SOL    HW228722   1.695   1.587  11.082 -0.7858  1.9271 -1.0160
 5754SOL     OW28723   4.470   4.280   3.928  0.1624  0.1154 -0.4441
 5754SOL    HW128724   4.553   4.236   3.908 -0.6407 -1.2020 -0.8581
 5754SOL    HW228725   4.415   4.209   3.896 -1.7367  1.7781 -0.8994
 5755SOL     OW28726   3.646   2.607   0.511  0.0523 -0.1026  0.1562
 5755SOL    HW128727   3.574   2.555   0.547  0.1728  0.2967  0.9723
 5755SOL    HW228728   3.593   2.670   0.462  1.0035 -0.2455 -1.0825
 5756SOL     OW28729   4.191   0.056   6.187  0.5537 -0.5461  0.0917
 5756SOL    HW128730   4.187   0.058   6.283  0.3110  2.3470  0.0091
 5756SOL    HW228731   4.115   4.720   6.175  1.1400 -1.8334  2.2203
 5757SOL     OW28732   3.663   2.404   6.001  0.2465  0.1499  0.1716
 5757SOL    HW128733   3.612   2.408   5.920 -0.6669 -2.5544  0.5984
 5757SOL    HW228734   3.703   2.490   6.009 -1.5600  1.0597 -0.5951
 5758SOL     OW28735   2.704   1.554   6.311  0.7074  0.5845 -0.9309
 5758SOL    HW128736   2.656   1.480   6.348 -1.3190  1.8213 -1.0960
 5758SOL    HW228737   2.791   1.517   6.294  0.3113 -0.9498  0.4032
 5759SOL     OW28738   0.948   3.185   8.586 -0.1818  0.2597  0.2344
 5759SOL    HW128739   0.971   3.267   8.541 -1.1200 -0.2025 -1.0763
 5759SOL    HW228740   1.002   3.122   8.539  0.1434  0.3811  0.4373
 5760SOL     OW28741   2.756   0.337   4.722  0.7656 -0.1243 -0.3083
 5760SOL    HW128742   2.782   0.245   4.724  0.2837 -0.2545 -0.0800
 5760SOL    HW228743   2.751   0.367   4.813  1.4907  1.8778 -0.9215
 5761SOL     OW28744   1.840   1.939   3.267 -0.0472 -0.5341 -0.7144
 5761SOL    HW128745   1.924   1.939   3.221  0.2848  1.2352 -0.0987
 5761SOL    HW228746   1.803   1.871   3.211  1.6397 -1.5210 -0.6269
 5762SOL     OW28747   3.024   0.984  11.438  0.4627  0.0800  0.0793
 5762SOL    HW128748   3.111   0.981  11.476  0.0467  0.0671  1.0419
 5762SOL    HW228749   2.985   0.908  11.483  0.7585 -0.9006 -1.3359
 5763SOL     OW28750   4.476   1.438   8.320  0.7558 -0.0714  0.0553
 5763SOL    HW128751   4.390   1.412   8.287  1.0119 -3.3452  2.0121
 5763SOL    HW228752   4.509   1.363   8.369  0.9569 -0.5199 -0.7867
 5764SOL     OW28753   0.006   3.639   3.031  0.1071 -0.3512  0.8547
 5764SOL    HW128754   4.638   3.602   3.033 -0.9081  2.0715  1.2510
 5764SOL    HW228755   0.038   3.587   2.958 -2.1246 -1.8814  0.9531
 5765SOL     OW28756   4.420   2.069  11.238  0.6967  0.2028  0.6951
 5765SOL    HW128757   4.380   1.983  11.254 -2.0873  1.3280 -0.2508
 5765SOL    HW228758   4.349   2.133  11.247  2.1845  2.4473 -3.4758
 5766SOL     OW28759   4.199   0.476   1.847  0.7628  0.1603 -0.1704
 5766SOL    HW128760   4.196   0.434   1.761  0.8527  0.3651 -0.2725
 5766SOL    HW228761   4.183   0.393   1.892  1.7843  0.1259  0.1424
 5767SOL     OW28762   0.176   3.677  14.262  0.2334  0.4530  0.1560
 5767SOL    HW128763   0.238   3.746  14.285  1.2697 -0.6491  0.6481
 5767SOL    HW228764   0.172   3.619  14.337  1.5579  0.8825  0.5476
 5768SOL     OW28765   2.328   2.398   8.854  0.0733 -0.3698 -0.2392
 5768SOL    HW128766   2.321   2.467   8.919  0.2431  0.0045 -0.6185
 5768SOL    HW228767   2.342   2.323   8.912  0.6852 -1.9104 -2.3579
 5769SOL     OW28768   3.789   2.543  13.747 -0.3660 -0.2503  0.1218
 5769SOL    HW128769   3.860   2.490  13.783 -0.7819 -0.2909  0.8839
 5769SOL    HW228770   3.718   2.514  13.803  0.1199  1.4706  1.6062
 5770SOL     OW28771   2.870   2.719   5.972 -0.0686 -0.0917  0.1239
 5770SOL    HW128772   2.922   2.775   5.915 -0.2580 -0.2461 -0.1961
 5770SOL    HW228773   2.830   2.785   6.029 -2.3338 -1.8979  0.6310
 5771SOL     OW28774   2.573   0.984   7.529 -0.3709  0.2499  0.2311
 5771SOL    HW128775   2.573   0.995   7.624  1.1563  0.0218  0.2648
 5771SOL    HW228776   2.482   0.961   7.509 -0.4766  0.7221  0.1873
 5772SOL     OW28777   3.462   2.094   4.666  0.0849  0.0848  1.0752
 5772SOL    HW128778   3.410   2.062   4.740  0.3278 -2.1421  0.2767
 5772SOL    HW228779   3.400   2.156   4.627 -1.7901 -1.1936  2.0091
 5773SOL     OW28780   2.654   1.490  10.271 -0.4221  0.5999 -0.1405
 5773SOL    HW128781   2.588   1.544  10.228 -1.8521  0.9318  2.4613
 5773SOL    HW228782   2.602   1.426  10.320  0.4942 -0.8667 -1.0875
 5774SOL     OW28783   4.009   2.697  15.103 -0.4911  0.1137 -0.2731
 5774SOL    HW128784   3.966   2.642  15.038 -0.6912 -1.4075  1.1737
 5774SOL    HW228785   4.063   2.635  15.152 -0.4879  0.0382 -0.3724
 5775SOL     OW28786   3.893   1.090   7.820 -0.0365 -0.3846 -0.1489
 5775SOL    HW128787   3.857   1.061   7.737 -0.0316  1.6214 -0.8634
 5775SOL    HW228788   3.858   1.026   7.882 -0.7901 -1.2238 -1.4507
 5776SOL     OW28789   4.116   3.847   9.128 -0.2245  0.3499  0.0027
 5776SOL    HW128790   4.109   3.791   9.205  0.8264 -1.2337 -1.0585
 5776SOL    HW228791   4.026   3.853   9.097 -0.3856  1.0711  0.6010
 5777SOL     OW28792   2.212   1.073  11.022 -0.1846  0.2868  0.0343
 5777SOL    HW128793   2.284   1.034  11.070 -0.1990  3.0047  2.2826
 5777SOL    HW228794   2.203   1.157  11.067  0.1933  0.4126 -0.1265
 5778SOL     OW28795   0.200   2.234   4.633 -0.1082 -0.1775 -0.1818
 5778SOL    HW128796   0.204   2.297   4.561  1.7253  1.6805  1.5485
 5778SOL    HW228797   0.283   2.255   4.677  1.3709 -0.5245 -2.7573
 5779SOL     OW28798   2.006   2.384   1.512 -0.4580  0.3663  0.2927
 5779SOL    HW128799   2.041   2.393   1.601  1.6459 -0.2196 -0.4854
 5779SOL    HW228800   2.083   2.403   1.458 -1.0648 -0.3485 -0.7972
 5780SOL     OW28801   0.759   2.454   2.252 -0.4538 -0.3468  1.1945
 5780SOL    HW128802   0.833   2.496   2.295  0.0720 -0.1880  0.1307
 5780SOL    HW228803   0.716   2.539   2.245 -0.9893 -0.5111  2.5435
 5781SOL     OW28804   0.865   3.631   3.173 -0.3582 -0.1829 -0.1566
 5781SOL    HW128805   0.957   3.608   3.158  0.2759  0.9322  2.1189
 5781SOL    HW228806   0.873   3.722   3.144 -1.6614  0.4403  1.4588
 5782SOL     OW28807   1.910   3.416   2.332  0.4518 -0.5393  0.4627
 5782SOL    HW128808   1.835   3.358   2.329  0.2846 -0.4158  2.1579
 5782SOL    HW228809   1.965   3.393   2.257 -0.1876  1.3475 -0.5884
 5783SOL     OW28810   0.431   2.293  12.722  0.4504  0.7949  0.1435
 5783SOL    HW128811   0.474   2.376  12.743 -0.1704  1.1737 -0.0868
 5783SOL    HW228812   0.350   2.324  12.682  1.4368 -0.9201 -3.1827
 5784SOL     OW28813   2.493   2.499  15.155 -0.7271 -0.7817 -0.0244
 5784SOL    HW128814   2.546   2.486  15.233 -0.3753  1.2442  0.0674
 5784SOL    HW228815   2.410   2.457  15.178  0.6686 -1.3624  3.8607
 5785SOL     OW28816   3.393   0.206   6.487  0.3368 -0.3410  0.0080
 5785SOL    HW128817   3.390   0.111   6.484 -0.0246 -0.3863  1.7585
 5785SOL    HW228818   3.453   0.221   6.560 -0.3878 -0.4435  0.6276
 5786SOL     OW28819   0.199   0.575  14.570  0.0099  0.0491  0.8776
 5786SOL    HW128820   0.282   0.526  14.565 -0.6723 -1.0751  0.4533
 5786SOL    HW228821   0.146   0.508  14.613  0.1392  0.4625  1.6782
 5787SOL     OW28822   3.264   3.350   4.402 -0.1987 -0.5387  0.2783
 5787SOL    HW128823   3.333   3.337   4.467  1.5004 -0.2255 -1.4694
 5787SOL    HW228824   3.181   3.367   4.446  0.5978  0.2590  1.4805
 5788SOL     OW28825   1.149   2.818  14.359  0.0295  0.0318 -0.1097
 5788SOL    HW128826   1.149   2.856  14.447 -4.3787 -2.3779  0.9346
 5788SOL    HW228827   1.099   2.738  14.371 -0.4058  0.6407  2.2826
 5789SOL     OW28828   0.378   2.299   8.013 -0.7930  0.7535  0.6545
 5789SOL    HW128829   0.326   2.232   7.968  1.3561 -0.9338  0.7083
 5789SOL    HW228830   0.424   2.344   7.942  1.8444 -1.6507  0.8520
 5790SOL     OW28831   1.908   4.336   0.633 -0.1255  0.5369 -0.2512
 5790SOL    HW128832   1.858   4.261   0.667  1.4233 -0.9044 -1.1467
 5790SOL    HW228833   1.844   4.368   0.570  0.4785  0.8447 -0.6985
 5791SOL     OW28834   1.471   0.356   7.231 -0.0373 -0.2127 -0.5323
 5791SOL    HW128835   1.408   0.342   7.160 -1.4577  1.0173  0.4631
 5791SOL    HW228836   1.452   0.282   7.289 -3.4522  0.0279 -1.3331
 5792SOL     OW28837   3.562   1.515   0.837  0.5180  0.5406 -0.4155
 5792SOL    HW128838   3.490   1.453   0.830 -0.0161  1.2827 -1.4362
 5792SOL    HW228839   3.543   1.540   0.928  1.0601  0.9057 -0.4004
 5793SOL     OW28840   0.245   4.110   7.659  0.4469 -0.3665 -0.0749
 5793SOL    HW128841   0.162   4.158   7.667  0.2127 -0.6499 -0.8398
 5793SOL    HW228842   0.274   4.113   7.568  0.4112  2.6175  0.0005
 5794SOL     OW28843   0.092   2.638   7.617 -0.4175 -0.2439 -0.2436
 5794SOL    HW128844   0.058   2.615   7.703 -1.7725  1.9940 -0.1647
 5794SOL    HW228845   0.181   2.604   7.627 -0.5749  0.1853  2.6364
 5795SOL     OW28846   2.462   1.605  12.633 -0.0826  0.1577  0.1032
 5795SOL    HW128847   2.542   1.598  12.581 -3.1580 -1.5072 -4.3329
 5795SOL    HW228848   2.398   1.575  12.569 -0.8021  2.9173 -0.4796
 5796SOL     OW28849   1.170   2.616   2.656 -0.0351  0.1301 -0.2540
 5796SOL    HW128850   1.264   2.607   2.668  0.0938 -1.7274 -2.8100
 5796SOL    HW228851   1.150   2.555   2.728  0.4324  1.8155  1.3216
 5797SOL     OW28852   3.676   0.286   1.556  0.4829  0.1749  0.4958
 5797SOL    HW128853   3.588   0.249   1.564  0.4102  0.4760  1.0371
 5797SOL    HW228854   3.659   0.379   1.568  1.1087  0.4960 -1.1544
 5798SOL     OW28855   3.452   2.804   9.005 -0.2140 -0.2173  0.1090
 5798SOL    HW128856   3.376   2.759   8.968  1.1147 -0.5821 -2.2188
 5798SOL    HW228857   3.493   2.734   9.057 -1.1069  0.6317  1.9353
 5799SOL     OW28858   2.824   3.470   4.646 -0.5452 -0.0308  0.3649
 5799SOL    HW128859   2.786   3.547   4.688 -4.2245 -2.1157  0.8131
 5799SOL    HW228860   2.900   3.451   4.701 -0.2571  1.6723  0.5699
 5800SOL     OW28861   2.176   3.451   1.497 -0.4224 -0.4796 -0.5459
 5800SOL    HW128862   2.189   3.450   1.402  0.4781  1.5343 -0.4392
 5800SOL    HW228863   2.239   3.518   1.523  0.0794 -1.3371  0.4457
 5801SOL     OW28864   2.072   1.178   7.632 -0.0173 -0.4442 -0.1333
 5801SOL    HW128865   2.010   1.168   7.560 -0.5683 -0.8515  0.3944
 5801SOL    HW228866   2.007   1.221   7.687 -0.5809 -1.2887 -0.1397
 5802SOL     OW28867   3.724   2.831  13.769  0.4019 -0.0122  0.0174
 5802SOL    HW128868   3.718   2.735  13.772  0.1777  0.0381  1.2463
 5802SOL    HW228869   3.675   2.844  13.851 -1.4694 -2.2998 -0.7378
 5803SOL     OW28870   2.034   1.013   1.817 -0.0512 -0.2109  0.5587
 5803SOL    HW128871   1.982   0.993   1.895  0.4606 -3.3463  0.0765
 5803SOL    HW228872   2.080   1.095   1.837 -0.7951 -0.1900  2.1921
 5804SOL     OW28873   4.282   0.171   5.223 -1.1273  0.3449 -0.0924
 5804SOL    HW128874   4.268   0.084   5.262 -0.9445 -0.0547 -0.9130
 5804SOL    HW228875   4.239   0.171   5.137 -1.3347 -0.6638  0.0109
 5805SOL     OW28876   3.906   0.638   6.556 -0.4060 -0.3066  0.4229
 5805SOL    HW128877   3.840   0.664   6.620  0.1128 -0.4921  1.0274
 5805SOL    HW228878   3.923   0.723   6.515 -0.5165 -1.8785 -2.9411
 5806SOL     OW28879   0.533   0.572   6.752 -0.2820  0.0654  0.4177
 5806SOL    HW128880   0.469   0.630   6.709 -0.3743 -0.3101  0.0479
 5806SOL    HW228881   0.601   0.628   6.788  0.1790  0.1988 -0.6785
 5807SOL     OW28882   1.532   0.476  13.590  0.3267 -0.4141 -0.2509
 5807SOL    HW128883   1.511   0.475  13.683  2.1243  0.7931  0.1655
 5807SOL    HW228884   1.541   0.570  13.575 -1.9230 -0.2686 -0.7954
 5808SOL     OW28885   0.525   2.608  16.276  0.2247 -0.7137 -0.5202
 5808SOL    HW128886   0.609   2.642  16.244  0.7954 -2.6865 -1.0879
 5808SOL    HW228887   0.546   2.624  16.368  0.4029  1.5327 -0.9548
 5809SOL     OW28888   0.878   3.283   7.646 -0.3248  0.3369 -0.6344
 5809SOL    HW128889   0.835   3.317   7.568  1.1213  0.7192 -1.2755
 5809SOL    HW228890   0.867   3.191   7.620  0.8901 -0.4568  1.6620
 5810SOL     OW28891   2.694   2.999   5.393 -0.1442  0.4834  0.8953
 5810SOL    HW128892   2.609   3.035   5.367 -0.1286  0.2944  0.5847
 5810SOL    HW228893   2.677   2.905   5.388  4.6578 -0.3673  0.5978
 5811SOL     OW28894   2.361   1.937  11.670  0.1989  0.0744 -0.3402
 5811SOL    HW128895   2.402   2.013  11.713  2.3721 -1.1008 -0.3021
 5811SOL    HW228896   2.361   1.963  11.578 -0.6947 -1.6659 -0.8304
 5812SOL     OW28897   2.466   2.618   6.292  0.2589  0.0801  0.5796
 5812SOL    HW128898   2.443   2.544   6.236  0.1383  0.5334  0.0338
 5812SOL    HW228899   2.385   2.621   6.343  2.5532 -1.6913  4.3575
 5813SOL     OW28900   4.341   1.730   0.978  0.0019 -0.3542  1.1158
 5813SOL    HW128901   4.350   1.799   1.043  0.6834 -0.1105  0.7582
 5813SOL    HW228902   4.263   1.765   0.934 -0.0693  0.7329  2.1243
 5814SOL     OW28903   4.471   0.642   3.401 -0.3237 -0.7065 -0.2120
 5814SOL    HW128904   4.478   0.735   3.379  0.5090 -1.3200 -2.6385
 5814SOL    HW228905   4.546   0.605   3.354  1.4831  1.0692  1.3071
 5815SOL     OW28906   1.564   3.369  15.527 -0.1902 -0.3958 -0.0000
 5815SOL    HW128907   1.651   3.355  15.490 -1.0952 -2.3452 -1.3577
 5815SOL    HW228908   1.522   3.378  15.442 -0.4614 -2.7201 -0.1149
 5816SOL     OW28909   2.280   2.845   0.001  0.3943 -0.0175  0.0984
 5816SOL    HW128910   2.205   2.826  17.627  0.3604 -3.5800  1.3293
 5816SOL    HW228911   2.336   2.895  17.624 -1.0109 -0.4029 -1.5525
 5817SOL     OW28912   4.145   3.060  14.501  0.0614  0.2302  0.1296
 5817SOL    HW128913   4.205   3.003  14.549  1.9109  1.2519 -0.9742
 5817SOL    HW228914   4.200   3.093  14.430  1.4495 -0.2885  0.9588
 5818SOL     OW28915   1.769   0.371   4.575  0.1350 -0.0362  0.7349
 5818SOL    HW128916   1.811   0.448   4.613  0.5540 -0.8092  1.8155
 5818SOL    HW228917   1.802   0.309   4.640 -1.1398 -1.9086 -0.3981
 5819SOL     OW28918   4.543   2.741   2.548 -0.3020 -0.0969  0.3421
 5819SOL    HW128919   4.605   2.748   2.620 -0.0413  1.3663 -0.0254
 5819SOL    HW228920   4.605   2.767   2.480 -1.3354 -0.7632 -0.8583
 5820SOL     OW28921   1.957   0.854   3.431  0.1631 -0.6287 -0.1963
 5820SOL    HW128922   1.961   0.946   3.407 -1.1326 -0.1253  1.5062
 5820SOL    HW228923   1.913   0.862   3.515  0.8413 -2.9905  0.3750
 5821SOL     OW28924   0.830   2.363   9.719 -0.5392  0.3901 -0.1687
 5821SOL    HW128925   0.799   2.418   9.647 -1.6263 -1.7765 -1.3610
 5821SOL    HW228926   0.748   2.325   9.748  0.0136 -0.6512  0.0281
 5822SOL     OW28927   4.464   0.185  17.364 -0.3207  0.0894  0.4876
 5822SOL    HW128928   4.369   0.197  17.372 -0.2470  0.6732  0.4987
 5822SOL    HW228929   4.473   0.255  17.300  0.8683 -0.1437  0.4058
 5823SOL     OW28930   1.162   4.239  13.001 -0.3478  0.1764 -0.2593
 5823SOL    HW128931   1.152   4.171  12.935  1.8016 -2.2517  1.8776
 5823SOL    HW228932   1.164   4.323  12.956  0.2796  1.8361  2.9100
 5824SOL     OW28933   1.085   4.045   7.406  0.3703  0.1128  0.1277
 5824SOL    HW128934   1.093   4.140   7.401 -1.9208  0.2758 -0.4787
 5824SOL    HW228935   1.165   4.024   7.357 -0.1572 -0.0873 -0.6596
 5825SOL     OW28936   4.303   3.328  11.933 -0.7789 -0.5439  0.2374
 5825SOL    HW128937   4.257   3.246  11.951 -0.9580 -0.7360 -1.1529
 5825SOL    HW228938   4.324   3.352  12.024  2.3883 -0.5965 -0.4986
 5826SOL     OW28939   0.442   4.682   4.419 -0.5114 -0.2513 -0.0957
 5826SOL    HW128940   0.373   0.023   4.445  0.4014 -0.0410  1.8083
 5826SOL    HW228941   0.429   4.693   4.325 -0.4259 -1.1593 -0.2080
 5827SOL     OW28942   3.396   1.776  14.775  0.0357 -0.1874  0.0583
 5827SOL    HW128943   3.348   1.821  14.705  1.0628 -0.9957 -1.1854
 5827SOL    HW228944   3.335   1.704  14.792  1.0623 -0.8687  0.8848
 5828SOL     OW28945   3.857   2.458  16.009  0.5675 -0.3726  0.3720
 5828SOL    HW128946   3.802   2.451  15.932 -0.2075 -0.2144  0.9089
 5828SOL    HW228947   3.877   2.366  16.024  1.4993 -0.3165 -0.5329
 5829SOL     OW28948   2.564   4.714   6.191 -0.0820 -0.6891  0.1232
 5829SOL    HW128949   2.478   4.690   6.225  0.2269 -0.2889  1.1799
 5829SOL    HW228950   2.622   4.692   6.264  0.5643  0.2375 -0.1127
 5830SOL     OW28951   3.724   1.426   6.480  0.9801  0.1656  0.2237
 5830SOL    HW128952   3.695   1.438   6.571 -0.1204  0.3954 -0.1578
 5830SOL    HW228953   3.642   1.414   6.433  1.0087 -0.4487  0.3309
 5831SOL     OW28954   4.541   1.042  11.372  0.3064  0.8760  0.0346
 5831SOL    HW128955   4.524   1.077  11.460  1.5794  1.3257  0.1071
 5831SOL    HW228956   4.629   1.076  11.353 -0.2385  2.0209 -0.4452
 5832SOL     OW28957   2.141   3.352   3.241  0.4080  0.9378 -0.6090
 5832SOL    HW128958   2.228   3.388   3.221  0.0736  2.1453  0.0848
 5832SOL    HW228959   2.103   3.419   3.297  0.0814 -0.6571  1.0647
 5833SOL     OW28960   4.564   0.776   4.647 -0.6131  0.5323  0.2649
 5833SOL    HW128961   4.567   0.753   4.555  0.5183 -1.6619  0.8708
 5833SOL    HW228962   4.491   0.722   4.678 -0.3310 -0.4420 -0.8088
 5834SOL     OW28963   0.265   4.517   2.198 -1.0475  0.1449  0.2184
 5834SOL    HW128964   0.283   4.433   2.156 -1.7109 -0.8328  1.8703
 5834SOL    HW228965   0.228   4.565   2.124  0.4681 -1.5750 -1.6489
 5835SOL     OW28966   3.234   1.223   9.860 -0.9617  0.5459 -0.3217
 5835SOL    HW128967   3.236   1.145   9.916  2.4064 -0.4903 -1.9254
 5835SOL    HW228968   3.296   1.192   9.795 -1.3335 -0.7469 -0.0591
 5836SOL     OW28969   4.080   3.925   1.392  0.2008  0.1786 -0.2026
 5836SOL    HW128970   4.087   4.019   1.374  2.0374 -0.2315 -1.5725
 5836SOL    HW228971   4.072   3.886   1.305 -2.5864  1.2364 -0.4025
 5837SOL     OW28972   1.269   3.055  10.786 -0.0260  0.0382 -0.0295
 5837SOL    HW128973   1.198   3.020  10.839  1.8714 -0.7979  1.9902
 5837SOL    HW228974   1.240   3.139  10.751 -0.9805  0.2930  1.3788
 5838SOL     OW28975   4.336   4.241   0.387  0.4268  0.1552 -0.5946
 5838SOL    HW128976   4.335   4.209   0.297  0.1664 -1.1631 -0.1292
 5838SOL    HW228977   4.270   4.310   0.391 -0.2337 -0.6332  2.0901
 5839SOL     OW28978   4.274   4.504   1.489  0.1933  0.0305 -0.7399
 5839SOL    HW128979   4.217   4.513   1.565 -2.6739  1.4884 -3.0902
 5839SOL    HW228980   4.259   4.590   1.449  1.1807  0.3247 -0.4819
 5840SOL     OW28981   1.188   1.085   8.321 -0.0140 -0.8227  0.2791
 5840SOL    HW128982   1.273   1.129   8.311 -0.1113 -0.8888 -0.8628
 5840SOL    HW228983   1.148   1.138   8.389  0.6464 -1.2424  0.9884
 5841SOL     OW28984   3.023   0.262   6.999  0.0966 -0.3238 -0.1594
 5841SOL    HW128985   3.068   0.335   7.041  1.6689  1.0175 -4.1107
 5841SOL    HW228986   3.087   0.221   6.940  0.5374  0.4965 -0.2521
 5842SOL     OW28987   3.108   3.534   4.567  0.6503  0.0306  0.4754
 5842SOL    HW128988   3.073   3.602   4.509  0.4467  0.1309  0.7149
 5842SOL    HW228989   3.087   3.569   4.654  1.3183  1.9695 -0.1426
 5843SOL     OW28990   2.337   0.081   9.657  0.4321  0.2524  0.4013
 5843SOL    HW128991   2.261   0.117   9.612  1.1092 -0.0234 -0.9630
 5843SOL    HW228992   2.311   0.127   9.737 -3.7691 -0.5177 -0.5109
 5844SOL     OW28993   0.082   1.216  11.484 -0.3532 -0.6780 -0.2530
 5844SOL    HW128994   0.134   1.270  11.543  2.4799 -1.0725 -2.3616
 5844SOL    HW228995   0.155   1.181  11.434 -0.1481  0.7252 -0.9455
 5845SOL     OW28996   2.668   2.819   7.689  0.3404  0.3019  0.5517
 5845SOL    HW128997   2.634   2.734   7.720 -1.2048 -0.1146 -2.3074
 5845SOL    HW228998   2.708   2.848   7.771  0.1296 -2.0519  1.4889
 5846SOL     OW28999   2.458   2.656   4.638 -0.7411 -0.2358 -0.0895
 5846SOL    HW129000   2.553   2.662   4.634 -0.7928  0.5861 -0.0766
 5846SOL    HW229001   2.445   2.745   4.605  0.4104 -0.0188  0.0403
 5847SOL     OW29002   2.155   3.906   7.860  0.3879 -0.3057  0.3821
 5847SOL    HW129003   2.247   3.915   7.838  0.3349 -1.1818 -0.1844
 5847SOL    HW229004   2.110   3.942   7.783 -1.3992 -0.5725  1.2979
 5848SOL     OW29005   0.284   1.548   6.693  0.3283  0.0018 -0.1218
 5848SOL    HW129006   0.332   1.613   6.744 -1.1182  0.4602  0.6348
 5848SOL    HW229007   0.195   1.581   6.698 -0.0532 -1.1078  0.5041
 5849SOL     OW29008   1.984   3.465   5.913 -0.2015  0.4398  0.5941
 5849SOL    HW129009   1.947   3.523   5.846 -0.8656 -0.6828 -0.0053
 5849SOL    HW229010   2.077   3.476   5.891 -0.8840  0.3316 -2.4257
 5850SOL     OW29011   0.841   1.471   3.167  0.1511 -0.2087 -0.1368
 5850SOL    HW129012   0.840   1.493   3.073 -2.3415  0.2794  0.0195
 5850SOL    HW229013   0.800   1.385   3.171 -0.5581  0.1715  0.5557
 5851SOL     OW29014   3.389   3.313   8.176  0.9203  0.3871 -0.0059
 5851SOL    HW129015   3.475   3.278   8.154 -0.1774 -0.2545 -3.2419
 5851SOL    HW229016   3.409   3.402   8.147 -1.6082  0.2969 -1.9307
 5852SOL     OW29017   2.031   3.884   6.528 -0.4063 -0.5089  0.2514
 5852SOL    HW129018   1.940   3.906   6.549  0.0500  0.9072  0.7250
 5852SOL    HW229019   2.055   3.821   6.596 -1.1482 -2.2414 -1.1044
 5853SOL     OW29020   2.527   0.141   2.468  0.3138 -0.2740  0.5948
 5853SOL    HW129021   2.590   0.069   2.469  2.2031  1.3673  1.2543
 5853SOL    HW229022   2.482   0.123   2.551 -3.4189 -0.1548 -1.3923
 5854SOL     OW29023   0.734   4.154   3.851 -0.2926  0.0526 -0.0855
 5854SOL    HW129024   0.727   4.177   3.759 -0.3039  3.0911  0.6742
 5854SOL    HW229025   0.828   4.141   3.840 -0.8573 -2.1860 -2.3846
 5855SOL     OW29026   2.423   0.034   8.809  0.5712 -0.3453  0.2118
 5855SOL    HW129027   2.496   0.019   8.869 -0.0787  1.4333  1.4521
 5855SOL    HW229028   2.449   4.719   8.724 -2.3699  0.4911 -1.0260
 5856SOL     OW29029   4.005   1.881   2.901  0.1522 -0.3691  0.2940
 5856SOL    HW129030   3.945   1.817   2.862 -0.2511 -0.7907  1.6189
 5856SOL    HW229031   4.082   1.826   2.890 -0.1608 -1.0454  1.4865
 5857SOL     OW29032   3.393   4.361   1.629  0.1041  0.1689 -0.6802
 5857SOL    HW129033   3.330   4.401   1.570 -0.9941 -0.4142  0.1022
 5857SOL    HW229034   3.460   4.337   1.564  1.2373 -1.4622  1.0972
 5858SOL     OW29035   2.516   3.059  14.067  0.1665 -0.3098 -0.4055
 5858SOL    HW129036   2.427   3.026  14.078 -0.2430  0.5427 -1.1292
 5858SOL    HW229037   2.490   3.152  14.066 -1.2895 -0.6766  2.1190
 5859SOL     OW29038   0.616   0.004   7.262 -0.2986 -0.0326  0.5750
 5859SOL    HW129039   0.523   4.713   7.245 -0.0841 -3.1799  1.4555
 5859SOL    HW229040   0.637   0.047   7.178 -2.0693  0.6165  0.4742
 5860SOL     OW29041   2.696   3.630   7.450 -0.1954  1.0025  0.3076
 5860SOL    HW129042   2.649   3.548   7.433  0.2287  1.1084 -1.4270
 5860SOL    HW229043   2.790   3.612   7.446 -0.5472 -0.6929 -0.2936
 5861SOL     OW29044   0.184   2.345  10.844  0.0738 -0.2881 -0.4030
 5861SOL    HW129045   0.273   2.363  10.874 -0.2187 -2.3448  1.6490
 5861SOL    HW229046   0.206   2.334  10.751  0.6836 -0.7270 -0.2108
 5862SOL     OW29047   2.007   2.248   8.491  0.4404  0.3080  0.4536
 5862SOL    HW129048   1.989   2.313   8.423 -1.5020  0.3960  1.0532
 5862SOL    HW229049   1.950   2.284   8.560  2.5317  1.7447  1.4204
 5863SOL     OW29050   3.231   2.188   0.293 -0.1047  0.3601  0.3422
 5863SOL    HW129051   3.177   2.230   0.226 -0.4646  0.7748  0.8931
 5863SOL    HW229052   3.188   2.104   0.275  0.9408  0.7147 -3.8577
 5864SOL     OW29053   0.330   0.428   0.790 -0.2280  0.3195  0.3783
 5864SOL    HW129054   0.353   0.346   0.834  1.1064  1.1856  1.2766
 5864SOL    HW229055   0.263   0.393   0.731  2.4940 -2.9030 -0.8168
 5865SOL     OW29056   0.669   3.622   5.384  0.7461 -0.2364  0.4657
 5865SOL    HW129057   0.750   3.650   5.341  0.0264  0.2410 -0.5837
 5865SOL    HW229058   0.612   3.698   5.384 -0.7553 -1.3644 -0.5266
 5866SOL     OW29059   4.382   0.351   3.797  0.2988 -0.2930 -0.3203
 5866SOL    HW129060   4.403   0.415   3.865 -2.1054  1.3028 -1.0630
 5866SOL    HW229061   4.469   0.317   3.777  0.7850  1.1845 -0.7060
 5867SOL     OW29062   2.607   2.923  14.480  0.1676 -0.3556  0.1437
 5867SOL    HW129063   2.524   2.971  14.484  1.1054  1.4487 -2.1356
 5867SOL    HW229064   2.595   2.877  14.398  0.2669 -1.7606  0.9192
 5868SOL     OW29065   2.026   2.461   7.250 -0.7262 -0.4271 -0.3334
 5868SOL    HW129066   2.075   2.450   7.332 -1.2361 -0.5273 -0.0426
 5868SOL    HW229067   1.941   2.425   7.273 -0.6803  0.4309  1.2556
 5869SOL     OW29068   3.561   2.648   9.197  0.4523 -0.6540  0.4057
 5869SOL    HW129069   3.606   2.706   9.258 -0.4525  0.1090  0.3405
 5869SOL    HW229070   3.475   2.643   9.239  0.1136  0.0302 -0.2006
 5870SOL     OW29071   4.118   3.739   1.594  0.5741 -0.3528  0.4228
 5870SOL    HW129072   4.131   3.805   1.526  1.3944  1.4849  2.3416
 5870SOL    HW229073   4.062   3.680   1.544 -0.9673  1.5605 -0.1321
 5871SOL     OW29074   1.275   2.623   5.192  0.0143  0.8594 -0.2859
 5871SOL    HW129075   1.371   2.616   5.198  0.0334  0.3558 -1.2393
 5871SOL    HW229076   1.248   2.622   5.284 -0.1887  2.0187 -0.3294
 5872SOL     OW29077   0.783   1.525   8.049  0.7210 -0.2100  0.2470
 5872SOL    HW129078   0.703   1.489   8.010 -0.0228  0.6509  0.9752
 5872SOL    HW229079   0.731   1.600   8.078  1.0861 -0.5345  1.7299
 5873SOL     OW29080   4.069   4.346   4.868 -0.0517 -0.3620  0.1694
 5873SOL    HW129081   4.083   4.274   4.807 -2.6707  2.6073 -3.9234
 5873SOL    HW229082   3.984   4.315   4.898  0.9782 -1.8129  1.6053
 5874SOL     OW29083   4.667   0.472   3.279  0.2640  0.0045 -0.1685
 5874SOL    HW129084   4.707   0.390   3.306  2.4815  0.7147 -1.2830
 5874SOL    HW229085   4.719   0.488   3.200 -0.8228 -0.7393 -1.0364
 5875SOL     OW29086   3.730   2.915  13.014 -0.0904  0.1579 -0.4105
 5875SOL    HW129087   3.756   2.967  13.090 -0.8672 -1.2611  0.8162
 5875SOL    HW229088   3.703   2.837  13.063  1.1085 -0.1937 -0.3209
 5876SOL     OW29089   2.381   1.407   5.728  0.3369  0.1992  0.1507
 5876SOL    HW129090   2.402   1.469   5.799 -0.2296 -0.2511  0.7058
 5876SOL    HW229091   2.411   1.323   5.763  0.2619  0.5374  1.0420
 5877SOL     OW29092   3.355   1.837   9.669  0.0715 -0.6507 -0.1140
 5877SOL    HW129093   3.345   1.745   9.645 -2.0514 -0.6440  0.7025
 5877SOL    HW229094   3.340   1.878   9.584 -2.2103  1.6107  1.3714
 5878SOL     OW29095   2.464   2.621   6.004 -0.0171  0.1332  0.1274
 5878SOL    HW129096   2.454   2.713   6.025  2.8547  0.6729 -0.8388
 5878SOL    HW229097   2.476   2.638   5.910 -0.0232  0.7118  0.2332
 5879SOL     OW29098   0.460   1.106   8.334 -0.0184 -0.1515  0.3794
 5879SOL    HW129099   0.490   1.050   8.406  0.2645 -2.3817 -1.5143
 5879SOL    HW229100   0.535   1.099   8.276  0.6081 -0.3192  1.1978
 5880SOL     OW29101   3.386   3.445   7.595  0.4272  0.4240  0.5477
 5880SOL    HW129102   3.477   3.427   7.619 -0.2372 -3.1566  0.2691
 5880SOL    HW229103   3.352   3.440   7.685 -1.6192 -1.5563 -0.3704
 5881SOL     OW29104   0.989   3.712   2.012 -0.6554 -0.1838 -0.6122
 5881SOL    HW129105   1.057   3.689   2.075 -0.2036  2.6999 -0.0302
 5881SOL    HW229106   0.929   3.752   2.076  0.0904 -1.1257  0.6600
 5882SOL     OW29107   4.151   1.603  16.008 -0.1341  0.3172  0.1441
 5882SOL    HW129108   4.114   1.691  16.002  0.7718  0.7949  1.6713
 5882SOL    HW229109   4.076   1.551  15.978  0.8680 -0.4173 -1.1129
 5883SOL     OW29110   2.139   1.779  12.427  0.1927 -0.3216 -0.2578
 5883SOL    HW129111   2.052   1.765  12.391 -0.3193 -1.3547  1.3942
 5883SOL    HW229112   2.119   1.855  12.482  0.6705  0.8400 -1.6654
 5884SOL     OW29113   0.596   0.068   3.880 -0.0335  0.1117 -0.1008
 5884SOL    HW129114   0.535   0.137   3.854 -0.8000 -1.1961 -1.8051
 5884SOL    HW229115   0.565   0.043   3.967  1.7187  1.6475  0.9423
 5885SOL     OW29116   1.710   1.754   4.586 -0.1236  0.1327  0.4535
 5885SOL    HW129117   1.708   1.850   4.582  3.4658  0.1856 -0.0018
 5885SOL    HW229118   1.697   1.726   4.495  2.6537 -0.9782  0.3934
 5886SOL     OW29119   1.001   0.597   3.730 -0.0670 -0.4678 -0.0185
 5886SOL    HW129120   0.906   0.589   3.743  0.2668 -1.9488  1.5727
 5886SOL    HW229121   1.009   0.597   3.635 -2.5085 -0.3455 -0.2434
 5887SOL     OW29122   3.898   3.010   3.825  0.0881  0.6155  0.3203
 5887SOL    HW129123   3.828   2.980   3.882 -0.8295  0.7123 -0.7618
 5887SOL    HW229124   3.956   3.047   3.892 -0.6430  0.4510  1.0402
 5888SOL     OW29125   1.604   3.314   5.461  0.5731 -0.8741  0.3603
 5888SOL    HW129126   1.681   3.258   5.472  0.4968 -0.8844  0.8473
 5888SOL    HW229127   1.606   3.333   5.367 -3.8718 -1.2938  0.2040
 5889SOL     OW29128   3.194   0.723   3.566  0.4756 -0.3254  0.8245
 5889SOL    HW129129   3.213   0.661   3.495  0.0225 -1.0543  1.3320
 5889SOL    HW229130   3.224   0.808   3.534 -2.4152  0.8646  1.3338
 5890SOL     OW29131   0.506   1.124  14.163 -0.9092 -0.0213  0.0021
 5890SOL    HW129132   0.492   1.187  14.092  1.3673 -2.1586 -2.3715
 5890SOL    HW229133   0.493   1.043  14.113 -1.8361  0.7791 -1.0505
 5891SOL     OW29134   3.573   1.187  17.679  0.2761 -0.2494 -0.2911
 5891SOL    HW129135   3.530   1.267   0.026  0.8605 -0.4271  1.0247
 5891SOL    HW229136   3.666   1.210  17.679  0.4915 -1.1414  2.6231
 5892SOL     OW29137   1.192   4.633   1.370 -0.4708 -0.0285 -0.1356
 5892SOL    HW129138   1.282   4.644   1.340 -0.2725 -0.3603  0.3409
 5892SOL    HW229139   1.191   4.718   1.414 -0.7863  0.2764 -0.7322
 5893SOL     OW29140   2.358   2.099   3.278 -0.4557  0.2928  0.4984
 5893SOL    HW129141   2.308   2.024   3.312  2.1417 -2.5797 -1.9812
 5893SOL    HW229142   2.441   2.060   3.306 -0.1528 -0.2022 -1.1253
 5894SOL     OW29143   3.586   1.497  17.156  0.7956  0.2290  0.1600
 5894SOL    HW129144   3.526   1.522  17.086  0.2788 -0.3923  0.3894
 5894SOL    HW229145   3.557   1.407  17.171  1.0806  0.1490  0.2280
 5895SOL     OW29146   4.362   4.210   6.587  0.3513 -0.0794 -0.2953
 5895SOL    HW129147   4.292   4.162   6.632  0.3129  0.8341  0.6183
 5895SOL    HW229148   4.389   4.148   6.519  0.5432 -0.8047  0.4398
 5896SOL     OW29149   4.269   4.478  15.686  0.0338 -0.2318 -0.0553
 5896SOL    HW129150   4.201   4.468  15.620  0.2465  0.5089 -0.3818
 5896SOL    HW229151   4.342   4.516  15.638  0.0697 -1.4929 -1.0119
 5897SOL     OW29152   2.097   3.048   3.695  0.1223 -0.4567  0.4348
 5897SOL    HW129153   2.183   3.078   3.725 -0.7691  2.6559 -0.1101
 5897SOL    HW229154   2.096   3.061   3.600  0.8476 -1.2763  0.3151
 5898SOL     OW29155   0.971   2.585   2.292 -0.1609 -0.1330  0.2649
 5898SOL    HW129156   0.995   2.621   2.206 -0.4821 -0.1309  0.1791
 5898SOL    HW229157   1.026   2.640   2.348  0.9778 -1.9622  0.9341
 5899SOL     OW29158   3.553   3.859   8.436  0.1345 -0.4572  0.1534
 5899SOL    HW129159   3.645   3.832   8.429  0.6975  1.3497  0.4967
 5899SOL    HW229160   3.558   3.934   8.495  1.4186  0.7667 -1.5324
 5900SOL     OW29161   3.121   3.070  10.085 -0.1308  0.1724 -0.0951
 5900SOL    HW129162   3.028   3.074  10.062 -0.4268  1.2841  1.2394
 5900SOL    HW229163   3.121   3.145  10.145 -0.0413  0.1889 -0.1169
 5901SOL     OW29164   0.963   3.952   8.808 -0.6624 -0.3923  0.2574
 5901SOL    HW129165   1.005   3.944   8.723  2.0076 -0.4698  1.5813
 5901SOL    HW229166   1.031   3.926   8.869 -0.7727 -0.9533  0.1368
 5902SOL     OW29167   4.328   3.510   0.760 -0.3096 -0.0226  0.0309
 5902SOL    HW129168   4.262   3.503   0.690  0.2204 -1.7304 -0.3042
 5902SOL    HW229169   4.345   3.603   0.774 -0.6680 -0.4036  3.0094
 5903SOL     OW29170   2.297   0.959   7.372  0.7682 -0.4582  0.6703
 5903SOL    HW129171   2.210   0.974   7.334  0.8032  3.6506  2.2345
 5903SOL    HW229172   2.273   0.873   7.404 -3.7579 -0.1489 -1.7330
 5904SOL     OW29173   3.797   0.763   2.738  0.1788 -0.3907 -0.1139
 5904SOL    HW129174   3.760   0.699   2.678  1.0470 -0.8637 -0.1483
 5904SOL    HW229175   3.788   0.710   2.818 -0.4897  1.5483  1.1002
 5905SOL     OW29176   0.097   4.419   2.640 -0.1544  0.2906  0.6236
 5905SOL    HW129177   0.080   4.341   2.588  0.1969  1.5496 -1.3714
 5905SOL    HW229178   0.131   4.482   2.576 -1.0803 -0.5361 -0.6644
 5906SOL     OW29179   2.711   0.756  12.011  0.4669  0.5231  0.8369
 5906SOL    HW129180   2.735   0.848  12.024  0.0795  1.1754 -3.0149
 5906SOL    HW229181   2.795   0.713  12.022  1.0156  0.7582 -2.4389
 5907SOL     OW29182   0.432   2.842   7.690  0.3867 -0.3069 -0.1340
 5907SOL    HW129183   0.355   2.885   7.728 -0.0872 -0.0626 -1.3476
 5907SOL    HW229184   0.458   2.912   7.630 -0.0436 -0.8217 -0.9326
 5908SOL     OW29185   4.699   1.405   3.778  0.7872 -0.6440  0.0610
 5908SOL    HW129186   4.643   1.456   3.837 -0.3651 -2.7541  0.8036
 5908SOL    HW229187   4.706   1.462   3.702  0.1652 -0.0301  0.4622
 5909SOL     OW29188   4.614   2.266   7.256  0.3478 -1.1542  0.0813
 5909SOL    HW129189   4.536   2.265   7.201  0.8542 -1.5797 -0.6259
 5909SOL    HW229190   4.581   2.210   7.327 -2.2435 -0.1083 -0.3105
 5910SOL     OW29191   2.817   3.947   5.341  0.1423 -0.1400 -0.0568
 5910SOL    HW129192   2.748   4.012   5.353 -1.0707 -1.5579  0.5867
 5910SOL    HW229193   2.859   3.979   5.261 -0.4522  3.0038  0.8581
 5911SOL     OW29194   1.142   2.185   4.652 -0.0393 -0.0848 -0.0676
 5911SOL    HW129195   1.152   2.243   4.577  1.7348  0.8220  0.8634
 5911SOL    HW229196   1.173   2.102   4.613  2.7978  1.1813 -0.5350
 5912SOL     OW29197   2.241   3.429   9.931 -0.1301  0.4426 -0.6292
 5912SOL    HW129198   2.222   3.337   9.918  0.6212  0.0204  1.3487
 5912SOL    HW229199   2.332   3.440   9.900 -0.3120 -2.0770 -2.0504
 5913SOL     OW29200   1.489   3.635   4.671  0.0709  0.2755  0.3055
 5913SOL    HW129201   1.474   3.566   4.737 -0.9919 -0.6202 -0.8850
 5913SOL    HW229202   1.558   3.593   4.621  0.5588  0.0868  1.1242
 5914SOL     OW29203   0.881   3.613  16.462  0.3762 -0.7006 -0.5309
 5914SOL    HW129204   0.837   3.543  16.415 -0.3970 -1.0552  0.7199
 5914SOL    HW229205   0.810   3.665  16.501 -0.2845  0.6835 -3.6125
 5915SOL     OW29206   1.313   4.636   5.631  0.4947  0.6819  0.1003
 5915SOL    HW129207   1.244   4.569   5.638 -0.3157  1.6923  1.7587
 5915SOL    HW229208   1.333   4.641   5.538 -0.1695  0.3783 -0.0573
 5916SOL     OW29209   2.915   3.914   4.850  0.2413 -0.4141  0.3365
 5916SOL    HW129210   2.902   4.008   4.841 -2.9713 -0.8069  0.8845
 5916SOL    HW229211   2.870   3.871   4.777 -0.3854  0.0280  0.4581
 5917SOL     OW29212   3.695   2.593   6.526 -0.2174 -0.1411  0.3828
 5917SOL    HW129213   3.628   2.533   6.496 -0.0034 -0.8940  1.4051
 5917SOL    HW229214   3.717   2.649   6.452 -2.4578 -0.4686 -0.5127
 5918SOL     OW29215   0.841   4.647   8.854 -0.2341 -0.3108 -0.0971
 5918SOL    HW129216   0.768   4.708   8.866 -0.3306 -0.2382 -1.0306
 5918SOL    HW229217   0.906   4.677   8.917 -0.7868 -0.2888  0.4647
 5919SOL     OW29218   3.056   2.469  16.854 -0.3044 -0.1920 -0.1216
 5919SOL    HW129219   2.979   2.439  16.807 -1.7049  3.1097  0.0813
 5919SOL    HW229220   3.040   2.562  16.871  0.3070  0.2386 -1.8661
 5920SOL     OW29221   4.405   1.533   6.980  0.6171 -0.5079 -0.4721
 5920SOL    HW129222   4.415   1.628   6.988 -0.8149 -0.3241 -0.8118
 5920SOL    HW229223   4.328   1.519   7.035 -0.0600  0.1995 -1.2325
 5921SOL     OW29224   1.490   1.033   6.177  0.6894 -1.0875  0.3351
 5921SOL    HW129225   1.463   1.038   6.085 -0.6409  0.4770  0.8180
 5921SOL    HW229226   1.425   1.090   6.217  0.4524 -0.2856 -1.2026
 5922SOL     OW29227   0.779   4.156   2.021  0.2279  0.2749 -0.0529
 5922SOL    HW129228   0.796   4.247   1.998  0.4748  0.5172  1.0868
 5922SOL    HW229229   0.751   4.128   1.934  0.2956  1.1183 -0.3420
 5923SOL     OW29230   4.288   0.597  13.783  0.0086  0.1670  0.4096
 5923SOL    HW129231   4.217   0.657  13.807  0.1807  0.6151 -0.2037
 5923SOL    HW229232   4.227   0.532  13.749 -1.0799  0.3467  2.0048
 5924SOL     OW29233   4.400   3.074   5.798  0.3281  0.0716  0.3002
 5924SOL    HW129234   4.308   3.059   5.777  0.0661 -0.8122  2.1030
 5924SOL    HW229235   4.438   3.056   5.711 -2.0597 -3.1709 -0.0557
 5925SOL     OW29236   2.594   3.801   6.552 -0.8070  0.0943  0.8977
 5925SOL    HW129237   2.514   3.772   6.508  0.5691  0.0329 -1.5799
 5925SOL    HW229238   2.595   3.896   6.543  2.4107 -0.1769 -1.5816
 5926SOL     OW29239   0.481   2.830   3.630 -0.2260  0.1671  0.3397
 5926SOL    HW129240   0.564   2.818   3.677 -0.2651 -0.5411  0.2207
 5926SOL    HW229241   0.494   2.766   3.561 -0.6938  0.0163  0.3941
 5927SOL     OW29242   3.231   3.255   5.050  0.5566 -0.5917 -0.2795
 5927SOL    HW129243   3.308   3.309   5.033 -0.5867  1.4566  1.0448
 5927SOL    HW229244   3.236   3.247   5.145 -0.9226 -1.0110 -0.2301
 5928SOL     OW29245   3.084   1.374   5.906 -0.0862  0.2105  0.6357
 5928SOL    HW129246   3.102   1.339   5.993 -2.7960  0.1872  1.1923
 5928SOL    HW229247   3.171   1.404   5.881  0.7774 -0.7057  2.5478
 5929SOL     OW29248   4.310   0.769   6.492  0.1667  0.3673 -0.3580
 5929SOL    HW129249   4.277   0.725   6.571  3.4147 -0.4245  0.5272
 5929SOL    HW229250   4.303   0.690   6.438 -0.3463 -1.9485  3.0757
 5930SOL     OW29251   3.119   0.669   5.503 -0.5341  0.3440  0.2421
 5930SOL    HW129252   3.131   0.668   5.408 -1.5233 -3.7815  0.1608
 5930SOL    HW229253   3.141   0.577   5.518 -1.2500 -0.1632 -1.8123
 5931SOL     OW29254   0.809   2.574   4.867 -0.0646 -0.1684 -0.8064
 5931SOL    HW129255   0.843   2.646   4.919 -1.6014  0.8746 -1.2429
 5931SOL    HW229256   0.882   2.513   4.860 -1.6931 -2.1583 -0.6820
 5932SOL     OW29257   3.904   3.517   3.442  0.1400 -0.2075  0.0838
 5932SOL    HW129258   3.961   3.451   3.483  0.0152 -0.3399  0.0467
 5932SOL    HW229259   3.827   3.460   3.439  0.9844 -1.5803  4.3500
 5933SOL     OW29260   0.163   1.733   7.842 -0.3671 -0.3839 -0.1431
 5933SOL    HW129261   0.147   1.670   7.912 -1.7894  0.6055  0.4252
 5933SOL    HW229262   0.074   1.766   7.826 -0.0255  0.0991 -1.0517
 5934SOL     OW29263   3.544   2.834   6.359  0.3416 -0.1162  0.5511
 5934SOL    HW129264   3.477   2.817   6.293 -0.5886 -1.1811  1.7689
 5934SOL    HW229265   3.626   2.811   6.318  1.0811  2.2568  0.6881
 5935SOL     OW29266   0.401   3.535   3.668  0.0554  0.4618 -0.6117
 5935SOL    HW129267   0.315   3.570   3.644 -0.7704 -1.2314 -0.1484
 5935SOL    HW229268   0.402   3.547   3.763  1.4682  0.5552 -0.6412
 5936SOL     OW29269   0.288   0.126  12.880  0.1039 -0.1436  0.7647
 5936SOL    HW129270   0.252   0.093  12.797  0.6684 -0.1979  0.5422
 5936SOL    HW229271   0.355   0.060  12.895 -0.2242 -0.5738  0.3423
 5937SOL     OW29272   2.918   0.593   4.928  1.2085  0.0221  0.6605
 5937SOL    HW129273   2.896   0.661   4.993 -0.2726 -1.6184  1.8788
 5937SOL    HW229274   2.909   0.514   4.982 -0.5244  1.0245  1.8625
 5938SOL     OW29275   4.273   2.994   6.079 -0.3418  0.0723 -0.1248
 5938SOL    HW129276   4.315   2.998   6.165 -1.5028  0.3740  0.4228
 5938SOL    HW229277   4.344   3.002   6.014 -0.0863  0.2966  0.1830
 5939SOL     OW29278   1.607   2.587   3.118  0.3691 -0.0236 -0.3430
 5939SOL    HW129279   1.692   2.588   3.076  1.0595 -1.4816  1.0353
 5939SOL    HW229280   1.547   2.560   3.049 -0.5920  0.5781  0.2464
 5940SOL     OW29281   4.170   1.735   5.274 -1.0882  0.4171 -0.3412
 5940SOL    HW129282   4.159   1.744   5.180  2.6826  1.2060 -0.6823
 5940SOL    HW229283   4.257   1.697   5.278 -0.4356  1.7658 -2.0421
 5941SOL     OW29284   3.914   4.223  13.487 -0.1214  0.2346 -0.3413
 5941SOL    HW129285   4.004   4.192  13.496 -0.4113 -0.5195 -0.0280
 5941SOL    HW229286   3.883   4.175  13.410 -0.0628  0.8449 -0.7457
 5942SOL     OW29287   1.979   4.278  14.791 -0.2134 -0.4991 -0.0652
 5942SOL    HW129288   1.917   4.348  14.813  0.1033 -0.3479  0.3343
 5942SOL    HW229289   1.908   4.231  14.748  0.2418  1.6673 -3.1479
 5943SOL     OW29290   2.758   3.466   2.980  0.5731 -0.2501  0.3901
 5943SOL    HW129291   2.780   3.542   3.034  4.6994 -0.2218 -1.3455
 5943SOL    HW229292   2.775   3.497   2.891 -1.8686 -0.9146 -0.3121
 5944SOL     OW29293   4.555   0.209   6.788 -1.3342  0.3208  0.0825
 5944SOL    HW129294   4.630   0.266   6.802 -1.8058  0.6178  1.3555
 5944SOL    HW229295   4.492   0.265   6.833  0.0620  2.1785 -0.2644
 5945SOL     OW29296   0.736   2.004   4.757  0.3352 -0.0801 -0.1775
 5945SOL    HW129297   0.810   1.944   4.743  1.0404  0.1840  2.3122
 5945SOL    HW229298   0.673   1.942   4.794 -0.3316 -0.3116 -1.7100
 5946SOL     OW29299   0.729   0.031  10.104 -0.4502  0.2025 -0.0785
 5946SOL    HW129300   0.803   0.088  10.085  1.2343 -2.0093 -0.1691
 5946SOL    HW229301   0.759   4.718  10.189  0.0363 -0.3045 -0.4468
 5947SOL     OW29302   0.022   1.293   1.084 -0.6817  0.3062  0.6821
 5947SOL    HW129303   0.116   1.300   1.096 -0.3959 -2.5580  0.3137
 5947SOL    HW229304   0.012   1.219   1.023 -0.8037 -0.1105  1.2076
 5948SOL     OW29305   4.311   3.159  10.949  0.4106  1.0011 -0.0948
 5948SOL    HW129306   4.309   3.254  10.941  2.2072  0.8796 -2.0724
 5948SOL    HW229307   4.399   3.136  10.919 -0.2908 -2.6669  0.6770
 5949SOL     OW29308   3.070   3.368  11.576 -0.0726  0.0591 -0.0195
 5949SOL    HW129309   3.008   3.350  11.646 -2.5527  2.2896 -1.6642
 5949SOL    HW229310   3.154   3.330  11.604  0.5721  1.6165  0.1383
 5950SOL     OW29311   0.362   2.322   7.213 -0.0826 -0.2872 -0.2280
 5950SOL    HW129312   0.284   2.335   7.268  0.2276  0.5969  0.0066
 5950SOL    HW229313   0.406   2.403   7.239  0.7778 -0.2137 -1.9219
 5951SOL     OW29314   0.357   2.543   5.951  0.1867  0.2409  0.2246
 5951SOL    HW129315   0.327   2.513   5.866 -0.4568  1.8100 -0.0995
 5951SOL    HW229316   0.396   2.628   5.928  0.2861  0.5055  1.3574
 5952SOL     OW29317   1.507   1.239   4.424  0.0253 -0.1761  0.3357
 5952SOL    HW129318   1.465   1.319   4.456 -0.5182 -0.8464  1.2881
 5952SOL    HW229319   1.466   1.169   4.473 -1.8061  0.7906  0.1813
 5953SOL     OW29320   3.508   2.389   0.081  0.5376  0.4455  0.2474
 5953SOL    HW129321   3.590   2.349   0.110  0.7296 -1.8195 -3.3718
 5953SOL    HW229322   3.461   2.408   0.162 -1.0235  0.8916 -0.7737
 5954SOL     OW29323   1.415   0.205   6.412  0.1508  0.2250 -0.0130
 5954SOL    HW129324   1.361   0.226   6.336 -0.5171  3.4849  1.3892
 5954SOL    HW229325   1.461   0.288   6.399  1.5340 -0.6488 -0.8468
 5955SOL     OW29326   3.004   3.219  14.626 -0.8012 -0.3221  0.8350
 5955SOL    HW129327   3.031   3.148  14.567  0.2974 -0.7445  1.8385
 5955SOL    HW229328   2.936   3.166  14.669 -1.5229  0.3092  0.4614
 5956SOL     OW29329   0.972   3.685   0.644 -0.1551 -0.1555 -0.0965
 5956SOL    HW129330   1.006   3.679   0.734 -0.4059  0.5264  0.0420
 5956SOL    HW229331   0.962   3.779   0.630  1.5285 -0.1488 -1.3153
 5957SOL     OW29332   2.075   1.208   5.532 -0.0661 -0.2527  0.1050
 5957SOL    HW129333   2.082   1.112   5.533  2.1483 -0.0954 -0.7399
 5957SOL    HW229334   2.006   1.219   5.466 -0.3677 -1.4799  0.2025
 5958SOL     OW29335   2.079   3.786   3.192  0.3482 -0.6536  0.3877
 5958SOL    HW129336   2.016   3.788   3.119  0.0084 -3.6224  0.6092
 5958SOL    HW229337   2.153   3.745   3.148 -1.4771 -2.6194 -0.8436
 5959SOL     OW29338   2.044   4.182  12.055 -0.2163 -0.6656 -0.4067
 5959SOL    HW129339   2.065   4.180  11.961  0.4930  0.3952 -0.2683
 5959SOL    HW229340   2.067   4.270  12.084 -2.8773 -0.2033  0.2191
 5960SOL     OW29341   1.252   2.590   6.831 -0.0336 -0.6451  0.2022
 5960SOL    HW129342   1.213   2.508   6.802 -0.6484 -0.6433  1.0195
 5960SOL    HW229343   1.310   2.573   6.905  2.1784 -0.4998 -1.4869
 5961SOL     OW29344   2.508   2.059   1.874 -0.0678 -0.0958  0.4271
 5961SOL    HW129345   2.421   2.047   1.837 -0.8291  2.5711  1.3751
 5961SOL    HW229346   2.499   2.144   1.916 -0.4616  0.8309 -1.5311
 5962SOL     OW29347   0.241   4.360   1.821  0.9031  0.1383 -0.0417
 5962SOL    HW129348   0.180   4.286   1.822  0.1993  0.6951 -1.6814
 5962SOL    HW229349   0.327   4.324   1.800  0.9993  1.0610 -1.2474
 5963SOL     OW29350   3.874   3.499   1.174  0.4639 -0.2727 -0.0580
 5963SOL    HW129351   3.796   3.488   1.228 -1.0600  0.4228 -2.1255
 5963SOL    HW229352   3.905   3.409   1.165 -0.2367 -0.5883  0.7378
 5964SOL     OW29353   2.006   1.145   2.364  0.3813  0.6251 -0.4614
 5964SOL    HW129354   2.009   1.239   2.386  1.3327  0.9564 -2.0218
 5964SOL    HW229355   2.083   1.132   2.309 -0.9800 -1.5171 -1.8588
 5965SOL     OW29356   0.317   1.148  11.721 -0.3003  0.0050  0.0408
 5965SOL    HW129357   0.369   1.136  11.642 -0.0211  4.6642 -0.4544
 5965SOL    HW229358   0.311   1.244  11.720 -0.5330 -0.0117 -0.2643
 5966SOL     OW29359   3.600   4.493   3.011 -0.4076  0.5116 -0.4686
 5966SOL    HW129360   3.637   4.509   2.924  0.7999  2.1532  0.3575
 5966SOL    HW229361   3.542   4.568   3.022  0.9289  1.5569 -0.4926
 5967SOL     OW29362   2.255   2.922   5.192 -0.3400 -0.1695  0.3893
 5967SOL    HW129363   2.291   2.842   5.156  2.3498  0.3566  1.8506
 5967SOL    HW229364   2.204   2.953   5.118 -2.3367  0.9728  2.2207
 5968SOL     OW29365   4.684   2.076  11.114 -0.0953  0.0589  0.2900
 5968SOL    HW129366   4.612   2.063  11.176  0.7068 -1.1207  0.9842
 5968SOL    HW229367   4.646   2.149  11.066 -2.1233 -0.4354  1.1488
 5969SOL     OW29368   1.564   0.891   7.363 -0.3426 -0.0761 -0.0008
 5969SOL    HW129369   1.567   0.855   7.275 -1.7485 -0.0335 -0.0646
 5969SOL    HW229370   1.471   0.903   7.385 -1.0262 -1.7032 -2.0182
 5970SOL     OW29371   0.796   0.980   7.852 -0.5872  0.1960 -0.2918
 5970SOL    HW129372   0.803   0.893   7.813  0.8205 -0.2245  0.8971
 5970SOL    HW229373   0.702   0.985   7.869 -0.3552  0.7027  0.8429
 5971SOL     OW29374   1.939   0.813   5.488  0.2112 -0.2526  0.0392
 5971SOL    HW129375   1.941   0.863   5.407  3.2776  0.8961  0.8043
 5971SOL    HW229376   1.876   0.853   5.547 -0.8923  0.1108 -1.4153
 5972SOL     OW29377   3.691   0.767   8.489  0.0544 -0.5549  0.3054
 5972SOL    HW129378   3.678   0.820   8.568 -1.2569  0.3740 -0.5406
 5972SOL    HW229379   3.613   0.712   8.484 -2.6923  3.3261  0.0953
 5973SOL     OW29380   0.689   2.637   0.676 -0.4592  0.1824  0.2868
 5973SOL    HW129381   0.635   2.564   0.647 -0.4148  1.3520 -2.6848
 5973SOL    HW229382   0.774   2.592   0.672 -0.8299 -0.3763 -1.2807
 5974SOL     OW29383   2.002   2.433  14.905  0.3902 -0.0210 -0.1553
 5974SOL    HW129384   2.018   2.347  14.943 -1.4354 -0.5699 -0.6282
 5974SOL    HW229385   2.030   2.482  14.982  2.2282 -1.4837  0.1250
 5975SOL     OW29386   4.538   3.417  12.595 -0.6598 -0.3315  0.7820
 5975SOL    HW129387   4.479   3.371  12.655 -1.4190  0.4496  0.6409
 5975SOL    HW229388   4.532   3.507  12.628  0.3944 -0.4319  1.2656
 5976SOL     OW29389   4.284   4.648   4.613  0.7975  0.2055  0.1005
 5976SOL    HW129390   4.327   4.580   4.665 -0.3821 -0.4481  0.2301
 5976SOL    HW229391   4.216   4.685   4.670  1.0671  0.5757  0.1814
 5977SOL     OW29392   3.338   3.868  16.665  0.5892 -0.0536  0.1057
 5977SOL    HW129393   3.348   3.933  16.735  1.5821  1.2410 -1.2265
 5977SOL    HW229394   3.336   3.783  16.708 -2.3356 -0.3470 -0.5834
 5978SOL     OW29395   1.416   0.538   8.141  0.2486 -0.5532  0.4059
 5978SOL    HW129396   1.451   0.520   8.228 -2.6138 -1.5314  1.3478
 5978SOL    HW229397   1.412   0.450   8.103  1.1822  0.0792 -1.1322
 5979SOL     OW29398   2.472   4.574   2.351 -0.2366 -0.8247 -0.0069
 5979SOL    HW129399   2.536   4.589   2.420 -1.1497 -1.1987  0.9301
 5979SOL    HW229400   2.421   4.512   2.404 -1.5611 -1.1376 -1.6476
 5980SOL     OW29401   0.617   3.267   4.481  0.4810 -0.1222  0.5095
 5980SOL    HW129402   0.696   3.279   4.428 -0.0734  1.5215  0.0584
 5980SOL    HW229403   0.548   3.299   4.423  2.6938  0.6517 -1.6957
 5981SOL     OW29404   4.546   2.858   5.946 -0.3546 -0.5436 -0.5769
 5981SOL    HW129405   4.518   2.925   5.884  0.1897  1.5173  1.4070
 5981SOL    HW229406   4.642   2.864   5.954 -0.4646 -2.2973  2.4125
 5982SOL     OW29407   1.832   3.039  15.981  0.5384  0.2266 -0.0755
 5982SOL    HW129408   1.876   3.013  16.062 -0.0117  1.6777  0.6894
 5982SOL    HW229409   1.809   3.128  16.006  1.0896 -0.0173  1.3122
 5983SOL     OW29410   0.156   0.273   4.315 -0.2716 -0.2665  0.2963
 5983SOL    HW129411   0.128   0.275   4.223  0.7687 -0.4596 -0.0201
 5983SOL    HW229412   0.098   0.340   4.353  0.3273 -0.0776  0.8776
 5984SOL     OW29413   0.882   1.103   8.488  0.3680  0.1571 -0.1137
 5984SOL    HW129414   0.927   1.185   8.510  0.0404 -0.1476  1.7084
 5984SOL    HW229415   0.794   1.140   8.493  0.7046  0.9655 -0.1672
 5985SOL     OW29416   0.732   0.783  10.345 -0.2655  0.0684 -0.0679
 5985SOL    HW129417   0.647   0.790  10.303  0.0527  2.0300 -0.3865
 5985SOL    HW229418   0.796   0.799  10.275  0.6457  1.0707  0.9881
 5986SOL     OW29419   1.321   4.323   5.853  0.1785  0.2684  0.0109
 5986SOL    HW129420   1.384   4.277   5.798 -2.5333 -1.4527 -1.6108
 5986SOL    HW229421   1.320   4.412   5.817  0.6267  1.0735  2.0373
 5987SOL     OW29422   0.434   4.432   7.039  0.0698  0.5222  0.5327
 5987SOL    HW129423   0.510   4.444   6.982 -0.1149  4.1550  1.0532
 5987SOL    HW229424   0.372   4.434   6.967  0.3304 -1.5794  0.2495
 5988SOL     OW29425   4.571   2.636   4.982  0.4471 -0.5772  0.2555
 5988SOL    HW129426   4.495   2.644   5.038  0.6178 -0.4262  0.4654
 5988SOL    HW229427   4.541   2.566   4.924  2.5079 -0.3655 -1.0829
 5989SOL     OW29428   0.132   3.052   6.373  0.3656 -0.6006 -0.0866
 5989SOL    HW129429   0.171   3.052   6.286  0.0102 -1.9138 -0.2538
 5989SOL    HW229430   0.197   3.023   6.437  0.8527 -0.3666 -0.4742
 5990SOL     OW29431   4.459   3.570   3.023 -0.1742  0.5007 -0.4139
 5990SOL    HW129432   4.429   3.528   3.104 -0.2030 -1.3997 -1.4080
 5990SOL    HW229433   4.394   3.640   3.025  0.1778  0.7935  0.8359
 5991SOL     OW29434   2.893   0.137  16.393 -0.3230 -0.0073  0.5972
 5991SOL    HW129435   2.909   0.137  16.299  0.3920 -5.5771  0.7524
 5991SOL    HW229436   2.975   0.173  16.426 -0.6140  0.2493  1.0414
 5992SOL     OW29437   3.324   4.109   0.229  0.0827  0.3456  0.1048
 5992SOL    HW129438   3.284   4.051   0.164 -1.6652 -1.0592  2.4041
 5992SOL    HW229439   3.317   4.192   0.182 -0.5481 -0.5174 -1.3255
 5993SOL     OW29440   0.244   4.383   6.778  0.5901  0.1741  0.6045
 5993SOL    HW129441   0.188   4.305   6.787  0.0579  0.4519 -0.2301
 5993SOL    HW229442   0.269   4.401   6.687  0.8730  2.8191  1.2051
 5994SOL     OW29443   0.766   0.454  13.795 -0.6791 -0.8901 -0.2649
 5994SOL    HW129444   0.755   0.405  13.714  2.2202 -1.4679 -0.2989
 5994SOL    HW229445   0.702   0.525  13.792  0.5335  0.1416 -1.2315
 5995SOL     OW29446   1.361   0.932   2.309  0.1715  0.1785  0.3676
 5995SOL    HW129447   1.322   0.869   2.247 -0.5454  0.9188  0.0780
 5995SOL    HW229448   1.322   1.017   2.293  2.8376  1.7923  2.4645
 5996SOL     OW29449   3.097   0.757   9.664  0.7066  0.0598  0.6366
 5996SOL    HW129450   3.122   0.679   9.614  0.1408 -0.7073  1.5471
 5996SOL    HW229451   3.028   0.715   9.715  1.9924 -0.2292  2.1293
 5997SOL     OW29452   3.398   3.327   9.254  0.5376 -0.0922 -0.0550
 5997SOL    HW129453   3.413   3.267   9.182  0.9880  0.4150 -0.3786
 5997SOL    HW229454   3.472   3.300   9.308 -0.5314 -0.1293  1.4140
 5998SOL     OW29455   1.270   0.747   2.801 -0.3837 -0.0178 -0.1271
 5998SOL    HW129456   1.205   0.815   2.817  0.0653  0.6513 -1.1968
 5998SOL    HW229457   1.339   0.811   2.813  0.0250 -0.3949 -0.4747
 5999SOL     OW29458   2.180   2.341   5.338 -0.2271 -0.3414 -0.7966
 5999SOL    HW129459   2.226   2.258   5.353  1.3430  0.4029 -1.5793
 5999SOL    HW229460   2.146   2.329   5.250  2.6743  2.4814 -2.2665
 6000SOL     OW29461   0.731   4.455  13.753  0.2616 -0.2482  0.3164
 6000SOL    HW129462   0.636   4.457  13.762  0.2734 -1.7125  0.8074
 6000SOL    HW229463   0.759   4.408  13.831 -0.2468 -0.2344  0.5037
 6001SOL     OW29464   4.293   4.677  11.764 -0.1280  0.2044  0.1839
 6001SOL    HW129465   4.359   4.624  11.809 -0.4592 -0.4555 -0.1056
 6001SOL    HW229466   4.294   0.043  11.806  0.3491  0.7194 -0.8940
 6002SOL     OW29467   0.802   4.643   4.427 -0.4735 -0.3023 -0.7211
 6002SOL    HW129468   0.745   4.569   4.446 -0.5773  0.2234  1.0572
 6002SOL    HW229469   0.889   4.613   4.453 -1.0495  0.2510  1.8666
 6003SOL     OW29470   0.080   1.972   5.232  0.9319  0.2231 -0.6340
 6003SOL    HW129471   0.077   1.883   5.266  0.7129  0.6603  0.4957
 6003SOL    HW229472   0.133   2.018   5.298  1.5988 -0.6200 -0.5843
 6004SOL     OW29473   1.412   2.170   2.455 -0.2730  0.5877  0.2692
 6004SOL    HW129474   1.422   2.207   2.367 -0.0377 -0.9359 -0.3305
 6004SOL    HW229475   1.353   2.236   2.493 -0.5223  0.1064  0.7138
 6005SOL     OW29476   2.128   1.387   2.636 -0.1411 -0.2798  0.0068
 6005SOL    HW129477   2.126   1.389   2.541  2.0556  1.1815  0.0115
 6005SOL    HW229478   2.035   1.379   2.659 -0.0698 -2.0929 -0.3258
 6006SOL     OW29479   2.495   0.501   3.112  0.0648 -0.3672  0.4341
 6006SOL    HW129480   2.450   0.447   3.177  0.8446 -1.1016  0.3499
 6006SOL    HW229481   2.584   0.472   3.130  0.4311 -0.4126 -1.4409
 6007SOL     OW29482   2.713   2.610   1.739 -0.6699  0.1673  0.1471
 6007SOL    HW129483   2.763   2.595   1.820  0.9502  1.0333 -0.6727
 6007SOL    HW229484   2.681   2.697   1.764 -0.8398  0.0694  0.2683
 6008SOL     OW29485   2.819   3.919   3.949 -0.5787  0.0075 -0.2635
 6008SOL    HW129486   2.728   3.910   3.920 -0.2719 -0.3761 -1.1260
 6008SOL    HW229487   2.818   4.005   3.991 -1.4177  0.6269 -1.5350
 6009SOL     OW29488   1.560   2.209   7.345 -0.0858  0.2407  0.2647
 6009SOL    HW129489   1.584   2.293   7.384  3.0549 -2.5744  4.5033
 6009SOL    HW229490   1.571   2.208   7.250 -1.2741  0.2060  0.1330
 6010SOL     OW29491   3.952   2.277   5.047 -0.5927  0.3984 -0.0493
 6010SOL    HW129492   4.014   2.215   5.008 -3.0013 -1.9965 -0.0332
 6010SOL    HW229493   3.875   2.275   4.990 -0.7947 -0.5004  0.2632
 6011SOL     OW29494   4.622   1.223   3.357 -0.5220  0.1976 -0.1614
 6011SOL    HW129495   4.561   1.212   3.285  0.3373  0.8531 -0.9937
 6011SOL    HW229496   4.667   1.303   3.330 -1.4173  0.1431 -1.8084
 6012SOL     OW29497   3.492   1.612   6.848  0.7054 -0.1164  0.1115
 6012SOL    HW129498   3.443   1.543   6.891 -0.5917  0.9259  0.3130
 6012SOL    HW229499   3.442   1.678   6.897  0.0156 -0.5878  0.0378
 6013SOL     OW29500   0.482   2.557  14.191  0.6186 -0.0746 -1.1874
 6013SOL    HW129501   0.397   2.582  14.154 -0.8427  0.7625  2.6457
 6013SOL    HW229502   0.454   2.538  14.281  1.5739 -1.1205 -1.1119
 6014SOL     OW29503   1.370   3.831   8.272  0.1112 -0.3580 -0.1987
 6014SOL    HW129504   1.285   3.808   8.311 -0.2193 -2.1608 -1.9914
 6014SOL    HW229505   1.346   3.894   8.205 -1.3185 -2.4935 -1.6948
 6015SOL     OW29506   0.008   0.971   7.802 -0.1763  0.1992 -0.4606
 6015SOL    HW129507   4.648   0.975   7.749 -2.0028  0.2132  2.2989
 6015SOL    HW229508   0.038   0.881   7.808 -1.8320 -0.4073 -1.1218
 6016SOL     OW29509   2.397   3.709  14.646 -0.1373 -0.0953 -0.0999
 6016SOL    HW129510   2.376   3.699  14.553 -0.1860 -2.2933  0.1601
 6016SOL    HW229511   2.380   3.622  14.681  0.3424 -1.1011 -2.3704
 6017SOL     OW29512   2.245   3.885   1.995 -0.0988  0.4719 -0.5426
 6017SOL    HW129513   2.246   3.794   2.026  0.1622  1.0829  1.2330
 6017SOL    HW229514   2.151   3.903   1.987 -0.4894 -1.4697 -0.4745
 6018SOL     OW29515   1.332   4.514   5.380 -0.3702 -0.7089 -0.3466
 6018SOL    HW129516   1.307   4.557   5.299  0.1963 -0.1155 -0.2146
 6018SOL    HW229517   1.253   4.465   5.403 -1.0272 -0.1561 -1.4431
 6019SOL     OW29518   3.112   1.942   8.047 -0.8788  0.5654 -0.3111
 6019SOL    HW129519   3.145   1.963   7.960 -1.0885  2.2691  0.0235
 6019SOL    HW229520   3.166   1.867   8.072  1.1712  1.8243 -1.0200
 6020SOL     OW29521   0.729   4.225   9.624  0.3145  0.1230  0.1930
 6020SOL    HW129522   0.661   4.251   9.562  0.6128 -0.8303 -0.5367
 6020SOL    HW229523   0.686   4.140   9.624 -0.7204  0.6474 -0.5535
 6021SOL     OW29524   4.496   3.550  13.273 -0.0906  0.3517  0.0379
 6021SOL    HW129525   4.579   3.531  13.316  0.7332  1.2976 -1.1388
 6021SOL    HW229526   4.471   3.462  13.299  0.3538 -0.3359 -1.8500
 6022SOL     OW29527   2.553   0.865  14.666 -0.0641  0.2331 -0.0515
 6022SOL    HW129528   2.459   0.852  14.655  0.0753 -0.6284 -0.1961
 6022SOL    HW229529   2.566   0.946  14.617  1.5531 -0.2248 -0.4069
 6023SOL     OW29530   2.435   1.325  13.397  0.0618  0.3939 -0.3403
 6023SOL    HW129531   2.436   1.378  13.318  2.0002 -0.7756 -1.1139
 6023SOL    HW229532   2.406   1.238  13.371  1.3251  0.1354 -0.8727
 6024SOL     OW29533   3.672   3.095   0.005  0.0114  0.1214 -0.5687
 6024SOL    HW129534   3.675   3.122   0.097 -2.6224  1.0180 -0.7196
 6024SOL    HW229535   3.761   3.067  17.670  1.0270  1.9740  1.6693
 6025SOL     OW29536   1.912   2.345  15.331 -0.2443 -0.2968  0.2758
 6025SOL    HW129537   1.923   2.257  15.367  1.2355 -0.1039  0.2979
 6025SOL    HW229538   1.877   2.324  15.244 -0.8571  0.1925  0.4106
 6026SOL     OW29539   0.873   3.730   6.512  0.1786  0.4247 -0.3772
 6026SOL    HW129540   0.947   3.731   6.451  1.4424 -0.6222  1.1389
 6026SOL    HW229541   0.900   3.802   6.569 -0.0284  0.9171 -0.9076
 6027SOL     OW29542   1.214   1.550   2.318 -0.8133  0.4259 -0.2651
 6027SOL    HW129543   1.216   1.458   2.344  1.0732 -0.0409 -1.9931
 6027SOL    HW229544   1.271   1.597   2.379  0.1107 -0.9073 -0.0930
 6028SOL     OW29545   1.299   2.991   1.099 -0.2460 -0.3827  0.1811
 6028SOL    HW129546   1.321   3.067   1.152 -2.5850 -0.0542  0.6775
 6028SOL    HW229547   1.373   2.938   1.128 -0.1894 -0.4069 -0.0103
 6029SOL     OW29548   2.294   2.260   0.194  0.0255  0.1210 -0.4150
 6029SOL    HW129549   2.365   2.232   0.136  2.3082  0.8233  2.0348
 6029SOL    HW229550   2.219   2.278   0.137 -1.0699  0.6619  1.1795
 6030SOL     OW29551   3.588   1.688  16.214  0.4041 -0.1754  0.0861
 6030SOL    HW129552   3.507   1.739  16.220  1.9249  2.1873  0.8505
 6030SOL    HW229553   3.613   1.719  16.127 -0.5618 -0.9423 -0.4511
 6031SOL     OW29554   1.763   1.798   3.623  0.1811  0.5310  0.0710
 6031SOL    HW129555   1.686   1.824   3.674  0.3137  2.5257 -0.7474
 6031SOL    HW229556   1.790   1.723   3.676  1.1044  0.7607 -0.0668
 6032SOL     OW29557   3.022   1.703   8.804 -0.4542 -0.3036 -0.3060
 6032SOL    HW129558   2.956   1.636   8.789 -1.0175 -0.2659  1.9893
 6032SOL    HW229559   2.958   1.771   8.825 -0.4923 -1.4089  3.1359
 6033SOL     OW29560   2.073   3.758  11.882 -0.3447  0.0024 -0.8046
 6033SOL    HW129561   2.001   3.814  11.912  0.5451  0.1403  1.0875
 6033SOL    HW229562   2.060   3.776  11.789  3.5597  2.1959 -0.9374
 6034SOL     OW29563   1.334   2.842   2.062  0.2816  0.6434  0.0792
 6034SOL    HW129564   1.382   2.777   2.010 -1.6719  1.7477 -3.0619
 6034SOL    HW229565   1.302   2.908   2.001  0.1412  1.8992  1.5163
 6035SOL     OW29566   4.560   0.820   5.217  0.6235  0.0779 -0.0868
 6035SOL    HW129567   4.620   0.866   5.274  1.1093  0.4883 -0.9284
 6035SOL    HW229568   4.528   0.749   5.273 -0.8179 -0.9979 -2.2538
 6036SOL     OW29569   0.995   3.880   3.256  0.8045 -0.6318  0.4174
 6036SOL    HW129570   1.085   3.869   3.225  1.0811 -1.4528  1.5346
 6036SOL    HW229571   0.990   3.796   3.302 -1.7526 -1.5705 -1.5621
 6037SOL     OW29572   1.053   2.034   0.580 -0.2466 -0.7469 -0.3696
 6037SOL    HW129573   1.136   1.987   0.589  0.3928 -0.0707 -2.7311
 6037SOL    HW229574   1.040   2.038   0.485  1.6524 -1.3363 -0.6538
 6038SOL     OW29575   2.966   1.619   5.950 -0.1870 -0.2801 -0.3388
 6038SOL    HW129576   2.905   1.607   5.877 -0.6129  0.2635 -0.0783
 6038SOL    HW229577   3.009   1.534   5.948  1.6732  0.6508 -0.1413
 6039SOL     OW29578   4.057   0.040   9.421  0.3341  0.1137 -0.3109
 6039SOL    HW129579   4.148   0.015   9.405 -0.0716 -1.0742 -0.7694
 6039SOL    HW229580   4.038   4.687   9.480  0.7006 -0.9109 -1.4417
 6040SOL     OW29581   3.319   1.543   3.591 -0.0497 -0.9246  0.0341
 6040SOL    HW129582   3.228   1.548   3.562 -0.7404  1.4330  2.5467
 6040SOL    HW229583   3.321   1.583   3.678 -3.1526 -0.6017 -0.0213
 6041SOL     OW29584   1.231   0.261   0.707 -0.0233  0.3965 -0.5161
 6041SOL    HW129585   1.238   0.257   0.611  0.5348  1.1341 -0.4992
 6041SOL    HW229586   1.137   0.278   0.713 -0.1272 -1.2867  2.4922
 6042SOL     OW29587   3.412   1.024   4.033 -0.1607 -0.8695 -0.3334
 6042SOL    HW129588   3.373   1.111   4.027  0.7141 -0.3976  0.8736
 6042SOL    HW229589   3.436   1.021   3.940 -1.1710 -0.9305 -0.5940
 6043SOL     OW29590   1.209   0.675   1.437  0.4161 -0.2960  0.1341
 6043SOL    HW129591   1.202   0.734   1.362  2.6867 -1.9758 -1.3650
 6043SOL    HW229592   1.156   0.728   1.498  0.9508  0.0770  0.2703
 6044SOL     OW29593   3.517   2.062  10.393 -0.1152  0.6446  0.1313
 6044SOL    HW129594   3.516   2.037  10.486 -0.9360 -0.5804 -0.2088
 6044SOL    HW229595   3.430   2.038  10.362  0.0489  1.6088 -1.0932
 6045SOL     OW29596   1.019   2.399   7.533  0.5513  0.1660  0.1665
 6045SOL    HW129597   0.968   2.461   7.585 -1.1995  0.1580 -1.5397
 6045SOL    HW229598   1.106   2.419   7.566  0.7017  1.4589 -1.0537
 6046SOL     OW29599   1.765   1.314  11.314  0.4014 -0.2970 -0.0560
 6046SOL    HW129600   1.676   1.350  11.324  0.0488 -0.8767 -1.1046
 6046SOL    HW229601   1.785   1.285  11.402  0.6258  0.0642  0.0109
 6047SOL     OW29602   0.997   3.083   1.799  0.0969 -0.1012  0.3380
 6047SOL    HW129603   1.068   3.065   1.861  2.3406  1.8461 -1.6253
 6047SOL    HW229604   0.981   3.176   1.815 -3.1954 -0.3334 -1.6009
 6048SOL     OW29605   1.400   1.072   9.088 -0.5359 -0.1729  0.2235
 6048SOL    HW129606   1.377   1.079   8.996 -0.8624 -1.9053  0.1752
 6048SOL    HW229607   1.447   0.990   9.073 -0.6449 -0.0195 -0.9649
 6049SOL     OW29608   2.609   3.751  14.948  0.0283 -0.1328 -0.4117
 6049SOL    HW129609   2.649   3.669  14.977  0.2604  0.1634  0.1154
 6049SOL    HW229610   2.521   3.757  14.986  0.8607  0.7723  1.4019
 6050SOL     OW29611   0.342   3.893  12.354  0.1353 -0.0990 -0.5023
 6050SOL    HW129612   0.289   3.868  12.430 -0.3674  3.9498  0.4520
 6050SOL    HW229613   0.428   3.913  12.392 -1.4027  0.3503  2.7459
 6051SOL     OW29614   2.019   1.603  14.935  0.2468 -0.2496 -0.2454
 6051SOL    HW129615   1.961   1.555  14.877  0.4594 -1.7697  0.7934
 6051SOL    HW229616   2.053   1.664  14.870  1.6368 -2.4817 -1.5910
 6052SOL     OW29617   2.410   1.131  10.012 -0.0188 -0.2868 -0.6285
 6052SOL    HW129618   2.370   1.063  10.066  0.8304 -1.7775 -1.8594
 6052SOL    HW229619   2.337   1.187   9.986  1.0267  1.3093 -0.0623
 6053SOL     OW29620   0.592   1.351   2.001 -0.4496  0.0820  0.1412
 6053SOL    HW129621   0.569   1.272   1.951 -0.2031  0.3928 -0.4630
 6053SOL    HW229622   0.591   1.320   2.092  1.9426  1.4242  0.6111
 6054SOL     OW29623   2.159   4.012   9.392  0.4226 -0.1093  0.4204
 6054SOL    HW129624   2.099   3.939   9.407  2.0126 -1.2305  1.3374
 6054SOL    HW229625   2.095   4.082   9.405  0.2442 -0.4126  1.2137
 6055SOL     OW29626   0.667   3.968   5.988  0.3796 -0.0578 -0.1261
 6055SOL    HW129627   0.726   4.041   6.002 -0.8066  1.0016 -0.6179
 6055SOL    HW229628   0.728   3.896   5.971  0.4305 -0.2754  0.9813
 6056SOL     OW29629   0.013   1.291  16.766 -0.1299 -0.9614  0.3087
 6056SOL    HW129630   0.032   1.385  16.759  1.7851 -1.2494  1.7177
 6056SOL    HW229631   4.695   1.279  16.678  0.5007  1.9649 -0.3674
 6057SOL     OW29632   0.052   2.798   7.386 -0.3652 -0.2608  0.5580
 6057SOL    HW129633   0.008   2.748   7.317  0.4081  2.4720 -1.9274
 6057SOL    HW229634   0.051   2.738   7.460  0.4097  0.4269  1.1198
 6058SOL     OW29635   0.283   2.313   4.372  0.5319  0.3571  0.2270
 6058SOL    HW129636   0.372   2.340   4.393  0.1913  0.2794  1.7442
 6058SOL    HW229637   0.314   2.247   4.310 -0.2297  0.7813 -0.5970
 6059SOL     OW29638   3.388   3.979   2.235  0.1434  0.1693  0.4669
 6059SOL    HW129639   3.413   4.068   2.260 -1.3284 -0.0252  2.5419
 6059SOL    HW229640   3.475   3.948   2.210 -0.0991  0.7900 -1.1786
 6060SOL     OW29641   1.717   3.260   4.863 -0.0783  0.1348 -0.2038
 6060SOL    HW129642   1.713   3.355   4.855 -0.3846  0.1075 -0.3661
 6060SOL    HW229643   1.741   3.233   4.775 -1.5121  1.2138 -0.9391
 6061SOL     OW29644   3.020   2.720   7.112 -0.4136  0.1531  0.0194
 6061SOL    HW129645   3.083   2.746   7.179 -3.1582 -0.2665  2.7751
 6061SOL    HW229646   2.990   2.810   7.099  0.6628  0.5023 -0.1113
 6062SOL     OW29647   1.854   1.874   1.358 -0.1466  0.1853 -0.2958
 6062SOL    HW129648   1.916   1.937   1.321  3.1870 -2.5026  0.7226
 6062SOL    HW229649   1.907   1.822   1.418  1.0053  1.1650 -0.4592
 6063SOL     OW29650   1.182   1.161   6.047  0.0234 -0.0647 -0.1496
 6063SOL    HW129651   1.179   1.137   5.955 -0.7464  0.6842 -0.3099
 6063SOL    HW229652   1.242   1.234   6.035  1.1378 -0.8345  0.6851
 6064SOL     OW29653   3.425   2.317   5.409  0.1916 -0.6687 -0.2260
 6064SOL    HW129654   3.414   2.260   5.485 -0.6386 -0.2364 -0.0215
 6064SOL    HW229655   3.501   2.277   5.367  0.6125 -0.0796 -0.0378
 6065SOL     OW29656   2.820   2.754   2.554 -0.1998 -0.4733 -0.2221
 6065SOL    HW129657   2.902   2.784   2.515 -1.1357  1.4829 -0.6656
 6065SOL    HW229658   2.812   2.821   2.622  2.2374  0.9353 -1.3183
 6066SOL     OW29659   1.969   4.403   9.049 -0.2912 -0.2552 -0.3593
 6066SOL    HW129660   1.928   4.317   9.040 -1.2773  0.2571 -0.7520
 6066SOL    HW229661   2.029   4.380   9.119  0.2212  1.7233 -0.1348
 6067SOL     OW29662   1.171   3.208  12.580  0.2996 -0.2441 -1.0314
 6067SOL    HW129663   1.178   3.242  12.491 -1.7270 -0.0850 -1.1377
 6067SOL    HW229664   1.076   3.207  12.594  0.5180  1.0373  0.4925
 6068SOL     OW29665   3.160   0.945   8.808 -0.1729 -0.2676 -0.4736
 6068SOL    HW129666   3.189   1.031   8.839  1.6430 -0.5010 -1.4728
 6068SOL    HW229667   3.087   0.930   8.867 -0.6417  0.2448 -0.9246
 6069SOL     OW29668   3.355   1.920   6.903 -0.3370  0.3835 -0.1137
 6069SOL    HW129669   3.331   1.937   6.811 -2.1678 -2.3798 -0.1263
 6069SOL    HW229670   3.413   1.993   6.925 -2.0785  1.4256  0.9180
 6070SOL     OW29671   4.001   0.874   2.584  0.5470  0.4180 -0.3362
 6070SOL    HW129672   3.925   0.839   2.631  1.4143 -0.7918  0.1380
 6070SOL    HW229673   4.026   0.811   2.517  0.3419 -0.2267  0.1996
 6071SOL     OW29674   3.744   2.202   7.205  0.4520  0.2700 -0.0286
 6071SOL    HW129675   3.715   2.288   7.174  0.4753 -0.2074 -1.3803
 6071SOL    HW229676   3.722   2.148   7.129 -0.6331 -1.9966  1.9181
 6072SOL     OW29677   4.635   0.148   9.320  0.0528 -0.0413 -0.2560
 6072SOL    HW129678   4.606   0.219   9.377 -0.8736  0.0643 -0.8521
 6072SOL    HW229679   4.598   0.069   9.358  0.2067  0.4776  0.9639
 6073SOL     OW29680   3.366   2.425   8.019 -0.0343 -0.2030  0.1303
 6073SOL    HW129681   3.400   2.358   7.961 -3.4841  0.7233 -2.9496
 6073SOL    HW229682   3.275   2.444   7.996 -0.3656 -0.1851  1.4203
 6074SOL     OW29683   0.561   0.860  15.059  0.0609 -0.5374 -0.3085
 6074SOL    HW129684   0.655   0.875  15.071  0.4516 -0.3263 -3.5333
 6074SOL    HW229685   0.529   0.934  15.111 -0.3520  0.3083 -1.7554
 6075SOL     OW29686   3.010   3.251   4.734  0.2233  0.2947  0.6631
 6075SOL    HW129687   3.093   3.222   4.771 -0.2758 -1.1209  0.6872
 6075SOL    HW229688   3.034   3.258   4.641 -0.0907 -0.8217  0.5010
 6076SOL     OW29689   0.683   2.197   2.583  0.1775  0.2768  0.5334
 6076SOL    HW129690   0.625   2.191   2.508  1.6126  0.0553 -0.5636
 6076SOL    HW229691   0.653   2.278   2.624  0.2726 -0.6257  2.3754
 6077SOL     OW29692   2.563   2.657   0.750 -0.2304 -0.2226 -0.3982
 6077SOL    HW129693   2.543   2.653   0.656 -1.7149  1.0950 -0.1438
 6077SOL    HW229694   2.569   2.752   0.760 -0.2223 -0.1973 -0.6282
 6078SOL     OW29695   4.538   1.501   2.187 -0.5216  0.2522 -0.2938
 6078SOL    HW129696   4.466   1.484   2.248  0.9488 -0.0009  1.3670
 6078SOL    HW229697   4.491   1.516   2.105 -1.3464  1.1203  0.3421
 6079SOL     OW29698   3.280   2.293  17.606  0.3312 -0.1914  0.1064
 6079SOL    HW129699   3.218   2.272  17.676  0.0066  0.5029  0.0289
 6079SOL    HW229700   3.356   2.318  17.659 -0.3796 -0.8376  1.4460
 6080SOL     OW29701   1.719   2.432   9.456 -0.4844 -0.4518 -0.0712
 6080SOL    HW129702   1.654   2.404   9.391  1.1495  0.0223 -1.8903
 6080SOL    HW229703   1.696   2.386   9.537 -0.8531  0.1143  0.1474
 6081SOL     OW29704   3.846   0.636  16.713 -0.4818  0.2997 -0.0265
 6081SOL    HW129705   3.822   0.726  16.737  0.9009  1.3262 -2.4406
 6081SOL    HW229706   3.940   0.642  16.699 -0.4166  0.9524  0.6846
 6082SOL     OW29707   2.183   1.790   1.212 -0.3751 -0.0043 -0.0060
 6082SOL    HW129708   2.141   1.876   1.206 -0.8358 -0.2556 -0.4306
 6082SOL    HW229709   2.154   1.733   1.140 -1.1563  0.8469 -0.3754
 6083SOL     OW29710   1.492   1.692   6.577 -0.6170  0.1107 -0.4325
 6083SOL    HW129711   1.575   1.669   6.620 -0.2140 -2.2397 -2.4594
 6083SOL    HW229712   1.478   1.784   6.598 -1.3196  0.0811 -0.7994
 6084SOL     OW29713   0.839   0.499   5.402 -0.0838  0.6924  0.6510
 6084SOL    HW129714   0.765   0.531   5.350 -0.2412 -2.1784 -0.9158
 6084SOL    HW229715   0.815   0.521   5.492 -0.2456 -0.8700  0.9924
 6085SOL     OW29716   4.435   1.595   7.405 -0.3392 -0.2269  0.9091
 6085SOL    HW129717   4.416   1.664   7.342 -0.1475 -1.0390 -0.0435
 6085SOL    HW229718   4.498   1.637   7.464  2.3901  0.5181 -2.5330
 6086SOL     OW29719   0.081   1.273   4.793  0.2877 -0.0572 -0.4688
 6086SOL    HW129720   0.083   1.271   4.698 -0.6577 -0.5445 -0.4721
 6086SOL    HW229721   0.042   1.188   4.814 -1.0018  0.9193  1.0215
 6087SOL     OW29722   0.893   3.987   9.351 -0.1518 -0.2132 -0.2130
 6087SOL    HW129723   0.983   4.002   9.380  0.8865 -2.8817 -2.0759
 6087SOL    HW229724   0.856   4.059   9.402 -1.5893 -0.6328 -0.6556
 6088SOL     OW29725   1.645   3.466   7.832  0.9260 -0.3295 -0.1646
 6088SOL    HW129726   1.643   3.551   7.878  1.4831 -0.8617  0.8495
 6088SOL    HW229727   1.647   3.404   7.905  1.8075  0.8301  0.8286
 6089SOL     OW29728   2.528   0.403   2.024 -0.1694 -0.0983 -0.0823
 6089SOL    HW129729   2.505   0.412   2.116 -0.0047  0.6166 -0.1044
 6089SOL    HW229730   2.529   0.310   2.001 -0.9688  0.1287 -1.0518
 6090SOL     OW29731   0.200   0.910   3.613  0.6832 -0.4639 -0.0059
 6090SOL    HW129732   0.143   0.986   3.624  0.0744 -0.7895 -0.9781
 6090SOL    HW229733   0.158   0.872   3.536 -1.1756  0.4198  0.5876
 6091SOL     OW29734   3.304   3.447  12.294  0.6581 -0.1069 -0.6776
 6091SOL    HW129735   3.254   3.528  12.291  1.4849  0.3303 -2.7542
 6091SOL    HW229736   3.319   3.442  12.388  0.7451 -1.6553 -0.7618
 6092SOL     OW29737   2.769   3.765   8.117  0.1998  0.3046  0.2304
 6092SOL    HW129738   2.720   3.719   8.186  2.5933 -2.2797  0.2282
 6092SOL    HW229739   2.856   3.731   8.140  0.2877 -0.5951 -1.4355
 6093SOL     OW29740   3.651   0.133   7.903 -0.6447 -0.3077 -0.0704
 6093SOL    HW129741   3.583   0.190   7.938  0.6088  0.5720  0.9671
 6093SOL    HW229742   3.682   0.209   7.854 -1.3824  0.7703  1.1431
 6094SOL     OW29743   1.684   2.890  14.297  0.6641 -0.5975 -0.0399
 6094SOL    HW129744   1.737   2.819  14.263  1.5462  1.1424 -2.2714
 6094SOL    HW229745   1.638   2.844  14.368  0.2149 -2.2762 -1.4372
 6095SOL     OW29746   2.885   1.555  12.312 -0.3296 -0.3292  0.3937
 6095SOL    HW129747   2.939   1.566  12.234 -0.5274  1.6618  0.5470
 6095SOL    HW229748   2.797   1.568  12.276 -0.1842 -2.6374 -0.8300
 6096SOL     OW29749   1.307   0.277   0.442  0.2684 -0.2071  0.2563
 6096SOL    HW129750   1.348   0.351   0.397  0.9588 -0.4755  0.4434
 6096SOL    HW229751   1.349   0.207   0.392  1.4780  2.0112 -1.8423
 6097SOL     OW29752   1.385   1.957  16.233 -0.3682 -0.1298  0.0383
 6097SOL    HW129753   1.466   2.000  16.259  0.2482 -2.3177  1.6732
 6097SOL    HW229754   1.337   1.985  16.311  0.7197  0.6509  0.4285
 6098SOL     OW29755   4.563   1.158   8.892  0.1552  0.2122  0.1102
 6098SOL    HW129756   4.580   1.225   8.825 -1.5648  1.1122  0.5787
 6098SOL    HW229757   4.494   1.200   8.943  1.5263  2.3733  0.2426
 6099SOL     OW29758   2.065   1.890  12.846 -0.3035 -0.1447  0.4073
 6099SOL    HW129759   2.084   1.972  12.801  2.2647 -0.7859  0.3390
 6099SOL    HW229760   2.030   1.839  12.772  0.3051  0.3622 -0.2226
 6100SOL     OW29761   2.259   4.057  12.174 -0.0019  0.1374  0.5922
 6100SOL    HW129762   2.244   3.964  12.157 -0.8865  0.3432  0.2550
 6100SOL    HW229763   2.193   4.102  12.122  1.5164  1.0413 -0.5554
 6101SOL     OW29764   3.075   4.037  11.883 -0.4730 -0.5616  0.0697
 6101SOL    HW129765   3.015   3.965  11.902  0.3933 -2.0884 -2.9248
 6101SOL    HW229766   3.105   4.063  11.970 -1.4054  1.3747 -0.2023
 6102SOL     OW29767   3.843   4.629   1.665  0.8054  0.2973  0.5050
 6102SOL    HW129768   3.752   4.613   1.687  0.2069 -0.7003 -2.6606
 6102SOL    HW229769   3.832   4.606   1.573 -1.3650 -2.7123  1.5472
 6103SOL     OW29770   1.613   0.698   7.957 -0.8617  0.2897 -0.1579
 6103SOL    HW129771   1.540   0.677   8.014 -0.6287 -1.1094 -0.3760
 6103SOL    HW229772   1.573   0.721   7.873 -0.2856 -1.5989 -0.9482
 6104SOL     OW29773   0.410   1.999   5.225  0.2133 -0.0621  0.4238
 6104SOL    HW129774   0.390   2.091   5.240 -2.4020 -0.3954 -1.0496
 6104SOL    HW229775   0.356   1.974   5.150  1.1548 -1.6685  0.2852
 6105SOL     OW29776   3.398   2.641   7.159 -0.0661 -0.1412 -0.2413
 6105SOL    HW129777   3.380   2.714   7.100 -1.8641 -2.1872 -2.1890
 6105SOL    HW229778   3.489   2.660   7.181 -0.5903  1.5771  0.5250
 6106SOL     OW29779   1.437   4.633  14.958 -0.2704  0.3610  0.0381
 6106SOL    HW129780   1.504   4.626  14.890 -0.8251 -1.2604 -0.3571
 6106SOL    HW229781   1.466   4.574  15.028 -0.8282 -1.5554 -1.3275
 6107SOL     OW29782   2.776   3.587   6.060  0.0426  0.0941 -0.1204
 6107SOL    HW129783   2.709   3.553   6.119  0.5504  0.2398  0.5388
 6107SOL    HW229784   2.827   3.506   6.055 -1.8787 -1.0753 -0.5760
 6108SOL     OW29785   2.131   4.100   9.133  0.5592  0.3090 -0.0812
 6108SOL    HW129786   2.135   4.195   9.145 -1.2511  0.5722 -1.4457
 6108SOL    HW229787   2.161   4.064   9.216 -0.0201 -1.2775 -0.5502
 6109SOL     OW29788   0.572   1.104   9.729  0.1492  0.2682  0.1196
 6109SOL    HW129789   0.478   1.121   9.737  0.3950  1.0585  1.2227
 6109SOL    HW229790   0.592   1.145   9.644 -1.4404 -0.2859 -0.5235
 6110SOL     OW29791   4.708   4.126   6.519  0.0885 -0.3718  0.2045
 6110SOL    HW129792   4.717   4.118   6.424  2.8565 -0.1010  0.4441
 6110SOL    HW229793   4.624   4.083   6.535 -0.1773  0.4134  0.8763
 6111SOL     OW29794   2.114   4.461   2.879 -0.1207  0.0473  0.6951
 6111SOL    HW129795   2.090   4.369   2.881  1.1614 -0.3285 -1.1352
 6111SOL    HW229796   2.055   4.489   2.809  1.0086 -0.7531 -0.5633
 6112SOL     OW29797   0.875   4.153   8.638 -0.4209 -0.4190  0.4675
 6112SOL    HW129798   0.928   4.223   8.677 -0.4876  0.1296 -0.4066
 6112SOL    HW229799   0.873   4.096   8.714  1.5684  0.4742  1.2037
 6113SOL     OW29800   3.058   3.397   0.515 -0.1444 -0.5775  0.6228
 6113SOL    HW129801   3.107   3.470   0.551  0.5304 -1.1181  0.8000
 6113SOL    HW229802   3.058   3.335   0.588 -0.0310 -2.6440 -1.1401
 6114SOL     OW29803   4.130   3.937   6.053 -0.3538 -0.4879 -0.3317
 6114SOL    HW129804   4.225   3.943   6.056 -0.3850  1.2248 -2.5995
 6114SOL    HW229805   4.119   3.998   5.979  1.4550 -1.3260 -1.2740
 6115SOL     OW29806   2.218   1.618   7.091  0.5853  0.1426 -0.0073
 6115SOL    HW129807   2.312   1.623   7.109  0.7951 -0.8638 -0.8559
 6115SOL    HW229808   2.196   1.525   7.090  2.1613 -0.2160 -0.3166
 6116SOL     OW29809   1.188   3.934  10.182  0.4348  0.2852 -0.4714
 6116SOL    HW129810   1.117   3.895  10.232  1.2632 -0.0881  0.4242
 6116SOL    HW229811   1.141   3.954  10.101  1.9387  1.9938 -0.9228
 6117SOL     OW29812   1.561   4.220  14.344 -0.0423 -0.2056 -0.2766
 6117SOL    HW129813   1.623   4.252  14.278 -0.1363 -1.8524 -1.1581
 6117SOL    HW229814   1.492   4.185  14.288  0.1245 -0.7776 -0.1246
 6118SOL     OW29815   1.701   0.378   9.022 -0.9832 -0.3965 -0.1444
 6118SOL    HW129816   1.794   0.380   9.046 -0.2556  0.4103 -3.1204
 6118SOL    HW229817   1.691   0.469   8.996  2.8193 -0.6576 -2.5675
 6119SOL     OW29818   4.116   3.108   5.706  0.1374  0.0173  0.2738
 6119SOL    HW129819   4.135   3.146   5.791 -0.1707  0.4428  0.1518
 6119SOL    HW229820   4.064   3.030   5.727 -0.6410  0.6093  0.5233
 6120SOL     OW29821   2.044   0.734   1.231 -0.3472 -0.6501 -0.3906
 6120SOL    HW129822   2.137   0.728   1.254 -0.2803  1.0219 -0.2816
 6120SOL    HW229823   1.997   0.674   1.289 -2.9077  1.6028 -0.1278
 6121SOL     OW29824   3.792   1.248   4.421  0.8018 -1.0530 -0.4062
 6121SOL    HW129825   3.862   1.313   4.410  0.3730 -0.3222  1.2173
 6121SOL    HW229826   3.723   1.289   4.368  0.7464  1.3154  1.4678
 6122SOL     OW29827   4.356   2.302   4.461 -0.3207 -0.3324 -0.1272
 6122SOL    HW129828   4.283   2.301   4.523 -0.3081 -1.8687 -0.1293
 6122SOL    HW229829   4.345   2.390   4.424  0.9918 -0.3205 -0.4831
 6123SOL     OW29830   2.618   4.622   8.970 -0.2236 -0.4795 -0.2718
 6123SOL    HW129831   2.576   4.622   9.055  0.1503 -1.0391 -0.0885
 6123SOL    HW229832   2.696   4.569   8.986 -1.4808 -1.3655  2.8200
 6124SOL     OW29833   2.627   3.818   5.907 -0.0275  0.3502 -0.1543
 6124SOL    HW129834   2.710   3.859   5.884 -0.1324  0.0515 -1.0819
 6124SOL    HW229835   2.664   3.742   5.952  1.4843  1.0714 -0.1722
 6125SOL     OW29836   3.187   2.512   8.690  0.5837  0.3826  0.1099
 6125SOL    HW129837   3.247   2.540   8.759  0.9461  1.5581 -0.6761
 6125SOL    HW229838   3.205   2.420   8.670  0.7968  0.5193 -0.3303
 6126SOL     OW29839   0.004   2.309   4.083 -0.2642 -0.3230  0.4027
 6126SOL    HW129840   4.700   2.309   3.990  0.2632 -0.2515  0.2617
 6126SOL    HW229841   4.642   2.331   4.125  0.2878  0.7585  0.9083
 6127SOL     OW29842   1.204   3.972  16.575 -0.5690 -0.2949  0.3374
 6127SOL    HW129843   1.132   3.993  16.516  1.0492  0.9993 -1.1672
 6127SOL    HW229844   1.201   3.877  16.569  0.9562 -0.4873  2.3013
 6128SOL     OW29845   3.171   1.406   0.759  0.5462 -0.4501 -0.1688
 6128SOL    HW129846   3.194   1.478   0.817  0.1443  0.2264 -0.8474
 6128SOL    HW229847   3.087   1.386   0.800  0.8474  0.1887  0.7622
 6129SOL     OW29848   1.203   4.323   2.911 -0.4169  0.1477  0.1599
 6129SOL    HW129849   1.201   4.372   2.993 -2.1308 -0.3879  0.4256
 6129SOL    HW229850   1.277   4.357   2.859 -1.6681  0.8782 -1.1645
 6130SOL     OW29851   0.817   4.348   5.897 -0.0042 -0.0191 -0.5496
 6130SOL    HW129852   0.784   4.314   5.980 -0.1301  1.7735  0.1148
 6130SOL    HW229853   0.839   4.436   5.924  0.9431 -1.0309  1.9160
 6131SOL     OW29854   0.309   0.810   7.180  0.2442 -0.0229  0.4663
 6131SOL    HW129855   0.387   0.759   7.157 -0.4088 -0.7240 -0.1854
 6131SOL    HW229856   0.230   0.779   7.136  1.7846 -2.0459 -0.8344
 6132SOL     OW29857   3.951   4.602   4.214 -0.2675  0.4004 -0.2054
 6132SOL    HW129858   4.030   4.653   4.194  0.3198 -0.2128  0.5752
 6132SOL    HW229859   3.944   4.562   4.128  3.4437 -1.4327  0.3676
 6133SOL     OW29860   3.508   1.606   4.999  0.4697  0.4189 -0.8162
 6133SOL    HW129861   3.561   1.637   5.072 -0.0470  1.3234 -0.8141
 6133SOL    HW229862   3.549   1.527   4.963 -0.3708 -2.2580  4.1245
 6134SOL     OW29863   2.438   2.967   5.626  0.4662 -0.1742 -0.4716
 6134SOL    HW129864   2.523   2.968   5.670  1.2302  1.1278 -1.9505
 6134SOL    HW229865   2.383   2.929   5.694  1.7127 -0.6166  0.2870
 6135SOL     OW29866   1.431   1.803   4.410  0.3946  0.1203  0.8899
 6135SOL    HW129867   1.504   1.833   4.356 -0.6088  0.6203 -0.2209
 6135SOL    HW229868   1.369   1.776   4.342 -0.9761  0.8025  1.8504
 6136SOL     OW29869   4.623   0.236  12.846  0.4425 -0.4567 -0.5389
 6136SOL    HW129870   4.677   0.273  12.777  0.6167 -1.7344 -1.0790
 6136SOL    HW229871   4.651   0.292  12.918  0.7454  0.4675 -1.3781
 6137SOL     OW29872   0.056   1.329   4.209 -0.0719  0.1310 -0.4330
 6137SOL    HW129873   0.036   1.406   4.156  0.6976 -0.0302 -0.9540
 6137SOL    HW229874   4.685   1.300   4.217 -0.2126  0.1780 -1.8346
 6138SOL     OW29875   3.324   1.132   4.549 -0.0993  0.7473 -0.0147
 6138SOL    HW129876   3.230   1.141   4.564 -0.0338 -1.9120  2.1070
 6138SOL    HW229877   3.336   1.131   4.454  0.4064  1.7700  0.0435
 6139SOL     OW29878   3.376   2.370   4.264  0.2398  0.0384 -0.2204
 6139SOL    HW129879   3.309   2.437   4.257  0.3649 -0.2358 -3.6075
 6139SOL    HW229880   3.332   2.295   4.225  1.1185  0.1916 -1.4985
 6140SOL     OW29881   3.170   1.790   6.688  0.2099 -0.3507 -0.1878
 6140SOL    HW129882   3.119   1.746   6.756 -1.7782  0.5833 -1.0538
 6140SOL    HW229883   3.100   1.826   6.633  0.1819 -0.5630 -0.2938
 6141SOL     OW29884   1.346   0.290   0.112 -0.4793  0.1763  0.2688
 6141SOL    HW129885   1.253   0.310   0.128 -1.0141  0.1323 -2.7255
 6141SOL    HW229886   1.389   0.355   0.167 -1.1549  0.6488  0.2497
 6142SOL     OW29887   0.433   1.456   3.124 -0.1436  0.8990  0.1967
 6142SOL    HW129888   0.457   1.441   3.033  0.8284  1.1511  0.4127
 6142SOL    HW229889   0.423   1.364   3.149  1.6059  0.6826  0.1224
 6143SOL     OW29890   1.980   1.135   3.457 -0.2661 -0.9192 -0.2857
 6143SOL    HW129891   2.016   1.154   3.544  0.1212 -2.8441 -0.0448
 6143SOL    HW229892   2.063   1.139   3.410  0.2053 -0.4672  0.5874
 6144SOL     OW29893   3.089   1.564   2.567  0.8240  0.3435  0.5255
 6144SOL    HW129894   3.083   1.639   2.626 -0.4967 -0.4912  1.4344
 6144SOL    HW229895   3.015   1.590   2.512  0.9499  0.0556  0.2173
 6145SOL     OW29896   2.066   2.653   3.301 -0.0858  0.5580  0.1214
 6145SOL    HW129897   2.130   2.586   3.280 -0.5833 -0.1976  1.0147
 6145SOL    HW229898   1.987   2.607   3.329  0.5824 -0.3883  0.4229
 6146SOL     OW29899   2.577   0.180   5.141 -0.0819  0.2921 -0.1447
 6146SOL    HW129900   2.504   0.121   5.121  1.5275 -1.5874 -0.4413
 6146SOL    HW229901   2.534   0.265   5.127  1.4267  1.4961  2.4188
 6147SOL     OW29902   2.263   2.972   6.064  0.3809  0.4032  0.2303
 6147SOL    HW129903   2.225   2.959   5.977  0.5921  0.0120  0.1988
 6147SOL    HW229904   2.357   2.971   6.048  0.2869 -0.7062 -0.3095
 6148SOL     OW29905   2.310   3.982   3.716  0.2096 -0.1248  0.0148
 6148SOL    HW129906   2.284   3.965   3.626 -0.0181 -1.9898  0.4400
 6148SOL    HW229907   2.324   4.077   3.707  0.9867  0.0471  2.8716
 6149SOL     OW29908   3.280   0.110   6.116  0.6224  0.3496 -0.3428
 6149SOL    HW129909   3.198   0.125   6.070  1.2411  0.6703 -1.3442
 6149SOL    HW229910   3.341   0.069   6.054  1.6217  2.7079 -0.9380
 6150SOL     OW29911   3.616   4.036   6.431 -0.2000 -0.7189  0.7783
 6150SOL    HW129912   3.618   4.034   6.527 -0.9645  2.4951  0.8754
 6150SOL    HW229913   3.521   4.044   6.426 -0.1374  1.8415  3.0979
 6151SOL     OW29914   0.921   1.096  15.325 -0.4472 -0.0550  0.2687
 6151SOL    HW129915   0.856   1.034  15.360  0.7593 -0.1832  2.2710
 6151SOL    HW229916   0.894   1.174  15.373 -2.3660 -1.5004  1.5742
 6152SOL     OW29917   4.061   2.712   2.602 -0.1844 -0.0271  0.1682
 6152SOL    HW129918   4.139   2.721   2.657  0.3848  1.6777 -0.9514
 6152SOL    HW229919   4.021   2.796   2.625  0.1770  0.6692 -1.7581
 6153SOL     OW29920   4.363   0.962   9.803 -0.6092  0.3647  0.1904
 6153SOL    HW129921   4.329   0.881   9.765 -0.0363  0.8960 -1.4378
 6153SOL    HW229922   4.404   1.015   9.735  1.6576 -2.2184 -0.4247
 6154SOL     OW29923   0.437   0.173  16.185  0.4084  0.0829 -0.2079
 6154SOL    HW129924   0.374   0.101  16.185 -2.5729  2.7165  1.0469
 6154SOL    HW229925   0.494   0.132  16.250 -0.6715  0.1818  0.7988
 6155SOL     OW29926   3.920   4.663  14.276  0.5321  0.3885 -0.2250
 6155SOL    HW129927   3.855   4.713  14.325  0.3891 -0.6988  0.6574
 6155SOL    HW229928   3.909   4.581  14.322  1.6839  0.6085  0.4225
 6156SOL     OW29929   2.792   4.379   8.994  0.5948 -0.1232  0.3768
 6156SOL    HW129930   2.741   4.314   8.946  0.1359 -1.4520  2.6235
 6156SOL    HW229931   2.824   4.326   9.068 -0.0368  0.3147  0.9693
 6157SOL     OW29932   1.817   3.934   4.769 -0.1077 -0.0923  0.0750
 6157SOL    HW129933   1.775   3.906   4.851  0.6204  0.5617  0.6815
 6157SOL    HW229934   1.875   3.859   4.757 -0.8596 -0.6620  0.0375
 6158SOL     OW29935   0.878   0.838   1.937  0.2572 -0.2882 -0.4461
 6158SOL    HW129936   0.897   0.801   2.023 -1.9653  0.5039  0.3796
 6158SOL    HW229937   0.786   0.813   1.927 -0.0508  0.7731 -0.2520
 6159SOL     OW29938   3.042   2.859   4.162  0.2649  0.3170  0.0924
 6159SOL    HW129939   3.073   2.937   4.209 -0.6511 -0.1689  1.4952
 6159SOL    HW229940   3.080   2.884   4.077  1.8421 -1.0780  0.3972
 6160SOL     OW29941   1.120   0.158   3.628 -0.0269 -0.4578 -0.5908
 6160SOL    HW129942   1.095   0.068   3.647  0.4149 -0.6415 -0.8582
 6160SOL    HW229943   1.113   0.165   3.532 -1.3546 -1.5592 -0.5746
 6161SOL     OW29944   2.720   1.887   4.957 -0.5034 -0.0720  0.1970
 6161SOL    HW129945   2.701   1.958   4.896  0.2104  0.0343  0.0929
 6161SOL    HW229946   2.802   1.921   4.995  0.0684 -1.3694  0.1278
 6162SOL     OW29947   3.962   3.629  17.608 -0.1796  0.1946 -0.1683
 6162SOL    HW129948   3.931   3.694  17.545  0.1318 -0.9653 -1.5204
 6162SOL    HW229949   4.003   3.561  17.555  3.0990 -0.1935  2.9048
 6163SOL     OW29950   0.821   1.159   9.836 -0.4197 -0.3177  0.0899
 6163SOL    HW129951   0.727   1.169   9.819  0.1420  2.1793 -1.6469
 6163SOL    HW229952   0.851   1.198   9.754 -0.8156 -0.9161 -0.3348
 6164SOL     OW29953   2.114   1.069  13.112 -0.2472 -0.2270 -0.4334
 6164SOL    HW129954   2.037   1.092  13.061  1.3188  2.2436 -1.6945
 6164SOL    HW229955   2.190   1.097  13.061  0.0654 -0.3868 -0.0632
 6165SOL     OW29956   1.388   1.868  11.332  0.1996 -0.4675  0.2080
 6165SOL    HW129957   1.304   1.890  11.372  1.3659  4.9676 -0.4023
 6165SOL    HW229958   1.356   1.849  11.244  3.7256 -1.3606 -0.8925
 6166SOL     OW29959   4.404   3.191   6.908  0.0994  0.3037  0.0773
 6166SOL    HW129960   4.443   3.224   6.828 -1.5984  1.5142 -0.2554
 6166SOL    HW229961   4.421   3.265   6.965 -1.6109  1.2768 -0.6902
 6167SOL     OW29962   2.932   0.643  14.999  0.2852  0.0644  0.3954
 6167SOL    HW129963   3.010   0.596  14.969 -1.0657 -0.2309 -2.6608
 6167SOL    HW229964   2.861   0.605  14.947  0.2194  1.5173 -0.5810
 6168SOL     OW29965   3.601   3.067   8.468  0.2390 -0.5209  0.2831
 6168SOL    HW129966   3.560   3.145   8.505 -0.5746 -0.4086 -0.8501
 6168SOL    HW229967   3.521   3.015   8.474 -1.6725  2.1607 -2.3924
 6169SOL     OW29968   4.622   4.018   2.146 -0.5387 -0.1803  0.6058
 6169SOL    HW129969   4.673   4.057   2.216  1.9845  0.4744 -1.5890
 6169SOL    HW229970   4.572   3.951   2.192 -0.0415 -0.1362  1.2004
 6170SOL     OW29971   0.206   4.061   6.846  0.4893  0.0800  0.2397
 6170SOL    HW129972   0.287   4.075   6.797 -0.0924 -0.5996 -0.9032
 6170SOL    HW229973   0.234   4.115   6.920 -0.4502  2.3327 -1.0541
 6171SOL     OW29974   4.011   0.906  17.321 -0.3901  0.4452 -0.0922
 6171SOL    HW129975   4.089   0.962  17.322  0.3622 -0.6216  0.5431
 6171SOL    HW229976   3.992   0.889  17.413 -0.8489 -2.0622 -0.6405
 6172SOL     OW29977   1.013   1.022   4.746  0.2794 -0.3953  0.3257
 6172SOL    HW129978   0.995   0.935   4.784  0.4734 -0.6017 -0.0512
 6172SOL    HW229979   0.971   0.999   4.663  0.7882  3.4554 -0.9836
 6173SOL     OW29980   2.498   4.151  13.623  0.4074 -0.4231 -0.2686
 6173SOL    HW129981   2.408   4.130  13.600  0.4905 -1.0393 -0.0495
 6173SOL    HW229982   2.476   4.202  13.701  0.9308 -2.1503  1.0327
 6174SOL     OW29983   2.541   4.195  12.087  0.8886 -0.1551 -0.0227
 6174SOL    HW129984   2.493   4.117  12.115 -1.8844  1.5901  0.0031
 6174SOL    HW229985   2.500   4.214  12.003  1.5829  0.6106 -0.1848
 6175SOL     OW29986   1.920   0.179   4.727  0.3440 -0.2538  0.4462
 6175SOL    HW129987   1.956   0.142   4.807  0.1216 -1.6516 -0.1030
 6175SOL    HW229988   1.988   0.246   4.715 -0.6762  0.7038  0.0375
 6176SOL     OW29989   4.132   4.080   2.657 -0.0192 -0.1141  0.4833
 6176SOL    HW129990   4.120   4.175   2.656 -3.7251 -0.5998 -1.0692
 6176SOL    HW229991   4.202   4.073   2.721 -1.1953 -0.8969  1.6845
 6177SOL     OW29992   3.620   3.736   4.452 -0.8677 -0.6179  0.6279
 6177SOL    HW129993   3.667   3.820   4.450 -3.0553  0.5828 -0.6255
 6177SOL    HW229994   3.528   3.759   4.440 -0.8391 -0.6300  0.3932
 6178SOL     OW29995   2.597   3.682   3.682  0.2795  0.7767  0.1772
 6178SOL    HW129996   2.606   3.689   3.587 -0.0910 -2.4916 -0.1052
 6178SOL    HW229997   2.534   3.612   3.695  2.3104 -1.0229  0.3999
 6179SOL     OW29998   3.696   2.188   3.830 -0.3235 -0.4768 -0.0997
 6179SOL    HW129999   3.613   2.179   3.783  0.2564  1.8530 -1.5284
 6179SOL    HW230000   3.680   2.268   3.879 -1.0046 -0.7629  0.1507
 6180SOL     OW30001   3.699   1.975   2.470 -0.4676  0.8083 -0.3930
 6180SOL    HW130002   3.684   1.947   2.379  0.8580 -1.3524  0.0640
 6180SOL    HW230003   3.638   1.925   2.525  1.8672  2.0259  3.2945
 6181SOL     OW30004   1.876   0.421   2.828 -0.1604 -0.0530  0.9129
 6181SOL    HW130005   1.896   0.501   2.778  0.2346 -0.4548  0.4251
 6181SOL    HW230006   1.925   0.423   2.910  0.4377  0.4591  0.5380
 6182SOL     OW30007   3.745   3.542   8.229  0.6756  0.7050  0.0036
 6182SOL    HW130008   3.796   3.622   8.234  0.1849  1.0358 -0.3312
 6182SOL    HW230009   3.734   3.511   8.319  1.7224  0.4269  0.0320
 6183SOL     OW30010   2.497   0.776  12.553 -0.1064 -0.0369  0.0810
 6183SOL    HW130011   2.453   0.852  12.591 -0.9222 -1.2438  1.5234
 6183SOL    HW230012   2.427   0.723  12.514  0.7452 -0.3015 -1.0745
 6184SOL     OW30013   2.270   1.897   2.783  0.1166 -0.2320  0.4081
 6184SOL    HW130014   2.295   1.873   2.873  0.2230  1.7541  0.8898
 6184SOL    HW230015   2.221   1.817   2.761 -1.1733  1.2712 -2.0852
 6185SOL     OW30016   4.328   1.134   3.921  0.0276 -0.1602  0.0095
 6185SOL    HW130017   4.406   1.080   3.925  1.7692  2.3713  0.6242
 6185SOL    HW230018   4.267   1.067   3.949 -0.4441 -0.2376 -1.2130
 6186SOL     OW30019   3.015   4.358  16.995  0.0031  0.0666 -0.3458
 6186SOL    HW130020   2.992   4.385  17.084 -1.8079 -3.9889  0.4249
 6186SOL    HW230021   2.989   4.266  16.996  0.7333 -0.1468 -1.5492
 6187SOL     OW30022   3.708   1.274   3.323 -0.1895  0.3045 -0.0028
 6187SOL    HW130023   3.688   1.214   3.251  0.7990  0.7898 -0.6918
 6187SOL    HW230024   3.741   1.212   3.388 -2.4284 -0.4765  0.3934
 6188SOL     OW30025   0.170   2.623  14.478  0.1931 -0.0680 -0.6273
 6188SOL    HW130026   0.212   2.539  14.462 -0.2388 -0.4389  0.2186
 6188SOL    HW230027   0.241   2.658  14.531 -0.0737 -0.3716 -0.0795
 6189SOL     OW30028   4.197   2.063   4.340  0.0478  0.2044  0.2808
 6189SOL    HW130029   4.123   2.004   4.329  0.2363  0.4484 -2.3623
 6189SOL    HW230030   4.247   2.037   4.417  0.4931 -0.9613 -0.3895
 6190SOL     OW30031   3.458   1.073   4.315  0.1162  0.0477 -0.3561
 6190SOL    HW130032   3.491   1.162   4.302 -0.6728  0.6098  1.5805
 6190SOL    HW230033   3.431   1.055   4.225 -2.2524 -0.3804  0.4613
 6191SOL     OW30034   0.063   3.168   6.629 -0.1414 -0.2686  0.2750
 6191SOL    HW130035   0.130   3.107   6.659 -0.3686 -0.1479  1.0524
 6191SOL    HW230036   0.049   3.139   6.539  0.3291  1.1087 -0.2504
 6192SOL     OW30037   1.686   3.969   4.206 -0.0698 -0.3778  0.0894
 6192SOL    HW130038   1.688   3.907   4.278  0.3546  0.0679  0.4592
 6192SOL    HW230039   1.775   4.003   4.206 -0.3758  0.4282 -0.6103
 6193SOL     OW30040   0.285   1.394   5.804 -0.2276 -0.2006  0.6690
 6193SOL    HW130041   0.251   1.376   5.892  0.4048  0.8310  1.1252
 6193SOL    HW230042   0.270   1.310   5.761  1.7117  0.1941 -0.7614
 6194SOL     OW30043   3.598   2.560   4.202  0.6013  1.0207 -0.0824
 6194SOL    HW130044   3.543   2.637   4.191 -0.6999  0.0428 -0.4390
 6194SOL    HW230045   3.538   2.492   4.231 -0.3419  1.5085 -0.8963
 6195SOL     OW30046   2.266   1.920  13.273  0.4009  0.4317  0.4849
 6195SOL    HW130047   2.232   2.008  13.257 -0.8967  0.5755  3.9629
 6195SOL    HW230048   2.247   1.872  13.193 -0.6194  0.1753  0.8667
 6196SOL     OW30049   2.588   4.252   1.177  0.1101 -0.1529  0.7685
 6196SOL    HW130050   2.622   4.172   1.219  2.2160  0.9080  1.1077
 6196SOL    HW230051   2.663   4.310   1.165 -0.6162  0.5750 -0.2111
 6197SOL     OW30052   0.010   4.131   6.264  0.6962  0.8576  0.6009
 6197SOL    HW130053   0.050   4.059   6.216 -0.2223  0.5753  0.2620
 6197SOL    HW230054   0.072   4.202   6.250 -0.1443  1.1277 -1.7426
 6198SOL     OW30055   1.238   2.817   6.696  0.1273 -0.3054 -0.2653
 6198SOL    HW130056   1.232   2.742   6.755  0.5068  0.1396  0.3435
 6198SOL    HW230057   1.235   2.784   6.606  0.2841 -0.7373 -0.1097
 6199SOL     OW30058   0.348   3.390   2.957  0.1914  0.5194  0.0890
 6199SOL    HW130059   0.258   3.383   2.989  0.9312  1.8277  2.4405
 6199SOL    HW230060   0.396   3.427   3.031 -0.6690  0.7095  0.5525
 6200SOL     OW30061   3.145   2.616  12.873  0.3962 -0.1259  0.4508
 6200SOL    HW130062   3.208   2.577  12.812  1.2780 -0.8301  1.7957
 6200SOL    HW230063   3.203   2.621  12.949 -2.0249  0.1443  2.2406
 6201SOL     OW30064   1.954   2.523  11.765  0.0301  0.4809  0.3359
 6201SOL    HW130065   2.015   2.460  11.803  0.0624  1.0346  1.1914
 6201SOL    HW230066   1.867   2.492  11.742  0.0495  0.3123  0.4934
 6202SOL     OW30067   0.216   3.389   1.839 -0.2934 -0.6035 -0.1600
 6202SOL    HW130068   0.262   3.403   1.756 -0.2932 -0.0996 -0.0739
 6202SOL    HW230069   0.197   3.300   1.811  0.8820 -1.6920  2.4510
 6203SOL     OW30070   1.044   0.920   2.387  0.4194  0.3940  0.1907
 6203SOL    HW130071   1.128   0.962   2.369 -1.1259  3.0156 -0.9253
 6203SOL    HW230072   1.006   0.939   2.302 -1.8182  2.8482  1.7085
 6204SOL     OW30073   1.612   3.235   2.469  0.2359 -0.2964  0.0447
 6204SOL    HW130074   1.699   3.228   2.508  0.9873 -0.2435 -1.6371
 6204SOL    HW230075   1.610   3.180   2.391  0.8375  1.3114 -1.1015
 6205SOL     OW30076   4.277   1.308   2.694  0.0580 -0.4317 -0.8248
 6205SOL    HW130077   4.243   1.220   2.681 -1.7821  0.0168  0.8836
 6205SOL    HW230078   4.201   1.343   2.742 -0.1806  1.1936 -2.4015
 6206SOL     OW30079   0.540   0.441   1.731 -1.0436 -0.2022 -0.1541
 6206SOL    HW130080   0.583   0.393   1.660 -0.0233 -0.3074  0.5303
 6206SOL    HW230081   0.454   0.450   1.690  0.1764  1.2831 -2.4525
 6207SOL     OW30082   2.691   1.579   1.545 -0.0371 -0.3297  0.1000
 6207SOL    HW130083   2.736   1.661   1.565  0.5309  0.0030 -2.5762
 6207SOL    HW230084   2.728   1.513   1.604 -0.8869 -0.1659  0.8231
 6208SOL     OW30085   2.096   2.055   2.636  0.4467 -0.2008 -0.1083
 6208SOL    HW130086   2.178   2.022   2.672  0.3585 -1.1120 -0.7496
 6208SOL    HW230087   2.039   1.984   2.609  0.0641  0.5741 -1.3187
 6209SOL     OW30088   3.762   3.179   4.627 -0.1690  0.6559  0.2168
 6209SOL    HW130089   3.727   3.110   4.682 -1.1662  0.1199 -1.1038
 6209SOL    HW230090   3.708   3.171   4.549 -1.1689  1.5243  0.8123
 6210SOL     OW30091   1.872   1.141   7.162 -0.3655  0.2802 -0.3177
 6210SOL    HW130092   1.832   1.083   7.097  1.7006 -1.7537  0.2064
 6210SOL    HW230093   1.828   1.225   7.148 -2.6131 -0.6868  1.0464
 6211SOL     OW30094   4.173   3.709   0.620  0.3312 -0.5601 -0.3182
 6211SOL    HW130095   4.255   3.737   0.662 -0.3970  1.8616 -0.4697
 6211SOL    HW230096   4.158   3.790   0.570 -1.6664  0.0790  1.3261
 6212SOL     OW30097   0.389   1.707  15.780  0.0699  0.1684 -0.5543
 6212SOL    HW130098   0.444   1.743  15.848 -0.3870 -1.8792  0.9054
 6212SOL    HW230099   0.301   1.706  15.819 -0.3948  0.8843 -1.5887
 6213SOL     OW30100   3.645   0.175   3.646 -0.1569 -0.1119 -0.2978
 6213SOL    HW130101   3.639   0.100   3.587 -3.1420  0.8451 -1.2271
 6213SOL    HW230102   3.710   0.220   3.592 -1.2602 -0.6632 -2.1177
 6214SOL     OW30103   3.501   2.014   5.868  0.2638  0.4833  0.0016
 6214SOL    HW130104   3.501   1.919   5.881  1.5954  0.5028  0.2355
 6214SOL    HW230105   3.517   2.040   5.959  1.7802 -0.9603  0.1664
 6215SOL     OW30106   3.750   1.076   7.115  0.3127 -0.6566 -0.4264
 6215SOL    HW130107   3.842   1.096   7.099  0.5121  0.0541  1.6264
 6215SOL    HW230108   3.716   1.146   7.170 -2.5307 -1.5949 -0.9773
 6216SOL     OW30109   3.450   4.121   4.315  0.5297  0.0694 -0.7044
 6216SOL    HW130110   3.378   4.160   4.266 -2.0199 -1.5668  1.7872
 6216SOL    HW230111   3.515   4.128   4.244  0.2531  1.9942 -0.7656
 6217SOL     OW30112   4.443   2.968   0.466  0.3205  1.1910 -0.5473
 6217SOL    HW130113   4.536   2.970   0.443  0.9754 -1.5970  1.9156
 6217SOL    HW230114   4.450   2.977   0.561 -0.8570  0.6192 -0.4016
 6218SOL     OW30115   3.770   3.596   5.197  0.1869 -0.2559 -0.0599
 6218SOL    HW130116   3.736   3.511   5.225 -1.7363  0.8278  0.8836
 6218SOL    HW230117   3.847   3.605   5.254  0.0538  0.3007  0.0274
 6219SOL     OW30118   4.225   3.960   0.483 -0.4810 -0.2461  0.0025
 6219SOL    HW130119   4.246   4.013   0.407  0.7201 -0.1304  0.4192
 6219SOL    HW230120   4.300   3.986   0.536 -1.8649  0.1060  1.8085
 6220SOL     OW30121   1.184   2.496   7.753  0.3436 -0.3516  0.2925
 6220SOL    HW130122   1.120   2.461   7.815  0.2594 -1.0875 -0.2134
 6220SOL    HW230123   1.262   2.510   7.807  0.5408 -1.8007  0.3710
 6221SOL     OW30124   0.320   0.219   6.621  0.0815 -0.0885  0.6488
 6221SOL    HW130125   0.270   0.164   6.560  0.9696 -0.6429  0.4156
 6221SOL    HW230126   0.403   0.230   6.575 -0.2860  1.6443  0.4179
 6222SOL     OW30127   3.781   0.290   6.198  0.0667 -0.2335 -0.1352
 6222SOL    HW130128   3.757   0.252   6.283  0.2939 -1.1771 -0.4949
 6222SOL    HW230129   3.770   0.215   6.141  0.2767 -0.8867  0.6832
 6223SOL     OW30130   3.478   4.467   8.644  0.3230  0.3127  0.0682
 6223SOL    HW130131   3.391   4.461   8.684 -0.6010  0.7428 -1.8933
 6223SOL    HW230132   3.526   4.394   8.683  2.4540  2.0987  0.7898
 6224SOL     OW30133   3.072   2.741   2.856  0.5811 -0.2505  0.4636
 6224SOL    HW130134   2.997   2.786   2.817  0.1139 -1.0015  0.5117
 6224SOL    HW230135   3.146   2.762   2.799  0.4546 -1.4201 -0.1323
 6225SOL     OW30136   3.111   0.735  16.693  0.6196 -0.5107  0.8949
 6225SOL    HW130137   3.017   0.718  16.692  0.6605 -0.4100 -2.1825
 6225SOL    HW230138   3.133   0.676  16.766  3.1129 -0.4195  0.2027
 6226SOL     OW30139   0.181   3.517  13.564 -0.3777  0.1620  0.2193
 6226SOL    HW130140   0.259   3.481  13.606  0.0947 -0.7106 -1.4204
 6226SOL    HW230141   0.138   3.548  13.644 -0.6096 -1.3102  0.6599
 6227SOL     OW30142   3.529   3.142   2.589  0.1410  0.4178 -0.0960
 6227SOL    HW130143   3.557   3.080   2.521 -0.8199 -0.5603  0.3809
 6227SOL    HW230144   3.510   3.225   2.546 -0.0770  1.3116  1.7327
 6228SOL     OW30145   1.648   1.860   5.301  0.2747  0.4282  0.1367
 6228SOL    HW130146   1.608   1.895   5.221 -1.2122  5.0166  2.8955
 6228SOL    HW230147   1.575   1.818   5.347  0.4720  0.6817  0.6778
 6229SOL     OW30148   2.793   4.108   1.889 -0.1203  0.1841  0.5727
 6229SOL    HW130149   2.852   4.058   1.834 -1.1338 -0.8911  0.4604
 6229SOL    HW230150   2.757   4.171   1.826  0.5044 -1.4138 -1.3672
 6230SOL     OW30151   0.056   3.045   8.875 -0.3628 -0.1404 -0.7943
 6230SOL    HW130152   4.717   2.971   8.858 -0.2271 -0.8364  1.7766
 6230SOL    HW230153   0.113   3.006   8.942 -1.4671  0.4963  0.5116
 6231SOL     OW30154   1.270   2.813  15.113  0.1949  0.8863 -0.2753
 6231SOL    HW130155   1.178   2.838  15.105 -0.1346  0.6437  2.7654
 6231SOL    HW230156   1.281   2.781  15.203  0.6354  2.5639  0.2528
 6232SOL     OW30157   2.029   1.726   5.734  0.0615 -0.2224 -0.3935
 6232SOL    HW130158   2.074   1.648   5.701 -1.1219 -1.8715  1.8246
 6232SOL    HW230159   2.096   1.768   5.787  1.7193  0.8386 -3.3731
 6233SOL     OW30160   1.841   1.484  14.765  0.8250  0.2733 -0.1365
 6233SOL    HW130161   1.748   1.474  14.745  0.7391  0.2065  0.2994
 6233SOL    HW230162   1.874   1.504  14.677 -0.4526  2.7507 -0.0511
 6234SOL     OW30163   3.954   4.232   9.052  0.3203 -0.5575 -0.1121
 6234SOL    HW130164   3.986   4.247   9.141 -0.2225  0.3491 -0.0740
 6234SOL    HW230165   3.861   4.252   9.060 -0.0308 -1.9703 -0.6837
 6235SOL     OW30166   2.288   0.083   2.205  0.1647  0.0971 -0.2884
 6235SOL    HW130167   2.261   0.164   2.249 -1.6239 -0.3374 -0.6068
 6235SOL    HW230168   2.375   0.057   2.237 -1.0422 -1.5817  1.5950
 6236SOL     OW30169   3.956   0.179  15.004  0.1487  0.1631 -0.3861
 6236SOL    HW130170   3.867   0.212  15.001  0.1222  0.1090 -0.1821
 6236SOL    HW230171   3.941   0.093  14.965 -1.2128  0.3003 -0.1561
 6237SOL     OW30172   0.604   4.536  16.159  0.1765 -0.1245 -0.0190
 6237SOL    HW130173   0.585   4.457  16.209 -1.5224  0.1073 -0.3085
 6237SOL    HW230174   0.593   4.608  16.222 -2.0115  1.1759 -1.8749
 6238SOL     OW30175   2.953   0.265   3.868 -0.3122 -0.0267 -0.2832
 6238SOL    HW130176   3.026   0.222   3.913  0.3118 -0.3707 -1.6240
 6238SOL    HW230177   2.907   0.309   3.940 -0.9186 -0.7769 -0.2082
 6239SOL     OW30178   3.039   1.133   6.543 -0.0250  0.7909 -0.4340
 6239SOL    HW130179   3.034   1.229   6.547  2.4632  0.8550  0.7366
 6239SOL    HW230180   3.080   1.125   6.457 -0.1125 -0.7826 -0.3214
 6240SOL     OW30181   3.881   3.443   4.674  0.2816 -0.6678  0.5028
 6240SOL    HW130182   3.829   3.386   4.618  0.9809 -1.0592  0.2527
 6240SOL    HW230183   3.837   3.525   4.652  1.0425 -0.1836  0.7935
 6241SOL     OW30184   1.751   0.224   6.640  0.3987  0.3896  0.4658
 6241SOL    HW130185   1.712   0.149   6.596 -2.4882  1.1145  1.7957
 6241SOL    HW230186   1.818   0.175   6.687  1.8907 -0.0593 -2.1298
 6242SOL     OW30187   0.049   3.909   7.108 -0.0859 -0.3415 -0.9490
 6242SOL    HW130188   0.125   3.917   7.166 -1.0355  0.9780  0.1159
 6242SOL    HW230189   4.701   3.946   7.164  1.6365  2.3347 -0.6312
 6243SOL     OW30190   3.708   2.674   6.830  0.3944 -0.4325  0.1019
 6243SOL    HW130191   3.623   2.654   6.868 -0.1754  0.3293 -0.7824
 6243SOL    HW230192   3.734   2.596   6.781  0.6003 -0.1820 -0.1946
 6244SOL     OW30193   3.875   2.642  12.114 -0.1345  0.1772  0.2121
 6244SOL    HW130194   3.950   2.632  12.055  0.7278  0.4879  1.2523
 6244SOL    HW230195   3.897   2.572  12.176  1.3729 -0.7115 -1.3106
 6245SOL     OW30196   4.379   4.322   1.309  0.2800  0.1267  0.1692
 6245SOL    HW130197   4.376   4.237   1.352 -0.8991 -0.5038 -1.1326
 6245SOL    HW230198   4.325   4.377   1.366  1.6266  0.9295  0.6749
 6246SOL     OW30199   2.286   4.700  12.285  0.3776  0.4472  0.4185
 6246SOL    HW130200   2.359   4.650  12.249 -0.3993 -1.4966  1.5433
 6246SOL    HW230201   2.262   0.041  12.215 -1.2507  0.3734  0.9178
 6247SOL     OW30202   1.138   3.479   2.382 -0.2130 -0.2085  0.4327
 6247SOL    HW130203   1.169   3.437   2.462  1.6027 -1.5809 -0.9805
 6247SOL    HW230204   1.048   3.493   2.413 -0.1246  2.3619 -0.4411
 6248SOL     OW30205   1.775   3.584  11.290 -0.3498 -0.4071 -0.4076
 6248SOL    HW130206   1.682   3.576  11.312 -0.6249  1.0892 -1.0391
 6248SOL    HW230207   1.774   3.644  11.215  1.7152 -1.2990 -1.1463
 6249SOL     OW30208   4.499   4.551   2.326  0.0924  0.4277 -0.0674
 6249SOL    HW130209   4.445   4.483   2.367 -0.8930  0.2309 -1.6606
 6249SOL    HW230210   4.425   4.595   2.283  0.2328  0.5198 -0.2143
 6250SOL     OW30211   3.022   1.513   6.298  0.6838 -0.8403 -0.3435
 6250SOL    HW130212   3.098   1.456   6.309 -0.4226 -2.0266  1.1858
 6250SOL    HW230213   2.976   1.464   6.229 -1.1623 -0.9908  0.9865
 6251SOL     OW30214   2.297   1.119   6.290 -0.1327 -0.0971 -0.3452
 6251SOL    HW130215   2.375   1.068   6.311  0.3847  1.8469  2.3810
 6251SOL    HW230216   2.289   1.183   6.361 -2.8462 -1.5177  0.6272
 6252SOL     OW30217   2.199   1.235   1.752  0.1047 -0.2249 -0.8695
 6252SOL    HW130218   2.249   1.238   1.670  0.5581  1.9873 -0.5168
 6252SOL    HW230219   2.230   1.318   1.789 -0.9581 -1.1851  2.1604
 6253SOL     OW30220   0.434   1.687   4.648  0.4290  0.6359  0.4799
 6253SOL    HW130221   0.379   1.618   4.687  0.4795  1.0215  1.2223
 6253SOL    HW230222   0.377   1.712   4.575  2.2092 -0.4630 -1.3151
 6254SOL     OW30223   3.346   2.900   6.171 -0.0896  0.5097  0.4360
 6254SOL    HW130224   3.302   2.851   6.102 -1.0414  1.2524  0.5085
 6254SOL    HW230225   3.273   2.925   6.228 -1.7714 -2.5567 -0.4138
 6255SOL     OW30226   2.778   4.261  13.887  0.0067  0.4292 -0.9404
 6255SOL    HW130227   2.787   4.167  13.900  2.3523  0.3899 -2.7303
 6255SOL    HW230228   2.685   4.253  13.868 -0.3382  0.8568  0.5722
 6256SOL     OW30229   4.572   0.026   5.597 -0.0887 -0.6137 -0.6343
 6256SOL    HW130230   4.583   4.677   5.663 -0.5544  0.6409  0.7453
 6256SOL    HW230231   4.489   0.058   5.632  1.2695  1.1479  0.9910
 6257SOL     OW30232   0.059   0.944  13.064  0.5192  0.6082 -0.1412
 6257SOL    HW130233   4.687   0.935  13.090  0.3066  1.0936 -0.7177
 6257SOL    HW230234   0.045   0.919  12.973 -1.3386  2.1404 -0.2792
 6258SOL     OW30235   2.883   3.846   6.497  0.6106 -0.3270 -0.0886
 6258SOL    HW130236   2.818   3.908   6.464 -1.3895 -2.2382  0.2568
 6258SOL    HW230237   2.945   3.906   6.538  0.2766 -0.0951  0.0716
 6259SOL     OW30238   3.783   4.481   7.268 -0.1524  0.6132  0.2277
 6259SOL    HW130239   3.772   4.446   7.357  0.8962 -2.1394 -0.7471
 6259SOL    HW230240   3.860   4.536   7.286 -0.7167  0.5817  2.8318
 6260SOL     OW30241   0.572   2.648   5.088 -0.1446  0.4400  0.2557
 6260SOL    HW130242   0.590   2.596   5.166  0.3547  0.0560 -0.1200
 6260SOL    HW230243   0.660   2.650   5.049 -0.5581 -1.5403 -0.7517
 6261SOL     OW30244   1.418   2.364   3.294 -0.0950 -0.5387 -0.9246
 6261SOL    HW130245   1.422   2.343   3.201 -0.6781 -0.9041 -0.8680
 6261SOL    HW230246   1.513   2.365   3.311  0.0167  0.0816 -1.6038
 6262SOL     OW30247   1.823   4.471  16.695  0.3408  0.4927 -0.1165
 6262SOL    HW130248   1.808   4.482  16.789  0.2545 -2.1148  0.1647
 6262SOL    HW230249   1.771   4.547  16.668 -2.2719 -0.9857  0.8367
 6263SOL     OW30250   4.548   0.749  11.382  0.5646  0.4465 -0.0923
 6263SOL    HW130251   4.614   0.805  11.340  0.4305  0.6101 -0.0871
 6263SOL    HW230252   4.489   0.808  11.429 -0.9761 -1.4477  0.3040
 6264SOL     OW30253   0.440   1.535  13.574 -0.0301 -0.1783  0.4611
 6264SOL    HW130254   0.400   1.449  13.588 -1.0334  0.3910  1.1606
 6264SOL    HW230255   0.529   1.503  13.562 -0.7355 -2.2906  0.9695
 6265SOL     OW30256   3.907   0.673  11.895  0.0536 -0.2081 -0.7816
 6265SOL    HW130257   3.834   0.661  11.955 -1.7736  2.7677 -2.3667
 6265SOL    HW230258   3.956   0.598  11.928 -0.4075 -0.0408  0.2737
 6266SOL     OW30259   1.674   0.011   9.943 -0.4694  0.2750 -0.0823
 6266SOL    HW130260   1.637   0.031  10.029  1.6079  0.8023  0.6875
 6266SOL    HW230261   1.758   4.688   9.958 -0.8163  0.0021  1.0930
 6267SOL     OW30262   3.882   3.236  13.116  0.3592  0.4178  0.1331
 6267SOL    HW130263   3.957   3.271  13.068 -1.1961  0.9080 -1.9210
 6267SOL    HW230264   3.807   3.278  13.075  0.3850  0.8776  0.5555
 6268SOL     OW30265   2.592   3.485   5.166 -0.1930  0.2612 -0.3904
 6268SOL    HW130266   2.640   3.453   5.243  0.0021  3.5781  0.8797
 6268SOL    HW230267   2.571   3.400   5.128 -1.0590  1.0375 -1.6196
 6269SOL     OW30268   0.417   1.681   3.757 -0.8668 -0.2625 -0.3657
 6269SOL    HW130269   0.455   1.599   3.789 -0.2745 -0.0175 -0.4344
 6269SOL    HW230270   0.494   1.737   3.767  0.2697 -2.0659  1.0716
 6270SOL     OW30271   1.148   1.272   3.890  0.3405  0.5669  0.3549
 6270SOL    HW130272   1.220   1.209   3.899  0.6356  1.1221  1.8677
 6270SOL    HW230273   1.111   1.263   3.977 -1.1050  0.2259 -0.3013
 6271SOL     OW30274   3.784   0.385   6.542  0.3217  0.1655 -0.0736
 6271SOL    HW130275   3.734   0.386   6.623  0.2030 -1.6928 -0.1081
 6271SOL    HW230276   3.807   0.477   6.534  0.4221 -0.0436 -2.2736
 6272SOL     OW30277   2.205   0.813  10.387  0.4312  0.4718 -0.5396
 6272SOL    HW130278   2.161   0.760  10.454 -0.1540  1.4801 -0.1271
 6272SOL    HW230279   2.277   0.844  10.441  0.5374 -0.0626 -0.3755
 6273SOL     OW30280   1.482   2.813   6.863 -0.2228  0.0342  0.5906
 6273SOL    HW130281   1.452   2.781   6.947 -0.1345 -0.5662  0.3901
 6273SOL    HW230282   1.412   2.863   6.822  1.3748  0.0879 -2.0849
 6274SOL     OW30283   0.075   1.531   5.224 -0.4214 -0.1251 -0.2223
 6274SOL    HW130284   0.137   1.598   5.254 -2.6121  1.8134 -0.0322
 6274SOL    HW230285   0.107   1.446   5.254 -0.3023  0.5392  1.5621
 6275SOL     OW30286   3.752   0.626  10.288 -0.1499 -0.2356  0.2846
 6275SOL    HW130287   3.739   0.557  10.354  1.0074 -0.3596  0.3892
 6275SOL    HW230288   3.721   0.581  10.210  0.4651  0.0810 -0.1450
 6276SOL     OW30289   3.196   2.720   7.362  0.1832 -0.5154 -0.0085
 6276SOL    HW130290   3.265   2.700   7.298  1.4551 -0.9546  1.4884
 6276SOL    HW230291   3.251   2.751   7.433 -1.3091  2.4072 -0.1396
 6277SOL     OW30292   4.637   2.364  16.035 -0.3363 -0.0077  0.3063
 6277SOL    HW130293   4.547   2.394  16.050  0.1749  2.5861 -1.9024
 6277SOL    HW230294   4.656   2.351  16.128 -1.9754 -3.4939  0.1525
 6278SOL     OW30295   2.091   0.629  11.504 -0.4550  0.1859  0.1020
 6278SOL    HW130296   2.168   0.642  11.560 -0.8482  0.4862  0.5813
 6278SOL    HW230297   2.016   0.614  11.562 -1.4546 -1.4920 -1.6351
 6279SOL     OW30298   4.339   3.212   0.689  0.0971 -0.3849  0.1789
 6279SOL    HW130299   4.383   3.289   0.725 -2.1794  1.3016 -0.5910
 6279SOL    HW230300   4.391   3.136   0.713  1.2940  0.4089  0.1030
 6280SOL     OW30301   2.625   0.350   7.480  0.1395 -0.2231 -0.4560
 6280SOL    HW130302   2.643   0.290   7.408 -2.2903 -0.8197 -0.5558
 6280SOL    HW230303   2.701   0.408   7.473 -0.7866  0.9149 -1.0284
 6281SOL     OW30304   3.738   1.804   5.921  0.2448 -0.3838 -0.6050
 6281SOL    HW130305   3.671   1.744   5.953  0.7146 -0.7608 -0.3245
 6281SOL    HW230306   3.783   1.752   5.855  0.0381 -0.2880 -0.8219
 6282SOL     OW30307   4.664   4.508   1.887 -0.1244  0.4866  0.0506
 6282SOL    HW130308   0.010   4.543   1.827 -2.2458 -0.2009 -2.6754
 6282SOL    HW230309   4.592   4.566   1.862  0.1567  1.1768  0.8324
 6283SOL     OW30310   3.080   4.128   7.872 -0.7689  0.8154 -0.0986
 6283SOL    HW130311   3.035   4.056   7.827  0.7787 -1.6596  2.3763
 6283SOL    HW230312   3.123   4.177   7.802  1.3907 -0.0808  0.6327
 6284SOL     OW30313   2.156   1.629   6.116  0.1304  0.3597  0.3945
 6284SOL    HW130314   2.236   1.599   6.159  0.7434  2.9290  0.9974
 6284SOL    HW230315   2.104   1.579   6.179  0.5156  0.9632  1.1748
 6285SOL     OW30316   4.137   3.280   2.538 -0.3244  0.2033 -0.1678
 6285SOL    HW130317   4.175   3.195   2.561 -2.2715  0.1618  2.9621
 6285SOL    HW230318   4.045   3.257   2.533 -0.1761  0.1768 -2.4269
 6286SOL     OW30319   4.035   3.884  16.866 -0.0573 -0.5024 -0.1670
 6286SOL    HW130320   4.045   3.790  16.882  1.6578 -0.3070 -0.0802
 6286SOL    HW230321   4.069   3.915  16.950  1.4257 -0.4893 -0.7655
 6287SOL     OW30322   1.344   3.450  11.827  0.4098 -0.5652 -0.5010
 6287SOL    HW130323   1.374   3.419  11.913 -2.2531 -1.7447 -0.0251
 6287SOL    HW230324   1.269   3.501  11.856  0.7641  0.5416 -1.5342
 6288SOL     OW30325   3.138   0.173  10.076 -0.3222 -0.4366  0.0288
 6288SOL    HW130326   3.164   0.107  10.140  2.7390  0.2547 -0.5044
 6288SOL    HW230327   3.091   0.127  10.007 -2.3539 -0.0682  1.1738
 6289SOL     OW30328   1.830   1.690   2.785  0.0407 -0.1899 -0.0560
 6289SOL    HW130329   1.916   1.711   2.751 -0.3136  1.0226 -0.2118
 6289SOL    HW230330   1.780   1.764   2.752 -0.6675  0.0634  1.5915
 6290SOL     OW30331   4.633   2.841   4.815  0.7961  0.2048  0.0749
 6290SOL    HW130332   4.698   2.806   4.753  0.6507 -1.0205  0.6102
 6290SOL    HW230333   4.620   2.766   4.873 -0.3113  0.2400 -0.1445
 6291SOL     OW30334   1.358   4.101   7.353  0.0835 -0.2035 -0.3048
 6291SOL    HW130335   1.378   4.171   7.416  1.9236 -1.0206  0.0497
 6291SOL    HW230336   1.450   4.074   7.342 -0.0099 -0.2149 -1.0324
 6292SOL     OW30337   4.059   1.364   3.184 -0.0446 -0.3787 -0.0618
 6292SOL    HW130338   4.040   1.418   3.261 -0.4879 -0.4169 -0.1407
 6292SOL    HW230339   4.017   1.280   3.206 -1.7480  1.1969  2.8087
 6293SOL     OW30340   2.129   0.368   4.664  0.0062 -0.1586 -0.7093
 6293SOL    HW130341   2.118   0.354   4.570  0.9805 -2.9021 -0.4127
 6293SOL    HW230342   2.152   0.461   4.669 -0.9414  0.0861 -0.9579
 6294SOL     OW30343   4.547   4.333   2.516 -0.2832 -0.0212 -0.1470
 6294SOL    HW130344   4.473   4.284   2.480 -0.2236 -0.6149  0.5319
 6294SOL    HW230345   4.613   4.316   2.449 -2.8744 -2.3805 -2.0889
 6295SOL     OW30346   3.253   0.878   2.021  0.4182  0.2815  0.3520
 6295SOL    HW130347   3.251   0.855   1.928 -1.2055  2.3224 -0.1009
 6295SOL    HW230348   3.212   0.964   2.023  0.3088  0.2697 -1.5289
 6296SOL     OW30349   1.609   2.780   6.616 -0.1992  0.0874  0.8497
 6296SOL    HW130350   1.700   2.767   6.646 -0.0687 -0.7706  0.0597
 6296SOL    HW230351   1.567   2.779   6.702 -0.1517 -1.6972  0.8639
 6297SOL     OW30352   3.398   2.715   7.567 -0.1964 -0.2693 -0.0974
 6297SOL    HW130353   3.448   2.769   7.629 -0.3073 -2.4446  1.8696
 6297SOL    HW230354   3.366   2.637   7.612  1.3868 -0.3724  0.8572
 6298SOL     OW30355   2.462   1.785   0.615  0.4810 -0.1065  0.6316
 6298SOL    HW130356   2.410   1.768   0.537  1.1278 -0.8329  0.3642
 6298SOL    HW230357   2.461   1.881   0.606  0.6764 -0.2192 -0.5186
 6299SOL     OW30358   2.694   4.514  12.401 -0.2481  0.2575  0.3021
 6299SOL    HW130359   2.688   4.599  12.443  2.3065  0.2873  0.5558
 6299SOL    HW230360   2.789   4.505  12.391 -0.2280 -1.2144  1.7980
 6300SOL     OW30361   4.339   3.873   4.848  0.4860  1.0512  0.0318
 6300SOL    HW130362   4.313   3.963   4.827 -1.0691  0.5195 -0.2798
 6300SOL    HW230363   4.378   3.877   4.935  0.1192 -0.1966  0.2449
 6301SOL     OW30364   0.578   0.775  11.148  0.1226  0.0495 -0.4010
 6301SOL    HW130365   0.544   0.753  11.061  1.0539 -1.2983 -0.4404
 6301SOL    HW230366   0.671   0.767  11.127 -0.4865  0.0532 -3.0368
 6302SOL     OW30367   2.969   1.924   5.727  0.5688  0.1952 -0.3992
 6302SOL    HW130368   2.887   1.920   5.677 -1.6685  2.1826  3.0591
 6302SOL    HW230369   2.934   1.878   5.804  2.1245 -0.3520 -0.0225
 6303SOL     OW30370   3.888   4.646  17.283 -0.2247 -0.5848  0.4565
 6303SOL    HW130371   3.881   4.573  17.221  1.3516 -0.5415  0.2350
 6303SOL    HW230372   3.955   4.613  17.343 -1.4481 -0.3261  1.9649
 6304SOL     OW30373   0.414   2.198   3.759 -0.8050 -0.1251  0.2994
 6304SOL    HW130374   0.501   2.230   3.736 -1.5613  1.2726 -0.6456
 6304SOL    HW230375   0.400   2.259   3.832 -0.6621 -0.0719  0.2825
 6305SOL     OW30376   2.173   0.297  15.777 -0.0853  0.1899 -0.5096
 6305SOL    HW130377   2.256   0.346  15.776 -0.7871  1.3624 -1.8350
 6305SOL    HW230378   2.181   0.240  15.701 -1.8879  0.6023 -0.9863
 6306SOL     OW30379   0.798   0.936   6.141 -0.3444 -0.3032 -0.3620
 6306SOL    HW130380   0.821   1.029   6.132 -0.3846 -0.5587 -3.0099
 6306SOL    HW230381   0.821   0.924   6.233  0.3655  2.3117 -0.1856
 6307SOL     OW30382   4.714   1.211   6.762 -0.0718 -0.5691  0.3546
 6307SOL    HW130383   0.033   1.276   6.704 -1.8117  0.9347  0.8885
 6307SOL    HW230384   4.624   1.242   6.770  0.0254 -0.7174  1.9794
 6308SOL     OW30385   0.263   2.263   6.384  0.1822 -0.1159 -0.8282
 6308SOL    HW130386   0.188   2.226   6.337  0.6469 -1.6659 -0.3576
 6308SOL    HW230387   0.270   2.342   6.330 -0.3774 -0.5989 -1.6131
 6309SOL     OW30388   0.672   1.852  14.205  0.2794  0.6758 -0.2973
 6309SOL    HW130389   0.637   1.768  14.174 -0.4115  1.9162 -2.9284
 6309SOL    HW230390   0.750   1.876  14.156  0.6569  1.1082  0.5145
 6310SOL     OW30391   3.583   4.451   1.925  0.3685 -0.2421  0.0813
 6310SOL    HW130392   3.552   4.478   2.011  0.3773 -0.7189  0.2344
 6310SOL    HW230393   3.597   4.526   1.867  2.6076 -0.6988  0.0257
 6311SOL     OW30394   2.625   0.736   3.576 -0.1928  0.5785 -0.3693
 6311SOL    HW130395   2.602   0.648   3.548 -0.6194  1.0315 -1.4606
 6311SOL    HW230396   2.627   0.728   3.671 -1.7128 -0.0967 -0.3870
 6312SOL     OW30397   1.815   2.185  10.933  0.1263 -1.0688 -0.5200
 6312SOL    HW130398   1.891   2.128  10.926  0.8116 -0.2716  0.4510
 6312SOL    HW230399   1.757   2.125  10.979 -1.3590 -0.9561 -2.2207
 6313SOL     OW30400   4.004   2.882   5.500 -0.3402 -0.2261  0.3346
 6313SOL    HW130401   3.962   2.899   5.584  0.3115 -1.5483  0.9357
 6313SOL    HW230402   3.946   2.817   5.458 -1.6779 -0.0174  1.8762
 6314SOL     OW30403   3.845   4.268   1.359 -0.1324  0.6779 -0.6459
 6314SOL    HW130404   3.809   4.309   1.280  2.3939 -0.1390 -2.2213
 6314SOL    HW230405   3.763   4.246   1.402 -0.0477  3.1643  0.8089
 6315SOL     OW30406   4.481   2.428   4.794 -0.1249 -0.5623  0.2444
 6315SOL    HW130407   4.411   2.368   4.819  0.6054 -2.0421 -1.3409
 6315SOL    HW230408   4.541   2.359   4.769 -0.1791  0.2274 -2.1088
 6316SOL     OW30409   0.169   2.756   1.253  0.2323 -0.2638  0.0019
 6316SOL    HW130410   0.151   2.752   1.346  0.2880 -0.3087  0.0113
 6316SOL    HW230411   0.250   2.705   1.245  1.9938  2.6805 -0.8807
 6317SOL     OW30412   2.011   4.650   5.458 -0.8330 -0.3182 -0.4783
 6317SOL    HW130413   2.068   4.579   5.427 -2.4064 -1.7654 -0.0524
 6317SOL    HW230414   1.994   4.615   5.546 -0.3356 -0.9561 -0.6362
 6318SOL     OW30415   2.996   4.294   9.882  0.1833  0.1249 -0.3507
 6318SOL    HW130416   2.963   4.340   9.959 -1.1210  1.6572 -1.8354
 6318SOL    HW230417   2.985   4.205   9.917 -0.4844  0.3756  0.0704
 6319SOL     OW30418   2.795   0.656  13.717 -0.3020 -0.0573 -0.1768
 6319SOL    HW130419   2.776   0.648  13.811 -2.1780 -2.0083 -0.7417
 6319SOL    HW230420   2.705   0.670  13.690 -0.5743 -1.3134  0.1302
 6320SOL     OW30421   2.900   4.006   6.086 -0.6061  0.2284 -0.1537
 6320SOL    HW130422   2.913   3.926   6.137 -0.6124  1.2289  1.4055
 6320SOL    HW230423   2.878   3.979   5.997 -1.3460 -0.2794  0.1871
 6321SOL     OW30424   0.537   0.073   4.989  0.4181 -0.5711 -0.3999
 6321SOL    HW130425   0.461   0.095   5.043  1.9094  2.0148  0.6698
 6321SOL    HW230426   0.489   0.050   4.909 -2.5111  2.2642  0.5360
 6322SOL     OW30427   3.737   3.500   9.347 -0.4789 -0.1640 -0.6398
 6322SOL    HW130428   3.701   3.587   9.332  2.3487  1.1192 -0.0001
 6322SOL    HW230429   3.740   3.505   9.442 -0.9795 -0.0393 -0.6285
 6323SOL     OW30430   2.063   1.077   0.462  0.4117 -0.3866  0.2917
 6323SOL    HW130431   2.103   1.011   0.406 -1.2288 -0.8332 -0.3648
 6323SOL    HW230432   1.973   1.043   0.459 -0.3356  1.6737 -0.3754
 6324SOL     OW30433   0.085   1.430   8.546  0.3289 -0.3508 -0.1476
 6324SOL    HW130434   0.147   1.366   8.510  2.7286  0.8231  1.9061
 6324SOL    HW230435   0.075   1.483   8.468 -0.4154  0.1536  0.2883
 6325SOL     OW30436   3.671   0.647  12.400 -0.0770 -0.1934 -0.5087
 6325SOL    HW130437   3.627   0.724  12.363 -0.9206  0.1671  1.2294
 6325SOL    HW230438   3.659   0.645  12.495  0.3186 -1.2530 -0.4830
 6326SOL     OW30439   1.513   2.688   3.699  0.5483  0.6999 -0.5313
 6326SOL    HW130440   1.605   2.710   3.691  1.2943 -1.8322  1.0244
 6326SOL    HW230441   1.495   2.615   3.639  0.9244 -0.7816  1.1375
 6327SOL     OW30442   0.553   0.779   5.007 -0.3840 -0.2503 -0.0770
 6327SOL    HW130443   0.592   0.779   5.094 -1.2000 -2.0997  0.2878
 6327SOL    HW230444   0.462   0.764   5.033 -0.0060 -3.4768 -0.5871
 6328SOL     OW30445   2.164   0.926   6.456  0.3780  0.8582 -0.0420
 6328SOL    HW130446   2.189   1.003   6.405  0.8845  0.3195 -0.6070
 6328SOL    HW230447   2.117   0.880   6.387 -0.7231  2.1680 -0.1767
 6329SOL     OW30448   1.909   0.862   3.097  0.0075  0.1418  0.1630
 6329SOL    HW130449   1.967   0.938   3.104 -0.2903  0.3006  0.8486
 6329SOL    HW230450   1.960   0.798   3.148 -0.5253  1.1104  1.9057
 6330SOL     OW30451   4.013   0.006   8.869  0.3634  0.2050  0.1339
 6330SOL    HW130452   3.928   4.697   8.902  1.7706 -2.1990  1.6541
 6330SOL    HW230453   4.028   4.679   8.787 -0.5154  0.6325 -0.2641
 6331SOL     OW30454   1.657   0.961   4.459 -0.5981 -0.3149 -0.3909
 6331SOL    HW130455   1.632   0.933   4.371  0.2853 -2.8376  0.1685
 6331SOL    HW230456   1.613   0.897   4.514  0.9091 -1.4026 -0.4766
 6332SOL     OW30457   0.680   0.189  15.926  0.1976 -0.3010 -0.1304
 6332SOL    HW130458   0.676   0.187  16.022  1.7886 -0.2918 -0.0736
 6332SOL    HW230459   0.711   0.100  15.908  0.4997 -0.6905  2.2699
 6333SOL     OW30460   0.065   1.829   0.501 -0.3216  0.1622  0.0162
 6333SOL    HW130461   0.099   1.839   0.412  0.7134  0.8093  0.4866
 6333SOL    HW230462   4.695   1.863   0.509 -0.3901  0.6180 -2.6586
 6334SOL     OW30463   4.132   2.312   4.610  0.2851  0.5258  0.9146
 6334SOL    HW130464   4.135   2.406   4.626 -0.3760  0.7484 -0.2868
 6334SOL    HW230465   4.199   2.267   4.662 -1.0622 -1.2541  1.1096
 6335SOL     OW30466   2.987   1.183   2.385 -0.2592 -0.0810 -0.0123
 6335SOL    HW130467   3.076   1.211   2.362 -1.0448  0.3988 -2.5384
 6335SOL    HW230468   2.989   1.089   2.369 -1.1016 -0.0104 -0.5539
 6336SOL     OW30469   3.608   2.040   4.393  0.4959  0.7920  0.5699
 6336SOL    HW130470   3.543   2.074   4.454 -0.7029 -0.0105 -0.2701
 6336SOL    HW230471   3.645   2.121   4.357  0.4244  0.2445 -0.7273
 6337SOL     OW30472   3.547   0.600   7.627  0.5192 -0.0958 -0.4076
 6337SOL    HW130473   3.555   0.679   7.681 -0.8980  0.0374 -0.3829
 6337SOL    HW230474   3.520   0.641   7.546  1.1781  0.6644 -0.2474
 6338SOL     OW30475   3.309   0.047  13.357  0.1905 -0.1195  0.2679
 6338SOL    HW130476   3.352   4.683  13.342  0.1891  0.2027 -1.4470
 6338SOL    HW230477   3.294   0.066  13.265 -0.9691 -1.9380  0.0816
 6339SOL     OW30478   0.101   2.927   3.021 -0.3990 -0.3624  0.6196
 6339SOL    HW130479   0.125   2.967   2.938  0.4039 -2.4024 -0.1190
 6339SOL    HW230480   0.150   2.846   3.028 -0.8817 -0.7002  0.0898
 6340SOL     OW30481   2.008   2.778   2.237 -0.5633 -0.2763 -0.0837
 6340SOL    HW130482   2.007   2.859   2.186  2.2575  0.3228  0.8240
 6340SOL    HW230483   2.085   2.733   2.201  0.7343  0.3233  1.9406
 6341SOL     OW30484   0.056   0.838   1.451 -0.5326 -0.1610 -0.0463
 6341SOL    HW130485   0.128   0.856   1.390 -0.0123 -0.7263  0.4021
 6341SOL    HW230486   4.713   0.797   1.393  0.8049 -1.7858 -0.3305
 6342SOL     OW30487   1.813   3.203  14.754  0.0372  0.1900 -0.1641
 6342SOL    HW130488   1.728   3.236  14.783  0.9521  1.5624  0.9826
 6342SOL    HW230489   1.803   3.189  14.660 -0.9161 -0.2793  0.0063
 6343SOL     OW30490   4.282   3.172  13.720 -0.1849 -0.5429  0.0876
 6343SOL    HW130491   4.204   3.143  13.768 -0.5550 -0.6269 -0.5686
 6343SOL    HW230492   4.295   3.104  13.654 -2.1990 -0.0812 -0.8014
 6344SOL     OW30493   1.888   0.162   7.754 -0.2398  0.1085 -0.0808
 6344SOL    HW130494   1.934   0.147   7.671 -1.4106 -0.9698 -0.5519
 6344SOL    HW230495   1.945   0.226   7.796 -0.3771  1.1148 -1.4245
 6345SOL     OW30496   3.782   2.071   6.463 -0.0872  0.9158 -0.3677
 6345SOL    HW130497   3.700   2.043   6.503  1.0906 -1.3030  0.4911
 6345SOL    HW230498   3.785   2.017   6.384  2.1484 -1.7648  1.5528
 6346SOL     OW30499   4.136   0.199   6.597 -0.5140 -0.4645  0.5136
 6346SOL    HW130500   4.207   0.262   6.600 -2.3455  1.5460  2.0575
 6346SOL    HW230501   4.118   0.186   6.691 -0.3729 -1.5956  0.3842
 6347SOL     OW30502   3.590   1.661   2.563  0.1150 -0.2444  0.3387
 6347SOL    HW130503   3.503   1.639   2.594 -0.9797  2.4107 -0.8668
 6347SOL    HW230504   3.577   1.638   2.471  0.0588 -0.2402  0.3460
 6348SOL     OW30505   2.972   4.058   5.089 -0.2079  0.3426  0.1752
 6348SOL    HW130506   2.953   3.994   5.020  2.9454 -1.2225  0.7709
 6348SOL    HW230507   3.067   4.053   5.099 -0.4779 -1.6809  1.8126
 6349SOL     OW30508   2.033   4.165   2.415  0.2450  0.3755  0.3024
 6349SOL    HW130509   2.039   4.212   2.332  0.1489  1.0096  0.6562
 6349SOL    HW230510   2.117   4.120   2.420  0.4983  0.6514 -1.7231
 6350SOL     OW30511   0.068   1.406   2.555  0.2842  0.1575 -0.3538
 6350SOL    HW130512   0.114   1.383   2.474  2.9338 -0.1270  1.2316
 6350SOL    HW230513   4.698   1.374   2.549  0.4658 -0.3022 -0.6716
 6351SOL     OW30514   1.252   4.147   8.806  0.4952  0.1286 -0.0218
 6351SOL    HW130515   1.340   4.127   8.773 -0.3699 -1.9895 -1.0995
 6351SOL    HW230516   1.223   4.064   8.845 -0.4159  1.2139  1.5754
 6352SOL     OW30517   1.503   1.206   3.029 -0.0332 -0.2371  0.8036
 6352SOL    HW130518   1.560   1.190   3.104  0.2228  2.9322  1.2960
 6352SOL    HW230519   1.417   1.207   3.071 -0.0116 -1.1908  0.8612
 6353SOL     OW30520   0.478   0.178  14.529  0.1754  0.4070 -0.3874
 6353SOL    HW130521   0.460   0.269  14.505  1.7397  1.0445  0.8877
 6353SOL    HW230522   0.566   0.161  14.495  0.5043  0.8687  0.2376
 6354SOL     OW30523   2.224   3.416   3.563 -0.0687  0.2074  0.1754
 6354SOL    HW130524   2.248   3.474   3.635 -0.0812 -0.0854  0.4133
 6354SOL    HW230525   2.151   3.462   3.521 -0.7867 -1.7895 -0.7589
 6355SOL     OW30526   4.034   3.038   7.442  0.6791 -0.2467 -0.0961
 6355SOL    HW130527   4.123   3.067   7.423 -0.4193  2.1785 -1.4213
 6355SOL    HW230528   4.037   3.031   7.538 -2.3754  0.9453  0.0770
 6356SOL     OW30529   0.432   3.487   7.273 -0.5980 -0.3360 -0.2437
 6356SOL    HW130530   0.393   3.479   7.360  0.1125 -2.8049 -0.1511
 6356SOL    HW230531   0.512   3.537   7.291  0.1095 -1.7810  0.6421
 6357SOL     OW30532   2.464   2.688   1.989  0.2207 -0.0485  0.5797
 6357SOL    HW130533   2.524   2.651   2.053 -0.7911 -0.9358  1.0059
 6357SOL    HW230534   2.515   2.737   1.923 -3.1712  3.6295  0.7082
 6358SOL     OW30535   4.067   0.990   5.399  0.4849  0.2693  0.4257
 6358SOL    HW130536   4.053   1.018   5.309 -0.0630  0.1014  0.4595
 6358SOL    HW230537   3.986   1.032   5.427  0.3672  1.5673 -1.8640
 6359SOL     OW30538   0.162   3.234   7.806 -0.4813  0.8180 -0.1431
 6359SOL    HW130539   0.204   3.280   7.733 -0.0477  0.1591 -0.3008
 6359SOL    HW230540   0.069   3.258   7.794 -0.3977  0.1992 -2.0685
 6360SOL     OW30541   1.301   4.056   3.372  0.2045 -0.3422 -0.1202
 6360SOL    HW130542   1.289   4.035   3.465 -1.6575  3.1673  0.4013
 6360SOL    HW230543   1.261   4.143   3.369  1.7702  0.3975  0.4805
 6361SOL     OW30544   4.629   0.449   5.592 -0.0861 -0.0238  0.1958
 6361SOL    HW130545   4.693   0.500   5.642 -1.7582  1.6111  0.6437
 6361SOL    HW230546   4.689   0.394   5.541 -0.6659  0.8202 -1.4102
 6362SOL     OW30547   2.665   0.187   1.001 -0.2570  0.0738 -0.0696
 6362SOL    HW130548   2.577   0.218   1.021  0.4255  1.8036  0.2952
 6362SOL    HW230549   2.707   0.270   0.977  0.3007 -0.3082 -0.4204
 6363SOL     OW30550   3.383   4.326   3.434 -0.1242  0.0648  0.0327
 6363SOL    HW130551   3.390   4.343   3.340  2.6181  0.2509  0.2641
 6363SOL    HW230552   3.476   4.308   3.445 -0.6976 -2.4235  0.8789
 6364SOL     OW30553   2.321   2.047   5.017  0.1329 -0.3565  0.4274
 6364SOL    HW130554   2.362   2.102   4.950 -0.3937 -1.4042 -0.7665
 6364SOL    HW230555   2.236   2.091   5.027 -0.1409 -0.1967 -2.7075
 6365SOL     OW30556   4.183   1.053   1.927  0.0949  0.0649  0.2436
 6365SOL    HW130557   4.233   0.985   1.972  0.1258  1.4363  2.2947
 6365SOL    HW230558   4.123   1.001   1.873  0.6334 -1.1779  0.8568
 6366SOL     OW30559   0.959   2.872   4.463  0.0689  0.0125 -0.0643
 6366SOL    HW130560   0.905   2.799   4.493  0.0318 -0.8486 -2.1912
 6366SOL    HW230561   0.910   2.912   4.392 -2.4497 -2.8029  0.1044
 6367SOL     OW30562   1.281   1.949   9.792 -0.2646 -0.5755 -0.1799
 6367SOL    HW130563   1.257   1.870   9.840  0.6886 -0.3489  0.6768
 6367SOL    HW230564   1.215   2.008   9.829 -0.3487 -1.0806  0.4624
 6368SOL     OW30565   1.198   2.695  10.899  0.0809  0.4134  0.2185
 6368SOL    HW130566   1.133   2.676  10.966 -0.8511  1.4497 -0.3999
 6368SOL    HW230567   1.261   2.741  10.955 -0.5410 -1.0529  2.1079
 6369SOL     OW30568   3.920   1.570   7.840 -0.5466 -0.3971 -0.2252
 6369SOL    HW130569   3.931   1.492   7.894  1.3731 -0.0752 -0.1698
 6369SOL    HW230570   3.841   1.538   7.796 -0.9690  2.0873 -1.3153
 6370SOL     OW30571   1.527   3.804   8.618  0.3758  0.3231  0.2744
 6370SOL    HW130572   1.457   3.740   8.631  2.1167 -1.5871  0.2577
 6370SOL    HW230573   1.551   3.810   8.711 -0.3814  1.4915  0.3989
 6371SOL     OW30574   3.627   3.041   4.831  0.2577  0.0293 -0.6963
 6371SOL    HW130575   3.680   2.962   4.840  0.2632  0.1543  0.3558
 6371SOL    HW230576   3.538   3.006   4.819  0.3818 -0.1056 -1.1927
 6372SOL     OW30577   0.491   1.460  14.926 -0.4480 -0.5078 -0.8599
 6372SOL    HW130578   0.530   1.400  14.989 -1.4289  1.3070  1.4653
 6372SOL    HW230579   0.551   1.440  14.854 -1.1979 -1.2475 -1.2842
 6373SOL     OW30580   3.194   4.476   9.831  0.3838  0.4794  0.1170
 6373SOL    HW130581   3.120   4.417   9.843  1.6941 -1.6934 -2.4055
 6373SOL    HW230582   3.201   4.464   9.736 -1.5651 -0.0549  0.0519
 6374SOL     OW30583   1.541   1.359  16.381  0.3854 -0.8536 -0.2147
 6374SOL    HW130584   1.533   1.267  16.356 -0.1040 -1.0977  0.8339
 6374SOL    HW230585   1.458   1.388  16.343  1.8232 -0.5891 -3.1241
 6375SOL     OW30586   1.282   4.683  12.610  0.2209 -0.1696 -0.1031
 6375SOL    HW130587   1.249   4.629  12.538  2.0784 -2.6653  0.9314
 6375SOL    HW230588   1.371   4.701  12.581 -0.0536  2.3098  0.5716
 6376SOL     OW30589   4.429   3.115  15.159  0.7266  0.6714 -0.3064
 6376SOL    HW130590   4.406   3.049  15.225  0.6693  1.2262  0.2312
 6376SOL    HW230591   4.504   3.162  15.197  0.5205  1.0226 -0.3351
 6377SOL     OW30592   0.212   2.097   5.469 -0.3994 -0.4388 -0.1280
 6377SOL    HW130593   0.274   2.148   5.416  1.3974  0.6705  3.0018
 6377SOL    HW230594   0.137   2.155   5.469  0.1587  0.2888 -0.4985
 6378SOL     OW30595   4.121   0.734   4.210  0.0953 -0.1411  0.5964
 6378SOL    HW130596   4.041   0.787   4.209 -0.5782 -1.1587  0.5723
 6378SOL    HW230597   4.118   0.699   4.299  0.9435 -1.7555  0.0006
 6379SOL     OW30598   0.084   4.674  11.850  0.0996 -0.2089  0.2346
 6379SOL    HW130599   0.047   0.041  11.831  1.1733 -0.0408 -1.0916
 6379SOL    HW230600   0.085   4.619  11.772  1.1764  0.4712 -0.2275
 6380SOL     OW30601   3.133   0.208   7.328 -0.4763  0.3093 -0.7209
 6380SOL    HW130602   3.224   0.181   7.334  0.0512  2.2514  0.0773
 6380SOL    HW230603   3.139   0.300   7.355  0.1395 -0.5218  2.0169
 6381SOL     OW30604   1.252   2.978   0.288 -0.2051 -0.5120  0.0807
 6381SOL    HW130605   1.305   2.952   0.212 -1.6496 -1.4559 -0.6054
 6381SOL    HW230606   1.318   3.033   0.329 -1.7336  2.3901 -1.3791
 6382SOL     OW30607   1.569   1.714   1.962 -0.8642  0.3037  0.0529
 6382SOL    HW130608   1.664   1.704   1.961 -0.6365  2.2360  3.1075
 6382SOL    HW230609   1.542   1.652   1.894  0.5149 -1.5450  1.2020
 6383SOL     OW30610   1.731   1.312   5.048  0.5694  0.1548  0.6570
 6383SOL    HW130611   1.735   1.407   5.044 -1.1773  0.1063 -1.9803
 6383SOL    HW230612   1.661   1.301   5.112 -2.0395 -0.2743 -2.2933
 6384SOL     OW30613   0.178   4.283   3.801 -0.4425  0.3247  0.1187
 6384SOL    HW130614   0.145   4.339   3.871  2.1788 -0.7158  2.1891
 6384SOL    HW230615   0.169   4.197   3.843 -0.1793 -0.4142 -1.3348
 6385SOL     OW30616   0.390   2.026   2.029 -0.2141 -0.0435 -0.1431
 6385SOL    HW130617   0.401   1.962   1.958  1.3172  1.1468 -0.9689
 6385SOL    HW230618   0.441   2.100   1.999  3.0890 -3.1861 -2.2922
 6386SOL     OW30619   1.800   3.022   8.030 -0.2350 -0.3258  0.0687
 6386SOL    HW130620   1.754   3.007   7.947  1.1021 -1.5630 -0.4564
 6386SOL    HW230621   1.894   3.018   8.012 -0.2911  0.6148 -0.4272
 6387SOL     OW30622   3.478   2.843  15.805 -0.0311 -0.0705  0.5460
 6387SOL    HW130623   3.388   2.866  15.783  0.6162  2.4615  0.4231
 6387SOL    HW230624   3.520   2.854  15.720 -0.6120 -0.9482  0.1555
 6388SOL     OW30625   0.026   1.131   9.686  0.0094  0.0056 -0.6245
 6388SOL    HW130626   4.709   1.218   9.670 -0.2926 -0.5119 -2.7483
 6388SOL    HW230627   4.717   1.091   9.604 -3.0914  2.3204 -0.6861
 6389SOL     OW30628   0.029   1.995   7.609 -0.0029  0.6291  0.0359
 6389SOL    HW130629   4.664   2.022   7.575 -2.1867 -0.5009  4.6090
 6389SOL    HW230630   0.054   2.054   7.681 -1.0941 -1.0081  1.7605
 6390SOL     OW30631   1.403   2.563   5.710  0.4858  0.3287 -0.1101
 6390SOL    HW130632   1.420   2.641   5.764 -1.4792  0.7103 -0.0443
 6390SOL    HW230633   1.459   2.584   5.635 -2.1361  2.4118 -1.4694
 6391SOL     OW30634   3.334   4.098   2.502  0.4256  0.0773 -0.3664
 6391SOL    HW130635   3.349   4.172   2.560 -2.3683  1.2811 -1.1591
 6391SOL    HW230636   3.392   4.028   2.532  2.2413  2.7628  2.3761
 6392SOL     OW30637   3.920   0.762   9.034 -0.0873 -0.2002 -0.0965
 6392SOL    HW130638   3.959   0.674   9.034  2.2651  0.8313 -0.4349
 6392SOL    HW230639   3.959   0.789   9.117  1.2449  0.1802 -0.8455
 6393SOL     OW30640   1.639   0.571   9.804 -0.2137  0.1323  0.1442
 6393SOL    HW130641   1.627   0.499   9.742  0.8408 -1.8289  2.2396
 6393SOL    HW230642   1.547   0.597   9.802 -0.1312  0.3586 -0.7486
 6394SOL     OW30643   4.561   3.176  13.469  0.0297 -0.0064 -0.0114
 6394SOL    HW130644   4.480   3.219  13.443  0.5516  1.3183  0.5176
 6394SOL    HW230645   4.619   3.249  13.446  1.4770 -1.6453 -1.5580
 6395SOL     OW30646   4.246   0.289  13.699 -0.6712  0.2664  0.2671
 6395SOL    HW130647   4.152   0.298  13.681  0.0023 -0.0542 -3.3751
 6395SOL    HW230648   4.256   0.195  13.688 -4.7855 -0.3510  1.9343
 6396SOL     OW30649   0.835   0.690  10.996 -0.0937 -0.6456 -0.5820
 6396SOL    HW130650   0.930   0.683  10.993 -0.1314 -2.1490  2.2316
 6396SOL    HW230651   0.834   0.761  10.932 -0.6246  0.5933  0.7750
 6397SOL     OW30652   0.716   3.407   1.281 -0.4536  0.4498  0.2333
 6397SOL    HW130653   0.794   3.459   1.260 -0.0306 -0.1216  0.3851
 6397SOL    HW230654   0.754   3.321   1.300  0.5187  0.6615 -0.7764
 6398SOL     OW30655   0.018   0.806   3.127 -0.1854  0.2985 -0.5456
 6398SOL    HW130656   4.680   0.760   3.067  1.6535  0.4828 -2.4616
 6398SOL    HW230657   4.694   0.890   3.117 -0.2073  0.3212 -0.2664
 6399SOL     OW30658   0.861   1.612   4.698  0.1761  0.0333 -0.0041
 6399SOL    HW130659   0.922   1.539   4.686 -0.7376 -1.0431  1.9018
 6399SOL    HW230660   0.917   1.660   4.760 -0.5297 -0.2210  0.8225
 6400SOL     OW30661   0.290   2.182   2.876 -0.0644  0.1170  0.9374
 6400SOL    HW130662   0.288   2.090   2.850 -0.7940  0.5575 -0.6169
 6400SOL    HW230663   0.204   2.202   2.837 -0.5475 -2.6099  0.5976
 6401SOL     OW30664   4.530   2.797   7.847  0.3105  0.7353 -0.4616
 6401SOL    HW130665   4.451   2.842   7.815  0.2532 -0.0063 -1.3366
 6401SOL    HW230666   4.561   2.874   7.896 -0.5652  1.1876 -0.6013
 6402SOL     OW30667   3.241   3.117  12.350 -0.5793 -0.6429  0.2659
 6402SOL    HW130668   3.321   3.077  12.385 -0.0388  0.3717  0.1941
 6402SOL    HW230669   3.214   3.165  12.428  0.8193  0.0646  0.3298
 6403SOL     OW30670   3.113   4.381   9.177  0.4775  0.2607  0.0882
 6403SOL    HW130671   3.163   4.376   9.259 -0.0717  0.1705  0.4178
 6403SOL    HW230672   3.047   4.444   9.207 -0.1978 -0.6829  0.6009
 6404SOL     OW30673   1.529   2.454   4.161  0.5234  0.7794 -0.3153
 6404SOL    HW130674   1.610   2.466   4.112 -0.4588  3.3135 -1.3295
 6404SOL    HW230675   1.477   2.505   4.099 -0.8895 -0.1531  0.0988
 6405SOL     OW30676   2.154   3.978   5.580 -1.0712 -0.0636 -0.2379
 6405SOL    HW130677   2.165   3.884   5.568 -2.9322 -0.3783  0.6233
 6405SOL    HW230678   2.155   4.005   5.488 -0.0523 -0.8867 -0.4651
 6406SOL     OW30679   2.213   1.544   0.297 -0.1960 -0.2346 -0.4455
 6406SOL    HW130680   2.230   1.452   0.318  2.9501  0.0410 -1.7564
 6406SOL    HW230681   2.152   1.533   0.224 -0.0063  1.7944 -0.9056
 6407SOL     OW30682   3.642   1.346   3.976 -0.3349 -0.2276 -0.6217
 6407SOL    HW130683   3.721   1.316   3.931 -1.2201 -2.6588 -0.5417
 6407SOL    HW230684   3.583   1.364   3.902 -0.6823  1.1613 -0.0010
 6408SOL     OW30685   3.236   4.677   7.047 -0.1462  0.6005 -0.1056
 6408SOL    HW130686   3.225   0.050   7.067  0.0532  0.6808 -0.3718
 6408SOL    HW230687   3.155   4.633   7.071  1.1468 -1.4546  0.5390
 6409SOL     OW30688   0.486   0.979   5.985  0.0990 -0.1886 -0.5155
 6409SOL    HW130689   0.426   0.906   5.968 -1.5727  1.2879 -0.9479
 6409SOL    HW230690   0.534   0.953   6.063  0.1140  2.2402  0.2745
 6410SOL     OW30691   0.225   1.551   2.859 -0.0788  0.2746  0.3479
 6410SOL    HW130692   0.207   1.462   2.889 -1.6735  0.0652 -1.2614
 6410SOL    HW230693   0.321   1.548   2.852 -0.1506  0.0263 -0.5284
 6411SOL     OW30694   1.022   3.931   1.815 -0.0333 -0.2480  0.5580
 6411SOL    HW130695   1.003   3.840   1.839 -1.3960 -0.1258 -0.0677
 6411SOL    HW230696   1.117   3.925   1.824  0.0237 -0.4647 -0.1972
 6412SOL     OW30697   1.465   1.379   2.827 -0.0018  0.0192  0.2025
 6412SOL    HW130698   1.478   1.319   2.900  0.1109 -0.4620 -0.2196
 6412SOL    HW230699   1.454   1.324   2.749 -2.2112 -0.9344  1.1799
 6413SOL     OW30700   2.658   3.723   5.070 -0.3737  0.6185  0.4008
 6413SOL    HW130701   2.640   3.637   5.108 -1.9235  0.4498 -0.7396
 6413SOL    HW230702   2.579   3.770   5.097  0.4113  1.9724  0.3303
 6414SOL     OW30703   4.676   4.068   4.918  0.2131  0.4140 -0.2090
 6414SOL    HW130704   4.599   4.125   4.916 -0.1166  0.0515  3.3463
 6414SOL    HW230705   4.712   4.098   5.001  1.2036  1.1315 -0.8889
 6415SOL     OW30706   0.749   1.217   8.900 -0.4989 -0.4924  0.1202
 6415SOL    HW130707   0.794   1.281   8.846 -0.4014 -2.5325 -2.2102
 6415SOL    HW230708   0.665   1.214   8.853 -0.0568 -1.2880 -0.6150
 6416SOL     OW30709   2.706   1.976   7.866 -0.4111 -0.6415 -0.1618
 6416SOL    HW130710   2.739   1.897   7.823 -0.2972 -0.7671  0.1567
 6416SOL    HW230711   2.755   2.046   7.823 -1.5068 -0.0373 -0.4192
 6417SOL     OW30712   4.532   1.078   5.153  0.0600  0.3874 -0.7170
 6417SOL    HW130713   4.519   0.984   5.170  3.2705  0.0835  0.1406
 6417SOL    HW230714   4.510   1.109   5.241  3.2374 -0.8432  0.5151
 6418SOL     OW30715   2.432   4.343   1.845 -0.7527 -0.3769 -0.7992
 6418SOL    HW130716   2.417   4.281   1.916  0.3245  0.1361 -0.1270
 6418SOL    HW230717   2.434   4.280   1.773  0.5815 -1.1054 -0.1133
 6419SOL     OW30718   0.845   1.586  11.323  0.4085 -0.4714  0.3453
 6419SOL    HW130719   0.829   1.591  11.417 -3.0323  0.9097 -0.2997
 6419SOL    HW230720   0.923   1.641  11.312  0.5820 -0.9705 -0.8878
 6420SOL     OW30721   0.570   1.241   9.498  0.1960  0.0449  0.1986
 6420SOL    HW130722   0.516   1.320   9.486 -1.0365 -0.8864 -0.3770
 6420SOL    HW230723   0.515   1.170   9.464  0.0198 -0.1273  0.8422
 6421SOL     OW30724   2.343   0.104  14.691 -0.1134  0.5365 -0.2624
 6421SOL    HW130725   2.276   0.088  14.625  0.9060 -0.1086 -1.1314
 6421SOL    HW230726   2.379   0.016  14.699 -1.8537 -0.1928 -0.5914
 6422SOL     OW30727   2.154   2.791  10.442 -0.4587 -0.4204 -0.1342
 6422SOL    HW130728   2.181   2.882  10.451  2.6819 -1.3808  0.0819
 6422SOL    HW230729   2.109   2.771  10.524  0.3383  0.2162  0.4538
 6423SOL     OW30730   1.945   4.400   1.120  0.2647  0.6708 -0.2864
 6423SOL    HW130731   1.886   4.324   1.123  1.3057 -0.0149  3.3033
 6423SOL    HW230732   1.981   4.382   1.033  0.6382 -0.7358  0.1543
 6424SOL     OW30733   3.725   2.053   6.982 -0.0611  0.1950 -0.1579
 6424SOL    HW130734   3.792   1.986   6.974 -0.1673  0.1015 -0.2690
 6424SOL    HW230735   3.715   2.066   6.888  2.5608 -0.5149 -0.5163
 6425SOL     OW30736   3.415   1.818   7.761 -0.3020 -0.2685 -0.1835
 6425SOL    HW130737   3.478   1.830   7.691  1.8980 -1.3730  1.5946
 6425SOL    HW230738   3.476   1.782   7.826 -0.7864 -0.4386  0.1862
 6426SOL     OW30739   1.568   4.014   6.263  0.4876 -0.6268 -0.4088
 6426SOL    HW130740   1.554   3.922   6.240 -2.3560 -0.9243  2.4832
 6426SOL    HW230741   1.549   4.023   6.357  3.1173 -0.5721  0.1168
 6427SOL     OW30742   4.151   4.043   5.146 -0.2819 -0.4752  0.2004
 6427SOL    HW130743   4.230   3.997   5.175  0.9708 -0.5622 -3.3612
 6427SOL    HW230744   4.100   3.973   5.106 -0.7633 -0.7496  1.2892
 6428SOL     OW30745   4.069   2.869   2.046 -0.6135 -0.8263 -0.1500
 6428SOL    HW130746   4.121   2.910   1.977 -0.5396  1.3759  1.2244
 6428SOL    HW230747   4.130   2.838   2.114  0.3586 -0.9840 -1.0963
 6429SOL     OW30748   2.012   4.037   5.809 -0.0066  0.3403  0.1767
 6429SOL    HW130749   1.917   4.035   5.799 -0.4088  2.9907  3.3855
 6429SOL    HW230750   2.043   4.030   5.719 -3.0270  1.2448 -0.9447
 6430SOL     OW30751   2.348   3.087   3.807  0.6720 -0.4411 -0.5575
 6430SOL    HW130752   2.436   3.077   3.769  0.1421 -2.6821 -1.1727
 6430SOL    HW230753   2.365   3.055   3.895 -1.1590 -0.0519 -0.0587
 6431SOL     OW30754   3.438   0.522  17.521  0.0461  0.4672  0.0640
 6431SOL    HW130755   3.413   0.447  17.467  0.5282  0.1159  0.3211
 6431SOL    HW230756   3.528   0.522  17.486  0.4388 -0.2702  1.0717
 6432SOL     OW30757   3.396   2.726   4.161 -0.5313 -0.3347  0.4997
 6432SOL    HW130758   3.359   2.794   4.218  0.3293  0.4880  0.0882
 6432SOL    HW230759   3.324   2.668   4.137  0.5238 -0.1585 -3.1697
 6433SOL     OW30760   3.576   2.582  17.595 -0.2708  0.1110  0.1399
 6433SOL    HW130761   3.537   2.600  17.680 -0.6945 -0.1188 -0.0051
 6433SOL    HW230762   3.584   2.487  17.602  1.3621  0.1655 -0.8561
 6434SOL     OW30763   3.406   0.103   3.321 -0.3774  0.1322  0.0732
 6434SOL    HW130764   3.454   0.043   3.379  0.1708  0.9132  0.4368
 6434SOL    HW230765   3.452   0.185   3.339  0.2373 -0.3439  0.6877
 6435SOL     OW30766   2.187   2.380  11.169 -0.2030 -0.0169 -0.1057
 6435SOL    HW130767   2.269   2.390  11.217  0.3273  0.7421 -1.1744
 6435SOL    HW230768   2.138   2.326  11.231 -1.7937  2.8337  1.0987
 6436SOL     OW30769   2.442   1.845   2.036  0.3848 -0.0824  0.1033
 6436SOL    HW130770   2.349   1.823   2.034  0.0748  1.1013  1.5940
 6436SOL    HW230771   2.439   1.925   1.984 -1.0419  0.0400  0.3710
 6437SOL     OW30772   0.373   3.774   8.939 -0.0921  0.2781  0.6144
 6437SOL    HW130773   0.326   3.693   8.955 -2.3438  1.3074 -0.8900
 6437SOL    HW230774   0.313   3.811   8.875  1.9138 -0.8052 -1.8951
 6438SOL     OW30775   2.507   2.901   4.509  0.2184  0.3205 -0.3529
 6438SOL    HW130776   2.501   2.989   4.545 -2.7044 -0.8684  2.0216
 6438SOL    HW230777   2.563   2.921   4.434  1.3225  1.4832  0.7764
 6439SOL     OW30778   3.426   0.775  17.597 -0.2967  0.0576  0.5487
 6439SOL    HW130779   3.440   0.682  17.579  0.7257  0.4367 -0.6101
 6439SOL    HW230780   3.341   0.775  17.554 -0.6413 -0.5767  1.2208
 6440SOL     OW30781   3.077   0.123   3.094 -0.6977  0.1776  0.0100
 6440SOL    HW130782   2.985   0.145   3.078 -1.4727 -1.6694  1.8636
 6440SOL    HW230783   3.068   0.037   3.053  3.9634  0.1904 -1.0440
 6441SOL     OW30784   3.610   4.659   4.051 -0.0014  0.0281  0.6442
 6441SOL    HW130785   3.541   4.682   4.113 -0.9735  1.8176 -1.0735
 6441SOL    HW230786   3.659   0.020   4.031 -0.2175  0.1666  0.6816
 6442SOL     OW30787   0.163   4.689   3.469 -0.8258  0.1272  0.0124
 6442SOL    HW130788   0.146   4.608   3.518 -4.5697  0.6880 -0.3073
 6442SOL    HW230789   0.217   0.021   3.529  0.5213 -1.5252  0.2292
 6443SOL     OW30790   0.244   4.147  11.466  0.2285 -0.1455  0.3897
 6443SOL    HW130791   0.292   4.070  11.435  0.4081 -0.3608  1.2005
 6443SOL    HW230792   0.164   4.146  11.413  0.6745 -2.9728 -0.2286
 6444SOL     OW30793   4.134   2.536   7.985  0.2321 -0.2165 -0.3668
 6444SOL    HW130794   4.164   2.452   7.949 -0.5034 -1.0926  1.0779
 6444SOL    HW230795   4.081   2.500   8.056 -0.6847  1.5187 -0.1797
 6445SOL     OW30796   0.436   1.228  17.604  0.9907  0.1355  0.0789
 6445SOL    HW130797   0.435   1.292  17.675 -4.7048 -0.3172  0.3766
 6445SOL    HW230798   0.370   1.270  17.550 -1.0569  1.3800  3.5838
 6446SOL     OW30799   3.058   1.267   8.406 -0.6199  0.1934  0.3154
 6446SOL    HW130800   2.985   1.215   8.372  1.0432 -1.4509 -0.8206
 6446SOL    HW230801   3.065   1.332   8.336 -2.0540  2.2061  2.0488
 6447SOL     OW30802   0.674   3.237   2.041 -0.0240 -0.6288  0.0797
 6447SOL    HW130803   0.732   3.161   2.046  0.8287  0.0190 -0.1790
 6447SOL    HW230804   0.634   3.219   2.126 -1.7504  1.3010 -0.3356
 6448SOL     OW30805   3.232   4.589   1.011 -0.4856 -0.1523 -1.1240
 6448SOL    HW130806   3.152   4.604   1.062  0.3116 -0.3304  0.1740
 6448SOL    HW230807   3.258   4.674   0.975 -0.2556 -0.0161 -0.6273
 6449SOL     OW30808   4.149   2.892   9.139  0.3407 -0.0996 -0.2359
 6449SOL    HW130809   4.173   2.915   9.228 -1.1524 -0.6870  0.3307
 6449SOL    HW230810   4.076   2.830   9.139 -0.6772  1.1030 -0.9964
 6450SOL     OW30811   2.640   4.021   5.624  0.3140  1.1868 -0.2648
 6450SOL    HW130812   2.599   4.009   5.538 -3.3797 -0.5291  1.7358
 6450SOL    HW230813   2.563   4.027   5.680  0.2728  1.3262 -0.3367
 6451SOL     OW30814   3.099   0.893   0.031  0.2351 -0.2102  0.1800
 6451SOL    HW130815   3.125   0.874   0.122 -0.8243 -0.8477  0.3509
 6451SOL    HW230816   3.175   0.947   0.011 -0.6605  0.6725 -0.7923
 6452SOL     OW30817   1.999   2.173  15.034 -0.4273  0.1980 -0.3437
 6452SOL    HW130818   2.020   2.116  14.960  3.2424  1.2135 -0.1021
 6452SOL    HW230819   1.916   2.135  15.064  0.5026 -1.6037 -0.0181
 6453SOL     OW30820   3.833   1.427   3.044  0.4245  0.2647  0.4305
 6453SOL    HW130821   3.790   1.342   3.056  0.8386  0.0870  0.6841
 6453SOL    HW230822   3.892   1.420   3.119  2.2236 -0.6459 -1.0614
 6454SOL     OW30823   3.692   4.349   7.553 -0.3597  0.2387 -0.3342
 6454SOL    HW130824   3.621   4.298   7.514  0.1941 -1.8747  1.3997
 6454SOL    HW230825   3.648   4.433   7.567  0.1054  0.1387  1.7716
 6455SOL     OW30826   3.054   3.200   3.515  0.1913  0.1595 -0.4945
 6455SOL    HW130827   3.027   3.270   3.455 -0.0818  1.5485  1.2280
 6455SOL    HW230828   3.061   3.248   3.597  0.7053  1.8916 -1.5458
 6456SOL     OW30829   1.219   4.584   7.502 -0.1968 -0.4574  0.0435
 6456SOL    HW130830   1.204   4.491   7.519  0.1663 -0.1027  2.3313
 6456SOL    HW230831   1.296   4.581   7.446 -2.5007  0.2374 -3.1700
 6457SOL     OW30832   0.386   3.144  11.318 -0.2127  0.2941 -0.3918
 6457SOL    HW130833   0.294   3.133  11.295 -0.8645  2.6021  1.0991
 6457SOL    HW230834   0.429   3.170  11.237  2.7664 -0.2761  1.0291
 6458SOL     OW30835   3.382   3.391   6.618 -0.2144  0.2606 -0.2029
 6458SOL    HW130836   3.375   3.365   6.710  0.5341 -2.1887 -0.8183
 6458SOL    HW230837   3.326   3.321   6.586  1.3982 -2.2608  2.4119
 6459SOL     OW30838   4.322   0.767   3.690  0.4315 -0.5249  0.0389
 6459SOL    HW130839   4.336   0.690   3.746  0.4423 -0.4885  0.0862
 6459SOL    HW230840   4.393   0.823   3.722 -0.3124 -1.1753  2.7746
 6460SOL     OW30841   3.216   2.020   5.652  0.0335 -0.0657  0.1772
 6460SOL    HW130842   3.164   2.013   5.572 -0.5292  1.6836  0.3856
 6460SOL    HW230843   3.146   1.985   5.707 -0.6963 -0.6145 -1.0822
 6461SOL     OW30844   1.934   1.780   7.245  0.7570  0.1868  0.5269
 6461SOL    HW130845   1.908   1.820   7.328 -1.0086  0.0024  0.0810
 6461SOL    HW230846   1.845   1.745   7.232  0.2592  1.6707 -0.1627
 6462SOL     OW30847   4.145   4.170  11.603 -0.0953  0.5275 -0.2576
 6462SOL    HW130848   4.116   4.114  11.674 -1.0209  3.5736  1.7647
 6462SOL    HW230849   4.171   4.249  11.651  0.9032  0.5588 -0.8380
 6463SOL     OW30850   4.338   1.529   5.769 -0.1138  0.1479 -0.0297
 6463SOL    HW130851   4.322   1.623   5.775 -1.5953  0.0533 -2.3686
 6463SOL    HW230852   4.433   1.529   5.773 -0.0415  1.4898 -1.4594
 6464SOL     OW30853   1.760   2.797   4.678 -0.1902  0.3670  0.1037
 6464SOL    HW130854   1.726   2.868   4.624  0.8681  2.1302  1.7357
 6464SOL    HW230855   1.756   2.722   4.618  0.3128  0.0921  0.4090
 6465SOL     OW30856   1.135   1.824   8.286 -0.0347  0.5765 -0.7273
 6465SOL    HW130857   1.140   1.783   8.372 -0.5532 -0.5163 -1.2156
 6465SOL    HW230858   1.116   1.747   8.232  0.4102  0.6255 -0.9508
 6466SOL     OW30859   2.197   0.230   6.753  0.2898 -0.1009 -0.4459
 6466SOL    HW130860   2.177   0.321   6.727 -1.8126  0.0165  1.5740
 6466SOL    HW230861   2.240   0.253   6.836 -1.1487  0.6900  0.0813
 6467SOL     OW30862   1.020   3.296   0.098  0.7821 -0.2453  0.6566
 6467SOL    HW130863   1.033   3.386   0.126  0.1840  0.3170 -0.8574
 6467SOL    HW230864   1.019   3.295   0.002 -1.2252  1.9234  0.6587
 6468SOL     OW30865   2.541   2.452   5.386  0.0354  0.1722 -0.1067
 6468SOL    HW130866   2.453   2.486   5.398 -0.3109 -0.4846 -0.7556
 6468SOL    HW230867   2.518   2.371   5.340  0.5605 -0.9214  1.5623
 6469SOL     OW30868   3.633   3.362  17.469 -0.4670 -0.6342  0.2312
 6469SOL    HW130869   3.592   3.316  17.542 -0.3961 -0.3808  0.4285
 6469SOL    HW230870   3.717   3.317  17.469 -0.5391 -0.7567  3.2509
 6470SOL     OW30871   4.307   1.722   3.156 -0.2772 -0.3705 -0.5061
 6470SOL    HW130872   4.294   1.726   3.061  2.5315 -1.1916 -0.9309
 6470SOL    HW230873   4.312   1.627   3.170  0.9435 -0.1186  0.7640
 6471SOL     OW30874   0.030   3.480   2.006 -0.1987 -0.1188 -0.4369
 6471SOL    HW130875   0.086   3.437   1.941 -0.3338 -0.5760 -0.2502
 6471SOL    HW230876   0.065   3.439   2.085  1.3808  0.3996 -0.8735
 6472SOL     OW30877   0.877   1.882   3.241 -0.4818  0.2304  0.0280
 6472SOL    HW130878   0.888   1.789   3.260 -0.4525  0.3466  0.5837
 6472SOL    HW230879   0.811   1.899   3.308  0.2794  1.0753  0.5787
 6473SOL     OW30880   3.486   2.463  12.373 -0.5446 -0.0494  0.0914
 6473SOL    HW130881   3.478   2.421  12.287  2.1010 -2.7580  1.1606
 6473SOL    HW230882   3.395   2.481  12.398 -0.2191  2.7663 -0.7051
 6474SOL     OW30883   0.423   2.333   8.544  0.3001 -0.1915  0.0696
 6474SOL    HW130884   0.489   2.314   8.611  2.7362  1.6695 -1.8190
 6474SOL    HW230885   0.449   2.307   8.456 -2.5945  0.0269 -0.8591
 6475SOL     OW30886   0.303   0.260   3.050 -0.0780  0.0877  0.4070
 6475SOL    HW130887   0.265   0.207   2.980  0.5684 -1.4463  1.2266
 6475SOL    HW230888   0.353   0.198   3.103 -0.6089 -0.2913  0.4553
 6476SOL     OW30889   0.992   2.488   6.582  0.5087 -0.0411 -0.0426
 6476SOL    HW130890   1.008   2.575   6.546 -0.1038  0.0513 -0.0858
 6476SOL    HW230891   0.929   2.469   6.512  1.4975 -1.2578 -0.6114
 6477SOL     OW30892   4.505   0.854  13.104  0.1825  0.3409  0.1123
 6477SOL    HW130893   4.451   0.836  13.027 -0.0382 -4.6295  1.3824
 6477SOL    HW230894   4.470   0.794  13.171  0.8465 -2.2929 -1.8836
 6478SOL     OW30895   0.973   4.366  10.192  0.2120  0.1451 -0.2413
 6478SOL    HW130896   0.951   4.324  10.275 -0.4104  0.1025 -0.4246
 6478SOL    HW230897   1.041   4.427  10.221  3.3318 -2.0685 -2.8706
 6479SOL     OW30898   0.833   2.008   1.913 -0.4688 -0.1021  0.9361
 6479SOL    HW130899   0.830   1.980   2.005  0.9658  1.8768  1.5922
 6479SOL    HW230900   0.738   2.002   1.903 -0.4045 -1.6288  1.3299
 6480SOL     OW30901   2.411   1.805   7.326 -0.6554 -0.1245  0.0586
 6480SOL    HW130902   2.361   1.756   7.392  0.3658 -0.9456  0.2246
 6480SOL    HW230903   2.397   1.753   7.247  0.9002 -0.7431  0.1872
 6481SOL     OW30904   3.363   4.253   5.067  0.2083  0.1717 -0.0635
 6481SOL    HW130905   3.375   4.207   4.984 -0.0475  0.4618 -0.2630
 6481SOL    HW230906   3.337   4.337   5.030  3.4836 -0.0451 -2.8319
 6482SOL     OW30907   1.222   4.332   4.232  0.1792 -0.0534  0.6497
 6482SOL    HW130908   1.289   4.345   4.300 -1.1387  0.8762  1.7814
 6482SOL    HW230909   1.203   4.425   4.221  0.9654  0.1615  1.0958
 6483SOL     OW30910   1.716   0.417   5.299  0.2834 -0.4844 -0.3085
 6483SOL    HW130911   1.786   0.425   5.234  2.3438 -0.4246  1.9154
 6483SOL    HW230912   1.726   0.503   5.341  2.5751 -1.1515  0.5034
 6484SOL     OW30913   1.532   1.336   8.972 -0.1481  0.3378  0.3303
 6484SOL    HW130914   1.537   1.432   8.980  0.4592  0.1926  1.7445
 6484SOL    HW230915   1.440   1.324   8.947 -0.8347  0.6595  2.6449
 6485SOL     OW30916   1.157   3.653   7.238 -0.0863  0.5067 -0.0899
 6485SOL    HW130917   1.102   3.713   7.188 -0.3043  1.0133  0.7593
 6485SOL    HW230918   1.235   3.660   7.183 -0.8363 -1.1097 -1.3694
 6486SOL     OW30919   2.553   3.750   2.998  0.0763 -0.4818 -0.2606
 6486SOL    HW130920   2.624   3.764   2.935  0.0438  3.9758  0.6911
 6486SOL    HW230921   2.616   3.750   3.071 -1.8723 -1.7670  1.4146
 6487SOL     OW30922   1.359   3.166   8.045  0.0242  0.3358 -0.4276
 6487SOL    HW130923   1.413   3.190   8.120 -0.7099  1.4970 -0.2763
 6487SOL    HW230924   1.379   3.234   7.981  0.4825 -0.9473 -1.6496
 6488SOL     OW30925   3.261   1.720   7.046 -0.6349  0.0008  0.5279
 6488SOL    HW130926   3.304   1.715   7.132  3.9339  3.1634 -1.5701
 6488SOL    HW230927   3.287   1.804   7.007 -1.3474  0.5875  1.3027
 6489SOL     OW30928   4.022   0.078   2.147  0.2528 -0.3542  0.1725
 6489SOL    HW130929   4.018   0.013   2.078 -0.7162 -0.1750  0.0648
 6489SOL    HW230930   3.981   0.150   2.099  0.7048 -0.8456 -0.9410
 6490SOL     OW30931   2.570   4.712  13.425 -0.0404  0.5462 -0.0930
 6490SOL    HW130932   2.509   4.664  13.480 -1.8619 -0.3769 -2.8935
 6490SOL    HW230933   2.640   4.647  13.434 -0.5869 -0.4645 -2.9532
 6491SOL     OW30934   2.494   2.712  14.115 -0.2231  0.8056 -0.0812
 6491SOL    HW130935   2.572   2.766  14.126 -0.6563  1.4022  0.0701
 6491SOL    HW230936   2.509   2.635  14.170  0.0343  1.6959  1.0956
 6492SOL     OW30937   3.715   4.466  16.590  0.2115 -0.0743 -0.1947
 6492SOL    HW130938   3.646   4.404  16.566 -1.0610  0.9652  0.7647
 6492SOL    HW230939   3.653   4.539  16.604  0.6392  1.0474 -4.3093
 6493SOL     OW30940   4.423   3.280  12.817  0.1933 -0.3708  0.2296
 6493SOL    HW130941   4.371   3.208  12.781  0.4638  0.6680 -2.2574
 6493SOL    HW230942   4.421   3.270  12.912 -1.1734 -0.2172  0.2183
 6494SOL     OW30943   3.908   2.973   2.238 -0.1125  0.3984 -0.3374
 6494SOL    HW130944   3.878   3.057   2.203  1.1990  0.8566 -0.3645
 6494SOL    HW230945   3.966   2.941   2.169  1.2339 -1.6673  1.7453
 6495SOL     OW30946   3.425   0.726  11.212 -0.1105  0.1116 -0.7400
 6495SOL    HW130947   3.425   0.714  11.307 -0.6058  2.7132 -0.4206
 6495SOL    HW230948   3.456   0.816  11.203 -2.2113  0.7031 -2.1809
 6496SOL     OW30949   3.445   2.022   3.003  0.4008 -0.4790 -0.2944
 6496SOL    HW130950   3.448   2.103   2.953 -2.6509 -0.2139 -0.0281
 6496SOL    HW230951   3.354   1.994   2.993  0.1578  0.7466 -1.4109
 6497SOL     OW30952   4.648   1.879   2.939  0.4709 -0.1196 -0.3860
 6497SOL    HW130953   4.658   1.911   2.849  0.5458 -1.3276 -0.7945
 6497SOL    HW230954   4.621   1.789   2.922  0.4960  0.0884 -1.5203
 6498SOL     OW30955   0.672   4.156   7.639  0.4981 -0.9563 -0.3532
 6498SOL    HW130956   0.678   4.072   7.685  1.3312 -0.2578  0.8229
 6498SOL    HW230957   0.599   4.197   7.686  0.8300 -0.9841  0.1841
 6499SOL     OW30958   3.839   0.258   8.871  0.7167 -0.1602  0.0011
 6499SOL    HW130959   3.923   0.269   8.825  0.3628 -0.4327 -0.7176
 6499SOL    HW230960   3.863   0.178   8.918  2.3502 -0.9011 -2.0549
 6500SOL     OW30961   3.197   1.949   3.000 -0.0716  1.3560  0.6654
 6500SOL    HW130962   3.122   1.951   2.940  1.2516  0.1379 -1.0338
 6500SOL    HW230963   3.231   1.861   2.986 -0.7437  1.3701 -1.1738
 6501SOL     OW30964   2.813   0.814   4.332 -0.5877 -0.0315  0.5147
 6501SOL    HW130965   2.875   0.886   4.349 -0.5844  0.8081 -3.0454
 6501SOL    HW230966   2.763   0.850   4.259 -0.1085  1.5013  0.9369
 6502SOL     OW30967   3.258   0.939   1.654  0.8377  0.0325 -0.5177
 6502SOL    HW130968   3.257   0.845   1.641 -2.9901 -0.0217  0.3425
 6502SOL    HW230969   3.169   0.955   1.686  1.6873  1.0054  1.4170
 6503SOL     OW30970   1.939   2.361   7.942  0.0297  0.3096 -0.5772
 6503SOL    HW130971   1.909   2.304   7.871 -0.9592  1.7526 -1.3213
 6503SOL    HW230972   2.026   2.320   7.944 -0.1799 -0.1100 -0.0092
 6504SOL     OW30973   2.564   4.069   6.116  0.0028 -0.6175  0.0672
 6504SOL    HW130974   2.495   4.117   6.072 -0.2422 -1.4479 -0.4554
 6504SOL    HW230975   2.592   4.023   6.037  1.4921 -1.5678  1.1414
 6505SOL     OW30976   3.273   4.581  15.494 -0.1785  0.9228 -0.5663
 6505SOL    HW130977   3.227   4.622  15.567  0.4111 -0.9863  0.8819
 6505SOL    HW230978   3.357   4.628  15.498  0.1523  0.3572 -0.9043
 6506SOL     OW30979   1.606   0.203   6.075 -0.2962 -0.3841 -0.0184
 6506SOL    HW130980   1.625   0.235   5.987  0.3983 -0.2155  0.1904
 6506SOL    HW230981   1.614   0.288   6.119 -0.9298  0.6218 -1.8649
 6507SOL     OW30982   1.156   3.172   3.599 -0.0997 -0.6888  0.2081
 6507SOL    HW130983   1.201   3.245   3.643  1.2329 -1.5838  0.3221
 6507SOL    HW230984   1.217   3.102   3.622  2.8212  1.1094 -1.9665
 6508SOL     OW30985   4.308   4.484   7.422  0.1364  0.0456  0.1744
 6508SOL    HW130986   4.243   4.520   7.362 -0.9050 -1.4381  0.4098
 6508SOL    HW230987   4.380   4.479   7.360 -0.5622 -2.1907 -0.4627
 6509SOL     OW30988   3.275   2.460   9.564 -0.2440  0.0337 -0.3566
 6509SOL    HW130989   3.184   2.460   9.535 -0.6447  0.5478  0.8846
 6509SOL    HW230990   3.293   2.366   9.562 -2.6941 -0.4095 -1.1387
 6510SOL     OW30991   2.448   1.510  12.170 -0.3611  1.0511  0.9869
 6510SOL    HW130992   2.533   1.479  12.141 -1.4126 -1.9803  1.1877
 6510SOL    HW230993   2.470   1.561  12.248  0.3679 -1.3561  2.3392
 6511SOL     OW30994   2.784   0.678  13.403 -0.0333 -0.2203  0.1296
 6511SOL    HW130995   2.720   0.617  13.367 -0.4284  1.1987 -1.5319
 6511SOL    HW230996   2.744   0.764  13.389 -1.0178 -0.8950 -1.2068
 6512SOL     OW30997   4.524   0.181  13.519  0.3707 -0.2401 -0.3916
 6512SOL    HW130998   4.460   0.137  13.575 -0.5751  1.5942 -0.0292
 6512SOL    HW230999   4.605   0.145  13.556 -0.0555 -0.1533  0.6135
 6513SOL     OW31000   4.681   2.677  14.074  0.2882  0.0351 -0.1273
 6513SOL    HW131001   4.642   2.744  14.017 -1.7412 -1.1473 -0.1453
 6513SOL    HW231002   4.650   2.706  14.160  0.5073 -0.7921  0.2306
 6514SOL     OW31003   3.510   3.617   9.797  0.1913  0.3405 -0.0696
 6514SOL    HW131004   3.446   3.545   9.798  0.3244  0.2365  1.0591
 6514SOL    HW231005   3.482   3.660   9.878  1.4012 -0.1705  0.6149
 6515SOL     OW31006   1.242   2.446   0.104 -0.1017 -0.4357  0.2124
 6515SOL    HW131007   1.277   2.413   0.022 -0.4012 -1.6892  0.5846
 6515SOL    HW231008   1.199   2.375   0.152 -2.0005  1.9877  2.1478
 6516SOL     OW31009   1.897   1.198   8.466 -0.0870  0.4326 -0.0623
 6516SOL    HW131010   1.945   1.157   8.394 -0.6997 -0.6354  0.1408
 6516SOL    HW231011   1.833   1.252   8.421 -0.5880  0.0041  0.1435
 6517SOL     OW31012   0.931   0.029  16.554 -0.5229  0.0786  0.0280
 6517SOL    HW131013   0.986   0.107  16.547  0.1651 -0.7163 -3.6654
 6517SOL    HW231014   0.913   0.024  16.648  1.9793  0.1707  0.5082
 6518SOL     OW31015   3.372   4.089   0.945  0.2826 -0.3452  0.1058
 6518SOL    HW131016   3.421   4.010   0.966 -0.7761 -1.1294 -0.3816
 6518SOL    HW231017   3.353   4.054   0.858  0.6044  0.1637 -0.1709
 6519SOL     OW31018   1.123   0.889   0.807  0.1655 -0.9866 -0.0609
 6519SOL    HW131019   1.136   0.821   0.740  1.1626 -1.0323  0.1650
 6519SOL    HW231020   1.214   0.911   0.827  0.6203 -0.3954 -2.8294
 6520SOL     OW31021   1.745   1.636   7.542  0.3745 -0.4159 -0.2883
 6520SOL    HW131022   1.709   1.689   7.613  0.8254 -3.2600  2.0392
 6520SOL    HW231023   1.681   1.570   7.515 -0.2768  0.4455 -0.8704
 6521SOL     OW31024   3.580   4.595   0.920  0.0254  0.2883 -0.2912
 6521SOL    HW131025   3.498   4.600   0.871 -0.0203 -2.3508 -0.4633
 6521SOL    HW231026   3.629   4.525   0.877  0.4462 -0.0325  0.6908
 6522SOL     OW31027   0.581   0.966   9.031 -0.6943 -0.4591 -0.1334
 6522SOL    HW131028   0.542   0.884   9.061 -1.4740 -0.2379 -0.5220
 6522SOL    HW231029   0.507   0.995   8.977  0.0388  1.6086 -0.0438
 6523SOL     OW31030   4.476   1.693  14.797 -0.7532  0.1827  0.2422
 6523SOL    HW131031   4.438   1.621  14.747 -0.4091 -0.2861  0.6500
 6523SOL    HW231032   4.506   1.764  14.740 -0.9426  0.6995  0.7764
 6524SOL     OW31033   1.033   4.071   2.896  0.0653 -0.4231 -0.7222
 6524SOL    HW131034   1.096   4.144   2.899 -2.0150  1.4185 -1.4192
 6524SOL    HW231035   0.953   4.124   2.894  0.2388 -0.2095 -1.8505
 6525SOL     OW31036   0.079   2.713   8.120  0.2109 -0.4865  0.0653
 6525SOL    HW131037   0.055   2.706   8.028  1.3976  0.3553 -0.2969
 6525SOL    HW231038   0.094   2.626   8.158 -4.0892 -1.2169  0.1219
 6526SOL     OW31039   1.133   1.741   2.814  0.4732  0.2564  0.1322
 6526SOL    HW131040   1.140   1.822   2.763  1.5620  0.3960  0.4993
 6526SOL    HW231041   1.149   1.791   2.894 -0.4330 -0.4402  0.7450
 6527SOL     OW31042   1.747   3.141  14.202  0.8261 -0.7563  0.5038
 6527SOL    HW131043   1.727   3.050  14.223 -1.8530 -0.3720 -0.3263
 6527SOL    HW231044   1.699   3.152  14.120 -1.4433 -1.9535  1.6442
 6528SOL     OW31045   1.914   0.474  17.300  0.1395 -0.3838 -0.1065
 6528SOL    HW131046   1.886   0.506  17.386  1.9681  1.7367 -0.3136
 6528SOL    HW231047   1.978   0.543  17.288  1.1486 -1.0909  1.1678
 6529SOL     OW31048   1.552   3.519   5.110  0.0583 -0.4022 -0.2230
 6529SOL    HW131049   1.615   3.558   5.170 -1.8193  0.4329  1.1710
 6529SOL    HW231050   1.591   3.545   5.026 -0.2642 -0.9324 -0.5395
 6530SOL     OW31051   0.493   0.963  15.550 -0.0425  0.9013 -0.7452
 6530SOL    HW131052   0.399   0.947  15.563  0.3805  0.7193  2.1299
 6530SOL    HW231053   0.523   0.902  15.617  3.7823 -0.2978 -3.5472
 6531SOL     OW31054   0.140   4.530   1.641 -0.2810  0.1819  0.2099
 6531SOL    HW131055   0.126   4.490   1.556 -1.4297  2.0751 -0.4773
 6531SOL    HW231056   0.175   4.463   1.701  0.7751  1.4275  1.0054
 6532SOL     OW31057   3.140   2.220   4.150 -0.4738  0.1327 -0.0728
 6532SOL    HW131058   3.144   2.288   4.083  3.7177 -0.1624 -0.1618
 6532SOL    HW231059   3.115   2.262   4.233  0.8656 -1.6637  1.2425
 6533SOL     OW31060   4.283   3.690   7.424 -0.2624  0.9122 -0.0140
 6533SOL    HW131061   4.356   3.635   7.397 -0.6995  1.2245 -1.8417
 6533SOL    HW231062   4.324   3.765   7.467  0.2146 -0.8604  2.6286
 6534SOL     OW31063   4.625   4.479   3.156 -0.4621 -0.1563  0.0125
 6534SOL    HW131064   4.615   4.500   3.063  0.7441  2.9962  0.5903
 6534SOL    HW231065   4.717   4.496   3.175  0.6107 -1.7192 -3.7451
 6535SOL     OW31066   1.478   0.749   1.540  0.1094 -0.3187  0.0816
 6535SOL    HW131067   1.463   0.788   1.454  0.1928  1.3989  0.8566
 6535SOL    HW231068   1.567   0.784   1.549 -1.1863  2.6297  1.1555
 6536SOL     OW31069   0.972   3.381   6.400 -0.4724 -0.6248 -1.1906
 6536SOL    HW131070   0.881   3.393   6.374 -0.2537  0.0727 -1.6382
 6536SOL    HW231071   1.015   3.358   6.318  2.4176  0.6565 -0.0613
 6537SOL     OW31072   2.557   2.638   4.965  0.1435  0.4481  0.3324
 6537SOL    HW131073   2.475   2.645   5.015  1.6802 -2.7656  3.3191
 6537SOL    HW231074   2.536   2.569   4.903 -2.1273 -1.2618  3.0081
 6538SOL     OW31075   4.334   0.905   6.879 -0.5399  0.3270  0.3011
 6538SOL    HW131076   4.326   0.966   6.805 -0.0045  0.3954  0.2995
 6538SOL    HW231077   4.246   0.908   6.915  0.0309 -1.7161  1.8509
 6539SOL     OW31078   1.026   0.752   7.983 -0.6709 -0.2506 -0.0589
 6539SOL    HW131079   1.036   0.842   8.013  2.9548 -2.1366  4.2622
 6539SOL    HW231080   1.001   0.704   8.062  0.2722 -2.4998 -1.1375
 6540SOL     OW31081   1.435   3.521   6.421 -0.1285 -0.2441  0.0854
 6540SOL    HW131082   1.433   3.431   6.453  0.2266 -0.0028  0.7873
 6540SOL    HW231083   1.485   3.513   6.340 -0.3651 -1.9086  0.0973
 6541SOL     OW31084   0.751   3.179  12.924  0.2949 -0.0773 -0.1503
 6541SOL    HW131085   0.687   3.249  12.915 -1.7828 -2.1254 -1.5827
 6541SOL    HW231086   0.726   3.142  13.009  0.1070  0.6230  0.1006
 6542SOL     OW31087   2.933   0.632   3.714  0.0727  0.2003  0.2226
 6542SOL    HW131088   2.910   0.551   3.669  1.6989  0.5761 -1.2897
 6542SOL    HW231089   3.023   0.637   3.680  0.3660  0.0447  0.9663
 6543SOL     OW31090   0.014   3.235   5.604  0.0245  0.2440 -0.0293
 6543SOL    HW131091   4.700   3.318   5.571 -0.4101 -0.6188 -1.7852
 6543SOL    HW231092   4.657   3.183   5.580 -0.6486  1.8242 -1.2987
 6544SOL     OW31093   2.341   1.616  15.060 -0.0693 -0.2362  0.3887
 6544SOL    HW131094   2.322   1.633  15.153  2.0998  1.2393  0.5493
 6544SOL    HW231095   2.319   1.698  15.014 -1.9322 -0.7275  0.3864
 6545SOL     OW31096   2.655   4.328   6.201 -0.2614  0.3047  0.2751
 6545SOL    HW131097   2.749   4.330   6.181 -0.7878 -0.9135 -2.3783
 6545SOL    HW231098   2.637   4.239   6.169  0.8898 -0.0250  0.5306
 6546SOL     OW31099   2.882   1.118  16.543 -0.5645 -0.1567  0.7053
 6546SOL    HW131100   2.845   1.114  16.631 -1.1636  0.5770  0.4908
 6546SOL    HW231101   2.879   1.214  16.535  0.5386 -0.1267  0.6854
 6547SOL     OW31102   4.700   2.491  10.909 -0.6211 -0.3481  0.2749
 6547SOL    HW131103   0.032   2.567  10.884  1.2297 -1.6916  0.0257
 6547SOL    HW231104   0.040   2.422  10.879 -1.1312 -1.4912  1.8677
 6548SOL     OW31105   2.871   1.370  12.559 -0.1371  0.3166  0.6863
 6548SOL    HW131106   2.804   1.349  12.495 -0.4153  2.8095  0.1709
 6548SOL    HW231107   2.901   1.457  12.533  0.1185 -0.5065 -1.7792
 6549SOL     OW31108   4.434   3.669   6.281  0.3053  0.2507  0.0184
 6549SOL    HW131109   4.484   3.645   6.203 -0.7307  0.6957 -0.7921
 6549SOL    HW231110   4.353   3.675   6.230  0.2159  0.7465  0.2227
 6550SOL     OW31111   3.262   1.562   0.952 -0.1202  0.2758 -0.6450
 6550SOL    HW131112   3.224   1.644   0.983  3.3748  1.8498 -0.4292
 6550SOL    HW231113   3.328   1.554   1.021  0.2753 -0.3889 -1.1017
 6551SOL     OW31114   2.475   2.154   0.026 -0.0299 -0.4494  0.4518
 6551SOL    HW131115   2.571   2.154   0.024  0.0168 -1.8745  1.8738
 6551SOL    HW231116   2.469   2.059   0.036  0.0415 -0.4844  0.1495
 6552SOL     OW31117   0.916   1.496   9.788 -0.2733  0.7880 -0.1577
 6552SOL    HW131118   0.967   1.418   9.808  2.0654  2.7929  1.6602
 6552SOL    HW231119   0.870   1.462   9.710  2.1783 -2.2763 -0.2646
 6553SOL     OW31120   3.761   4.500   2.785 -0.1392 -0.5076  0.1483
 6553SOL    HW131121   3.830   4.445   2.822  0.8980  0.8530  0.2634
 6553SOL    HW231122   3.778   4.484   2.693  1.2070 -0.1057  0.3335
 6554SOL     OW31123   3.432   2.539   5.090 -0.1895  0.4960  0.3911
 6554SOL    HW131124   3.457   2.631   5.077 -0.9842  0.2754 -2.5227
 6554SOL    HW231125   3.511   2.502   5.051 -0.5512  1.4731 -1.2438
 6555SOL     OW31126   1.791   3.423   8.566  0.1496 -0.0465 -0.6944
 6555SOL    HW131127   1.763   3.514   8.553 -2.1142 -0.8339 -1.4157
 6555SOL    HW231128   1.747   3.408   8.649  0.0934 -0.6303 -0.8317
 6556SOL     OW31129   2.914   2.103   8.178 -0.4995  0.1991  0.4350
 6556SOL    HW131130   2.966   2.053   8.116 -0.6018  1.0140 -0.3075
 6556SOL    HW231131   2.860   2.030   8.208 -2.5588  1.7755  0.6041
 6557SOL     OW31132   3.970   0.404   6.830  0.0275  0.2030  0.6585
 6557SOL    HW131133   3.879   0.432   6.821  0.4381  1.4686  0.4217
 6557SOL    HW231134   3.966   0.312   6.805 -1.0281 -0.0463  1.7745
 6558SOL     OW31135   3.650   3.200  12.600 -0.2968 -0.1263  0.4012
 6558SOL    HW131136   3.577   3.221  12.658 -1.4439 -0.3928 -0.9434
 6558SOL    HW231137   3.693   3.151  12.670 -0.5684 -2.0274 -0.7557
 6559SOL     OW31138   3.994   1.630  11.623 -0.4692 -0.2629  0.0244
 6559SOL    HW131139   4.085   1.602  11.615 -0.7184 -0.3450 -2.5626
 6559SOL    HW231140   3.999   1.685  11.701  0.3402  0.6954 -0.6958
 6560SOL     OW31141   2.718   2.646  13.511 -0.1961  0.1075 -0.9140
 6560SOL    HW131142   2.765   2.679  13.587 -1.7215  0.2192 -0.0471
 6560SOL    HW231143   2.629   2.656  13.543  0.2378 -1.3135  0.7596
 6561SOL     OW31144   3.065   3.899   0.985 -0.0172 -0.0698 -0.0279
 6561SOL    HW131145   3.029   3.987   0.990 -0.1100 -0.2428  2.3433
 6561SOL    HW231146   3.158   3.918   0.990 -0.2136  1.2890 -1.7367
 6562SOL     OW31147   2.074   3.164   5.100 -0.0113 -0.0808 -0.8576
 6562SOL    HW131148   2.113   3.115   5.027 -0.7082 -2.6707  0.5317
 6562SOL    HW231149   2.034   3.241   5.059  2.6527  2.0963  0.5985
 6563SOL     OW31150   2.621   0.610   7.093 -0.5489 -0.2879  0.0438
 6563SOL    HW131151   2.643   0.521   7.066  0.5868 -0.6661  2.1554
 6563SOL    HW231152   2.620   0.655   7.009 -1.2381  0.2387  0.3215
 6564SOL     OW31153   4.629   3.761   3.785 -0.0807  0.0862  0.6397
 6564SOL    HW131154   4.582   3.734   3.706  0.6341  1.1071 -0.1449
 6564SOL    HW231155   4.561   3.735   3.846  1.8881 -1.8748  2.0127
 6565SOL     OW31156   1.034   4.100   2.511 -0.5242  0.4131 -0.1053
 6565SOL    HW131157   1.021   4.189   2.542  1.1020  0.6151 -0.0127
 6565SOL    HW231158   0.998   4.097   2.422 -0.5728 -2.1571 -0.0137
 6566SOL     OW31159   1.019   3.789   0.000 -0.0865  0.3503 -0.4061
 6566SOL    HW131160   0.927   3.807  17.665  0.1542  0.2714 -1.7199
 6566SOL    HW231161   1.039   3.747  17.599  1.3099  2.2854 -1.0572
 6567SOL     OW31162   2.775   2.802   8.537 -0.2922 -0.3058  0.2902
 6567SOL    HW131163   2.831   2.849   8.475 -3.9807  1.8567 -1.4136
 6567SOL    HW231164   2.711   2.872   8.553  0.3646  0.1952  0.7085
 6568SOL     OW31165   3.725   0.226   2.429  0.1840  0.1170  0.3581
 6568SOL    HW131166   3.740   0.258   2.518 -0.8194  1.1571  0.1514
 6568SOL    HW231167   3.630   0.221   2.423  0.3428 -1.7723 -0.7489
 6569SOL     OW31168   1.476   3.165   9.302  0.2252 -0.0467  0.6985
 6569SOL    HW131169   1.474   3.079   9.343  4.0902 -1.1264 -1.3059
 6569SOL    HW231170   1.408   3.140   9.240  1.4780 -1.2516 -0.1963
 6570SOL     OW31171   0.907   2.503  15.621  0.1451 -0.3036 -0.2492
 6570SOL    HW131172   0.917   2.596  15.643 -0.9610  0.1420 -1.6264
 6570SOL    HW231173   0.948   2.469  15.700  1.7716  0.9659 -0.5506
 6571SOL     OW31174   1.368   0.562  14.078 -0.1194 -0.3620 -0.1809
 6571SOL    HW131175   1.289   0.511  14.093 -1.1926  0.5605 -2.6317
 6571SOL    HW231176   1.435   0.515  14.127  0.2063 -0.4576 -0.7088
 6572SOL     OW31177   3.327   4.141   4.825  0.4244 -0.4218 -0.0016
 6572SOL    HW131178   3.235   4.160   4.807  0.5093  1.1131  1.1750
 6572SOL    HW231179   3.366   4.124   4.740  0.2484 -0.8087 -0.0028
 6573SOL     OW31180   2.959   2.019  15.297  0.0255  0.8172 -1.4365
 6573SOL    HW131181   3.051   2.025  15.273  0.6973  0.6286  1.1294
 6573SOL    HW231182   2.936   1.973  15.216 -0.7054 -0.9332 -0.2396
 6574SOL     OW31183   0.971   0.769   3.150 -0.3338  0.1323 -1.2026
 6574SOL    HW131184   0.999   0.678   3.140  0.7676  0.3813 -0.3187
 6574SOL    HW231185   1.015   0.804   3.227 -0.3428 -1.3854 -0.5054
 6575SOL     OW31186   1.833   0.978   0.460  0.1492 -0.1581  0.2128
 6575SOL    HW131187   1.837   0.892   0.503  0.1537  0.8347  2.1923
 6575SOL    HW231188   1.750   0.963   0.415  0.2304 -4.7416  1.5986
 6576SOL     OW31189   4.199   1.568   7.165 -0.0007 -0.5194 -0.0739
 6576SOL    HW131190   4.156   1.514   7.232 -1.1373 -0.5871 -0.8456
 6576SOL    HW231191   4.215   1.652   7.206  1.4585 -0.7806 -0.0932
 6577SOL     OW31192   0.801   1.937   1.219  0.1619  0.3540  0.3388
 6577SOL    HW131193   0.717   1.947   1.176  0.7866 -1.1071 -1.2632
 6577SOL    HW231194   0.841   1.929   1.132  0.4607 -1.0700  0.5911
 6578SOL     OW31195   3.447   2.876   7.349  0.5324  0.3359  0.5141
 6578SOL    HW131196   3.454   2.812   7.420 -0.2540 -0.7962 -0.4177
 6578SOL    HW231197   3.537   2.905   7.364  0.3830  0.6336  0.8079
 6579SOL     OW31198   1.320   2.274   8.431 -0.1828 -0.3695 -0.1166
 6579SOL    HW131199   1.320   2.185   8.466  2.3002  0.5660  2.2656
 6579SOL    HW231200   1.414   2.284   8.414  0.1282  0.2502  2.0789
 6580SOL     OW31201   1.561   3.269   5.795  0.2638 -0.3513 -0.3198
 6580SOL    HW131202   1.480   3.270   5.743  0.2871  1.3250 -0.3123
 6580SOL    HW231203   1.627   3.247   5.729  0.9283 -0.3263  0.3512
 6581SOL     OW31204   1.995   0.642  13.010 -0.2394 -0.1757  0.6434
 6581SOL    HW131205   2.054   0.703  13.054  0.1645 -0.6584  0.7693
 6581SOL    HW231206   1.916   0.696  13.007 -0.7448 -0.8744  1.2138
 6582SOL     OW31207   0.856   0.176   3.310 -0.4994 -0.2406 -0.3507
 6582SOL    HW131208   0.949   0.153   3.316 -0.3856  0.4981  0.7236
 6582SOL    HW231209   0.865   0.232   3.233  0.5811  0.4310  0.2687
 6583SOL     OW31210   2.549   0.109  13.143 -0.7415 -0.1356  0.4400
 6583SOL    HW131211   2.638   0.089  13.174  0.8691  2.2028 -2.6900
 6583SOL    HW231212   2.481   0.065  13.194  0.0457 -0.2857  1.3549
 6584SOL     OW31213   0.374   0.523   3.216  0.2128 -0.2512 -0.3644
 6584SOL    HW131214   0.378   0.429   3.195  0.6129 -0.2546 -0.2655
 6584SOL    HW231215   0.454   0.559   3.178 -0.3508  0.7461 -0.6238
 6585SOL     OW31216   2.989   0.230   5.476 -0.1674 -0.6451  0.0813
 6585SOL    HW131217   2.951   0.163   5.533  0.4301  0.9731  2.4084
 6585SOL    HW231218   2.912   0.286   5.474  0.1026 -0.3303 -1.4473
 6586SOL     OW31219   1.589   0.893   4.216 -0.1625 -0.5982  0.5262
 6586SOL    HW131220   1.636   0.858   4.141 -2.7328 -1.7746 -0.5379
 6586SOL    HW231221   1.498   0.865   4.204 -0.4986  1.4915 -1.9799
 6587SOL     OW31222   3.910   1.484   7.321 -0.0607 -0.6376  0.0542
 6587SOL    HW131223   3.862   1.563   7.295  1.1872  0.6472  1.6184
 6587SOL    HW231224   3.837   1.432   7.355 -0.2257 -0.1429  0.4561
 6588SOL     OW31225   4.106   3.705   5.446 -0.0418 -0.0938 -0.4125
 6588SOL    HW131226   4.024   3.721   5.493  0.8546  1.1204  0.7499
 6588SOL    HW231227   4.112   3.609   5.440  1.8777 -0.1035  1.4656
 6589SOL     OW31228   2.131   3.368   6.834 -0.2645 -0.4183  0.4087
 6589SOL    HW131229   2.070   3.417   6.889  1.7810  1.2149  1.2073
 6589SOL    HW231230   2.063   3.318   6.789 -1.2761  0.3130  1.1405
 6590SOL     OW31231   4.071   2.124   5.402  0.3895  0.2012  0.1088
 6590SOL    HW131232   4.003   2.066   5.367  1.7286 -0.0294 -2.1535
 6590SOL    HW231233   4.139   2.115   5.334 -0.9165 -3.7917 -0.6378
 6591SOL     OW31234   4.221   4.719   6.463 -0.6057  0.7934 -0.4807
 6591SOL    HW131235   4.146   4.659   6.465 -1.5532  2.0182  1.2014
 6591SOL    HW231236   4.196   0.078   6.510  2.9429  0.8800  1.2548
 6592SOL     OW31237   1.342   0.030   4.692 -0.1475  0.2272  0.5255
 6592SOL    HW131238   1.258   0.077   4.694  0.3984  1.2469 -0.5809
 6592SOL    HW231239   1.314   4.659   4.684  2.4359 -0.6595  1.7684
 6593SOL     OW31240   3.184   2.700  10.882  0.5646  0.2823  0.0744
 6593SOL    HW131241   3.272   2.672  10.857 -0.6955 -1.9420 -1.8756
 6593SOL    HW231242   3.131   2.661  10.813 -2.3373  3.4189  0.5838
 6594SOL     OW31243   4.268   1.967  14.027 -0.8494 -0.1494  0.4799
 6594SOL    HW131244   4.357   1.965  13.993 -0.6667  0.7002  0.9114
 6594SOL    HW231245   4.231   2.045  13.985  0.1428  0.7597  1.3018
 6595SOL     OW31246   0.532   2.350   6.366 -0.4549  0.1007 -0.1120
 6595SOL    HW131247   0.472   2.425   6.368 -0.7915 -0.1565 -0.5159
 6595SOL    HW231248   0.473   2.275   6.380  1.0991 -0.7889  1.6383
 6596SOL     OW31249   1.927   4.472  15.455 -0.4129  0.4334 -0.6007
 6596SOL    HW131250   1.992   4.535  15.486  0.6834 -0.3274 -1.3631
 6596SOL    HW231251   1.934   4.481  15.360  1.4678  2.1993 -0.2924
 6597SOL     OW31252   2.285   3.387   6.229 -0.2454 -0.0755 -0.2024
 6597SOL    HW131253   2.323   3.382   6.141 -1.7285 -0.6682 -0.8218
 6597SOL    HW231254   2.214   3.449   6.212  0.1683  0.3148 -0.5139
 6598SOL     OW31255   0.580   1.319   8.022 -0.0419 -0.0302  0.1248
 6598SOL    HW131256   0.488   1.345   8.036 -1.2440 -3.3799 -1.6300
 6598SOL    HW231257   0.612   1.320   8.112  0.6639 -1.0143 -0.1157
 6599SOL     OW31258   1.160   1.340   2.501 -0.2259 -0.4820  0.2595
 6599SOL    HW131259   1.070   1.307   2.502 -1.6036  3.2074 -1.2810
 6599SOL    HW231260   1.205   1.292   2.570 -1.7073  1.1117  2.2999
 6600SOL     OW31261   1.013   1.627   7.083  0.4846 -0.5314 -0.8143
 6600SOL    HW131262   0.926   1.618   7.121  1.4561 -0.8689  1.2862
 6600SOL    HW231263   1.050   1.679   7.154  0.9836 -2.8235  0.5953
 6601SOL     OW31264   2.936   1.797   0.367  0.0941  0.4062  0.0899
 6601SOL    HW131265   2.998   1.728   0.390  1.0388  2.4474  3.7188
 6601SOL    HW231266   2.993   1.869   0.394  1.2041 -1.1694  1.9423
 6602SOL     OW31267   3.273   4.078   8.063 -0.3245 -0.4653 -0.4716
 6602SOL    HW131268   3.193   4.101   8.016  0.2000  2.8462  0.2817
 6602SOL    HW231269   3.239   4.080   8.153  1.4567 -1.3484  0.2222
 6603SOL     OW31270   1.605   0.502  13.866 -0.0728  0.7223  0.0797
 6603SOL    HW131271   1.680   0.545  13.826  0.5520 -0.3361  0.1031
 6603SOL    HW231272   1.593   0.549  13.949  1.4167  0.9296  0.1755
 6604SOL     OW31273   0.616   1.579   1.446 -0.0524  0.1620  0.6492
 6604SOL    HW131274   0.600   1.672   1.459 -0.7225  0.3124 -1.3496
 6604SOL    HW231275   0.579   1.537   1.524 -1.7934  0.1022 -0.2252
 6605SOL     OW31276   2.718   4.681  10.105 -0.5021 -0.1347  0.0511
 6605SOL    HW131277   2.775   4.684  10.182 -1.4679  0.7243  0.7279
 6605SOL    HW231278   2.633   4.653  10.137 -0.0225 -1.6702 -0.0101
 6606SOL     OW31279   1.071   3.198   5.373 -0.2270 -0.8435  0.7455
 6606SOL    HW131280   1.114   3.159   5.296 -0.9453 -0.7428  0.2927
 6606SOL    HW231281   1.065   3.292   5.357  1.4364 -0.7333  0.7590
 6607SOL     OW31282   2.610   0.653   8.873 -0.2447  0.4596 -0.3462
 6607SOL    HW131283   2.643   0.658   8.963 -1.6233 -1.6243  0.2728
 6607SOL    HW231284   2.532   0.708   8.886  0.3121  1.2270 -0.2255
 6608SOL     OW31285   3.816   2.998   5.952 -0.7913 -0.3702  0.0459
 6608SOL    HW131286   3.735   3.026   5.995  0.0501  2.0361  0.0900
 6608SOL    HW231287   3.875   3.071   5.973  0.6324 -0.3163 -4.2087
 6609SOL     OW31288   0.259   1.175   0.816 -0.4143 -0.3487  0.1262
 6609SOL    HW131289   0.290   1.228   0.890 -2.4310  1.5903 -0.4485
 6609SOL    HW231290   0.229   1.243   0.756 -0.8037  0.5721  1.3594
 6610SOL     OW31291   2.950   4.528   1.895 -0.0530 -0.6039 -0.6466
 6610SOL    HW131292   2.875   4.488   1.852 -2.0295  1.4644  0.8755
 6610SOL    HW231293   2.944   4.620   1.869 -2.5724 -0.6506 -0.2488
 6611SOL     OW31294   0.387   2.137   1.697  0.4899 -0.1490 -0.1221
 6611SOL    HW131295   0.331   2.186   1.757  1.8108 -0.4549  1.3636
 6611SOL    HW231296   0.339   2.058   1.673  2.4908 -1.5351  0.3869
 6612SOL     OW31297   0.463   3.939   2.752 -0.0620 -0.0671  0.6514
 6612SOL    HW131298   0.481   3.976   2.838  1.1012  2.0133 -0.4991
 6612SOL    HW231299   0.544   3.961   2.706 -0.3415 -0.7112 -0.1727
 6613SOL     OW31300   2.254   1.592   5.224  0.0952  0.0219  0.4095
 6613SOL    HW131301   2.169   1.556   5.246  0.2586  1.0339  2.7498
 6613SOL    HW231302   2.303   1.553   5.296 -0.2521 -1.3567 -0.1138
 6614SOL     OW31303   0.758   2.967  10.505 -0.2298  0.0207 -0.3889
 6614SOL    HW131304   0.750   2.897  10.440  0.8579 -1.5498  1.1562
 6614SOL    HW231305   0.755   2.923  10.590 -0.0266 -0.5934 -0.6964
 6615SOL     OW31306   4.581   1.036   6.549  0.0695  0.1641  0.6431
 6615SOL    HW131307   4.644   1.075   6.488  1.7169 -2.2545  0.7976
 6615SOL    HW231308   4.513   1.008   6.487 -0.6807 -0.3691  1.7183
 6616SOL     OW31309   4.487   0.250  17.639  0.1770 -0.0211 -0.0870
 6616SOL    HW131310   4.475   0.233  17.546  3.3591  0.8410 -0.6586
 6616SOL    HW231311   4.542   0.177  17.666 -1.5896 -0.4719  2.3276
 6617SOL     OW31312   0.757   2.120   7.586  0.2258 -0.6169 -0.3403
 6617SOL    HW131313   0.846   2.156   7.582 -0.1917  0.4084 -0.5754
 6617SOL    HW231314   0.713   2.183   7.528  1.6688 -0.4876 -1.3284
 6618SOL     OW31315   1.889   4.664   4.080 -0.4426 -0.0139  0.2611
 6618SOL    HW131316   1.960   4.685   4.019  0.3289 -1.1460  0.7539
 6618SOL    HW231317   1.813   4.654   4.023 -0.2840 -0.0518  0.0553
 6619SOL     OW31318   3.348   1.519   9.196  0.0452 -0.9642  0.6061
 6619SOL    HW131319   3.415   1.452   9.212 -2.1545 -2.7829  2.2633
 6619SOL    HW231320   3.387   1.576   9.131 -2.0402  0.2191  0.4006
 6620SOL     OW31321   1.422   3.266   6.521  0.4677  0.0112 -0.1143
 6620SOL    HW131322   1.424   3.201   6.450  0.9752 -0.5388  0.4044
 6620SOL    HW231323   1.482   3.226   6.584  0.1461 -0.8744 -0.3717
 6621SOL     OW31324   3.489   1.965  14.941  0.2758 -0.2047  0.2924
 6621SOL    HW131325   3.469   1.906  14.868 -1.1147  0.8680 -0.1894
 6621SOL    HW231326   3.448   1.923  15.016 -2.5561  3.3211  0.7106
 6622SOL     OW31327   0.354   2.576   7.673  0.4317  0.0674  0.2282
 6622SOL    HW131328   0.407   2.514   7.723  1.4983  1.4202  0.7517
 6622SOL    HW231329   0.392   2.658   7.705 -2.3619  0.7627  1.8170
 6623SOL     OW31330   0.918   2.793  15.329 -0.0780  0.1951 -0.3456
 6623SOL    HW131331   0.905   2.756  15.416 -1.2036 -0.0989 -0.6293
 6623SOL    HW231332   0.830   2.769  15.299 -0.2019 -0.5702  0.6358
 6624SOL     OW31333   1.120   3.595   3.086 -0.2061 -0.2835  0.2527
 6624SOL    HW131334   1.136   3.566   2.996  2.1076 -3.3369  1.6487
 6624SOL    HW231335   1.156   3.517   3.128 -1.0645 -1.5667 -1.4178
 6625SOL     OW31336   2.231   4.470   4.102 -0.1021 -0.1099 -0.1096
 6625SOL    HW131337   2.218   4.547   4.047  0.1727 -0.0022 -0.0228
 6625SOL    HW231338   2.271   4.414   4.035 -0.6208 -1.7167  0.9263
 6626SOL     OW31339   2.620   0.272  13.440 -0.3420  0.0446 -0.4734
 6626SOL    HW131340   2.587   0.182  13.441  1.4077 -0.5863  2.5457
 6626SOL    HW231341   2.699   0.244  13.395 -1.0730 -0.6254 -1.3278
 6627SOL     OW31342   4.585   1.121  13.300 -0.3696 -0.2734  0.0777
 6627SOL    HW131343   4.647   1.193  13.301 -0.7629  0.0470  1.7327
 6627SOL    HW231344   4.558   1.108  13.391 -1.2945 -1.9794 -0.4342
 6628SOL     OW31345   2.634   3.282  15.745  0.1312  0.4427  0.0069
 6628SOL    HW131346   2.657   3.369  15.778  1.4492 -0.3230  1.0840
 6628SOL    HW231347   2.546   3.295  15.709  0.6896 -0.3657 -1.6532
 6629SOL     OW31348   2.757   1.296   2.267 -0.4126 -0.1038 -0.1874
 6629SOL    HW131349   2.830   1.254   2.313 -1.2743 -1.4710 -0.0505
 6629SOL    HW231350   2.678   1.293   2.321  1.1937 -0.4771  2.1645
 6630SOL     OW31351   3.349   0.062  11.449 -0.2229  0.6080 -0.1326
 6630SOL    HW131352   3.424   0.055  11.508  0.1933  0.9738 -0.6270
 6630SOL    HW231353   3.390   0.024  11.372 -3.1177 -1.1955 -0.8016
 6631SOL     OW31354   0.694   1.795  14.625 -0.4119  0.1449  0.5602
 6631SOL    HW131355   0.776   1.767  14.584 -0.6043 -0.6257  0.7009
 6631SOL    HW231356   0.735   1.834  14.702  1.2144 -0.8624  0.2126
 6632SOL     OW31357   1.624   3.637   6.754  0.1549  0.5049 -0.0803
 6632SOL    HW131358   1.696   3.574   6.763  0.0307  0.3059 -0.4947
 6632SOL    HW231359   1.546   3.587   6.779 -1.4866  3.4591  0.7433
 6633SOL     OW31360   3.165   0.056   4.769  0.2869  0.1426 -0.5909
 6633SOL    HW131361   3.072   0.037   4.778  0.1615  1.8034  1.5022
 6633SOL    HW231362   3.167   0.067   4.674 -1.0742  1.6681 -0.4257
 6634SOL     OW31363   0.933   0.549   6.624  0.3413  0.0095 -0.1161
 6634SOL    HW131364   0.970   0.478   6.677  0.3895 -1.0919 -1.6126
 6634SOL    HW231365   0.962   0.511   6.541 -1.8894 -0.3422 -0.7425
 6635SOL     OW31366   2.744   2.542   0.471  0.7445  0.4922  0.0921
 6635SOL    HW131367   2.695   2.554   0.389  0.9378  0.8619  0.0293
 6635SOL    HW231368   2.704   2.459   0.498  1.9388 -0.3103 -0.6042
 6636SOL     OW31369   4.496   2.987   9.340  0.2824  0.3951  0.1272
 6636SOL    HW131370   4.473   2.981   9.433  0.3447 -2.3904 -0.0405
 6636SOL    HW231371   4.588   3.012   9.349 -0.0578  1.0425  1.8103
 6637SOL     OW31372   3.080   0.168  17.048 -0.2237  0.5299  0.2306
 6637SOL    HW131373   3.009   0.107  17.067  1.7804 -1.2719  1.9296
 6637SOL    HW231374   3.100   0.150  16.956 -0.0768  0.7986  0.2103
 6638SOL     OW31375   0.589   2.504  13.709  0.6521  0.2061  0.0763
 6638SOL    HW131376   0.503   2.505  13.751  2.2335  1.8154  3.3243
 6638SOL    HW231377   0.587   2.595  13.682 -0.7944  0.1497  0.0091
 6639SOL     OW31378   2.571   3.190   8.349 -0.3625 -0.4711 -0.6310
 6639SOL    HW131379   2.515   3.266   8.363 -1.0734 -1.1923  0.4789
 6639SOL    HW231380   2.651   3.234   8.323 -0.4297 -0.5039 -0.8853
 6640SOL     OW31381   1.738   1.832   5.877 -0.0761  0.2132 -0.8414
 6640SOL    HW131382   1.725   1.921   5.911 -0.9864 -0.7449  1.3367
 6640SOL    HW231383   1.692   1.788   5.949  1.0266 -0.7925 -0.7494
 6641SOL     OW31384   4.314   2.038   6.770 -0.1566 -0.3011  0.6387
 6641SOL    HW131385   4.227   2.041   6.730 -0.9887 -0.5906  2.3904
 6641SOL    HW231386   4.349   2.112   6.720  3.1515 -2.0879  0.3285
 6642SOL     OW31387   1.528   4.063   1.828  0.3975 -0.3235 -0.2764
 6642SOL    HW131388   1.433   4.054   1.823  0.3658  0.4144 -1.0533
 6642SOL    HW231389   1.543   4.013   1.908  0.8781 -0.5166 -0.4897
 6643SOL     OW31390   2.612   1.099  10.179  0.2552  0.3140  0.9234
 6643SOL    HW131391   2.582   1.032  10.240 -2.0065 -0.1855 -0.7723
 6643SOL    HW231392   2.541   1.116  10.118  2.8614 -0.3359 -2.3100
 6644SOL     OW31393   0.769   2.988   2.071  0.1932 -0.8023 -0.0939
 6644SOL    HW131394   0.809   2.937   2.140 -1.7451 -3.4357 -0.9146
 6644SOL    HW231395   0.728   2.913   2.027 -2.9225 -0.7430  2.7164
 6645SOL     OW31396   2.416   0.947  11.153  0.0599  0.2230 -0.1169
 6645SOL    HW131397   2.380   0.881  11.212 -2.0380 -0.9063 -2.6013
 6645SOL    HW231398   2.508   0.948  11.177 -0.0037  0.4932  0.1071
 6646SOL     OW31399   1.595   0.328  10.483  0.6835  0.0894  0.8479
 6646SOL    HW131400   1.598   0.272  10.561  0.9075 -2.2535 -0.8584
 6646SOL    HW231401   1.531   0.394  10.511  1.2543  0.7440  0.6138
 6647SOL     OW31402   1.834   2.940   6.021  0.5175 -0.7356  0.4366
 6647SOL    HW131403   1.866   2.894   5.943  0.4883  0.6929 -0.4214
 6647SOL    HW231404   1.858   3.032   6.008 -0.3953 -0.4417  0.8075
 6648SOL     OW31405   0.834   3.561   4.195 -0.2981 -0.4368 -0.0142
 6648SOL    HW131406   0.853   3.654   4.194 -0.9588 -0.3053 -0.4985
 6648SOL    HW231407   0.800   3.561   4.106 -0.6528  0.4611  0.1211
 6649SOL     OW31408   2.825   1.477  12.813  0.2158 -0.0785  0.1678
 6649SOL    HW131409   2.868   1.425  12.745  1.7686 -1.0160  1.8508
 6649SOL    HW231410   2.772   1.539  12.764  1.1206  0.1683 -0.5010
 6650SOL     OW31411   0.252   1.897   1.585 -0.0492 -0.1325 -0.7323
 6650SOL    HW131412   0.201   1.912   1.665  1.5148 -1.6110  0.5450
 6650SOL    HW231413   0.186   1.862   1.525  0.5340  0.8642 -1.9461
 6651SOL     OW31414   2.470   4.521  14.251 -0.5350 -0.2182 -0.3861
 6651SOL    HW131415   2.377   4.502  14.242 -0.6948 -0.0397  0.9859
 6651SOL    HW231416   2.509   4.436  14.274 -2.6825 -1.1448 -0.2410
 6652SOL     OW31417   1.427   2.652   6.235  0.3892 -0.1377  0.4115
 6652SOL    HW131418   1.486   2.726   6.219 -1.6298  1.7451  1.7014
 6652SOL    HW231419   1.379   2.643   6.153  0.3398 -2.9492  0.7515
 6653SOL     OW31420   1.378   1.989  10.976 -0.1089  0.2220  0.0513
 6653SOL    HW131421   1.331   2.039  10.909 -0.9534 -1.9397 -0.9538
 6653SOL    HW231422   1.331   2.018  11.054  0.5986  0.6413  0.3239
 6654SOL     OW31423   0.497   0.479   2.127 -0.1886  0.0881  0.5567
 6654SOL    HW131424   0.586   0.449   2.144 -0.5777 -1.7294 -0.5255
 6654SOL    HW231425   0.447   0.439   2.198 -0.5697  0.8383  0.7089
 6655SOL     OW31426   0.388   3.651   0.756 -0.0859  0.7322  0.0452
 6655SOL    HW131427   0.435   3.670   0.837  0.6150 -2.4690  0.4054
 6655SOL    HW231428   0.406   3.725   0.697  0.5999  0.8725  0.4352
 6656SOL     OW31429   3.396   2.491  16.664  0.5695  0.4698 -0.0534
 6656SOL    HW131430   3.412   2.461  16.575  0.6252 -0.3258  0.2180
 6656SOL    HW231431   3.308   2.454  16.663  0.5477  0.5964 -2.5482
 6657SOL     OW31432   0.215   1.317   5.304  0.2245 -0.0932  0.0390
 6657SOL    HW131433   0.304   1.345   5.328  0.1632  1.8113 -1.8948
 6657SOL    HW231434   0.229   1.251   5.236 -1.4660 -0.9121  0.4980
 6658SOL     OW31435   1.209   3.954   2.219  0.4819 -0.5099 -0.1124
 6658SOL    HW131436   1.212   3.859   2.234  1.0402 -0.5385 -0.3923
 6658SOL    HW231437   1.232   3.989   2.305 -1.0080  2.9559 -1.1222
 6659SOL     OW31438   0.259   3.537   8.976 -0.0509 -0.7247 -0.3184
 6659SOL    HW131439   0.201   3.471   8.940 -2.7304  1.3308  0.2567
 6659SOL    HW231440   0.260   3.514   9.068 -1.6308 -1.0387 -0.3869
 6660SOL     OW31441   0.357   0.115   3.565  0.1343  0.2211  0.2009
 6660SOL    HW131442   0.336   0.138   3.655 -0.3346  0.5966  0.0027
 6660SOL    HW231443   0.451   0.097   3.569  0.2502  1.2115  1.8767
 6661SOL     OW31444   2.098   0.254   1.883  0.7102 -0.2757 -0.5820
 6661SOL    HW131445   2.095   0.173   1.934 -1.5336  1.4375  2.0491
 6661SOL    HW231446   2.187   0.276   1.858  0.5172  1.6838  0.4150
 6662SOL     OW31447   1.452   4.467   7.349 -0.3567 -0.0639  0.9977
 6662SOL    HW131448   1.538   4.509   7.345 -1.9727  3.1799 -0.2501
 6662SOL    HW231449   1.443   4.447   7.256 -0.7981  2.0988  0.5726
 6663SOL     OW31450   4.446   4.547   2.678  0.0029  0.4267  0.1165
 6663SOL    HW131451   4.385   4.587   2.617  0.7410  1.1548 -0.1396
 6663SOL    HW231452   4.486   4.489   2.613 -0.2711 -0.7832  1.0223
 6664SOL     OW31453   3.895   0.841   3.381 -0.0456  0.4865  0.0419
 6664SOL    HW131454   3.857   0.777   3.320 -1.4725  2.1507 -0.8215
 6664SOL    HW231455   3.978   0.803   3.409  0.3186 -0.4087 -2.2690
 6665SOL     OW31456   0.262   0.172  16.934  0.5247 -0.0431  0.1131
 6665SOL    HW131457   0.187   0.227  16.955  0.9945 -0.4210  2.7345
 6665SOL    HW231458   0.218   0.103  16.884 -2.7136  1.1354  1.3173
 6666SOL     OW31459   3.920   3.205   3.191 -0.3522  0.2427  0.4279
 6666SOL    HW131460   3.992   3.159   3.235  0.1732  0.6559 -0.0095
 6666SOL    HW231461   3.941   3.295   3.168  0.0466  0.1625  0.4696
 6667SOL     OW31462   0.466   2.452   3.163 -0.0361 -0.0160 -0.1722
 6667SOL    HW131463   0.449   2.438   3.256 -0.3164  0.3134 -0.1742
 6667SOL    HW231464   0.534   2.519   3.164  0.0553 -0.1322  0.9485
 6668SOL     OW31465   3.444   3.761   3.341 -0.1529  1.0407  0.1540
 6668SOL    HW131466   3.477   3.677   3.374  0.6473  0.6016 -1.7637
 6668SOL    HW231467   3.387   3.780   3.416 -0.8231  0.2697 -0.1616
 6669SOL     OW31468   3.357   4.301   8.439  0.1270  0.3975 -0.2583
 6669SOL    HW131469   3.332   4.223   8.488  1.3529  0.0050 -0.2817
 6669SOL    HW231470   3.396   4.352   8.511  0.4359 -0.5931  0.2808
 6670SOL     OW31471   0.053   1.538   8.287 -0.1230 -0.6141 -0.6988
 6670SOL    HW131472   0.124   1.530   8.224 -0.5337 -0.7027 -1.1531
 6670SOL    HW231473   0.000   1.458   8.278 -1.1448 -0.0029 -0.2127
 6671SOL     OW31474   1.993   4.712   8.336 -0.1026  0.0390 -0.1111
 6671SOL    HW131475   1.979   0.023   8.246 -1.5655  0.6256  0.3236
 6671SOL    HW231476   1.983   0.078   8.378  1.1774  0.4181 -0.5842
 6672SOL     OW31477   1.275   4.216   4.962  0.1526 -0.2109 -0.2589
 6672SOL    HW131478   1.182   4.210   4.938  0.2411 -0.3242 -0.5723
 6672SOL    HW231479   1.284   4.298   4.914 -2.3192 -0.2293 -0.7591
 6673SOL     OW31480   3.277   0.690  13.248  0.3934 -0.0785  0.1321
 6673SOL    HW131481   3.197   0.742  13.252  0.0073 -0.4312 -2.8030
 6673SOL    HW231482   3.339   0.762  13.237  0.9213 -0.9777 -2.6880
 6674SOL     OW31483   2.636   1.703   5.594 -0.3267  0.3121 -0.0045
 6674SOL    HW131484   2.666   1.783   5.550 -0.1810 -0.0385 -0.5409
 6674SOL    HW231485   2.555   1.731   5.637 -1.3566 -1.3813 -0.8652
 6675SOL     OW31486   0.022   2.925   1.774 -0.3331 -0.2665  0.0264
 6675SOL    HW131487   4.669   2.956   1.828  2.0341  2.5637  1.5918
 6675SOL    HW231488   0.032   2.836   1.808 -2.1952 -0.9405 -1.1744
 6676SOL     OW31489   2.374   4.010  11.260 -0.4877  0.6322 -0.1814
 6676SOL    HW131490   2.307   3.940  11.261 -0.4741  0.5978 -1.8836
 6676SOL    HW231491   2.418   3.986  11.178  0.6329 -1.4535  1.0301
 6677SOL     OW31492   1.744   1.309   3.493  0.1775  0.6179  0.3239
 6677SOL    HW131493   1.798   1.235   3.464 -2.6993 -0.3004 -2.7257
 6677SOL    HW231494   1.688   1.324   3.416  0.6099 -0.2052 -0.1538
 6678SOL     OW31495   3.923   3.773   8.258  0.3361  0.1868 -0.2089
 6678SOL    HW131496   4.004   3.755   8.211  0.7620  1.8052 -0.1048
 6678SOL    HW231497   3.939   3.854   8.307  0.7104  0.7553 -1.2893
 6679SOL     OW31498   3.061   0.171  15.045 -0.5342  0.0228  0.4105
 6679SOL    HW131499   3.132   0.229  15.074 -1.2204 -0.4005  2.9171
 6679SOL    HW231500   3.100   0.103  14.990 -0.0265 -0.2872  1.1482
 6680SOL     OW31501   0.605   2.689   2.836  0.1704 -0.1662 -0.1530
 6680SOL    HW131502   0.675   2.658   2.893 -1.2201  3.0500  3.3142
 6680SOL    HW231503   0.635   2.779   2.824  1.9873 -1.0349 -1.9662
 6681SOL     OW31504   2.659   1.458   4.323 -0.1909  0.4511 -0.3876
 6681SOL    HW131505   2.574   1.423   4.349 -1.5628  2.8693 -1.7031
 6681SOL    HW231506   2.710   1.377   4.318 -1.3354 -0.3470  0.9136
 6682SOL     OW31507   1.861   3.255   2.600 -0.2040  0.0112  0.0426
 6682SOL    HW131508   1.901   3.283   2.683  0.8110 -0.4651 -0.2893
 6682SOL    HW231509   1.940   3.257   2.547  0.6911 -1.5998  1.3077
 6683SOL     OW31510   2.945   3.906   8.422 -0.2844 -0.0634 -0.1485
 6683SOL    HW131511   2.911   3.994   8.405  2.2813  1.4853  2.7867
 6683SOL    HW231512   3.036   3.923   8.445 -0.1119  1.6205 -2.0896
 6684SOL     OW31513   3.045   4.269  15.950  0.2430  0.5544 -0.1626
 6684SOL    HW131514   2.978   4.230  16.006  0.8411 -0.3198 -0.0697
 6684SOL    HW231515   3.050   4.211  15.874  1.8595  0.1659  0.2348
 6685SOL     OW31516   3.824   4.290   4.950  0.2481  0.5822 -0.9568
 6685SOL    HW131517   3.778   4.239   5.016 -1.4466  1.8154 -1.1789
 6685SOL    HW231518   3.794   4.375   4.983 -2.7361 -0.2066 -1.6163
 6686SOL     OW31519   1.256   1.593   2.612  0.8638 -0.6614 -0.1244
 6686SOL    HW131520   1.216   1.508   2.591 -2.1352  0.0359  2.7395
 6686SOL    HW231521   1.207   1.625   2.688 -0.5749 -0.6618 -1.0367
 6687SOL     OW31522   2.739   4.333   4.932  0.0323 -0.3319 -0.8596
 6687SOL    HW131523   2.757   4.267   4.864 -1.2234 -2.5534  0.9631
 6687SOL    HW231524   2.695   4.409   4.895 -0.6511 -1.0903 -1.5928
 6688SOL     OW31525   3.685   0.223  17.347 -0.0902  0.3541 -0.2323
 6688SOL    HW131526   3.667   0.315  17.363  2.2326  0.4447  1.8285
 6688SOL    HW231527   3.628   0.175  17.407  1.3404 -0.5656  0.4075
 6689SOL     OW31528   1.030   2.814   1.772 -0.3569 -0.5061  0.2832
 6689SOL    HW131529   1.066   2.820   1.683  1.2979 -0.0481  0.9925
 6689SOL    HW231530   1.021   2.910   1.777 -0.4415 -0.5254  0.5083
 6690SOL     OW31531   2.673   4.339   3.835  0.2624  0.8261 -0.8020
 6690SOL    HW131532   2.729   4.401   3.787  0.4927 -0.5183 -2.2579
 6690SOL    HW231533   2.612   4.395   3.883  0.2916  0.3280 -0.1817
 6691SOL     OW31534   1.436   1.558  12.091  0.3530 -0.1837 -0.1186
 6691SOL    HW131535   1.417   1.613  12.167  0.6049  2.4143 -1.9449
 6691SOL    HW231536   1.393   1.610  12.023 -0.9854 -2.6823 -1.1823
 6692SOL     OW31537   1.652   4.716  16.601 -0.5548 -0.1435  0.3459
 6692SOL    HW131538   1.586   0.062  16.580  0.6400  1.2273  0.9178
 6692SOL    HW231539   1.712   0.037  16.663 -1.2209 -2.3220  2.4325
 6693SOL     OW31540   0.323   3.249  14.618 -0.1284  0.0954  0.4497
 6693SOL    HW131541   0.374   3.266  14.698 -0.6738 -0.7792  0.9879
 6693SOL    HW231542   0.235   3.242  14.654 -0.3712 -1.7170 -0.5121
 6694SOL     OW31543   4.151   2.757   6.174 -0.3243 -0.3158 -0.5411
 6694SOL    HW131544   4.183   2.673   6.142  2.6072  1.8645 -3.4323
 6694SOL    HW231545   4.206   2.824   6.132  0.9479 -1.1231 -0.1490
 6695SOL     OW31546   4.490   4.056   7.959  0.5288  0.0036  0.1747
 6695SOL    HW131547   4.395   4.051   7.971  0.3371  0.0709 -1.3133
 6695SOL    HW231548   4.519   4.062   8.051  0.7711 -0.7206  0.1445
 6696SOL     OW31549   3.811   1.179   6.285 -0.0299  1.0140 -0.4142
 6696SOL    HW131550   3.875   1.218   6.226  1.0406  0.1152  0.1479
 6696SOL    HW231551   3.826   1.236   6.360 -0.8643  1.3985 -0.5393
 6697SOL     OW31552   3.138   4.450   6.629  0.1156 -0.1025 -0.3496
 6697SOL    HW131553   3.114   4.372   6.679 -0.9113  1.4814  1.6045
 6697SOL    HW231554   3.233   4.437   6.631  0.1549  0.3127  0.2230
 6698SOL     OW31555   1.652   1.160   4.177  0.2866 -1.2017 -0.5003
 6698SOL    HW131556   1.593   1.196   4.243 -0.5962 -1.9911 -0.8440
 6698SOL    HW231557   1.626   1.068   4.190 -1.6302 -0.3424  1.8435
 6699SOL     OW31558   4.596   4.184   2.734  0.3428  0.1124  0.5227
 6699SOL    HW131559   4.569   4.246   2.666 -1.5923 -0.6430  0.6053
 6699SOL    HW231560   4.658   4.127   2.689 -1.0292 -1.1599  0.2271
 6700SOL     OW31561   0.636   1.247  15.438 -0.2498  0.0019  0.0872
 6700SOL    HW131562   0.717   1.249  15.489  0.4018  2.6927 -1.0817
 6700SOL    HW231563   0.598   1.334  15.443 -0.0522  0.3851 -4.7172
 6701SOL     OW31564   1.313   3.719  11.260 -0.6782 -0.2845  0.2327
 6701SOL    HW131565   1.324   3.706  11.166  0.4781 -1.5659  0.5471
 6701SOL    HW231566   1.263   3.643  11.291 -0.2941 -0.4378  0.4687
 6702SOL     OW31567   3.289   2.887   2.690 -0.0157  0.1707  0.1241
 6702SOL    HW131568   3.351   2.955   2.664 -1.6294  1.3819 -0.5715
 6702SOL    HW231569   3.337   2.815   2.650  1.2122  0.8125  0.4506
 6703SOL     OW31570   2.209   0.619   4.616 -0.1484  0.5788 -0.0458
 6703SOL    HW131571   2.166   0.644   4.698 -0.0042 -1.2023  0.5703
 6703SOL    HW231572   2.284   0.678   4.622 -0.5239  1.2243 -1.6446
 6704SOL     OW31573   3.396   3.558   5.113  0.4073  0.1212  0.3288
 6704SOL    HW131574   3.318   3.546   5.168  1.5909  1.1004  2.2014
 6704SOL    HW231575   3.438   3.472   5.119 -1.4240 -0.6923  1.9639
 6705SOL     OW31576   0.755   2.080   7.164 -0.5201  0.1600 -0.1306
 6705SOL    HW131577   0.815   2.133   7.217  0.5372  0.9527 -2.1512
 6705SOL    HW231578   0.673   2.101   7.209  0.2232 -0.0683  1.3505
 6706SOL     OW31579   4.386   1.510  13.206 -0.4420  0.3959 -0.2607
 6706SOL    HW131580   4.346   1.471  13.283  0.4897 -1.1969 -0.5725
 6706SOL    HW231581   4.448   1.575  13.242 -0.5388  0.2397  0.1887
 6707SOL     OW31582   3.333   1.671  13.013  0.3351  0.0691  0.7262
 6707SOL    HW131583   3.391   1.612  12.965 -1.6176  0.1351 -1.6847
 6707SOL    HW231584   3.255   1.642  12.966  1.6938 -0.4252 -1.2567
 6708SOL     OW31585   3.820   3.249   0.998 -0.4454 -0.3397  0.3411
 6708SOL    HW131586   3.741   3.303   0.991  0.0549  0.6161  2.1408
 6708SOL    HW231587   3.824   3.233   1.092 -0.8406  2.4020  0.8238
 6709SOL     OW31588   4.307   0.585   2.978 -0.1559 -0.4272 -0.5820
 6709SOL    HW131589   4.316   0.490   2.969 -0.0813 -0.4425 -0.3355
 6709SOL    HW231590   4.215   0.590   2.952  0.1946 -0.7364 -1.9064
 6710SOL     OW31591   1.079   0.932   2.888 -0.2113 -0.2995 -0.0657
 6710SOL    HW131592   1.077   0.954   2.981  1.6647  1.3648 -0.4207
 6710SOL    HW231593   1.003   0.873   2.889 -1.9405  1.9947  1.8171
 6711SOL     OW31594   4.315   1.894   4.650  0.4818  0.1058 -0.3538
 6711SOL    HW131595   4.342   1.815   4.696  1.6220  0.2862 -0.7192
 6711SOL    HW231596   4.223   1.878   4.629  0.4796 -1.8827  1.2459
 6712SOL     OW31597   4.411   0.672   2.341  0.6091 -0.4162  0.2499
 6712SOL    HW131598   4.483   0.734   2.335 -0.8301  1.1572 -0.9129
 6712SOL    HW231599   4.340   0.736   2.349  1.1450  0.2215 -0.2098
 6713SOL     OW31600   3.123   0.255   1.728  0.1094  0.2745  0.1427
 6713SOL    HW131601   3.048   0.313   1.717 -0.8493 -1.3255 -1.7285
 6713SOL    HW231602   3.074   0.189   1.777 -0.4119  0.9827  0.5731
 6714SOL     OW31603   2.261   2.292   6.693  0.0335 -0.1094 -0.4105
 6714SOL    HW131604   2.235   2.384   6.696  1.1802  0.2360 -1.0891
 6714SOL    HW231605   2.311   2.280   6.613 -0.2694 -1.3856 -0.4016
 6715SOL     OW31606   2.560   4.455   5.961  0.6233  0.3999  0.2120
 6715SOL    HW131607   2.600   4.421   6.041  0.5316 -1.1864 -0.4338
 6715SOL    HW231608   2.536   4.543   5.992  0.0337  0.9505 -1.7821
 6716SOL     OW31609   4.678   0.399  13.292 -0.5015 -0.3160 -0.0089
 6716SOL    HW131610   0.020   0.467  13.320 -0.1277 -0.7252  0.1434
 6716SOL    HW231611   4.663   0.352  13.374  0.6768  1.7999  1.4258
 6717SOL     OW31612   0.498   0.516   8.053 -0.3573 -0.5186 -0.2579
 6717SOL    HW131613   0.409   0.541   8.076  0.7637  0.9030  2.5599
 6717SOL    HW231614   0.531   0.605   8.036  0.5491 -0.6846  0.6039
 6718SOL     OW31615   2.479   0.714   7.668  0.7939  0.0389 -0.2386
 6718SOL    HW131616   2.540   0.657   7.716 -0.3255 -0.0189  1.0912
 6718SOL    HW231617   2.442   0.773   7.733  1.1763 -0.1844  0.1873
 6719SOL     OW31618   0.386   3.353   2.437 -0.0881 -0.0918  0.4087
 6719SOL    HW131619   0.465   3.400   2.408 -0.4180 -0.9307 -1.8951
 6719SOL    HW231620   0.401   3.358   2.531  1.3333 -2.8057  0.3168
 6720SOL     OW31621   2.486   2.181  11.766  0.2335 -0.4948 -0.9959
 6720SOL    HW131622   2.504   2.222  11.681 -0.7896  1.0419 -0.4870
 6720SOL    HW231623   2.562   2.220  11.809 -1.2284 -0.5762  1.6419
 6721SOL     OW31624   2.457   2.601   6.930 -0.3702 -0.7108  0.2214
 6721SOL    HW131625   2.497   2.671   6.981  0.1706 -0.0080 -1.1753
 6721SOL    HW231626   2.407   2.554   6.997 -0.2761  0.0416  0.8138
 6722SOL     OW31627   2.634   3.240   6.630  0.3770 -0.2225 -0.2668
 6722SOL    HW131628   2.642   3.335   6.630 -0.5532 -0.1493  1.3591
 6722SOL    HW231629   2.543   3.237   6.659  0.3145 -2.9335 -0.6559
 6723SOL     OW31630   1.350   3.600   8.571  0.2649  0.0726  0.5681
 6723SOL    HW131631   1.277   3.640   8.523 -0.1235 -0.3225  0.8246
 6723SOL    HW231632   1.319   3.510   8.579 -2.1018  0.8837  0.5029
 6724SOL     OW31633   0.894   1.174   4.182 -0.3644  0.2152  0.2654
 6724SOL    HW131634   0.894   1.256   4.233  0.1764 -1.8586  3.5791
 6724SOL    HW231635   0.857   1.120   4.251  0.8997 -1.8512 -0.6733
 6725SOL     OW31636   3.228   0.911   5.607  0.1517 -0.2194 -0.4863
 6725SOL    HW131637   3.199   0.845   5.545  0.4890  0.4802 -1.3982
 6725SOL    HW231638   3.185   0.986   5.565  0.7057  0.0207 -0.6213
 6726SOL     OW31639   4.467   2.908   7.325 -0.3224  0.4854  0.0477
 6726SOL    HW131640   4.516   2.830   7.299 -0.0327  0.3054  1.1228
 6726SOL    HW231641   4.504   2.962   7.255 -0.2183 -0.9447 -0.9988
 6727SOL     OW31642   4.702   0.521   6.025  0.3237  0.3127  0.6069
 6727SOL    HW131643   0.024   0.446   5.984  0.0203  1.4282 -1.7376
 6727SOL    HW231644   4.608   0.510   6.008  0.9523 -1.2132 -1.8741
 6728SOL     OW31645   0.890   3.801   4.068 -0.2246  0.4341  0.4556
 6728SOL    HW131646   0.837   3.814   3.990 -0.0196  0.9458  0.4078
 6728SOL    HW231647   0.944   3.878   4.055 -1.4205  1.0552 -0.8451
 6729SOL     OW31648   2.057   1.409  12.691 -0.0175  0.4140 -0.0413
 6729SOL    HW131649   2.025   1.332  12.643 -0.0879  0.0903  0.5308
 6729SOL    HW231650   1.971   1.443  12.716 -0.2090  0.6424 -1.0114
 6730SOL     OW31651   3.724   2.901   7.957 -0.6801  0.0918 -0.3368
 6730SOL    HW131652   3.732   2.929   8.049  0.9756 -2.1200  0.1780
 6730SOL    HW231653   3.815   2.874   7.943 -0.0981  1.0212  1.6321
 6731SOL     OW31654   4.637   4.296   7.156 -0.0427  0.3361  0.6623
 6731SOL    HW131655   4.611   4.251   7.237 -1.4665 -1.1839 -0.6282
 6731SOL    HW231656   4.698   4.234   7.118  1.0280  0.7514  1.7047
 6732SOL     OW31657   4.371   1.636  11.357  0.9232 -0.5877 -0.2640
 6732SOL    HW131658   4.387   1.642  11.451  1.1639  0.6915 -0.3887
 6732SOL    HW231659   4.304   1.702  11.339  1.2470  0.2378  1.5786
 6733SOL     OW31660   3.077   2.192   5.221  0.7727 -0.0124  0.1796
 6733SOL    HW131661   3.046   2.223   5.306 -0.6016  0.6285 -0.5513
 6733SOL    HW231662   3.130   2.263   5.185  0.0171  0.3689 -0.2010
 6734SOL     OW31663   2.390   1.352  15.692 -0.5485 -0.6642  0.4626
 6734SOL    HW131664   2.327   1.281  15.705 -2.1686  0.9652  1.6088
 6734SOL    HW231665   2.414   1.337  15.600  1.2353  1.0639  0.6529
 6735SOL     OW31666   3.180   2.349  14.871  0.7159 -0.5824  0.0380
 6735SOL    HW131667   3.200   2.303  14.952  0.2487 -0.4911  0.2038
 6735SOL    HW231668   3.227   2.285  14.818 -1.4983 -1.5737 -0.7042
 6736SOL     OW31669   2.068   1.025   7.276  0.7297 -0.5673 -0.5696
 6736SOL    HW131670   2.014   1.082   7.221  0.6496 -0.1495 -0.0565
 6736SOL    HW231671   2.005   0.996   7.343 -0.8331  3.5810 -0.1876
 6737SOL     OW31672   3.040   0.564  10.497  0.2927 -0.0942  0.0208
 6737SOL    HW131673   3.046   0.551  10.592 -1.4837  0.3779  0.1935
 6737SOL    HW231674   3.130   0.538  10.480 -0.1224 -1.8687  0.5323
 6738SOL     OW31675   1.607   3.595   5.571 -0.9453  0.2569  0.4692
 6738SOL    HW131676   1.643   3.508   5.555  0.9548  0.9993  0.7087
 6738SOL    HW231677   1.512   3.585   5.577 -0.9094 -1.7972 -2.5573
 6739SOL     OW31678   2.547   1.543  15.854  0.2149  0.3825  0.0879
 6739SOL    HW131679   2.548   1.577  15.764 -1.4454  1.0172  0.3013
 6739SOL    HW231680   2.506   1.457  15.842  0.7923  0.1191  0.0254
 6740SOL     OW31681   2.662   4.358   8.573 -0.7131 -0.2826  0.0220
 6740SOL    HW131682   2.741   4.369   8.625 -1.9579  4.6981  0.8789
 6740SOL    HW231683   2.696   4.398   8.493 -0.4568 -0.3943  0.0756
 6741SOL     OW31684   2.798   3.027  14.689  0.0724 -0.1438 -0.3435
 6741SOL    HW131685   2.752   2.986  14.615  0.3784  0.0095 -0.6203
 6741SOL    HW231686   2.752   2.996  14.767  0.7057 -0.9437 -0.2928
 6742SOL     OW31687   1.817   3.333   6.534 -0.1569 -0.4846 -0.5091
 6742SOL    HW131688   1.830   3.381   6.453 -2.9845  1.0525 -0.0757
 6742SOL    HW231689   1.729   3.362   6.558 -0.8021 -1.6329 -1.4376
 6743SOL     OW31690   1.930   0.904  17.194  0.0167  0.5781  0.0693
 6743SOL    HW131691   1.856   0.933  17.141  0.2818 -2.5441 -1.9951
 6743SOL    HW231692   1.890   0.854  17.265 -0.9555  0.1826 -0.7548
 6744SOL     OW31693   1.910   4.092  10.749 -0.3211 -0.4570  0.3202
 6744SOL    HW131694   1.925   4.078  10.843 -0.2751  0.4730  0.4487
 6744SOL    HW231695   1.991   4.051  10.718  0.3504 -0.8232  2.5379
 6745SOL     OW31696   1.699   4.513   1.333 -0.3032  0.2182  0.2357
 6745SOL    HW131697   1.607   4.539   1.328  0.1269  2.1000  2.1173
 6745SOL    HW231698   1.691   4.439   1.273 -0.6451  1.4551 -1.2631
 6746SOL     OW31699   0.744   1.869   6.299 -0.0949  0.5814  0.4591
 6746SOL    HW131700   0.768   1.795   6.242  0.5294 -0.2874  1.8445
 6746SOL    HW231701   0.826   1.913   6.321  0.5469 -0.5201  0.2710
 6747SOL     OW31702   3.238   4.311   8.746 -0.0326 -0.3734  0.1157
 6747SOL    HW131703   3.210   4.257   8.819 -2.7339 -0.0483 -0.6925
 6747SOL    HW231704   3.273   4.241   8.690 -1.5539 -1.1887  0.2066
 6748SOL     OW31705   4.579   2.035   4.103  0.5074 -0.0701  0.5016
 6748SOL    HW131706   4.489   2.023   4.071  0.4579  1.5602  0.0504
 6748SOL    HW231707   4.575   2.127   4.129 -0.1848  0.2727 -0.8060
 6749SOL     OW31708   0.359   1.410   7.779 -0.3686  0.1925 -0.1639
 6749SOL    HW131709   0.440   1.461   7.778 -0.7046  0.7160 -0.3887
 6749SOL    HW231710   0.324   1.427   7.691  1.2758  0.1314 -0.8301
 6750SOL     OW31711   2.771   1.372  12.076 -0.4522 -0.0269 -0.0538
 6750SOL    HW131712   2.818   1.300  12.034  2.3722  1.8627 -0.0882
 6750SOL    HW231713   2.834   1.443  12.069 -1.2372  0.5645 -1.1284
 6751SOL     OW31714   4.648   2.812  15.185  1.0390 -0.7764  0.7581
 6751SOL    HW131715   4.580   2.778  15.126  1.4705 -1.5330  0.7070
 6751SOL    HW231716   4.676   2.888  15.133 -0.3616 -0.0309  1.0938
 6752SOL     OW31717   2.219   4.306   3.250  0.2161  0.1459  0.2797
 6752SOL    HW131718   2.218   4.211   3.242 -4.1266  0.1596  0.9452
 6752SOL    HW231719   2.140   4.335   3.204 -1.4741  0.5512  3.4279
 6753SOL     OW31720   3.253   1.756  12.622 -0.8040  0.3894  0.3449
 6753SOL    HW131721   3.291   1.797  12.700 -0.0081 -1.0142  0.7130
 6753SOL    HW231722   3.275   1.824  12.559  0.4550 -0.0571  0.2871
 6754SOL     OW31723   3.396   1.784  11.368  0.2408  0.2496  0.1251
 6754SOL    HW131724   3.308   1.818  11.352  0.4208  0.9365  0.5737
 6754SOL    HW231725   3.405   1.786  11.463  0.4457 -1.7019  0.1429
 6755SOL     OW31726   4.588   3.053   3.126 -0.1429 -0.3907 -0.3056
 6755SOL    HW131727   4.651   3.114   3.165 -1.4792  0.3491  0.6939
 6755SOL    HW231728   4.649   3.006   3.070  2.4237  1.9190  0.5651
 6756SOL     OW31729   0.425   1.006  16.700  0.4094 -0.0993  0.1037
 6756SOL    HW131730   0.329   1.007  16.693  0.3781 -0.4937  0.4781
 6756SOL    HW231731   0.438   0.938  16.766 -1.8668  0.1622  0.8307
 6757SOL     OW31732   3.230   2.700   2.155  0.5294  0.7768 -0.3182
 6757SOL    HW131733   3.318   2.738   2.154  0.4898  0.8536 -0.9349
 6757SOL    HW231734   3.187   2.737   2.232 -2.1253 -2.8497 -0.0427
 6758SOL     OW31735   4.695   0.636   3.864  0.2067  0.2559 -0.3842
 6758SOL    HW131736   0.069   0.642   3.882 -0.1914 -1.3611  2.2329
 6758SOL    HW231737   4.689   0.621   3.770  0.7322  1.9472 -0.6853
 6759SOL     OW31738   3.686   4.330   9.073 -0.1865  0.4271  0.0577
 6759SOL    HW131739   3.659   4.376   9.152 -1.2865  1.4459 -0.9078
 6759SOL    HW231740   3.599   4.323   9.034  0.2321 -2.9250 -0.2308
 6760SOL     OW31741   2.464   4.356   5.560 -0.9757 -0.3329 -0.4154
 6760SOL    HW131742   2.465   4.264   5.584  0.5296  0.2707  1.8253
 6760SOL    HW231743   2.535   4.391   5.614 -0.3266 -1.7907 -0.3299
 6761SOL     OW31744   0.362   3.169   3.829  0.1837 -0.9904 -0.2044
 6761SOL    HW131745   0.318   3.215   3.757  0.2114  1.6937  1.5192
 6761SOL    HW231746   0.296   3.172   3.897 -1.8160  0.2351 -2.1922
 6762SOL     OW31747   3.124   1.940   0.503 -0.7130 -0.2802 -0.1381
 6762SOL    HW131748   3.140   2.013   0.563 -1.4468  0.7836 -1.2552
 6762SOL    HW231749   3.193   1.878   0.529 -0.5894  0.2380  0.7996
 6763SOL     OW31750   1.222   0.816   2.077  0.2165  0.3500 -0.2986
 6763SOL    HW131751   1.219   0.882   2.007  0.0459  1.2407  0.5517
 6763SOL    HW231752   1.130   0.794   2.093  0.5072 -1.5621 -1.1874
 6764SOL     OW31753   3.996   2.435   3.070 -0.3616 -0.0178 -0.4649
 6764SOL    HW131754   4.068   2.485   3.031 -0.8279  1.8221  1.0318
 6764SOL    HW231755   4.034   2.353   3.100  2.4118  1.7618  0.8321
 6765SOL     OW31756   1.819   2.102  14.047 -0.2778  0.2959  0.1168
 6765SOL    HW131757   1.866   2.136  14.124 -1.7170 -0.6550  1.4237
 6765SOL    HW231758   1.731   2.074  14.073 -0.9211 -1.3278 -3.9238
 6766SOL     OW31759   2.082   2.717   6.206 -0.1244  0.3010 -0.0043
 6766SOL    HW131760   2.009   2.777   6.225 -2.3899 -2.6251  0.4146
 6766SOL    HW231761   2.139   2.780   6.162 -0.5139  1.0385  0.5433
 6767SOL     OW31762   3.359   1.765   6.023  0.1763 -0.1262 -0.0024
 6767SOL    HW131763   3.380   1.692   5.965  1.0342 -1.3654  1.8594
 6767SOL    HW231764   3.342   1.718   6.105  1.7320 -0.2931  0.2181
 6768SOL     OW31765   3.142   1.000   8.079 -0.5216  0.4693  0.7123
 6768SOL    HW131766   3.066   1.047   8.047 -2.5163 -2.1115  1.6398
 6768SOL    HW231767   3.116   0.908   8.072 -0.8555  0.5945  0.3204
 6769SOL     OW31768   2.363   1.695   3.532  0.1317 -0.0734  0.5339
 6769SOL    HW131769   2.303   1.681   3.605  1.5571 -1.1875  1.4953
 6769SOL    HW231770   2.439   1.738   3.572  0.8716 -2.4116  1.6152
 6770SOL     OW31771   1.109   1.812   5.538 -0.3147 -0.4115 -0.2428
 6770SOL    HW131772   1.106   1.898   5.496  0.4714 -0.8622 -1.2115
 6770SOL    HW231773   1.049   1.761   5.483  0.2872  0.2724 -1.5313
 6771SOL     OW31774   2.235   2.314  14.287 -0.4055 -0.2428  0.3470
 6771SOL    HW131775   2.297   2.251  14.323 -0.8523 -0.4427  0.7749
 6771SOL    HW231776   2.290   2.392  14.294 -0.4538 -0.2379  0.7099
 6772SOL     OW31777   0.711   4.045   8.186 -0.7447  0.0838  0.2131
 6772SOL    HW131778   0.759   4.126   8.168  0.5490 -0.4880  1.0771
 6772SOL    HW231779   0.764   3.994   8.125 -0.0594  2.2937 -1.0333
 6773SOL     OW31780   4.321   0.130   8.596 -0.1071  0.2221 -0.3005
 6773SOL    HW131781   4.391   0.080   8.553  0.3723  0.7953 -0.1918
 6773SOL    HW231782   4.257   0.060   8.608  0.8631 -0.7474 -0.7452
 6774SOL     OW31783   0.829   2.733   2.569 -0.0089 -0.0798 -0.1541
 6774SOL    HW131784   0.743   2.694   2.553  0.9694 -1.5995 -1.6794
 6774SOL    HW231785   0.853   2.756   2.480 -0.9405  1.3752 -0.0189
 6775SOL     OW31786   4.662   1.424  13.073  0.4843  0.1003  1.0341
 6775SOL    HW131787   4.574   1.389  13.063  0.4968  0.2743  0.3203
 6775SOL    HW231788   4.688   1.380  13.154  0.8674 -2.0806 -0.2944
 6776SOL     OW31789   4.709   3.001  16.972  0.3224 -0.3303 -0.0803
 6776SOL    HW131790   4.629   2.992  17.024  0.7875  1.3464  0.9535
 6776SOL    HW231791   0.032   2.926  17.014 -0.0352 -1.7109 -2.1921
 6777SOL     OW31792   2.555   3.399   7.330 -0.1931 -0.5655  0.1667
 6777SOL    HW131793   2.472   3.364   7.361  0.0685 -2.1341 -0.9759
 6777SOL    HW231794   2.609   3.323   7.351  1.7348  0.2598 -1.7572
 6778SOL     OW31795   3.897   3.869   7.419  0.2634 -0.2033 -0.1828
 6778SOL    HW131796   3.808   3.843   7.395 -0.2562 -0.3174  1.8705
 6778SOL    HW231797   3.941   3.813   7.355 -1.5440 -0.2361 -1.3933
 6779SOL     OW31798   2.114   2.310   0.479  0.1244 -0.6215  0.0896
 6779SOL    HW131799   2.177   2.294   0.548 -0.9828  1.0280  1.4843
 6779SOL    HW231800   2.166   2.278   0.405  0.2306  0.3771 -0.2671
 6780SOL     OW31801   0.227   4.268  16.888 -0.1867 -0.3347  0.0542
 6780SOL    HW131802   0.305   4.314  16.919 -1.0563  2.4124 -1.8447
 6780SOL    HW231803   0.184   4.267  16.973  1.2095  2.0913  0.8092
 6781SOL     OW31804   4.128   4.516   9.216 -0.1792 -0.2141 -0.5947
 6781SOL    HW131805   4.172   4.526   9.132  1.4388 -0.1573  0.2642
 6781SOL    HW231806   4.187   4.566   9.272  1.3391 -1.8119 -0.7880
 6782SOL     OW31807   0.762   1.082   9.300 -0.2504 -0.2614  0.0299
 6782SOL    HW131808   0.689   1.069   9.361 -1.0292 -2.5539 -1.3989
 6782SOL    HW231809   0.765   1.177   9.308  0.7454 -0.2992  0.0868
 6783SOL     OW31810   2.601   4.542   2.798  0.2511 -0.5879  0.1174
 6783SOL    HW131811   2.643   4.505   2.721  1.3361  0.5583  0.1695
 6783SOL    HW231812   2.529   4.482   2.818 -0.1834  0.2584  1.0887
 6784SOL     OW31813   0.643   3.918  10.753  0.4722  0.2467  0.7419
 6784SOL    HW131814   0.554   3.911  10.720 -0.2625 -1.2183  3.0415
 6784SOL    HW231815   0.655   3.851  10.820 -1.0379 -0.3618  0.4010
 6785SOL     OW31816   2.772   0.383   3.157  0.0863 -0.0023  0.2238
 6785SOL    HW131817   2.846   0.413   3.210 -1.0991  1.4837  1.0377
 6785SOL    HW231818   2.750   0.297   3.192 -1.7069  0.0992 -0.6348
 6786SOL     OW31819   3.561   2.712   4.507 -0.8564 -0.1236 -0.3568
 6786SOL    HW131820   3.653   2.720   4.531 -0.3314 -1.6555 -1.8427
 6786SOL    HW231821   3.559   2.622   4.475  1.6522 -0.3005  0.0106
 6787SOL     OW31822   0.003   1.215   7.663 -0.2951  0.8768  0.3184
 6787SOL    HW131823   4.715   1.275   7.737  0.1843  0.2244  0.8986
 6787SOL    HW231824   0.014   1.129   7.704 -2.6065 -0.5010 -2.0040
 6788SOL     OW31825   1.146   4.384   8.161  0.4193 -0.8046 -0.5602
 6788SOL    HW131826   1.120   4.374   8.253 -0.9210  3.6236 -0.4607
 6788SOL    HW231827   1.217   4.320   8.157  2.0982  1.0785 -0.8397
 6789SOL     OW31828   0.558   0.309   7.702  0.8165  0.1878  0.3516
 6789SOL    HW131829   0.593   0.349   7.781 -1.5676  1.3270  0.8417
 6789SOL    HW231830   0.545   0.385   7.645  0.5012 -0.5092 -0.5148
 6790SOL     OW31831   3.345   0.796   8.676  0.6386 -0.4648  0.2257
 6790SOL    HW131832   3.269   0.836   8.718  1.1993  1.1272 -0.2901
 6790SOL    HW231833   3.412   0.863   8.690  0.1416 -0.2429  1.5735
 6791SOL     OW31834   3.676   2.955   2.387 -0.5697 -0.3910 -0.6376
 6791SOL    HW131835   3.736   2.929   2.317  1.3556  0.4078  0.6895
 6791SOL    HW231836   3.739   2.974   2.457 -1.5126  0.0485  0.0900
 6792SOL     OW31837   0.637   0.641   4.195  0.7193  0.0669  0.2260
 6792SOL    HW131838   0.629   0.733   4.169  0.2185 -0.0392  0.0149
 6792SOL    HW231839   0.711   0.638   4.256  0.7317  1.8782  0.3222
 6793SOL     OW31840   3.820   4.326  12.477 -0.1450 -0.2736  0.3144
 6793SOL    HW131841   3.727   4.340  12.460 -0.4763 -0.1347  2.2037
 6793SOL    HW231842   3.847   4.275  12.401 -0.2477 -1.8988  1.3699
 6794SOL     OW31843   1.299   4.618   9.523  0.1478  0.1050  0.3069
 6794SOL    HW131844   1.313   4.712   9.525  0.4637  0.1021 -1.7869
 6794SOL    HW231845   1.374   4.581   9.477 -0.0466  0.1081 -0.0163
 6795SOL     OW31846   3.065   0.735   4.716  0.8539 -0.0831 -0.2275
 6795SOL    HW131847   3.139   0.774   4.763  0.8729  0.9098 -1.1062
 6795SOL    HW231848   3.008   0.721   4.791  1.6078 -0.2382  0.3246
 6796SOL     OW31849   4.201   4.183  15.884  0.4902  0.1844  0.6283
 6796SOL    HW131850   4.106   4.191  15.888  0.6942  2.1936  1.4154
 6796SOL    HW231851   4.210   4.094  15.919  1.3161 -0.2203 -0.6231
 6797SOL     OW31852   1.544   1.529   5.573  0.1384 -0.5913 -0.2898
 6797SOL    HW131853   1.526   1.437   5.588 -0.2531 -0.2670  1.1949
 6797SOL    HW231854   1.505   1.588   5.638 -0.7607  0.2926 -1.6170
 6798SOL     OW31855   1.066   2.749   4.178  0.3332  0.1516 -0.0118
 6798SOL    HW131856   0.970   2.753   4.176  0.3256 -0.5394 -1.3230
 6798SOL    HW231857   1.074   2.664   4.221  1.5418  0.9051  1.2464
 6799SOL     OW31858   3.964   2.385   5.455 -0.1359 -0.0004 -0.3664
 6799SOL    HW131859   3.991   2.297   5.427 -2.1184 -0.0091 -2.2242
 6799SOL    HW231860   3.922   2.373   5.540 -1.2282  1.1599 -0.7487
 6800SOL     OW31861   2.604   3.828  14.215 -0.6242 -0.0264  0.5307
 6800SOL    HW131862   2.676   3.891  14.215 -0.9029  0.2824 -0.7622
 6800SOL    HW231863   2.594   3.811  14.121 -0.3050  0.8229  0.3415
 6801SOL     OW31864   2.464   1.696  17.566  0.0628 -0.1496  0.2467
 6801SOL    HW131865   2.421   1.740  17.492  1.5495 -2.0688 -1.7283
 6801SOL    HW231866   2.549   1.739  17.558 -0.0872 -0.1683 -1.3487
 6802SOL     OW31867   3.575   4.078   6.156 -0.2238 -0.1752 -0.2076
 6802SOL    HW131868   3.586   4.029   6.237  0.6279  0.7493  0.2424
 6802SOL    HW231869   3.638   4.045   6.092 -0.3860  2.3515 -1.7069
 6803SOL     OW31870   3.671   1.764   7.841  0.5085 -0.8921 -0.0680
 6803SOL    HW131871   3.680   1.682   7.888  2.4666  0.5376  2.0229
 6803SOL    HW231872   3.758   1.800   7.857  0.5691 -1.5016  0.9590
 6804SOL     OW31873   4.252   2.184   2.838  0.5242  0.3501  0.4326
 6804SOL    HW131874   4.249   2.272   2.802 -1.3338 -0.2657 -0.9538
 6804SOL    HW231875   4.332   2.147   2.802 -0.0999 -1.8814  1.2963
 6805SOL     OW31876   1.916   3.376   5.305  0.5380  0.0156  0.0645
 6805SOL    HW131877   1.937   3.375   5.212  1.0553  2.7868  0.1462
 6805SOL    HW231878   1.823   3.365   5.285  0.8698 -1.5584 -0.5940
 6806SOL     OW31879   0.466   2.896   1.843 -0.7979  0.7512 -0.3782
 6806SOL    HW131880   0.440   2.929   1.928 -1.2755  1.6149 -0.8669
 6806SOL    HW231881   0.413   2.817   1.833 -2.2425  1.3536  2.7956
 6807SOL     OW31882   1.912   2.580   1.937 -0.2122  0.0335  0.0818
 6807SOL    HW131883   1.909   2.490   1.972  0.2573  0.1362  0.3936
 6807SOL    HW231884   1.920   2.626   2.021 -1.6098  1.0352 -0.3497
 6808SOL     OW31885   0.997   1.189  16.323  0.0689 -0.4009 -0.9059
 6808SOL    HW131886   1.037   1.250  16.261  0.8813 -0.8114 -0.7778
 6808SOL    HW231887   1.073   1.141  16.355 -0.8547  0.3476  2.3927
 6809SOL     OW31888   3.142   4.102   5.830  0.3617 -0.6086 -0.3646
 6809SOL    HW131889   3.148   4.193   5.802  1.0437 -1.3754 -2.7192
 6809SOL    HW231890   3.199   4.105   5.907  0.5237  2.7213 -0.6331
 6810SOL     OW31891   3.221   3.520   2.584  0.5169  0.6282  0.4622
 6810SOL    HW131892   3.219   3.523   2.488  0.6432 -1.1975  0.3937
 6810SOL    HW231893   3.152   3.583   2.603  0.4829  0.3923  1.1046
 6811SOL     OW31894   4.360   3.232  10.201  0.1104 -0.9189  0.3799
 6811SOL    HW131895   4.394   3.284  10.274  1.4611 -0.4794 -0.5539
 6811SOL    HW231896   4.404   3.267  10.124  2.0065 -1.0601  1.4064
 6812SOL     OW31897   1.797   2.283   5.359 -0.2882  0.4295  0.1317
 6812SOL    HW131898   1.824   2.246   5.443 -1.0030  3.0527  1.5401
 6812SOL    HW231899   1.704   2.262   5.356 -0.0229 -0.6052 -0.9744
 6813SOL     OW31900   0.437   0.960  13.922  0.9546  0.5547 -0.0305
 6813SOL    HW131901   0.351   0.985  13.958  0.3014 -4.7162  2.0605
 6813SOL    HW231902   0.404   0.939  13.835  1.1211 -0.4188  0.1472
 6814SOL     OW31903   0.955   0.410   0.460 -0.0153  0.1219  0.3024
 6814SOL    HW131904   0.896   0.453   0.398 -0.2499  0.1972  0.5753
 6814SOL    HW231905   1.036   0.450   0.428  1.0961 -3.1160 -0.8750
 6815SOL     OW31906   0.426   3.715   6.223  0.0348 -0.1912 -0.0123
 6815SOL    HW131907   0.481   3.643   6.191  1.8516  1.0050  0.4252
 6815SOL    HW231908   0.470   3.731   6.306  0.6732 -1.1284 -0.1669
 6816SOL     OW31909   3.744   1.861   3.441  0.3103  0.7226  0.2799
 6816SOL    HW131910   3.710   1.782   3.400 -2.6959  1.8055  0.7266
 6816SOL    HW231911   3.710   1.926   3.380  0.0842  0.7976  0.4857
 6817SOL     OW31912   3.008   3.653   8.690  0.1065  0.3830  0.3656
 6817SOL    HW131913   3.060   3.628   8.613 -1.3757  1.7919 -1.1144
 6817SOL    HW231914   3.062   3.627   8.764  1.4222 -0.6063 -0.9528
 6818SOL     OW31915   3.878   1.180  12.976 -0.7363  0.5002 -0.0980
 6818SOL    HW131916   3.940   1.158  12.907  1.0171  0.7501  1.4170
 6818SOL    HW231917   3.804   1.123  12.956  0.7654 -1.7152  0.7662
 6819SOL     OW31918   3.029   4.242  10.595 -0.1713 -0.1666 -0.2058
 6819SOL    HW131919   3.087   4.166  10.594 -1.7171 -1.3093 -1.9770
 6819SOL    HW231920   3.085   4.310  10.632 -0.8851  1.2657 -1.7448
 6820SOL     OW31921   3.574   0.690   5.782  0.2059 -0.8718  0.0772
 6820SOL    HW131922   3.514   0.722   5.849  1.6710  0.6778  0.6488
 6820SOL    HW231923   3.608   0.614   5.829  0.3916 -0.5767  0.4170
 6821SOL     OW31924   2.160   2.459  17.416  0.0500 -0.2668  0.2135
 6821SOL    HW131925   2.252   2.431  17.412  0.1678 -0.0290  1.4906
 6821SOL    HW231926   2.114   2.375  17.415 -0.8678  0.2624 -2.2423
 6822SOL     OW31927   1.321   0.696   1.755  0.3042 -0.3318 -0.3404
 6822SOL    HW131928   1.366   0.707   1.671 -1.3163  1.1662 -1.0016
 6822SOL    HW231929   1.322   0.600   1.760  0.6839 -0.2174  2.0032
 6823SOL     OW31930   2.639   4.534   3.411 -0.0040 -0.1734 -0.2784
 6823SOL    HW131931   2.596   4.593   3.349 -1.0879 -0.3449  0.3040
 6823SOL    HW231932   2.618   4.444   3.386  2.2352 -0.9567  0.6817
 6824SOL     OW31933   4.021   4.494   2.478  0.5024  0.2278  1.0436
 6824SOL    HW131934   4.020   4.405   2.515  0.6721  0.7186  2.2404
 6824SOL    HW231935   3.929   4.518   2.463  0.4740 -1.5784 -1.5912
 6825SOL     OW31936   1.688   2.970   3.708 -0.1953  0.2594 -0.1160
 6825SOL    HW131937   1.598   3.002   3.706 -0.3705 -0.4237 -2.7566
 6825SOL    HW231938   1.693   2.925   3.624  1.1487 -0.6349  0.4261
 6826SOL     OW31939   1.261   3.759   6.384  0.2933 -0.0706 -0.5738
 6826SOL    HW131940   1.290   3.668   6.396 -0.1447 -0.4603 -2.3849
 6826SOL    HW231941   1.320   3.806   6.442 -0.5215  2.4772 -1.8435
 6827SOL     OW31942   0.416   1.329  17.123  0.7664 -0.2054 -0.4867
 6827SOL    HW131943   0.366   1.365  17.051  0.6644  3.0294  1.2159
 6827SOL    HW231944   0.367   1.247  17.122  0.6204 -0.1029 -1.3263
 6828SOL     OW31945   2.591   3.455   8.545  0.4213  0.3821  0.0038
 6828SOL    HW131946   2.627   3.408   8.621 -0.0504  1.5029  0.9083
 6828SOL    HW231947   2.660   3.514   8.516  0.2097  0.1054 -1.0983
 6829SOL     OW31948   4.013   3.553  15.498 -0.0976  0.2118 -0.2995
 6829SOL    HW131949   3.939   3.595  15.542  0.3654 -0.4023  1.0557
 6829SOL    HW231950   4.047   3.510  15.577 -0.9417  0.3068  0.1185
 6830SOL     OW31951   1.129   4.546   9.754 -0.1492 -0.3006  0.3323
 6830SOL    HW131952   1.060   4.488   9.721  1.6051 -2.9131  1.3016
 6830SOL    HW231953   1.171   4.578   9.674 -0.5871 -2.4463 -0.7618
 6831SOL     OW31954   3.729   0.514   1.121  0.1639  0.4464 -0.2033
 6831SOL    HW131955   3.667   0.562   1.066 -1.6899 -0.8218  0.7773
 6831SOL    HW231956   3.677   0.458   1.178 -0.5560  0.8328 -0.4883
 6832SOL     OW31957   3.484   0.956   1.285 -0.3999  0.5187  0.0729
 6832SOL    HW131958   3.397   0.948   1.247  0.6857 -2.1264 -1.8759
 6832SOL    HW231959   3.497   0.883   1.346 -0.9505 -0.4464 -0.9729
 6833SOL     OW31960   1.388   3.480  10.336  0.4776  0.1730 -0.1799
 6833SOL    HW131961   1.427   3.537  10.270 -0.8290 -0.2403 -1.3074
 6833SOL    HW231962   1.393   3.393  10.296  0.8748 -0.4087  1.1402
 6834SOL     OW31963   2.444   0.205  17.490 -0.5255 -0.0360  0.3833
 6834SOL    HW131964   2.389   0.140  17.446 -1.2968 -0.0970  1.4375
 6834SOL    HW231965   2.378   0.266  17.523 -1.0217 -0.3715  0.0211
 6835SOL     OW31966   0.226   2.629   3.319 -0.1847 -0.2524  0.0432
 6835SOL    HW131967   0.176   2.680   3.382 -2.6499 -1.4948 -0.8933
 6835SOL    HW231968   0.157   2.568   3.291 -0.7724  1.0615 -1.3459
 6836SOL     OW31969   0.360   4.120   7.418  0.4413  0.2102 -0.2956
 6836SOL    HW131970   0.400   4.187   7.363 -0.0857  0.2330 -0.6529
 6836SOL    HW231971   0.439   4.073   7.442  0.2910 -0.5377 -1.2814
 6837SOL     OW31972   1.178   2.490   1.767 -0.0202 -0.0910 -0.1858
 6837SOL    HW131973   1.175   2.471   1.673 -0.2241  0.8105 -0.3560
 6837SOL    HW231974   1.167   2.401   1.801 -0.4969  0.6267  1.5485
 6838SOL     OW31975   0.911   4.672   4.834 -0.5198 -0.5949  0.1577
 6838SOL    HW131976   0.959   0.035   4.830  0.0628 -1.0812 -2.4661
 6838SOL    HW231977   0.831   4.693   4.785  1.3096  1.6232 -1.8733
 6839SOL     OW31978   2.279   1.501  17.670 -0.1139 -0.6359 -0.2537
 6839SOL    HW131979   2.200   1.538  17.631 -0.4541  1.3999  2.4349
 6839SOL    HW231980   2.349   1.564  17.652 -0.2691 -0.4546 -0.2174
 6840SOL     OW31981   3.054   2.622   3.101 -0.1665  0.1500  0.5072
 6840SOL    HW131982   2.971   2.664   3.126 -1.0768 -0.8290 -0.8101
 6840SOL    HW231983   3.064   2.667   3.017  2.0888 -2.9712 -0.9166
 6841SOL     OW31984   0.528   3.714   3.126 -0.2491 -0.0385  0.1506
 6841SOL    HW131985   0.473   3.739   3.200 -1.0159  0.7811 -0.7079
 6841SOL    HW231986   0.461   3.697   3.060 -0.1885  1.6900 -0.3358
 6842SOL     OW31987   0.328   3.478  13.329  0.2085  0.0283  0.1201
 6842SOL    HW131988   0.271   3.421  13.277 -1.1877  2.9125 -1.4999
 6842SOL    HW231989   0.279   3.487  13.410  0.8082  2.0963  0.2511
 6843SOL     OW31990   2.344   2.582  14.359 -0.5765 -0.4542 -0.7082
 6843SOL    HW131991   2.298   2.613  14.437  1.5013 -2.6930  1.4110
 6843SOL    HW231992   2.314   2.650  14.298  0.7796  0.7197 -0.0631
 6844SOL     OW31993   2.543   1.026  17.504 -0.0234  0.7525  0.6547
 6844SOL    HW131994   2.566   0.938  17.475 -2.0911  0.5997 -0.5001
 6844SOL    HW231995   2.448   1.018  17.516  0.3117  0.5369  3.1128
 6845SOL     OW31996   2.802   4.009   7.686  0.1678 -0.2527 -0.3452
 6845SOL    HW131997   2.775   4.100   7.670  2.5356  0.8969  2.2656
 6845SOL    HW231998   2.732   3.980   7.744 -1.0022  1.7845 -0.7348
 6846SOL     OW31999   4.042   0.497  15.893 -0.1488  0.2961  0.2593
 6846SOL    HW132000   4.111   0.557  15.922 -0.5184  2.7032 -3.8424
 6846SOL    HW232001   3.968   0.539  15.935 -1.2092 -0.5909 -0.7131
 6847SOL     OW32002   1.365   1.102   3.935 -0.6831  0.1298  0.1452
 6847SOL    HW132003   1.431   1.145   3.989 -0.4934 -1.1955  0.9751
 6847SOL    HW232004   1.420   1.055   3.873 -1.7295  0.2516 -0.8708
 6848SOL     OW32005   3.915   0.266   4.475  0.0760  0.0152  0.1415
 6848SOL    HW132006   3.927   0.287   4.568  1.2248  0.9258 -0.2145
 6848SOL    HW232007   3.978   0.196   4.462  1.9315  1.9711 -1.2574
 6849SOL     OW32008   0.507   3.755  11.220 -0.2930  0.5656 -0.5974
 6849SOL    HW132009   0.498   3.664  11.247 -2.6331 -0.0410 -3.4722
 6849SOL    HW232010   0.466   3.755  11.134 -1.1291  0.6463 -0.2056
 6850SOL     OW32011   3.502   4.624  17.190  0.1159  0.6224 -0.3906
 6850SOL    HW132012   3.489   4.714  17.220  0.4053  1.1483 -1.8407
 6850SOL    HW232013   3.542   4.643  17.105 -0.0473 -2.0244 -1.0542
 6851SOL     OW32014   1.845   2.418   4.318  0.2936 -0.0501  0.6396
 6851SOL    HW132015   1.864   2.464   4.236 -0.7432  1.7083  1.3927
 6851SOL    HW232016   1.766   2.461   4.352  0.6205  0.2166  1.0553
 6852SOL     OW32017   1.693   0.820   1.669  0.3867 -0.2055 -0.2860
 6852SOL    HW132018   1.700   0.806   1.764  3.0000 -1.4098 -0.6716
 6852SOL    HW232019   1.739   0.742   1.639  0.2117 -0.2562 -0.4221
 6853SOL     OW32020   0.970   1.916   4.649 -0.2991  0.1973 -0.2515
 6853SOL    HW132021   1.052   1.872   4.624 -1.7076 -2.9244  0.6735
 6853SOL    HW232022   0.946   1.964   4.569 -1.5176 -1.0123 -0.6016
 6854SOL     OW32023   4.308   1.488   8.029  0.2531  0.0598  0.0757
 6854SOL    HW132024   4.221   1.448   8.037  0.8317 -1.0345  0.8596
 6854SOL    HW232025   4.363   1.410   8.037  0.9620  0.5423 -0.1051
 6855SOL     OW32026   4.212   2.946   3.060 -0.0296  0.3638  0.0652
 6855SOL    HW132027   4.267   2.909   3.130 -0.5537  0.0536  0.3099
 6855SOL    HW232028   4.254   3.033   3.054 -0.6350  0.5436 -1.3597
 6856SOL     OW32029   0.173   0.257   5.770 -0.2110 -0.0395  0.8486
 6856SOL    HW132030   0.230   0.334   5.767 -0.2946  0.0416  1.3983
 6856SOL    HW232031   0.183   0.225   5.680 -0.1850 -0.9540  1.1793
 6857SOL     OW32032   3.229   4.524   9.565  0.2463  0.3480  0.1379
 6857SOL    HW132033   3.183   4.604   9.540 -2.2391 -1.1264 -0.0126
 6857SOL    HW232034   3.237   4.477   9.482 -0.9198 -0.2337  0.3608
 6858SOL     OW32035   3.552   0.477  14.696 -0.0033 -0.0887  0.1091
 6858SOL    HW132036   3.608   0.500  14.769 -3.2179 -0.3668  2.6571
 6858SOL    HW232037   3.469   0.519  14.721  0.4535 -0.0859  1.6148
 6859SOL     OW32038   2.553   1.980   6.671 -0.0522 -0.5314  0.4485
 6859SOL    HW132039   2.590   2.039   6.606 -0.0653 -1.4625 -0.4092
 6859SOL    HW232040   2.573   2.029   6.751  0.3814 -0.3014  0.1991
 6860SOL     OW32041   0.023   1.771   5.996 -0.5857 -0.3755 -0.1806
 6860SOL    HW132042   4.689   1.697   6.025 -0.6222 -0.3437 -0.1678
 6860SOL    HW232043   0.013   1.770   5.900 -1.6897  3.3656 -0.0884
 6861SOL     OW32044   3.837   0.581   3.248  0.1842  0.0472 -0.1443
 6861SOL    HW132045   3.919   0.538   3.275 -0.6564 -0.6383  1.3327
 6861SOL    HW232046   3.848   0.578   3.153 -0.5076  1.2262 -0.2583
 6862SOL     OW32047   0.397   0.247   3.796 -0.3919 -0.6023 -0.1870
 6862SOL    HW132048   0.382   0.337   3.766 -0.3020 -0.7853 -0.7764
 6862SOL    HW232049   0.314   0.244   3.845 -0.3118  2.8473  0.2072
 6863SOL     OW32050   0.883   1.342   5.623 -0.2221 -0.1528 -0.1483
 6863SOL    HW132051   0.794   1.318   5.596 -0.1013 -1.4109  0.5713
 6863SOL    HW232052   0.866   1.432   5.652 -2.4913 -0.7592  0.3987
 6864SOL     OW32053   2.299   3.134   7.962 -0.2332 -0.0577  0.0310
 6864SOL    HW132054   2.290   3.224   7.992  1.1277 -0.2233  0.9300
 6864SOL    HW232055   2.345   3.087   8.031  0.8563  0.6195 -0.2281
 6865SOL     OW32056   1.880   1.471  13.073  0.0292  0.2163  0.0280
 6865SOL    HW132057   1.878   1.531  12.998  1.9265  0.3614  0.1036
 6865SOL    HW232058   1.822   1.399  13.049  0.9536 -0.2910 -0.7118
 6866SOL     OW32059   0.913   4.000  15.544  0.3325 -0.3223 -0.5322
 6866SOL    HW132060   0.888   4.085  15.509 -1.7095 -0.2582  1.1148
 6866SOL    HW232061   1.004   3.995  15.514  0.7187  0.7886  0.4702
 6867SOL     OW32062   4.287   1.019  12.710 -0.4900  0.1183 -0.4434
 6867SOL    HW132063   4.381   1.025  12.722 -0.6009 -2.5657  1.7619
 6867SOL    HW232064   4.280   1.017  12.615  0.1357  1.0594 -0.5072
 6868SOL     OW32065   1.332   1.562   7.390  0.4463  0.0621 -0.4510
 6868SOL    HW132066   1.364   1.560   7.300  2.3202  1.7535  0.1742
 6868SOL    HW232067   1.320   1.657   7.398 -0.6526 -0.1483  0.3864
 6869SOL     OW32068   2.246   1.153   2.203  0.5550  0.4647  0.0521
 6869SOL    HW132069   2.290   1.189   2.126 -1.2982 -0.9612 -1.6685
 6869SOL    HW232070   2.313   1.144   2.270 -0.6376  1.4431  1.3919
 6870SOL     OW32071   2.522   4.121  12.681  0.0100  0.3291  0.2390
 6870SOL    HW132072   2.529   4.083  12.594 -0.8288 -1.2667  0.8676
 6870SOL    HW232073   2.540   4.212  12.660  0.1878  0.0452 -0.8388
 6871SOL     OW32074   0.978   3.813  16.258 -0.3764  0.2185  0.4412
 6871SOL    HW132075   0.976   3.873  16.332  0.0204  1.1964 -0.3545
 6871SOL    HW232076   0.898   3.826  16.207  1.0454  2.7831 -1.1044
 6872SOL     OW32077   1.207   4.588   2.554 -0.2229  0.3091  0.0738
 6872SOL    HW132078   1.159   4.666   2.529  1.5748  0.6214 -2.4195
 6872SOL    HW232079   1.286   4.600   2.501 -0.4825  0.5098 -0.2699
 6873SOL     OW32080   1.136   1.880   3.086 -0.0250  0.0065  0.2598
 6873SOL    HW132081   1.185   1.958   3.062  0.4710 -1.7699 -4.3681
 6873SOL    HW232082   1.046   1.912   3.091  0.6463  1.6995  1.5455
 6874SOL     OW32083   0.295   3.102   8.725 -0.0986 -0.2296 -0.5330
 6874SOL    HW132084   0.321   3.155   8.650  0.0595  0.5468  0.0666
 6874SOL    HW232085   0.200   3.105   8.719  0.0782  0.3435 -3.2368
 6875SOL     OW32086   0.899   4.586  16.173  0.2089  0.3465  0.2608
 6875SOL    HW132087   0.915   4.674  16.207  1.1928 -0.4448  1.8187
 6875SOL    HW232088   0.807   4.592  16.145 -0.2815 -0.4642  1.6780
 6876SOL     OW32089   0.295   1.772  13.456 -0.5058 -0.6330 -0.3531
 6876SOL    HW132090   0.342   1.813  13.529  2.6577 -0.3552 -2.5308
 6876SOL    HW232091   0.263   1.853  13.418 -0.3493 -0.8535 -0.9561
 6877SOL     OW32092   3.384   0.290   3.707 -0.2878 -0.4636  0.2871
 6877SOL    HW132093   3.467   0.248   3.684  0.1951  0.6384 -0.0184
 6877SOL    HW232094   3.412   0.335   3.787 -2.0294 -0.9639  1.1805
 6878SOL     OW32095   3.134   4.645  14.018 -0.2760  0.1263 -0.4797
 6878SOL    HW132096   3.147   4.670  14.109  1.5538  0.1594 -0.7575
 6878SOL    HW232097   3.041   4.620  14.013 -0.0947 -0.6854  0.1787
 6879SOL     OW32098   1.784   0.618   7.248  0.5673 -0.3732 -0.0820
 6879SOL    HW132099   1.764   0.696   7.300 -0.9587  0.2886 -1.6773
 6879SOL    HW232100   1.847   0.571   7.304  3.0779  1.4054 -1.4121
 6880SOL     OW32101   2.681   4.630   7.942 -0.0577  0.7112  0.3591
 6880SOL    HW132102   2.709   4.557   7.886 -0.9993  1.2804 -0.8724
 6880SOL    HW232103   2.757   4.627   8.000  0.0061  0.6820  0.2737
 6881SOL     OW32104   1.533   2.647   5.492 -0.0665  0.2854 -0.2537
 6881SOL    HW132105   1.609   2.595   5.521 -0.7756 -1.2315 -1.1565
 6881SOL    HW232106   1.545   2.638   5.398  1.0929  0.6874 -0.1523
 6882SOL     OW32107   0.171   3.440   6.618  0.0880 -0.5447  0.4123
 6882SOL    HW132108   0.158   3.347   6.634  2.7270 -1.1937 -1.1862
 6882SOL    HW232109   0.181   3.472   6.708 -2.2776  2.1838 -0.2803
 6883SOL     OW32110   1.667   1.681   4.911  0.1076 -0.1942 -0.1493
 6883SOL    HW132111   1.711   1.671   4.995  0.5791  0.4506 -0.3158
 6883SOL    HW232112   1.576   1.698   4.935  0.7128  2.1286  0.5355
 6884SOL     OW32113   1.020   2.795   3.436  0.1087  0.3014 -0.1124
 6884SOL    HW132114   1.063   2.847   3.369 -0.3422 -0.3672 -0.9154
 6884SOL    HW232115   0.928   2.818   3.425  0.0224 -0.6511 -1.3543
 6885SOL     OW32116   1.657   1.127   9.905 -0.1061  0.1614 -0.4165
 6885SOL    HW132117   1.676   1.093   9.993  0.0630  1.3278 -0.0035
 6885SOL    HW232118   1.696   1.050   9.863  0.9400  1.5398 -1.9648
 6886SOL     OW32119   4.604   3.389   4.465  0.0781  0.4640  0.4830
 6886SOL    HW132120   4.512   3.362   4.456  0.3548 -0.8089  1.5324
 6886SOL    HW232121   4.651   3.310   4.438 -0.0658  0.8673 -0.9605
 6887SOL     OW32122   0.284   0.655   3.830 -0.0691  0.2057 -0.2644
 6887SOL    HW132123   0.277   0.741   3.789  1.1194  0.2974 -0.2700
 6887SOL    HW232124   0.311   0.677   3.920 -0.9114  0.1166  0.0060
 6888SOL     OW32125   0.953   3.856  10.936  0.3049  0.0835  0.6977
 6888SOL    HW132126   0.912   3.837  11.020 -0.7250 -1.0446 -0.0633
 6888SOL    HW232127   0.939   3.775  10.888  1.2606  0.0278  0.5172
 6889SOL     OW32128   4.160   2.745   3.520  0.0452 -0.6823 -0.8315
 6889SOL    HW132129   4.066   2.728   3.520  0.0110 -0.4902  0.2108
 6889SOL    HW232130   4.165   2.781   3.608 -0.1121 -0.9037 -0.7321
 6890SOL     OW32131   0.971   2.382   9.980 -0.7301 -0.0722 -0.4566
 6890SOL    HW132132   1.020   2.300   9.969  0.5129  0.4753  0.9287
 6890SOL    HW232133   0.938   2.391   9.891  1.0564  0.2185 -1.0880
 6891SOL     OW32134   1.196   2.925   1.552 -0.3275 -0.8742 -0.3395
 6891SOL    HW132135   1.168   2.919   1.460  0.8962 -2.4438 -0.6116
 6891SOL    HW232136   1.252   3.002   1.544 -1.5711 -0.0333 -0.9909
 6892SOL     OW32137   1.618   4.541   6.273  0.8612 -0.2839  0.4675
 6892SOL    HW132138   1.685   4.474   6.257  0.9663  0.2564 -1.3940
 6892SOL    HW232139   1.580   4.527   6.186 -1.1444  1.1726  1.1084
 6893SOL     OW32140   4.080   2.116   7.017 -0.5334 -0.3066 -0.6402
 6893SOL    HW132141   4.031   2.084   6.941 -0.0548 -1.7819 -0.3099
 6893SOL    HW232142   4.143   2.178   6.979  0.7517 -1.2803 -0.0800
 6894SOL     OW32143   2.955   2.664   5.488  0.6221  0.4274 -0.0549
 6894SOL    HW132144   2.921   2.639   5.402 -2.5742 -1.4669  1.7598
 6894SOL    HW232145   2.882   2.654   5.550  0.1065 -0.2579 -0.7655
 6895SOL     OW32146   1.396   3.239  17.503 -0.0354  0.4475 -0.1252
 6895SOL    HW132147   1.345   3.316  17.528 -1.6090 -1.6611  3.0661
 6895SOL    HW232148   1.353   3.174  17.558  0.0161  1.3239  0.9342
 6896SOL     OW32149   4.395   1.971  14.469  0.5665 -0.4768  0.2919
 6896SOL    HW132150   4.397   1.937  14.558  2.2457  1.6676  1.0467
 6896SOL    HW232151   4.484   1.948  14.444  0.8995 -2.5248  3.4736
 6897SOL     OW32152   1.297   4.467  15.673 -0.3368 -0.8107 -0.4830
 6897SOL    HW132153   1.325   4.548  15.631 -0.3547 -0.7927 -0.4608
 6897SOL    HW232154   1.305   4.408  15.598  1.5820 -1.2231  0.0611
 6898SOL     OW32155   0.427   2.659  10.400  0.0963  0.1287  0.0075
 6898SOL    HW132156   0.404   2.585  10.343  2.4570  0.6082 -1.5714
 6898SOL    HW232157   0.480   2.715  10.344  1.5367 -2.4937 -1.2552
 6899SOL     OW32158   0.662   2.165  15.738  0.0210 -0.2551  0.3469
 6899SOL    HW132159   0.692   2.226  15.806 -1.1879  0.8609 -0.1279
 6899SOL    HW232160   0.580   2.201  15.705  0.6456  0.9019  0.0568
 6900SOL     OW32161   0.891   0.778   4.819  0.4104 -0.2777 -0.6203
 6900SOL    HW132162   0.825   0.784   4.750 -1.1384  1.9542  1.0170
 6900SOL    HW232163   0.837   0.739   4.888  0.0646 -0.4252 -0.9745
 6901SOL     OW32164   2.848   2.922   2.015 -0.6695  0.0743 -0.4786
 6901SOL    HW132165   2.811   2.843   1.976 -2.6241  0.8525 -0.2271
 6901SOL    HW232166   2.772   2.973   2.044 -1.2933 -2.3647  2.2154
 6902SOL     OW32167   3.522   0.040   6.802 -0.1168  0.2067  0.1303
 6902SOL    HW132168   3.557   0.012   6.717  0.2623 -0.9351  0.6658
 6902SOL    HW232169   3.473   4.684   6.832 -1.1425  0.5771 -0.5929
 6903SOL     OW32170   2.645   3.963   0.598 -0.0489  0.1820  0.3628
 6903SOL    HW132171   2.582   4.015   0.548 -0.7480  0.3039  1.3601
 6903SOL    HW232172   2.637   3.881   0.549  1.5912 -0.3822  1.0492
 6904SOL     OW32173   4.215   3.678   6.140  0.1778  0.1844  0.1668
 6904SOL    HW132174   4.143   3.664   6.202 -0.0943 -1.1400 -0.4388
 6904SOL    HW232175   4.182   3.748   6.085 -0.7326  1.7291  2.6735
 6905SOL     OW32176   2.872   2.185   7.259  0.1586  0.1390 -0.1899
 6905SOL    HW132177   2.801   2.139   7.214  1.1206  0.1973 -1.7688
 6905SOL    HW232178   2.929   2.112   7.282  0.5472  0.8387  1.0513
 6906SOL     OW32179   2.280   0.384   1.199  0.0945 -0.3203  0.2142
 6906SOL    HW132180   2.327   0.429   1.128 -0.1165 -0.8567 -0.2697
 6906SOL    HW232181   2.191   0.385   1.165  0.6768  0.1166 -1.3378
 6907SOL     OW32182   0.871   2.741   7.449 -0.1027  0.0554 -0.2577
 6907SOL    HW132183   0.832   2.668   7.497 -0.6675  0.3452 -0.2750
 6907SOL    HW232184   0.952   2.741   7.500  1.3027  0.1215 -2.5132
 6908SOL     OW32185   2.964   1.533   7.482 -0.3849 -0.2548 -0.0081
 6908SOL    HW132186   2.897   1.503   7.420 -1.6938 -0.7072  1.5964
 6908SOL    HW232187   2.962   1.628   7.482  2.0064 -0.2078 -1.6590
 6909SOL     OW32188   3.232   2.057  11.096  0.5265  0.1116  0.6155
 6909SOL    HW132189   3.202   2.141  11.129 -1.1521 -0.3732  0.3320
 6909SOL    HW232190   3.247   2.085  11.005 -0.7234  0.3163  0.4727
 6910SOL     OW32191   4.286   3.242   4.136 -0.1976 -0.3194 -0.1532
 6910SOL    HW132192   4.312   3.152   4.116  0.1452 -0.0168 -1.0610
 6910SOL    HW232193   4.193   3.220   4.125  0.0586 -1.6120  0.1987
 6911SOL     OW32194   3.773   0.725   6.787 -0.0042  0.8849  0.6849
 6911SOL    HW132195   3.752   0.818   6.778  0.9992  1.2218  1.7628
 6911SOL    HW232196   3.770   0.712   6.882  0.6731 -1.2960  0.4170
 6912SOL     OW32197   4.472   0.413   2.011  0.2758 -0.0030 -0.4037
 6912SOL    HW132198   4.512   0.498   1.991  0.2000  0.1665  0.1642
 6912SOL    HW232199   4.421   0.390   1.933 -0.4797  1.5711 -0.3890
 6913SOL     OW32200   1.236   3.058   7.137 -0.7357  0.1496  0.4377
 6913SOL    HW132201   1.265   3.140   7.097 -0.0582 -0.0951  0.4329
 6913SOL    HW232202   1.199   3.086   7.221  1.5320 -0.3065  1.5608
 6914SOL     OW32203   3.328   0.213   2.974 -0.1257  0.1860  0.0307
 6914SOL    HW132204   3.284   0.236   3.056 -2.3297 -0.3534 -0.9909
 6914SOL    HW232205   3.263   0.244   2.910 -0.0372 -1.7123 -0.9866
 6915SOL     OW32206   3.481   0.019   1.123 -0.0619  0.4505  0.0635
 6915SOL    HW132207   3.537   4.703   1.054 -1.0823 -0.9253 -0.0343
 6915SOL    HW232208   3.411   0.038   1.061 -0.7808  0.7806  0.9721
 6916SOL     OW32209   0.239   1.124   2.139  0.5107 -0.0890  0.7051
 6916SOL    HW132210   0.222   1.036   2.105 -1.7251  0.9010 -0.7741
 6916SOL    HW232211   0.309   1.109   2.203  0.5480  1.0237  0.9202
 6917SOL     OW32212   3.087   3.789   8.161 -0.1871  0.4616 -0.1927
 6917SOL    HW132213   3.051   3.757   8.244 -0.3418 -1.0483 -0.8285
 6917SOL    HW232214   3.182   3.793   8.173 -0.4578 -0.2828  2.2686
 6918SOL     OW32215   2.880   0.090   7.454  0.6940 -0.0800  0.4571
 6918SOL    HW132216   2.924   0.058   7.533 -1.2504 -1.4197  1.0213
 6918SOL    HW232217   2.948   0.127   7.399  1.1712  0.4328  1.3898
 6919SOL     OW32218   1.361   1.321   1.101 -0.5545 -1.0446 -0.2604
 6919SOL    HW132219   1.442   1.278   1.130  0.4506  1.8590  1.2106
 6919SOL    HW232220   1.330   1.257   1.037 -0.8688  0.3435 -1.5046
 6920SOL     OW32221   2.512   3.413   4.125  0.1840  0.6091 -0.3070
 6920SOL    HW132222   2.568   3.344   4.090  1.9381  1.5700  0.6118
 6920SOL    HW232223   2.445   3.407   4.057  1.6630 -0.2543 -1.6771
 6921SOL     OW32224   0.461   4.716   6.837  0.0848 -0.2546  0.2373
 6921SOL    HW132225   0.375   4.717   6.796 -0.3586 -0.9198  1.1422
 6921SOL    HW232226   0.511   4.688   6.760  0.6132  4.1282 -1.0070
 6922SOL     OW32227   1.099   4.174   1.984  0.3120  0.5109  0.1900
 6922SOL    HW132228   1.116   4.081   1.964 -0.1011  0.8547 -1.7310
 6922SOL    HW232229   1.093   4.213   1.897  0.1775 -1.7922 -0.8461
 6923SOL     OW32230   3.336   4.539   4.262 -1.0919  0.0964 -0.1632
 6923SOL    HW132231   3.301   4.475   4.325  2.7468 -0.2900  1.5954
 6923SOL    HW232232   3.431   4.542   4.279 -0.6111  0.1009 -2.7808
 6924SOL     OW32233   0.066   2.755   2.722  0.3982  0.5908 -0.4247
 6924SOL    HW132234   0.158   2.733   2.741 -0.2594 -0.4151  1.5305
 6924SOL    HW232235   0.021   2.717   2.797 -1.8443 -0.4481 -2.2955
 6925SOL     OW32236   3.124   1.207   7.051 -0.0080  0.1917  0.3504
 6925SOL    HW132237   3.082   1.163   6.977 -2.2432  2.4786  0.2412
 6925SOL    HW232238   3.060   1.192   7.120 -1.8491 -0.6152 -1.5388
 6926SOL     OW32239   0.522   3.847   4.639  0.1596  0.0986 -0.0991
 6926SOL    HW132240   0.464   3.797   4.696 -0.0922 -0.2136 -0.6210
 6926SOL    HW232241   0.518   3.795   4.558  0.0475  2.2170 -1.4768
 6927SOL     OW32242   1.851   1.565   7.864 -0.2067 -0.1381 -0.7527
 6927SOL    HW132243   1.874   1.656   7.844 -0.6340  0.4997  1.6613
 6927SOL    HW232244   1.819   1.572   7.954  0.8355  1.5165 -0.5179
 6928SOL     OW32245   4.672   2.439   6.699  0.6806  0.3536 -0.2648
 6928SOL    HW132246   4.711   2.519   6.664  2.1541 -0.4667 -0.4906
 6928SOL    HW232247   4.633   2.405   6.618 -0.8878  3.2225 -0.7185
 6929SOL     OW32248   4.007   2.120  15.925  0.0652  0.4962  0.4122
 6929SOL    HW132249   4.009   2.180  15.851  1.4875 -0.4678 -0.3267
 6929SOL    HW232250   3.993   2.042  15.871  1.4891 -0.0443  0.8226
 6930SOL     OW32251   3.407   0.607   8.478 -0.0632 -0.2430 -0.2069
 6930SOL    HW132252   3.410   0.649   8.565  0.6687  0.2218 -0.4489
 6930SOL    HW232253   3.317   0.580   8.461 -0.2819 -1.3349  2.7479
 6931SOL     OW32254   3.731   1.906  11.898  0.1257  0.1984  0.1012
 6931SOL    HW132255   3.722   1.910  11.993  0.4705 -0.1975  0.1493
 6931SOL    HW232256   3.673   1.965  11.850  1.7983  1.7889  0.0491
 6932SOL     OW32257   1.009   4.157   4.513 -0.3584  0.0528 -0.3249
 6932SOL    HW132258   0.988   4.222   4.446  0.5592 -0.8228 -1.4721
 6932SOL    HW232259   1.033   4.078   4.466 -0.1762  0.1513 -0.4000
 6933SOL     OW32260   2.106   3.058  14.442 -0.1572  0.2373  0.4122
 6933SOL    HW132261   2.034   3.070  14.504  0.3280 -0.8719  1.1762
 6933SOL    HW232262   2.080   3.124  14.377  1.1248 -0.2140 -0.5645
 6934SOL     OW32263   4.325   2.141   4.755 -0.1405 -0.2342 -0.5186
 6934SOL    HW132264   4.313   2.056   4.711  1.2389 -0.9962  0.5768
 6934SOL    HW232265   4.417   2.143   4.779 -0.4278  0.3703  0.5313
 6935SOL     OW32266   2.679   3.016  11.758  0.1692  0.3161  0.5183
 6935SOL    HW132267   2.668   2.973  11.843  0.2597  1.7089  1.2467
 6935SOL    HW232268   2.598   3.067  11.765 -2.3320 -3.6053  0.0408
 6936SOL     OW32269   4.698   3.229   5.126  0.4844  0.1077 -0.7894
 6936SOL    HW132270   0.044   3.239   5.057  0.0720  2.2374 -0.8603
 6936SOL    HW232271   4.694   3.319   5.159  0.7596 -0.1693 -0.0124
 6937SOL     OW32272   4.067   1.609  16.349  0.1633  0.1021  0.2154
 6937SOL    HW132273   4.048   1.636  16.439 -1.6671  0.2015 -0.1987
 6937SOL    HW232274   4.063   1.513  16.354 -1.0333  0.1623  0.5783
 6938SOL     OW32275   0.004   3.918   8.468 -0.4646 -0.0142 -0.0256
 6938SOL    HW132276   0.074   3.974   8.434 -1.4705  0.0141 -2.0468
 6938SOL    HW232277   0.060   3.841   8.482 -1.0531 -0.1031  1.7928
 6939SOL     OW32278   3.650   0.090  14.269  0.0774 -0.2471  0.5803
 6939SOL    HW132279   3.650   0.166  14.328  0.7556  0.3872 -0.2402
 6939SOL    HW232280   3.662   0.128  14.182  1.2258 -2.2669 -0.1349
 6940SOL     OW32281   4.697   1.572   6.289 -0.7634  0.8444  0.2670
 6940SOL    HW132282   4.622   1.618   6.250 -1.0136 -0.6492 -1.0049
 6940SOL    HW232283   4.702   1.629   6.366 -3.1952 -0.1969  1.1774
 6941SOL     OW32284   3.024   3.350   3.759  0.4007 -0.1826  0.1104
 6941SOL    HW132285   3.111   3.382   3.784  0.3385  0.2446 -0.2237
 6941SOL    HW232286   2.963   3.380   3.827 -0.1347 -0.2116 -0.3633
 6942SOL     OW32287   0.249   2.496   6.221  0.1849 -0.6018  0.0563
 6942SOL    HW132288   0.266   2.505   6.127  0.6623 -0.7415  0.1312
 6942SOL    HW232289   0.263   2.588   6.243 -1.4480 -0.2062 -0.5571
 6943SOL     OW32290   1.336   3.906   4.739 -0.5071 -0.1982 -0.2308
 6943SOL    HW132291   1.321   3.955   4.659  0.0616  0.7568  0.2357
 6943SOL    HW232292   1.404   3.842   4.718 -0.3033 -0.5887  1.5668
 6944SOL     OW32293   2.475   1.317   3.794 -0.1112  0.2973 -0.1195
 6944SOL    HW132294   2.497   1.321   3.887  1.6740  0.1615 -0.5272
 6944SOL    HW232295   2.500   1.228   3.769  0.6954 -0.4172  3.2344
 6945SOL     OW32296   1.194   2.625  10.630  0.5985  0.8740 -0.2877
 6945SOL    HW132297   1.184   2.602  10.722  0.1546 -1.4617 -0.9257
 6945SOL    HW232298   1.280   2.583  10.618 -0.3181 -1.1602  0.2564
 6946SOL     OW32299   4.609   4.502   4.015  0.4150 -0.0614  0.1299
 6946SOL    HW132300   4.546   4.533   4.080 -0.5644 -1.3513 -0.1956
 6946SOL    HW232301   4.550   4.439   3.973 -2.7511  2.4701  0.8350
 6947SOL     OW32302   3.852   4.154   5.729 -0.6158  0.2545 -0.0988
 6947SOL    HW132303   3.857   4.185   5.639 -2.0693  0.1605 -0.2174
 6947SOL    HW232304   3.777   4.094   5.734 -3.2589  3.3594 -2.5560
 6948SOL     OW32305   4.081   4.187   1.288  0.1478 -0.1217  0.2435
 6948SOL    HW132306   4.003   4.225   1.327 -0.5819 -1.2065 -0.1707
 6948SOL    HW232307   4.094   4.257   1.224  0.4639 -1.6358 -1.3568
 6949SOL     OW32308   2.445   4.396   6.922  0.0539  0.3686  0.7960
 6949SOL    HW132309   2.433   4.406   6.827  2.0243  1.8280  0.6991
 6949SOL    HW232310   2.362   4.362   6.954  0.1523 -0.0884  0.5602
 6950SOL     OW32311   0.809   2.773  10.308 -0.3152  0.0976 -0.4846
 6950SOL    HW132312   0.827   2.724  10.228  0.6658  1.4544 -1.0939
 6950SOL    HW232313   0.883   2.737  10.357  1.3571  0.9758 -2.3545
 6951SOL     OW32314   1.443   1.896   2.494  0.2104  0.6575 -0.5433
 6951SOL    HW132315   1.442   1.991   2.490  0.4424  0.7367  1.5928
 6951SOL    HW232316   1.378   1.882   2.563 -0.8040 -0.1209 -1.6343
 6952SOL     OW32317   1.267   0.301   6.207 -0.5530  0.3636 -0.2018
 6952SOL    HW132318   1.289   0.384   6.164 -0.8875  1.0969  1.0231
 6952SOL    HW232319   1.229   0.259   6.130  0.6786 -1.6749  0.3129
 6953SOL     OW32320   3.177   2.143   3.172  0.0183 -0.5502  0.5489
 6953SOL    HW132321   3.272   2.149   3.186  0.1174  0.4205 -0.5433
 6953SOL    HW232322   3.169   2.071   3.109  0.1330 -1.0371  1.0847
 6954SOL     OW32323   0.069   2.748   0.563  0.8997 -0.0183 -0.7006
 6954SOL    HW132324   0.022   2.676   0.605  0.3038  0.4983 -0.4817
 6954SOL    HW232325   0.151   2.718   0.602  0.1006 -0.2494  0.8125
 6955SOL     OW32326   3.943   0.530  15.245 -0.3669 -0.2392  0.1415
 6955SOL    HW132327   3.912   0.491  15.326 -2.1230  0.2081 -0.3098
 6955SOL    HW232328   4.038   0.538  15.253  0.2059 -4.7008 -2.3181
 6956SOL     OW32329   1.119   2.111   2.090  0.2567 -0.5730  0.2136
 6956SOL    HW132330   1.112   2.139   1.999  2.4043  2.7140  1.0479
 6956SOL    HW232331   1.204   2.067   2.081  0.5976 -0.1831  1.4515
 6957SOL     OW32332   4.308   1.611   2.552 -0.4237  0.2834  0.0823
 6957SOL    HW132333   4.336   1.577   2.467 -0.0497  1.9052 -0.4559
 6957SOL    HW232334   4.235   1.555   2.575 -0.7456  0.7542  0.2026
 6958SOL     OW32335   1.109   1.393   7.958 -0.5355  0.1547 -0.5917
 6958SOL    HW132336   1.102   1.393   7.863  0.9204  0.0703 -0.7063
 6958SOL    HW232337   1.184   1.334   7.962  1.1365  2.3223 -0.0816
 6959SOL     OW32338   1.545   4.712  12.602 -0.4035  0.6256 -0.1018
 6959SOL    HW132339   1.534   4.640  12.663 -3.3073  0.8893 -0.3305
 6959SOL    HW232340   1.605   0.049  12.651  0.8589  0.7111 -1.7365
 6960SOL     OW32341   1.614   0.095   8.407 -0.3201  0.1842  0.0376
 6960SOL    HW132342   1.667   0.158   8.358  1.8869 -0.9862  0.9467
 6960SOL    HW232343   1.524   0.103   8.376  0.0161 -1.8292 -1.4635
 6961SOL     OW32344   1.613   0.439   7.734 -0.0395 -0.3899  0.4695
 6961SOL    HW132345   1.550   0.481   7.676  0.5021 -1.4956 -0.9303
 6961SOL    HW232346   1.598   0.345   7.723 -3.3778  0.0722  1.0171
 6962SOL     OW32347   4.431   3.784   1.684 -0.4510  0.5712  0.2202
 6962SOL    HW132348   4.522   3.789   1.712 -0.3583 -1.4823  0.3309
 6962SOL    HW232349   4.437   3.794   1.589 -1.4368  1.6577  0.2798
 6963SOL     OW32350   2.567   1.052   3.682 -0.0576 -0.3622 -0.4617
 6963SOL    HW132351   2.565   0.956   3.679 -0.1371 -0.3733 -0.0120
 6963SOL    HW232352   2.594   1.062   3.591  0.0448 -0.4268 -0.4385
 6964SOL     OW32353   2.425   2.575   2.479  0.0417  0.1645 -0.5385
 6964SOL    HW132354   2.455   2.666   2.476  0.3920  0.0664 -0.1168
 6964SOL    HW232355   2.332   2.596   2.473  0.0320  0.7070  1.2875
 6965SOL     OW32356   2.261   2.812   3.613 -0.8154  0.4522 -0.6167
 6965SOL    HW132357   2.291   2.836   3.700  0.9847  1.3437 -1.4890
 6965SOL    HW232358   2.173   2.849   3.615 -0.6294  0.9888 -2.4257
 6966SOL     OW32359   0.664   4.536   1.719  0.2903 -0.3260  0.1735
 6966SOL    HW132360   0.675   4.576   1.805 -0.5221 -0.9905  0.5939
 6966SOL    HW232361   0.574   4.558   1.692 -0.0064 -0.2276  1.2473
 6967SOL     OW32362   1.371   0.286   9.849 -0.1155  0.1889  0.0940
 6967SOL    HW132363   1.326   0.264   9.768 -0.4624 -0.5041  0.4754
 6967SOL    HW232364   1.294   0.320   9.895 -1.3283 -0.7999 -1.2305
 6968SOL     OW32365   0.652   4.625   3.074  0.3718  0.1030  0.0729
 6968SOL    HW132366   0.723   4.589   3.126  0.1840 -2.5943 -1.5154
 6968SOL    HW232367   0.649   4.711   3.115  0.7745 -0.2198  0.7763
 6969SOL     OW32368   1.203   4.183   9.795  0.8970 -0.0445  0.4003
 6969SOL    HW132369   1.145   4.197   9.869 -1.3582  0.4670 -1.4710
 6969SOL    HW232370   1.152   4.150   9.721  0.4279  2.4746 -0.3951
 6970SOL     OW32371   0.708   1.241   4.588  0.0195  0.4035  0.1822
 6970SOL    HW132372   0.615   1.249   4.569  0.3300  2.1656 -0.5675
 6970SOL    HW232373   0.703   1.261   4.681  0.2565  1.4293 -0.0283
 6971SOL     OW32374   0.775   2.439   0.406  0.0785 -0.6783 -0.5846
 6971SOL    HW132375   0.865   2.465   0.427 -0.1193 -0.4716 -0.0006
 6971SOL    HW232376   0.741   2.525   0.380 -0.4803 -0.5219  0.7200
 6972SOL     OW32377   2.384   2.128   1.541  0.7198  0.1502  0.1409
 6972SOL    HW132378   2.313   2.133   1.477  0.0397 -1.7030  0.7420
 6972SOL    HW232379   2.348   2.191   1.603  1.0438  0.0972  0.3844
 6973SOL     OW32380   2.602   2.076   2.345  0.4885 -0.0181 -0.2018
 6973SOL    HW132381   2.603   2.170   2.325 -0.6453 -0.3863 -1.9573
 6973SOL    HW232382   2.526   2.052   2.292  0.5633 -1.6872  0.4623
 6974SOL     OW32383   2.117   0.423   3.537  0.2433  0.1723 -0.5930
 6974SOL    HW132384   2.030   0.458   3.518 -0.1144 -1.6173 -2.3153
 6974SOL    HW232385   2.158   0.440   3.452  1.4480 -2.1555 -0.4822
 6975SOL     OW32386   3.386   1.336   2.349 -0.2526 -0.1910  0.5315
 6975SOL    HW132387   3.435   1.370   2.275  1.8714 -1.4557  1.3658
 6975SOL    HW232388   3.326   1.280   2.300 -0.9438  1.1747 -0.1758
 6976SOL     OW32389   3.434   3.325   2.422 -0.3149 -0.5422 -0.0473
 6976SOL    HW132390   3.365   3.389   2.406  0.1116  0.1090  0.7306
 6976SOL    HW232391   3.516   3.361   2.388 -1.6251  0.9019 -1.7043
 6977SOL     OW32392   0.436   3.663   8.096  0.0910 -0.3524 -0.2931
 6977SOL    HW132393   0.470   3.581   8.060 -0.3764  0.1682 -1.9349
 6977SOL    HW232394   0.495   3.678   8.169 -0.5227 -2.2572  0.5897
 6978SOL     OW32395   4.124   2.763   8.834 -0.2823 -0.3640  0.2783
 6978SOL    HW132396   4.052   2.821   8.807 -0.6340 -0.7886  0.2927
 6978SOL    HW232397   4.109   2.687   8.777  3.3203  1.3521 -2.9294
 6979SOL     OW32398   3.983   3.981  11.792  0.2127  0.0817 -0.1301
 6979SOL    HW132399   3.902   4.025  11.816  0.5209  1.2443 -1.2167
 6979SOL    HW232400   4.005   3.942  11.876  0.1938  0.4718  0.0564
 6980SOL     OW32401   2.023   2.394   6.523 -0.0703  0.0983  0.1384
 6980SOL    HW132402   2.051   2.317   6.573 -1.3071 -2.0465 -2.5205
 6980SOL    HW232403   1.975   2.359   6.448  0.4619  1.8641 -1.0368
 6981SOL     OW32404   3.429   1.693   4.344  0.1569  0.2309 -0.4685
 6981SOL    HW132405   3.520   1.717   4.361 -0.7325  3.5370 -0.3607
 6981SOL    HW232406   3.385   1.728   4.423 -0.4294 -0.6489 -0.4115
 6982SOL     OW32407   4.342   1.314  11.072 -0.0255 -0.4143  0.0197
 6982SOL    HW132408   4.367   1.305  10.980  2.2676  0.5138  0.5527
 6982SOL    HW232409   4.305   1.229  11.096  0.0186 -0.7216 -0.9712
 6983SOL     OW32410   1.118   4.014   6.856  0.2437  0.2684 -0.4582
 6983SOL    HW132411   1.213   4.003   6.848 -0.0502 -2.5365 -0.0255
 6983SOL    HW232412   1.122   4.068   6.935  1.6540 -1.1585  0.4551
 6984SOL     OW32413   2.752   2.163  12.851 -0.1935 -0.6859  0.9597
 6984SOL    HW132414   2.687   2.118  12.904 -0.2237 -2.8138 -0.8653
 6984SOL    HW232415   2.829   2.107  12.861 -0.4528 -1.1528  0.3989
 6985SOL     OW32416   1.905   3.538   7.956  0.1166  0.3509  0.1603
 6985SOL    HW132417   1.931   3.515   8.046 -0.2300 -1.1739 -0.1232
 6985SOL    HW232418   1.889   3.446   7.934 -0.6441  0.0962  1.7707
 6986SOL     OW32419   1.298   0.966   2.570 -0.0658  0.2055 -0.1239
 6986SOL    HW132420   1.333   0.943   2.484  1.8932  0.8485  0.5177
 6986SOL    HW232421   1.244   0.887   2.578  0.2040 -0.0538 -0.8578
 6987SOL     OW32422   2.539   3.852   2.563 -0.1952  0.5160  0.5834
 6987SOL    HW132423   2.577   3.802   2.491 -0.8973  2.1996 -0.9700
 6987SOL    HW232424   2.615   3.890   2.607  0.7501 -0.0237 -0.5990
 6988SOL     OW32425   4.253   1.077  16.728  0.0071  0.5819  0.1538
 6988SOL    HW132426   4.279   1.161  16.765 -0.7871  0.7388  0.3525
 6988SOL    HW232427   4.279   1.019  16.800  1.2848  0.0716 -0.7169
 6989SOL     OW32428   0.883   2.289   3.418 -0.5437 -0.0595 -0.0281
 6989SOL    HW132429   0.964   2.291   3.369  0.1057 -0.0790  1.0372
 6989SOL    HW232430   0.867   2.383   3.430  0.8770 -0.1455  2.4899
 6990SOL     OW32431   4.369   0.197  11.039 -0.1398  0.4124 -0.3034
 6990SOL    HW132432   4.463   0.179  11.043 -0.2330 -0.0238 -0.0112
 6990SOL    HW232433   4.354   0.193  11.134 -2.3844 -1.1294 -0.7257
 6991SOL     OW32434   1.964   2.136   7.302 -0.0573  0.1604  0.1656
 6991SOL    HW132435   1.917   2.072   7.355 -1.5555 -1.2040 -2.8242
 6991SOL    HW232436   1.900   2.144   7.231 -0.7710 -3.2925  0.4232
 6992SOL     OW32437   3.520   0.336   3.356  0.4687 -0.1018 -0.1791
 6992SOL    HW132438   3.614   0.323   3.364  0.5916  1.5539  1.3302
 6992SOL    HW232439   3.529   0.430   3.341 -0.9833  0.1181  0.2778
 6993SOL     OW32440   2.274   2.761   1.770 -0.0161 -0.6136 -0.1483
 6993SOL    HW132441   2.346   2.813   1.734 -0.4786  0.7909  0.9589
 6993SOL    HW232442   2.323   2.716   1.838  0.0217  0.3361  0.4402
 6994SOL     OW32443   0.225   0.439   7.016 -0.1390 -0.4186  0.2171
 6994SOL    HW132444   0.280   0.373   6.974  0.9439  0.1796  0.6867
 6994SOL    HW232445   0.209   0.493   6.939 -1.0146 -0.1973  0.5517
 6995SOL     OW32446   0.526   2.734   7.016 -0.3716 -0.2678 -0.0930
 6995SOL    HW132447   0.551   2.770   7.101  0.1974 -0.4329 -0.1912
 6995SOL    HW232448   0.561   2.645   7.024 -1.0302 -0.4924  0.2414
 6996SOL     OW32449   2.228   4.485   3.464 -0.0194 -0.1950  0.1409
 6996SOL    HW132450   2.151   4.530   3.428 -0.0386  0.8773  1.5228
 6996SOL    HW232451   2.236   4.418   3.395  0.9627 -0.4199  0.4842
 6997SOL     OW32452   2.248   0.267   5.582  0.7123 -0.1736  0.1369
 6997SOL    HW132453   2.187   0.307   5.521 -0.0997 -2.6410 -0.6802
 6997SOL    HW232454   2.236   0.324   5.658 -0.7610  0.3291 -0.4948
 6998SOL     OW32455   4.277   4.140   1.723  0.0116 -0.4793 -0.1333
 6998SOL    HW132456   4.291   4.114   1.814 -1.6098  1.4968  0.6851
 6998SOL    HW232457   4.181   4.149   1.725  0.0486 -0.4350  1.1259
 6999SOL     OW32458   2.914   0.605   9.098  0.0115  0.5451  0.2221
 6999SOL    HW132459   2.834   0.657   9.095  0.4034  1.2067  1.5391
 6999SOL    HW232460   2.969   0.663   9.149  0.5582  0.5943 -0.4173
 7000SOL     OW32461   3.416   2.416   0.342 -0.0477 -0.1108  0.4222
 7000SOL    HW132462   3.413   2.437   0.435 -1.1310  0.4731  0.2633
 7000SOL    HW232463   3.362   2.337   0.338 -1.6534  0.9622  0.6625
 7001SOL     OW32464   0.741   3.331   7.426 -0.9264  0.0320  0.3074
 7001SOL    HW132465   0.716   3.421   7.405 -1.0045  0.4518  2.1992
 7001SOL    HW232466   0.734   3.279   7.346  0.0981  1.1304 -0.4788
 7002SOL     OW32467   3.016   0.946   4.525 -0.3590 -0.1864  0.7706
 7002SOL    HW132468   3.036   0.879   4.590  4.1811 -0.0719 -0.5034
 7002SOL    HW232469   3.078   0.930   4.454 -0.6372  0.2473  0.4328
 7003SOL     OW32470   0.216   1.049  13.344  0.0202 -0.1650  0.2137
 7003SOL    HW132471   0.141   1.055  13.283 -1.4247  0.6834  2.0750
 7003SOL    HW232472   0.254   0.964  13.324 -1.1894 -0.4697 -0.8607
 7004SOL     OW32473   1.990   3.100   5.546 -0.1539  0.0661 -0.1873
 7004SOL    HW132474   2.076   3.137   5.566  0.6828  0.1359 -3.7796
 7004SOL    HW232475   2.011   3.016   5.505 -1.7281 -1.1977  1.6282
 7005SOL     OW32476   0.456   3.826   1.607  0.1654  0.0165 -0.3662
 7005SOL    HW132477   0.539   3.872   1.604 -0.0583  0.3725 -1.0462
 7005SOL    HW232478   0.486   3.736   1.596  1.3842  0.2937  0.7286
 7006SOL     OW32479   2.346   4.486   2.597  0.5409  0.4827 -0.1332
 7006SOL    HW132480   2.272   4.426   2.589  1.3180 -0.8420  2.6533
 7006SOL    HW232481   2.309   4.572   2.617 -0.4320  0.1612 -0.5693
 7007SOL     OW32482   4.204   1.615  11.920  0.5217 -0.0378 -0.4176
 7007SOL    HW132483   4.166   1.702  11.903  1.7839  0.3072 -1.5479
 7007SOL    HW232484   4.132   1.574  11.968  0.6084 -1.3919 -1.4710
 7008SOL     OW32485   1.116   4.459   5.671  0.3148  0.3175  0.1987
 7008SOL    HW132486   1.022   4.454   5.691 -0.3251  2.0116 -2.4841
 7008SOL    HW232487   1.115   4.395   5.599  2.2016  0.7333 -0.1733
 7009SOL     OW32488   1.299   1.384   5.966  0.0361 -0.2444  0.7857
 7009SOL    HW132489   1.378   1.417   6.010  1.6793 -0.2396 -2.1410
 7009SOL    HW232490   1.229   1.449   5.975 -0.8068 -1.0612  0.1401
 7010SOL     OW32491   1.426   2.586   7.543  0.0922  0.0819 -0.4737
 7010SOL    HW132492   1.421   2.614   7.635 -1.3600  0.2158 -0.6006
 7010SOL    HW232493   1.380   2.503   7.549 -0.9717  0.6231 -1.3863
 7011SOL     OW32494   2.296   3.765  10.562  0.1329  0.1757  0.2709
 7011SOL    HW132495   2.230   3.710  10.520 -0.4262  1.0421  0.0112
 7011SOL    HW232496   2.363   3.697  10.574 -0.8427 -1.3791 -3.2012
 7012SOL     OW32497   0.293   1.365   1.061 -0.1885  0.0940 -0.4633
 7012SOL    HW132498   0.361   1.424   1.096  1.2859 -0.7061 -1.9797
 7012SOL    HW232499   0.250   1.434   1.010 -0.4649  0.6971  0.5849
 7013SOL     OW32500   1.560   0.760   5.523  0.5478  0.2987  0.7934
 7013SOL    HW132501   1.564   0.714   5.607  2.1274 -1.2743 -0.1234
 7013SOL    HW232502   1.631   0.820   5.546  0.0601  0.3988  1.9944
 7014SOL     OW32503   3.620   3.193   8.107  0.0397  0.3244  0.0962
 7014SOL    HW132504   3.614   3.140   8.187 -0.6593  0.7511  0.3237
 7014SOL    HW232505   3.702   3.159   8.070  1.1718  0.0728  2.8802
 7015SOL     OW32506   1.640   3.035   2.265  0.2110  0.9308  0.7340
 7015SOL    HW132507   1.628   3.045   2.170  0.9544 -0.2021  0.5143
 7015SOL    HW232508   1.679   2.947   2.268 -0.8885  0.5288  2.8820
 7016SOL     OW32509   0.320   1.885  12.738  0.3166 -0.3257  0.0856
 7016SOL    HW132510   0.373   1.808  12.756 -0.4130 -0.8306  0.0938
 7016SOL    HW232511   0.304   1.868  12.645 -0.4151  2.3490 -0.2837
 7017SOL     OW32512   1.068   3.552   0.135  0.2606 -0.5216  0.2766
 7017SOL    HW132513   1.042   3.640   0.108  2.9581  0.0903 -0.4276
 7017SOL    HW232514   1.067   3.574   0.228 -1.7249 -2.0552  0.6188
 7018SOL     OW32515   0.133   3.527   5.722  0.2436 -0.0200 -0.4536
 7018SOL    HW132516   0.166   3.443   5.688 -0.7635 -0.6824  0.2126
 7018SOL    HW232517   0.159   3.591   5.656 -0.5867 -0.4917 -1.2469
 7019SOL     OW32518   1.499   0.539   7.464 -0.1177  0.1799 -0.0358
 7019SOL    HW132519   1.496   0.500   7.377  1.5639  0.8172 -0.3722
 7019SOL    HW232520   1.430   0.605   7.456 -1.6207 -1.2078  1.4239
 7020SOL     OW32521   2.628   3.213   3.988  0.1190 -0.0370 -0.2599
 7020SOL    HW132522   2.675   3.130   3.996  0.7616  0.4966  1.5107
 7020SOL    HW232523   2.626   3.222   3.892 -1.3139  0.0305 -0.2247
 7021SOL     OW32524   4.220   0.296   7.929  0.1165 -0.4913 -0.3306
 7021SOL    HW132525   4.224   0.343   7.846  0.7197  2.1169  1.1474
 7021SOL    HW232526   4.248   0.366   7.988 -2.8673  1.7306 -1.5692
 7022SOL     OW32527   4.086   3.571   8.486  0.0180  0.0432  0.1884
 7022SOL    HW132528   4.038   3.504   8.535  0.1590 -0.1263  0.0956
 7022SOL    HW232529   4.052   3.646   8.535 -2.0567 -0.2999 -0.7268
 7023SOL     OW32530   4.328   0.632   4.668  0.5294 -0.6140 -0.0930
 7023SOL    HW132531   4.291   0.594   4.588  0.4258  0.3568 -0.5046
 7023SOL    HW232532   4.262   0.613   4.734 -1.0647  1.8329 -0.9874
 7024SOL     OW32533   3.777   2.698   3.956  0.6202  0.6235 -0.0999
 7024SOL    HW132534   3.710   2.667   3.894 -0.9080  2.4758  0.6409
 7024SOL    HW232535   3.857   2.651   3.933  0.8109  0.0831  1.6763
 7025SOL     OW32536   0.721   4.349   7.878  0.0345 -0.1410 -0.2277
 7025SOL    HW132537   0.733   4.409   7.804 -1.3157 -1.3347 -1.4301
 7025SOL    HW232538   0.648   4.302   7.837  0.0642 -0.7424  0.4104
 7026SOL     OW32539   0.656   2.831   7.854  0.0657 -0.0008  0.1666
 7026SOL    HW132540   0.594   2.837   7.781 -0.9642  0.3883  1.0738
 7026SOL    HW232541   0.616   2.874   7.929 -1.4353  1.1261 -1.2698
 7027SOL     OW32542   2.367   0.949   0.119  0.2732  0.1129  0.3669
 7027SOL    HW132543   2.300   0.952   0.186 -1.7446  1.4914 -1.6959
 7027SOL    HW232544   2.316   0.992   0.051  0.6094 -1.4482 -0.8820
 7028SOL     OW32545   3.969   2.150   1.413 -0.0832  0.7099 -0.6018
 7028SOL    HW132546   3.875   2.157   1.426 -0.0440 -0.7768  0.5874
 7028SOL    HW232547   4.001   2.191   1.494  2.2945 -1.8974 -0.2225
 7029SOL     OW32548   0.291   1.992   7.415 -0.4140 -0.2228  0.7540
 7029SOL    HW132549   0.205   2.024   7.441  0.3652  0.6237  2.3347
 7029SOL    HW232550   0.273   1.959   7.327  0.5189 -1.1031  0.8961
 7030SOL     OW32551   4.045   2.886  10.163 -0.3901  0.2094 -0.0617
 7030SOL    HW132552   3.959   2.920  10.186 -0.3560  0.4714 -0.3226
 7030SOL    HW232553   4.046   2.802  10.208 -0.3899  0.3094  0.1254
 7031SOL     OW32554   3.163   0.810   2.785  0.0985 -0.1911  0.3336
 7031SOL    HW132555   3.211   0.749   2.729  0.2505 -0.9637  1.3025
 7031SOL    HW232556   3.094   0.752   2.818  1.7050 -0.8648  2.4671
 7032SOL     OW32557   1.295   0.935  13.871 -0.3988 -0.1058 -0.0620
 7032SOL    HW132558   1.306   0.950  13.778  0.6194 -1.8359 -0.2222
 7032SOL    HW232559   1.282   0.840  13.868  0.9557 -0.4161  3.2806
 7033SOL     OW32560   0.020   4.637   4.487 -0.7802 -0.1333 -0.5326
 7033SOL    HW132561   0.030   4.600   4.399 -0.1865  0.0472 -0.5410
 7033SOL    HW232562   4.703   0.001   4.461  1.7088  0.3433 -2.5659
 7034SOL     OW32563   3.539   0.214  10.790  0.2164  0.7560  0.2413
 7034SOL    HW132564   3.569   0.125  10.809 -2.2891 -0.0800  0.2306
 7034SOL    HW232565   3.472   0.221  10.858 -1.2145 -0.9537 -1.0015
 7035SOL     OW32566   3.236   4.582   8.884  0.0245  0.0924  0.3394
 7035SOL    HW132567   3.183   4.596   8.963  0.0715  2.9786 -0.1376
 7035SOL    HW232568   3.210   4.497   8.850  1.0687  0.4262 -1.3064
 7036SOL     OW32569   2.965   4.541   4.183 -0.3550 -0.0532 -0.6699
 7036SOL    HW132570   2.963   4.626   4.140  1.3926 -0.8024 -2.2520
 7036SOL    HW232571   3.005   4.569   4.265 -1.4224  0.9513 -0.4978
 7037SOL     OW32572   4.098   3.890   0.240  0.3363 -0.2376  0.2305
 7037SOL    HW132573   4.088   3.906   0.334  0.1829 -2.3240  0.5621
 7037SOL    HW232574   4.099   3.795   0.226  0.4122 -0.2837  0.5500
 7038SOL     OW32575   4.480   1.027   1.165 -0.2504 -0.5206 -0.5700
 7038SOL    HW132576   4.433   0.943   1.165 -2.3228  0.6270  2.7622
 7038SOL    HW232577   4.554   1.010   1.222  0.5348  0.7623 -1.2191
 7039SOL     OW32578   3.055   0.469   5.808 -0.3233 -0.0388  0.0727
 7039SOL    HW132579   3.092   0.557   5.804 -1.0793  0.2430 -0.7609
 7039SOL    HW232580   3.101   0.446   5.728 -0.8988  0.1758 -0.3152
 7040SOL     OW32581   1.378   2.219   6.548  0.2505  0.2025 -0.0241
 7040SOL    HW132582   1.288   2.236   6.575  0.5025  0.5053  0.6225
 7040SOL    HW232583   1.421   2.297   6.582  1.0517  0.3413 -1.3882
 7041SOL     OW32584   0.913   4.358   8.812  0.1009  0.1626 -0.0585
 7041SOL    HW132585   0.900   4.448   8.842  0.1401  0.0328  0.3562
 7041SOL    HW232586   0.854   4.305   8.867  1.0490  0.9196  1.6814
 7042SOL     OW32587   0.795   1.310  16.447  0.0214  0.3126 -0.2104
 7042SOL    HW132588   0.760   1.241  16.504 -0.4415 -0.7282 -1.7403
 7042SOL    HW232589   0.875   1.274  16.409  1.6296  1.8299  1.7248
 7043SOL     OW32590   0.714   1.981   9.766 -0.1307 -0.5067 -0.0575
 7043SOL    HW132591   0.646   1.914   9.754 -0.5109  0.2335 -2.0148
 7043SOL    HW232592   0.668   2.050   9.720  1.2857  0.2889 -0.2615
 7044SOL     OW32593   3.920   0.090   5.612  0.5869  0.4780 -0.4220
 7044SOL    HW132594   3.948   0.180   5.593  0.5142  0.4997 -0.4282
 7044SOL    HW232595   3.876   0.065   5.531 -0.4235  2.3259 -0.4578
 7045SOL     OW32596   4.055   2.963   4.983 -1.2275  0.9076  0.1405
 7045SOL    HW132597   4.035   3.025   4.912 -2.2436  1.4628  0.9068
 7045SOL    HW232598   4.118   3.006   5.041 -0.5953 -0.5566  0.5165
 7046SOL     OW32599   2.492   3.064   3.200 -0.0043  0.4964 -0.0058
 7046SOL    HW132600   2.556   3.099   3.139  1.3104  3.0982  2.8570
 7046SOL    HW232601   2.417   3.033   3.149 -0.2097 -0.2808  0.7704
 7047SOL     OW32602   2.665   0.424   5.910  0.3704  0.1816  0.1231
 7047SOL    HW132603   2.602   0.355   5.929 -1.0548  1.6607  0.8127
 7047SOL    HW232604   2.734   0.381   5.860  0.6440  0.9243 -0.1427
 7048SOL     OW32605   2.864   0.705   2.459  0.1801  0.6115 -0.3282
 7048SOL    HW132606   2.917   0.767   2.509 -1.2864 -0.3829  2.4680
 7048SOL    HW232607   2.773   0.735   2.468 -0.1304 -0.4234 -0.0498
 7049SOL     OW32608   0.500   0.563   7.495 -0.0134 -0.0873 -0.5754
 7049SOL    HW132609   0.578   0.616   7.479  0.4177 -1.7352 -3.8701
 7049SOL    HW232610   0.478   0.545   7.404 -2.3550 -1.2110  0.2020
 7050SOL     OW32611   4.504   1.261   4.179 -0.1088 -0.3757 -0.4240
 7050SOL    HW132612   4.506   1.256   4.275  0.9071  1.1958 -0.3637
 7050SOL    HW232613   4.413   1.234   4.168 -0.2023  0.1242 -0.8830
 7051SOL     OW32614   2.233   1.314   4.768 -0.0833  0.1206 -0.2123
 7051SOL    HW132615   2.167   1.324   4.836  1.5174  0.2711  1.3270
 7051SOL    HW232616   2.295   1.384   4.789  0.7898 -0.1924 -1.7527
 7052SOL     OW32617   0.042   0.655  13.092 -0.3510 -0.1160  0.3212
 7052SOL    HW132618   0.033   0.740  13.134  0.2249  0.9349 -1.6961
 7052SOL    HW232619   0.120   0.674  13.039  2.3784  0.1692  4.3909
 7053SOL     OW32620   2.549   0.784   2.783  0.2943 -0.6575 -0.2781
 7053SOL    HW132621   2.477   0.823   2.833  1.1844 -1.5498  1.6710
 7053SOL    HW232622   2.524   0.813   2.695  0.7916  1.9165  0.4148
 7054SOL     OW32623   3.377   3.541  13.729  0.4666 -0.0602 -0.0314
 7054SOL    HW132624   3.449   3.519  13.670 -0.3821  0.2036 -1.1751
 7054SOL    HW232625   3.305   3.492  13.690  0.5200 -1.1590  1.2736
 7055SOL     OW32626   0.032   3.034  15.066  0.4799  0.6185  0.1281
 7055SOL    HW132627   0.096   3.083  15.116 -0.5895  2.3152 -0.1580
 7055SOL    HW232628   4.697   3.098  15.022  0.7359  1.7306  1.4454
 7056SOL     OW32629   4.147   2.665  16.691 -0.2991 -0.1982  0.0754
 7056SOL    HW132630   4.095   2.728  16.741 -0.7209 -0.2651 -0.2876
 7056SOL    HW232631   4.148   2.696  16.601  0.4912 -0.5619 -0.0409
 7057SOL     OW32632   0.628   3.487   2.129  0.0355 -0.2190  0.1998
 7057SOL    HW132633   0.536   3.484   2.103  0.0092 -0.8443  0.3631
 7057SOL    HW232634   0.649   3.400   2.094 -0.3796  0.1563 -0.9884
 7058SOL     OW32635   3.720   4.298   3.727 -0.3295  0.2984  0.0409
 7058SOL    HW132636   3.742   4.389   3.744  0.5993 -0.3501  2.3444
 7058SOL    HW232637   3.787   4.245   3.770 -0.3683  1.0120  0.9578
 7059SOL     OW32638   4.263   2.899   6.919  0.7745 -0.6835  0.3378
 7059SOL    HW132639   4.314   2.979   6.932 -0.6419  0.3855 -0.6559
 7059SOL    HW232640   4.240   2.866   7.006 -1.1416  0.8942  0.4462
 7060SOL     OW32641   3.002   0.702  12.622  0.5140 -0.4865  0.3960
 7060SOL    HW132642   2.909   0.681  12.607  0.1919  0.5851  0.8923
 7060SOL    HW232643   3.052   0.627  12.591 -0.4458 -0.6137 -0.8864
 7061SOL     OW32644   4.620   0.099  15.956 -0.4692 -0.2146  0.6346
 7061SOL    HW132645   4.629   0.031  15.890  0.7339  1.2982 -0.7584
 7061SOL    HW232646   4.696   0.157  15.955 -0.3686 -0.3498  0.4131
 7062SOL     OW32647   3.446   0.428  13.227  0.2569 -0.5658  0.6066
 7062SOL    HW132648   3.539   0.448  13.217 -0.0000  1.0651  1.5260
 7062SOL    HW232649   3.443   0.333  13.211 -0.6641 -0.2052 -1.3427
 7063SOL     OW32650   1.650   1.446   4.605  0.0775  0.1290  0.1490
 7063SOL    HW132651   1.665   1.463   4.511  1.7045 -0.8274  0.2376
 7063SOL    HW232652   1.730   1.477   4.648 -0.2081 -0.6075  1.2020
 7064SOL     OW32653   3.078   0.423   8.945  0.1033 -0.0012  0.3421
 7064SOL    HW132654   3.141   0.425   9.017 -0.0221  0.7100  0.4314
 7064SOL    HW232655   3.020   0.498   8.961 -4.1614 -3.0662 -0.7805
 7065SOL     OW32656   2.857   1.962  11.626  0.0832 -0.0714 -0.3762
 7065SOL    HW132657   2.777   2.003  11.657  0.1962 -0.2193  0.1027
 7065SOL    HW232658   2.908   2.032  11.585  0.4689 -0.7988 -1.1542
 7066SOL     OW32659   4.045   0.819   3.712 -0.2107 -0.4451 -0.0030
 7066SOL    HW132660   4.003   0.742   3.673 -1.7677 -0.5200  1.7627
 7066SOL    HW232661   4.135   0.799   3.687  0.4291  2.2187  0.2008
 7067SOL     OW32662   1.842   0.843   8.050  0.7298  0.0679  0.0595
 7067SOL    HW132663   1.796   0.793   7.982 -0.9964 -0.6767  1.7612
 7067SOL    HW232664   1.805   0.806   8.130 -0.0554 -0.4498 -0.5333
 7068SOL     OW32665   2.713   3.259   1.863  0.2573  0.1530  0.2038
 7068SOL    HW132666   2.679   3.170   1.877  0.7246 -0.2272 -1.0706
 7068SOL    HW232667   2.736   3.286   1.952  3.0130  0.4103 -0.6095
 7069SOL     OW32668   1.803   4.661  11.582  0.4507  0.1858  0.0263
 7069SOL    HW132669   1.717   4.619  11.585  0.1892  0.9247  2.6297
 7069SOL    HW232670   1.779   0.017  11.529 -1.2996  0.1591  0.7507
 7070SOL     OW32671   4.153   3.396   4.656 -0.1367  0.5718 -0.2772
 7070SOL    HW132672   4.061   3.418   4.642  0.3869  3.1759  0.4412
 7070SOL    HW232673   4.187   3.484   4.664  3.5966 -0.8488 -0.6580
 7071SOL     OW32674   3.874   3.445   6.254  0.6498 -0.3730  0.0462
 7071SOL    HW132675   3.883   3.352   6.234  2.4652 -0.3491  0.7592
 7071SOL    HW232676   3.785   3.479   6.244  2.0351  3.0489 -0.4178
 7072SOL     OW32677   1.707   3.211  15.722  0.0305  0.6234 -0.1158
 7072SOL    HW132678   1.778   3.261  15.762  1.0229 -0.6522 -0.2680
 7072SOL    HW232679   1.643   3.278  15.699 -0.8454 -0.3976 -0.6744
 7073SOL     OW32680   1.082   1.227   5.493  0.5082  0.5456  0.4902
 7073SOL    HW132681   1.004   1.244   5.546  0.2227  2.3018 -0.4805
 7073SOL    HW232682   1.148   1.244   5.560  1.3185  2.2023 -0.7270
 7074SOL     OW32683   2.809   0.323   4.990  0.4174  0.2554  0.2953
 7074SOL    HW132684   2.778   0.246   5.037  1.8666 -0.1656  0.5625
 7074SOL    HW232685   2.902   0.299   4.994  0.2439 -0.6935 -1.2652
 7075SOL     OW32686   2.807   1.519   3.053 -0.0241  0.2632 -0.8802
 7075SOL    HW132687   2.819   1.444   3.111  1.6878  0.8412 -0.5038
 7075SOL    HW232688   2.878   1.506   2.989 -0.5337 -0.7610 -1.2475
 7076SOL     OW32689   3.595   3.123   5.254  0.2931 -0.1099 -0.2695
 7076SOL    HW132690   3.564   3.032   5.263  0.5212 -0.2264 -0.6572
 7076SOL    HW232691   3.688   3.107   5.234 -0.5787 -3.0308 -1.9700
 7077SOL     OW32692   3.021   2.427   6.682  0.0726 -0.1087  0.4373
 7077SOL    HW132693   3.085   2.490   6.715  0.9785 -0.7722 -0.0470
 7077SOL    HW232694   2.967   2.495   6.642  0.4561 -0.1858 -0.2071
 7078SOL     OW32695   3.748   2.834   7.384 -0.4498 -0.0144  0.5330
 7078SOL    HW132696   3.817   2.867   7.326 -1.9276  0.8927 -0.7250
 7078SOL    HW232697   3.799   2.812   7.462 -0.9220  0.5880  1.0124
 7079SOL     OW32698   2.669   2.147   5.816  0.3830  0.1432 -0.0681
 7079SOL    HW132699   2.601   2.207   5.784  0.0078  0.0319  0.5305
 7079SOL    HW232700   2.661   2.077   5.751  1.3309  0.7138 -0.8091
 7080SOL     OW32701   3.523   1.151   8.855 -0.3340  0.2929 -0.4433
 7080SOL    HW132702   3.592   1.201   8.898 -0.9325  0.2125  0.6237
 7080SOL    HW232703   3.501   1.215   8.787  0.2752 -0.0627 -0.9723
 7081SOL     OW32704   3.805   1.534   6.121  0.2440 -0.2951  0.5726
 7081SOL    HW132705   3.881   1.576   6.082 -0.3801  0.7022  0.4423
 7081SOL    HW232706   3.852   1.453   6.141 -0.7140 -0.9891  0.0074
 7082SOL     OW32707   0.266   1.512   7.536  0.0414 -0.0311 -0.2659
 7082SOL    HW132708   0.202   1.477   7.474 -1.1473  2.1226 -0.2636
 7082SOL    HW232709   0.212   1.590   7.548 -1.1290 -0.7973 -0.4747
 7083SOL     OW32710   4.258   1.401   3.532 -1.1974  0.0705  0.1624
 7083SOL    HW132711   4.308   1.462   3.478 -1.5747 -0.1639 -0.4521
 7083SOL    HW232712   4.201   1.464   3.578  0.0384 -0.2090  2.0837
 7084SOL     OW32713   2.695   1.751   3.134 -0.0793  0.2086  0.4035
 7084SOL    HW132714   2.734   1.815   3.075  0.5677 -1.8050 -1.3247
 7084SOL    HW232715   2.719   1.664   3.103 -1.6138 -1.1747  3.0551
 7085SOL     OW32716   0.911   2.253   7.326  0.1654 -0.2663  0.3289
 7085SOL    HW132717   0.926   2.332   7.274 -3.1151  0.9825  1.2354
 7085SOL    HW232718   0.944   2.293   7.406 -0.3800  1.3472 -0.2406
 7086SOL     OW32719   0.443   3.775   4.178  0.0066  0.6186 -0.6438
 7086SOL    HW132720   0.376   3.707   4.177  0.5761  0.0734 -2.2040
 7086SOL    HW232721   0.383   3.847   4.196 -0.6621  0.0310 -0.5098
 7087SOL     OW32722   2.358   2.550   7.242  0.0462 -0.0447 -0.0566
 7087SOL    HW132723   2.317   2.634   7.265  0.4609 -0.1162  0.9772
 7087SOL    HW232724   2.288   2.491   7.267  0.2375 -0.6599 -0.9928
 7088SOL     OW32725   0.943   0.607   3.468 -0.4023 -0.0798 -0.3052
 7088SOL    HW132726   0.850   0.595   3.449 -0.1442  0.1135 -1.7003
 7088SOL    HW232727   0.931   0.701   3.469  3.0294  0.3858 -1.2765
 7089SOL     OW32728   4.341   3.791   8.696 -0.3796  0.3626  0.6693
 7089SOL    HW132729   4.359   3.840   8.777  1.5483  1.4888 -0.4310
 7089SOL    HW232730   4.257   3.750   8.716 -0.0032 -1.0319 -0.6593
 7090SOL     OW32731   3.127   1.741   3.322  0.2661  0.4310  0.2414
 7090SOL    HW132732   3.148   1.692   3.242 -1.0249 -1.2669  0.9411
 7090SOL    HW232733   3.203   1.789   3.356 -0.3605  3.6440 -2.9205
 7091SOL     OW32734   3.384   1.866  15.158  0.2222 -0.0487  0.3673
 7091SOL    HW132735   3.332   1.946  15.156  1.8095  0.9752 -0.3682
 7091SOL    HW232736   3.320   1.799  15.180  1.5858 -1.3737  0.3091
 7092SOL     OW32737   2.773   3.142   4.825 -0.1627  0.4153 -0.1953
 7092SOL    HW132738   2.855   3.183   4.797  0.1444  0.5643  0.9124
 7092SOL    HW232739   2.778   3.151   4.921  1.0874  1.7459 -0.3928
 7093SOL     OW32740   0.769   3.284   9.076  0.2113 -0.2023  0.1834
 7093SOL    HW132741   0.697   3.327   9.122 -0.8374 -0.8629 -0.8624
 7093SOL    HW232742   0.749   3.291   8.983 -3.0151  1.8280  1.0131
 7094SOL     OW32743   4.670   4.316   4.293  0.2547  0.6306 -0.1021
 7094SOL    HW132744   4.679   4.227   4.260 -1.4914 -0.0947  1.4056
 7094SOL    HW232745   4.578   4.329   4.266 -0.2680 -1.4430  0.7441
 7095SOL     OW32746   0.013   0.345   1.610 -0.3134  0.3080  0.4637
 7095SOL    HW132747   0.058   0.267   1.579 -0.4654  1.3549 -2.4083
 7095SOL    HW232748   4.709   0.387   1.527 -1.4163 -0.8510  0.2064
 7096SOL     OW32749   1.734   4.565   6.629  0.3444  0.4134  0.4633
 7096SOL    HW132750   1.707   4.583   6.539  0.2630  0.6392  0.5327
 7096SOL    HW232751   1.772   4.478   6.618  0.3944  0.5605 -0.4971
 7097SOL     OW32752   0.598   2.365   7.528 -0.7260  0.2563  0.1348
 7097SOL    HW132753   0.531   2.297   7.536 -0.1445 -0.5563 -1.9084
 7097SOL    HW232754   0.554   2.428   7.472  1.7448  1.3086 -0.6347
 7098SOL     OW32755   0.768   3.955  16.166 -0.1725 -0.6389 -0.2505
 7098SOL    HW132756   0.726   3.993  16.244  0.5781 -0.4080  0.0381
 7098SOL    HW232757   0.712   3.883  16.138 -0.8926 -0.9628  1.9604
 7099SOL     OW32758   3.662   3.211  14.924 -0.4451  0.2344 -0.1916
 7099SOL    HW132759   3.694   3.298  14.947  0.1451  0.5774 -2.2629
 7099SOL    HW232760   3.734   3.150  14.942 -0.3676  0.3606 -0.0754
 7100SOL     OW32761   4.136   0.211   1.231  0.9838 -0.1440 -0.6610
 7100SOL    HW132762   4.047   0.244   1.224  0.9938 -0.1290 -0.7130
 7100SOL    HW232763   4.177   0.237   1.149  1.5490  0.2629 -0.2538
 7101SOL     OW32764   0.049   2.422   3.284 -0.0611 -0.0429 -0.0958
 7101SOL    HW132765   0.097   2.344   3.257  0.1995 -0.2347  0.9220
 7101SOL    HW232766   0.004   2.398   3.365 -1.4388  2.8601  0.0145
 7102SOL     OW32767   4.662   3.376   0.709 -0.8482 -0.1553 -0.2941
 7102SOL    HW132768   0.024   3.415   0.678 -0.2794 -0.2516  1.0650
 7102SOL    HW232769   4.605   3.423   0.648 -1.9477 -1.1735 -0.0430
 7103SOL     OW32770   0.098   3.657   6.479  0.1814 -0.4413  0.1981
 7103SOL    HW132771   0.156   3.732   6.495 -1.4411  0.8708 -0.1566
 7103SOL    HW232772   0.142   3.577   6.509  2.5081  0.4524 -0.8252
 7104SOL     OW32773   1.459   2.279   4.690  0.1304 -0.1672 -0.6491
 7104SOL    HW132774   1.453   2.276   4.594  0.0147 -0.4352 -0.6350
 7104SOL    HW232775   1.388   2.223   4.721  0.1659 -0.6211 -1.3795
 7105SOL     OW32776   0.303   1.306   8.478  0.5840  0.0339  0.3425
 7105SOL    HW132777   0.356   1.274   8.404 -0.3683  1.8280 -1.1190
 7105SOL    HW232778   0.329   1.240   8.542  1.7546  0.6890  0.5318
 7106SOL     OW32779   4.376   1.146   7.438 -0.5829 -0.6437  0.2533
 7106SOL    HW132780   4.442   1.204   7.401  0.9667 -2.6099 -0.1081
 7106SOL    HW232781   4.394   1.157   7.531 -1.3029 -0.5587  0.3781
 7107SOL     OW32782   3.109   4.047  17.083  0.4177  0.1387  0.1261
 7107SOL    HW132783   3.174   4.069  17.150  0.8776 -0.6289 -0.0631
 7107SOL    HW232784   3.047   3.994  17.134 -0.0033 -1.6653 -2.2777
 7108SOL     OW32785   0.007   1.935   9.201  0.1029  0.6648  0.5399
 7108SOL    HW132786   4.706   1.851   9.160  1.8122 -0.0350  1.0961
 7108SOL    HW232787   4.691   1.993   9.134 -0.6963 -0.9598 -0.4424
 7109SOL     OW32788   2.799   1.411  16.532  0.0860 -0.5195  0.1086
 7109SOL    HW132789   2.750   1.437  16.454  1.2289 -1.8997 -1.0568
 7109SOL    HW232790   2.724   1.381  16.583  0.4280 -0.5718  0.5820
 7110SOL     OW32791   4.290   3.062  13.120  0.2123  0.0865  0.1605
 7110SOL    HW132792   4.201   3.094  13.105 -0.4365 -1.9122 -0.2600
 7110SOL    HW232793   4.281   2.975  13.083 -0.5256 -0.5269  1.8041
 7111SOL     OW32794   1.213   1.187  10.145 -0.3227 -0.1132 -0.2489
 7111SOL    HW132795   1.301   1.205  10.180 -0.1591 -0.1726 -0.6311
 7111SOL    HW232796   1.161   1.260  10.178 -0.9776 -0.9436  0.5777
 7112SOL     OW32797   0.062   1.423  11.327  0.1018 -0.2979 -0.1492
 7112SOL    HW132798   4.690   1.436  11.302  0.5627  1.2301 -1.0244
 7112SOL    HW232799   0.052   1.357  11.395 -0.4014  0.1375  0.2078
 7113SOL     OW32800   3.125   1.984   9.029  0.0767  0.1952  0.2485
 7113SOL    HW132801   3.133   2.028   9.114 -0.5272 -0.9362  0.9001
 7113SOL    HW232802   3.217   1.980   9.003 -0.3498  1.9146 -1.5248
 7114SOL     OW32803   2.160   4.033   3.305  0.2340  0.8634 -0.3955
 7114SOL    HW132804   2.174   3.964   3.370 -0.7110  0.6042 -0.4643
 7114SOL    HW232805   2.133   3.976   3.233  1.0606 -3.3747  2.6659
 7115SOL     OW32806   4.301   1.442   2.314 -0.3542  0.3648  0.2923
 7115SOL    HW132807   4.240   1.507   2.279 -1.0056  0.6693  1.9834
 7115SOL    HW232808   4.244   1.366   2.321  1.4046 -0.8544  1.5623
 7116SOL     OW32809   0.950   1.490   0.359  0.0504 -0.4615 -0.0273
 7116SOL    HW132810   0.877   1.487   0.421  0.7650  0.7155  0.8668
 7116SOL    HW232811   0.922   1.551   0.291 -0.3113 -0.0862  0.4623
 7117SOL     OW32812   3.712   4.592   3.257 -0.0587  0.4377 -0.2762
 7117SOL    HW132813   3.690   4.572   3.166 -1.8861  0.3999  0.1685
 7117SOL    HW232814   3.747   4.509   3.289  2.3044  1.5304 -0.0395
 7118SOL     OW32815   4.213   3.915   4.490 -0.6529  0.6551  0.1509
 7118SOL    HW132816   4.144   3.981   4.483  0.4338  1.7688 -0.0996
 7118SOL    HW232817   4.272   3.968   4.544  1.8313 -2.4048  0.3976
 7119SOL     OW32818   0.249   4.306   8.094 -0.6899 -0.9982  0.0087
 7119SOL    HW132819   0.230   4.349   8.011  1.8194  0.5264  0.2362
 7119SOL    HW232820   0.341   4.281   8.092 -0.3994 -0.0732  2.4255
 7120SOL     OW32821   1.627   1.963   1.604 -0.3857  0.5891  0.2185
 7120SOL    HW132822   1.535   1.939   1.597  0.0978 -1.4748  0.7685
 7120SOL    HW232823   1.670   1.916   1.532  1.0061  2.0476  0.1113
 7121SOL     OW32824   1.861   4.690   4.545 -0.1521 -0.2886 -0.1216
 7121SOL    HW132825   1.916   0.043   4.575 -1.0060  1.0977 -1.9395
 7121SOL    HW232826   1.772   0.001   4.560  0.4473  0.9612  0.9249
 7122SOL     OW32827   3.729   1.873   3.097 -0.1378 -0.1787 -1.0405
 7122SOL    HW132828   3.691   1.942   3.152 -0.0157 -0.1335 -1.0129
 7122SOL    HW232829   3.710   1.907   3.010 -0.4582 -0.8541 -1.2344
 7123SOL     OW32830   0.502   2.733   1.506 -0.1108  0.3878  0.3807
 7123SOL    HW132831   0.577   2.785   1.538 -0.5138  0.3731  1.3594
 7123SOL    HW232832   0.548   2.666   1.456  0.5369 -1.0953  2.9170
 7124SOL     OW32833   4.015   4.560   9.674  0.4238 -0.5661  0.2839
 7124SOL    HW132834   4.035   4.470   9.649 -1.5412 -0.4526 -1.6318
 7124SOL    HW232835   3.924   4.572   9.649 -0.1358  0.1238  2.6832
 7125SOL     OW32836   2.143   3.800   3.807  0.0076  0.3357  0.1564
 7125SOL    HW132837   2.168   3.879   3.760 -2.0426  0.7444 -0.2805
 7125SOL    HW232838   2.065   3.766   3.762  0.6774  0.5696 -1.1877
 7126SOL     OW32839   1.847   4.489  14.202  0.4503  0.4241 -0.0087
 7126SOL    HW132840   1.817   4.512  14.114  2.1476 -0.2175 -0.7384
 7126SOL    HW232841   1.848   4.393  14.202 -2.5350  0.3913 -0.6044
 7127SOL     OW32842   4.546   3.073   0.989  0.7706 -0.4161  0.3107
 7127SOL    HW132843   4.556   3.129   1.067 -3.9266  0.6340  0.1334
 7127SOL    HW232844   4.595   2.995   1.015  2.5728  0.3215 -0.8906
 7128SOL     OW32845   4.647   1.648   2.573 -0.0227  0.4544  0.3538
 7128SOL    HW132846   4.676   1.559   2.557  1.1450  1.1058 -1.1090
 7128SOL    HW232847   4.675   1.662   2.664 -1.5270  1.7627  0.6183
 7129SOL     OW32848   2.678   0.650   0.926 -0.4994  0.0439  0.1514
 7129SOL    HW132849   2.626   0.730   0.939  0.9531  1.0439 -0.1079
 7129SOL    HW232850   2.766   0.661   0.963 -0.4182 -3.0022  0.8430
 7130SOL     OW32851   3.404   1.878   4.048 -0.0074 -0.2095 -0.1757
 7130SOL    HW132852   3.344   1.890   4.122  0.2469  0.3600 -0.0627
 7130SOL    HW232853   3.484   1.886   4.100 -1.0711  1.3200  1.2009
 7131SOL     OW32854   0.222   1.475   1.532 -0.9677 -0.6952 -0.2028
 7131SOL    HW132855   0.203   1.451   1.441  1.2836 -0.6811 -0.6775
 7131SOL    HW232856   0.158   1.545   1.540 -1.3107 -0.9651 -0.5880
 7132SOL     OW32857   3.774   1.531  10.966 -0.2732  0.1234 -0.3229
 7132SOL    HW132858   3.746   1.507  11.054 -0.9776  2.2090  0.0101
 7132SOL    HW232859   3.832   1.606  10.979  0.4018 -0.4615 -0.0179
 7133SOL     OW32860   2.968   2.359   7.066 -0.4475 -0.6095 -0.6292
 7133SOL    HW132861   2.933   2.297   7.130  0.6508  0.8550  1.3809
 7133SOL    HW232862   2.881   2.370   7.029 -1.1790 -3.1896  0.3151
 7134SOL     OW32863   0.042   0.307   8.234 -0.9694 -0.4639  0.1960
 7134SOL    HW132864   0.011   0.320   8.323 -2.2940  1.1754 -0.4973
 7134SOL    HW232865   0.099   0.235   8.258 -1.5219 -1.5034 -1.5690
 7135SOL     OW32866   1.013   3.817   8.189 -0.1329  0.3814  0.5691
 7135SOL    HW132867   0.922   3.794   8.171  0.7418 -2.6644 -0.0552
 7135SOL    HW232868   1.026   3.911   8.191  0.6963  0.2554  0.9037
 7136SOL     OW32869   2.827   3.718   4.174 -0.1979 -0.0202 -0.0555
 7136SOL    HW132870   2.735   3.706   4.200  0.6353  1.0194  3.4486
 7136SOL    HW232871   2.810   3.776   4.101  2.1763 -0.3346 -0.8594
 7137SOL     OW32872   3.118   0.053  11.591 -0.2955 -0.2576  0.3314
 7137SOL    HW132873   3.198   0.051  11.538 -0.2698 -2.3799  0.4393
 7137SOL    HW232874   3.057   0.086  11.525  0.1344  0.1125  0.1173
 7138SOL     OW32875   0.411   1.615  17.597 -0.6830  0.4387 -0.3810
 7138SOL    HW132876   0.435   1.545  17.659  0.0322  1.7120  0.7753
 7138SOL    HW232877   0.411   1.574  17.510 -2.1272  3.5401 -1.8184
 7139SOL     OW32878   3.310   3.689  10.012  0.2122  0.0192 -0.2552
 7139SOL    HW132879   3.250   3.671  10.085  2.1207 -1.3973  0.9608
 7139SOL    HW232880   3.354   3.771  10.033  1.0738 -0.6986  0.7175
 7140SOL     OW32881   4.256   1.353  12.800  0.0909  0.6485  0.1549
 7140SOL    HW132882   4.219   1.432  12.840  0.0008  1.4814 -1.5644
 7140SOL    HW232883   4.284   1.306  12.879  1.6427  0.4577 -0.5039
 7141SOL     OW32884   4.176   0.756   5.328  0.1795 -0.8718 -0.0506
 7141SOL    HW132885   4.252   0.787   5.378 -0.2598  0.2788 -0.0822
 7141SOL    HW232886   4.109   0.820   5.352  0.5642  0.1156 -1.5718
 7142SOL     OW32887   4.502   2.737   1.047 -0.0771 -0.5103  0.2963
 7142SOL    HW132888   4.576   2.797   1.059  0.1213 -0.7236  0.1432
 7142SOL    HW232889   4.502   2.719   0.953  1.0757  0.5723  0.0858
 7143SOL     OW32890   2.389   1.117  16.681 -0.0875 -0.0391  0.2332
 7143SOL    HW132891   2.308   1.135  16.632 -0.1865  0.4581  0.5779
 7143SOL    HW232892   2.433   1.201  16.693  1.5604 -0.7320 -1.0357
 7144SOL     OW32893   3.541   1.990  11.679  0.1660  0.0516  0.2239
 7144SOL    HW132894   3.477   2.035  11.623  1.3763  2.9366  1.2004
 7144SOL    HW232895   3.493   1.907  11.689 -0.5604  0.2469 -1.6272
 7145SOL     OW32896   0.733   1.155   0.794  0.4988  0.0757 -0.0004
 7145SOL    HW132897   0.671   1.127   0.727  0.5763  0.1096 -0.0877
 7145SOL    HW232898   0.768   1.073   0.829 -1.6362 -0.2633  1.3450
 7146SOL     OW32899   0.193   3.885   2.807 -0.3068  0.0148  0.0256
 7146SOL    HW132900   0.275   3.922   2.775  0.1163 -2.8555 -2.1436
 7146SOL    HW232901   0.129   3.920   2.745 -1.1070  1.0041  1.4033
 7147SOL     OW32902   3.581   1.198  16.908  0.5116 -0.2658  0.3046
 7147SOL    HW132903   3.607   1.116  16.950  0.6456 -1.5589 -2.3062
 7147SOL    HW232904   3.631   1.178  16.829 -1.5811  1.9039 -1.5776
 7148SOL     OW32905   1.903   3.942  12.025  0.0724 -0.8589 -1.0210
 7148SOL    HW132906   1.903   3.914  12.117  0.1129  0.9895 -0.4627
 7148SOL    HW232907   1.962   4.017  12.029 -1.2057 -0.0364  2.2052
 7149SOL     OW32908   4.058   1.109  17.578  0.2665 -0.3668  0.4677
 7149SOL    HW132909   4.029   1.019  17.566 -3.1108  0.5796  1.4314
 7149SOL    HW232910   4.128   1.098  17.643 -1.7490  0.7061  2.8624
 7150SOL     OW32911   4.656   2.120   3.658 -0.6111  0.2124 -0.0550
 7150SOL    HW132912   4.687   2.079   3.577 -0.1976  0.5123 -0.0461
 7150SOL    HW232913   4.709   2.080   3.726 -0.4835  1.1054  0.3722
 7151SOL     OW32914   1.696   2.373   4.942 -0.0430 -0.5784  0.1560
 7151SOL    HW132915   1.743   2.392   4.860  1.4487 -3.7045  0.2926
 7151SOL    HW232916   1.656   2.458   4.960  1.1495  0.1651 -0.6682
 7152SOL     OW32917   1.649   1.851  12.316  0.8275 -0.0923  0.0190
 7152SOL    HW132918   1.663   1.904  12.395 -0.2336  0.4331 -0.1368
 7152SOL    HW232919   1.645   1.917  12.247 -0.6511  0.7090  0.8681
 7153SOL     OW32920   2.213   2.720  14.577 -0.1356  0.2355 -0.0912
 7153SOL    HW132921   2.125   2.708  14.611 -1.5246  2.0813 -3.0586
 7153SOL    HW232922   2.264   2.724  14.658  1.0729  0.2457 -0.8447
 7154SOL     OW32923   3.487   2.735  12.121  0.1162 -0.5877  0.5739
 7154SOL    HW132924   3.452   2.820  12.096 -0.1604 -0.4913  1.2814
 7154SOL    HW232925   3.512   2.704  12.034  0.1790  0.1484  0.3345
 7155SOL     OW32926   1.844   0.536   7.835  0.0802 -0.4861  0.1404
 7155SOL    HW132927   1.788   0.594   7.885 -0.8414 -0.9763 -0.3101
 7155SOL    HW232928   1.771   0.489   7.794 -1.6745  0.0309  2.6804
 7156SOL     OW32929   3.429   3.851   5.168 -0.2979  0.2767  0.1751
 7156SOL    HW132930   3.485   3.852   5.246  0.4705  0.7427 -0.3812
 7156SOL    HW232931   3.434   3.757   5.150 -1.0457  0.0272  1.2912
 7157SOL     OW32932   3.859   3.236   1.290 -0.1868  0.2891  0.0777
 7157SOL    HW132933   3.928   3.260   1.352 -1.1529  0.7411  0.9871
 7157SOL    HW232934   3.834   3.146   1.315 -1.8626  1.4476  2.5667
 7158SOL     OW32935   0.694   2.679  15.248 -0.1012  0.0937  0.0364
 7158SOL    HW132936   0.688   2.669  15.153  1.6476  1.8189 -0.2515
 7158SOL    HW232937   0.694   2.592  15.288  3.0869  0.3873  0.6822
 7159SOL     OW32938   1.804   1.035   4.937 -0.2200  0.1804 -0.1096
 7159SOL    HW132939   1.739   1.075   4.994  0.9121  1.1786  0.4524
 7159SOL    HW232940   1.789   0.941   4.952 -2.0085  0.8461  2.3435
 7160SOL     OW32941   0.054   2.282  15.826  0.6669 -0.1898  0.3380
 7160SOL    HW132942   0.008   2.309  15.906 -1.3957  0.4215 -1.0450
 7160SOL    HW232943   0.110   2.358  15.806  1.2066 -1.2020 -1.9136
 7161SOL     OW32944   2.970   0.395  15.935 -0.7292 -0.2495 -0.3721
 7161SOL    HW132945   3.006   0.374  16.022  1.3172  1.9574 -0.6947
 7161SOL    HW232946   3.047   0.359  15.891  0.8699  1.4036  1.0667
 7162SOL     OW32947   3.312   1.194   8.470  0.2103 -0.4367  0.6319
 7162SOL    HW132948   3.295   1.100   8.470 -1.2520 -0.1702  0.3129
 7162SOL    HW232949   3.223   1.218   8.444  0.8153  1.4950  0.3877
 7163SOL     OW32950   2.823   3.534  17.511  0.3227 -0.1536  0.2569
 7163SOL    HW132951   2.878   3.466  17.551  1.2514 -0.7946 -2.1104
 7163SOL    HW232952   2.844   3.547  17.418 -0.0636  2.2500  0.5205
 7164SOL     OW32953   4.286   4.079   3.843 -0.2486 -0.5800  0.1615
 7164SOL    HW132954   4.246   4.010   3.789  0.6585 -1.1647  0.2319
 7164SOL    HW232955   4.248   4.055   3.928  0.3995  0.2850  0.6901
 7165SOL     OW32956   3.430   0.380   7.535 -0.0453  0.0983  0.3234
 7165SOL    HW132957   3.364   0.344   7.595 -0.1483 -1.3114 -0.6386
 7165SOL    HW232958   3.457   0.452   7.593 -1.2542 -1.2542  2.5852
 7166SOL     OW32959   4.465   4.188  14.561 -0.5352 -0.2176  0.2086
 7166SOL    HW132960   4.538   4.202  14.501 -1.1053  0.1375 -0.3971
 7166SOL    HW232961   4.485   4.234  14.643  1.8217  2.0002 -1.6107
 7167SOL     OW32962   3.564   0.563   5.507 -0.3309  0.5124 -0.6744
 7167SOL    HW132963   3.574   0.617   5.429 -1.7093  0.1108 -1.1345
 7167SOL    HW232964   3.499   0.621   5.545 -0.2559  0.1433  0.0131
 7168SOL     OW32965   3.674   0.871  17.530  0.5668  0.2788 -0.1538
 7168SOL    HW132966   3.661   0.925  17.452 -0.7038 -0.6257 -0.5626
 7168SOL    HW232967   3.589   0.835  17.555  1.0909 -1.6696 -1.1562
 7169SOL     OW32968   2.830   0.602   0.524  0.8903 -0.0540 -0.5412
 7169SOL    HW132969   2.857   0.665   0.591 -0.1080 -1.0402  0.7901
 7169SOL    HW232970   2.797   0.526   0.573  1.3516  0.6416  0.8450
 7170SOL     OW32971   1.598   0.451   4.861  0.2365 -0.2739 -0.0505
 7170SOL    HW132972   1.572   0.360   4.876 -1.9815  0.5108  0.8749
 7170SOL    HW232973   1.510   0.478   4.835 -0.0552 -0.0801  1.1256
 7171SOL     OW32974   0.029   3.028  11.077  0.0898 -0.9500  0.2024
 7171SOL    HW132975   0.051   2.996  11.164 -1.4732 -1.8298  0.2640
 7171SOL    HW232976   4.684   2.963  11.052 -0.3158 -1.5063  2.7815
 7172SOL     OW32977   3.755   4.193  17.455 -0.4610 -0.4129 -0.4135
 7172SOL    HW132978   3.685   4.250  17.489 -1.1669 -0.7112 -1.3844
 7172SOL    HW232979   3.778   4.150  17.538  0.3967  0.4090 -0.2272
 7173SOL     OW32980   2.481   0.909  13.226  0.1109  0.0040  0.5051
 7173SOL    HW132981   2.569   0.915  13.264 -0.5638  0.9049  1.9012
 7173SOL    HW232982   2.502   0.945  13.140 -2.6803 -1.7216 -0.9259
 7174SOL     OW32983   3.388   0.330   6.243 -0.4316 -0.0607  0.5275
 7174SOL    HW132984   3.424   0.293   6.324  0.9275  1.0947  0.4603
 7174SOL    HW232985   3.361   0.246   6.206 -1.4167  0.2165  0.6319
 7175SOL     OW32986   3.725   2.237   4.901  0.2230  0.1929 -0.0082
 7175SOL    HW132987   3.744   2.169   4.836  1.3557  0.2691  0.2372
 7175SOL    HW232988   3.662   2.193   4.958  1.6098  0.1659  1.5129
 7176SOL     OW32989   0.553   2.940   6.795  0.0549  0.4052 -0.0560
 7176SOL    HW132990   0.640   2.919   6.760 -0.0848 -0.0727 -0.1186
 7176SOL    HW232991   0.552   2.865   6.855 -0.3838  1.7024  1.5562
 7177SOL     OW32992   0.700   1.310   7.287  0.6573 -0.6121  0.3674
 7177SOL    HW132993   0.613   1.312   7.328  1.4866 -0.3811  2.0789
 7177SOL    HW232994   0.682   1.230   7.237  1.0224 -0.2950 -0.2692
 7178SOL     OW32995   3.394   0.184   7.365  0.0894  0.3065  0.3394
 7178SOL    HW132996   3.429   0.253   7.421 -0.1464 -0.1415  1.0437
 7178SOL    HW232997   3.441   0.206   7.285  1.0641  1.1672  1.1532
 7179SOL     OW32998   4.659   4.214  15.541  0.2617  0.0189 -0.1159
 7179SOL    HW132999   0.027   4.185  15.518 -0.3677 -2.2598  0.3707
 7179SOL    HW233000   4.681   4.273  15.613  0.5926 -1.5086  1.0276
 7180SOL     OW33001   1.729   3.947   8.114  0.1639 -0.0998 -0.1422
 7180SOL    HW133002   1.822   3.927   8.107  0.6889  2.0940  0.5700
 7180SOL    HW233003   1.721   3.923   8.206 -1.5060 -0.9874 -0.5158
 7181SOL     OW33004   0.169   1.181  12.865  0.0580  0.1034  0.1421
 7181SOL    HW133005   0.162   1.233  12.785 -0.0934 -0.4145 -0.1800
 7181SOL    HW233006   0.193   1.094  12.833 -1.6712 -1.0179  1.9650
 7182SOL     OW33007   2.259   0.565   8.699 -0.0390  0.1259 -0.1798
 7182SOL    HW133008   2.334   0.509   8.718 -0.1249  0.5092  1.3405
 7182SOL    HW233009   2.271   0.590   8.608 -3.6208  1.3825 -0.2911
 7183SOL     OW33010   2.420   1.838  12.741 -0.1101 -0.6322 -0.0114
 7183SOL    HW133011   2.338   1.828  12.693  0.4834 -0.9354 -0.9684
 7183SOL    HW233012   2.469   1.757  12.730 -1.1234 -1.2550  0.1420
 7184SOL     OW33013   3.173   4.139   1.145 -0.1282 -0.3606  0.6297
 7184SOL    HW133014   3.239   4.147   1.077  1.3341  2.3809  2.3809
 7184SOL    HW233015   3.099   4.141   1.084 -0.6327 -0.6920  1.2326
 7185SOL     OW33016   2.629   4.553   7.043  0.6187  0.0038  0.0828
 7185SOL    HW133017   2.710   4.528   6.997  1.1698 -0.7260  1.4556
 7185SOL    HW233018   2.562   4.497   7.004  0.5621 -1.2959  2.0704
 7186SOL     OW33019   0.195   2.592   5.722 -0.1001 -0.0205  0.6425
 7186SOL    HW133020   0.260   2.657   5.693  0.5259 -0.7594  0.4026
 7186SOL    HW233021   0.154   2.557   5.643 -1.2968  3.4174 -0.2671
 7187SOL     OW33022   0.468   2.790   4.673  0.4981  0.2969 -0.3784
 7187SOL    HW133023   0.488   2.827   4.759  1.4341  1.7188 -1.2155
 7187SOL    HW233024   0.418   2.717   4.709 -1.2017  1.2085 -0.8883
 7188SOL     OW33025   0.476   2.003   0.613  0.2250  0.4743 -0.0744
 7188SOL    HW133026   0.523   1.928   0.578  1.9105  0.3097  2.5562
 7188SOL    HW233027   0.487   2.069   0.544  3.0762  0.1803  0.1150
 7189SOL     OW33028   0.109   0.395   6.365 -0.4049  0.1202 -0.2900
 7189SOL    HW133029   0.196   0.399   6.325 -0.9220  1.0856 -1.3164
 7189SOL    HW233030   0.062   0.340   6.304  0.2236 -0.2944 -0.3932
 7190SOL     OW33031   3.267   4.080  12.723  0.3749  0.1721 -0.0400
 7190SOL    HW133032   3.213   4.002  12.737  0.3467  0.3917  1.0532
 7190SOL    HW233033   3.275   4.082  12.628  0.2365 -1.1545 -0.0805
 7191SOL     OW33034   3.971   1.345   6.586  0.7824  0.2517 -0.0748
 7191SOL    HW133035   3.906   1.406   6.550  1.5738  0.7549 -0.6452
 7191SOL    HW233036   4.022   1.409   6.635  0.4206  0.8055 -0.4003
 7192SOL     OW33037   1.473   2.394   3.613 -0.1824  0.4894  0.4691
 7192SOL    HW133038   1.442   2.360   3.529 -1.3259  0.5163  0.8815
 7192SOL    HW233039   1.524   2.323   3.651  0.7539 -1.2491 -4.0810
 7193SOL     OW33040   1.662   1.751   7.172  0.0240 -0.2954  0.4245
 7193SOL    HW133041   1.616   1.669   7.154  0.0403  0.0614 -1.2834
 7193SOL    HW233042   1.592   1.804   7.209  1.6147  2.8448 -1.1043
 7194SOL     OW33043   3.643   0.352   8.712 -0.5615 -0.2593  0.0173
 7194SOL    HW133044   3.554   0.319   8.720 -0.7627  0.3966  0.5371
 7194SOL    HW233045   3.687   0.297   8.776 -1.5091  0.4731  1.3140
 7195SOL     OW33046   0.483   2.685  13.363 -0.0746  0.2028  0.3602
 7195SOL    HW133047   0.506   2.734  13.442  0.5215 -0.6112  0.6844
 7195SOL    HW233048   0.433   2.614  13.403  0.8292 -1.1233 -0.8681
 7196SOL     OW33049   1.203   3.582  10.668 -0.5657  0.0259  0.1855
 7196SOL    HW133050   1.147   3.647  10.710 -2.4934 -1.6078  0.1617
 7196SOL    HW233051   1.257   3.569  10.746 -1.3028  0.5933  0.7874
 7197SOL     OW33052   2.064   2.239  14.555 -0.2068  0.5965 -0.4066
 7197SOL    HW133053   2.115   2.320  14.550 -1.8382  1.4361 -3.2633
 7197SOL    HW233054   1.984   2.272  14.515 -0.2196  2.0114  0.7898
 7198SOL     OW33055   2.796   1.835   8.815  0.1410  0.2852 -0.3223
 7198SOL    HW133056   2.705   1.807   8.825  0.1075  0.8994  1.2334
 7198SOL    HW233057   2.788   1.897   8.743  2.9755 -0.1110 -0.9711
 7199SOL     OW33058   1.014   1.454   1.522 -0.4727  0.1500  0.1222
 7199SOL    HW133059   0.995   1.362   1.506 -0.3950  0.2598 -0.5965
 7199SOL    HW233060   0.994   1.491   1.436  0.8421 -2.4546 -1.3235
 7200SOL     OW33061   2.333   0.791   8.884  0.6082  0.1147 -0.2251
 7200SOL    HW133062   2.265   0.778   8.950 -0.1877 -2.8717 -1.6331
 7200SOL    HW233063   2.303   0.748   8.804 -1.0890 -0.7936  0.9092
 7201SOL     OW33064   0.547   3.180  11.109  1.4357 -0.1875  0.0318
 7201SOL    HW133065   0.552   3.129  11.028  2.0200 -3.4397  2.1585
 7201SOL    HW233066   0.563   3.271  11.084  0.1565  0.5858  2.0336
 7202SOL     OW33067   2.941   3.059   5.445  0.3614 -0.4176  0.0740
 7202SOL    HW133068   2.847   3.042   5.441  0.3294  0.0839 -1.1030
 7202SOL    HW233069   2.958   3.102   5.362  0.2160 -1.5000 -0.5223
 7203SOL     OW33070   3.632   2.960   0.283 -0.2661  0.3045 -0.0400
 7203SOL    HW133071   3.557   3.010   0.317  1.2555  1.6756  1.2974
 7203SOL    HW233072   3.699   2.954   0.351 -0.0337  1.8292 -0.1173
 7204SOL     OW33073   1.700   2.399   4.667  0.2970  0.0686  0.0804
 7204SOL    HW133074   1.618   2.350   4.672 -0.4048  1.2490  0.2325
 7204SOL    HW233075   1.672   2.481   4.626  0.6714  0.7170  1.1174
 7205SOL     OW33076   4.134   3.173   5.951 -0.6014  0.1089 -0.6037
 7205SOL    HW133077   4.178   3.115   6.014 -0.7199  0.0509 -0.5738
 7205SOL    HW233078   4.156   3.256   5.993  0.5877 -1.0132  0.9932
 7206SOL     OW33079   2.917   3.105  12.939 -0.0579 -0.2745  0.3724
 7206SOL    HW133080   2.876   3.065  13.017  1.1296 -0.6630  0.7905
 7206SOL    HW233081   2.954   3.025  12.902 -0.5292 -1.2415  1.9781
 7207SOL     OW33082   3.531   4.207   1.844 -0.2451  0.0940  0.6204
 7207SOL    HW133083   3.601   4.182   1.904  0.4241  1.7055  0.4874
 7207SOL    HW233084   3.541   4.302   1.841  2.0926 -0.1738  0.2024
 7208SOL     OW33085   0.732   3.527   3.906 -0.6018  0.5240 -0.6854
 7208SOL    HW133086   0.738   3.522   3.811  0.1441  0.0081 -0.6137
 7208SOL    HW233087   0.696   3.616   3.900  0.6329  0.9838 -1.2997
 7209SOL     OW33088   3.747   3.431   3.698  0.2476  0.3850  0.0579
 7209SOL    HW133089   3.833   3.397   3.725  0.9208  1.0165 -1.2923
 7209SOL    HW233090   3.713   3.366   3.637  1.6052  0.7385 -1.0811
 7210SOL     OW33091   1.090   0.473   2.543  0.3264 -0.7491  0.6157
 7210SOL    HW133092   1.095   0.485   2.448  0.0465  0.4908  0.7564
 7210SOL    HW233093   1.049   0.387   2.548  0.6116 -0.9127  0.1095
 7211SOL     OW33094   4.121   2.168   7.267 -0.6001 -0.1224 -0.1292
 7211SOL    HW133095   4.153   2.099   7.325 -0.1289 -0.9633 -1.3820
 7211SOL    HW233096   4.089   2.126   7.187  1.0343 -0.3163 -0.6782
 7212SOL     OW33097   1.769   3.197   5.651  0.5374 -0.7782  0.3068
 7212SOL    HW133098   1.858   3.186   5.617  0.5945  1.1734 -0.1930
 7212SOL    HW233099   1.749   3.105   5.666 -0.5411 -0.8877 -1.9024
 7213SOL     OW33100   0.284   1.748   5.036 -0.4051  0.1711  0.0050
 7213SOL    HW133101   0.310   1.836   5.008  1.1901 -0.2033  0.2941
 7213SOL    HW233102   0.221   1.724   4.968 -1.5822  4.4514 -0.3959
 7214SOL     OW33103   0.566   2.216   9.708  0.0271  0.3700  0.2708
 7214SOL    HW133104   0.518   2.268   9.772 -2.0377  0.0559 -1.0301
 7214SOL    HW233105   0.542   2.254   9.624 -1.1317  2.0743  1.3800
 7215SOL     OW33106   1.674   1.124   0.620  0.0903 -0.2794  0.4792
 7215SOL    HW133107   1.693   1.216   0.601 -0.0338 -0.2965  0.2668
 7215SOL    HW233108   1.737   1.080   0.563 -1.1991  0.3225 -1.4364
 7216SOL     OW33109   2.068   0.478   5.193 -0.2865 -0.0338  0.3976
 7216SOL    HW133110   2.115   0.395   5.206  0.3808  0.4738  1.2394
 7216SOL    HW233111   2.000   0.445   5.134  0.0429 -0.1471  0.0799
 7217SOL     OW33112   4.311   4.534   3.925 -0.3573 -0.1746 -0.2687
 7217SOL    HW133113   4.333   4.479   3.850 -3.2407 -0.2417 -1.0736
 7217SOL    HW233114   4.317   4.623   3.889  0.1764  0.2800  0.9455
 7218SOL     OW33115   2.543   1.309   2.473  0.5381 -0.0989 -0.0729
 7218SOL    HW133116   2.475   1.370   2.444 -1.0487 -1.7184  0.2701
 7218SOL    HW233117   2.593   1.355   2.541 -0.3936 -0.9390  1.1766
 7219SOL     OW33118   1.959   0.082  12.007  0.2065  0.1893  0.6330
 7219SOL    HW133119   1.881   0.054  11.959  1.0888 -1.4610  0.1680
 7219SOL    HW233120   1.966   0.014  12.073 -0.8246 -1.3723 -0.8699
 7220SOL     OW33121   0.165   1.863   0.776  0.3216  0.6650 -0.2727
 7220SOL    HW133122   0.077   1.896   0.795  0.5011  0.4538  0.9502
 7220SOL    HW233123   0.163   1.848   0.682 -2.5934  3.4255 -0.6383
 7221SOL     OW33124   2.453   4.124   5.181 -0.5203 -0.2956 -0.3690
 7221SOL    HW133125   2.427   4.212   5.151 -1.6426 -0.7075 -0.6234
 7221SOL    HW233126   2.541   4.133   5.147  0.1738 -0.5152  1.3580
 7222SOL     OW33127   4.449   2.492  16.577  0.0130 -0.3184  0.4791
 7222SOL    HW133128   4.428   2.503  16.670  1.2724 -0.4847  0.7866
 7222SOL    HW233129   4.413   2.572  16.540  0.1642  0.0720  1.1765
 7223SOL     OW33130   3.726   1.748   6.649 -0.3791 -0.5661  0.1132
 7223SOL    HW133131   3.636   1.771   6.671 -0.3208 -0.9789  0.8129
 7223SOL    HW233132   3.735   1.653   6.659  1.5688 -0.4277 -0.1943
 7224SOL     OW33133   0.899   1.505   8.442 -0.1052  0.7320 -0.0561
 7224SOL    HW133134   0.805   1.522   8.448 -0.1567  0.5948 -0.5105
 7224SOL    HW233135   0.917   1.523   8.350  1.6403  0.7109  0.2649
 7225SOL     OW33136   2.980   0.716  12.922 -0.4243 -0.3759  0.0451
 7225SOL    HW133137   2.891   0.699  12.954 -0.2049  0.9496  1.3743
 7225SOL    HW233138   2.966   0.738  12.830 -0.8118 -1.4982 -0.1647
 7226SOL     OW33139   1.090   4.544   4.445  0.2595 -0.6901  0.0775
 7226SOL    HW133140   1.103   4.636   4.467 -1.3715 -0.0050 -1.8025
 7226SOL    HW233141   1.094   4.545   4.350 -0.7136 -2.4363  0.0025
 7227SOL     OW33142   1.125   1.515  14.513  0.4175  0.2255 -0.2811
 7227SOL    HW133143   1.109   1.480  14.601 -0.6198  1.2347 -0.0596
 7227SOL    HW233144   1.145   1.436  14.462 -1.3138  0.2383 -0.9777
 7228SOL     OW33145   0.929   0.883   9.013  0.1945 -0.5111 -0.3138
 7228SOL    HW133146   0.996   0.850   9.072  2.0879 -0.2712 -2.3269
 7228SOL    HW233147   0.878   0.802   9.003 -0.8738  0.3037 -1.4685
 7229SOL     OW33148   2.543   3.733   2.153 -0.0661  0.0811 -0.5100
 7229SOL    HW133149   2.562   3.810   2.099  1.4082  0.6814  0.8383
 7229SOL    HW233150   2.450   3.747   2.171  0.3962  3.3254 -0.7104
 7230SOL     OW33151   1.260   2.325  16.537 -0.2286 -0.6394  0.1100
 7230SOL    HW133152   1.342   2.331  16.488  0.4786  1.4629  1.5370
 7230SOL    HW233153   1.210   2.398  16.500 -2.2129 -2.9768 -1.8163
 7231SOL     OW33154   3.492   2.960   9.414 -0.7999  0.6640  0.2191
 7231SOL    HW133155   3.564   2.905   9.445 -0.1491  0.5933 -1.3973
 7231SOL    HW233156   3.545   3.033   9.381 -0.2196  0.1646  0.0411
 7232SOL     OW33157   2.368   1.652   1.623  0.0106  0.4929  0.6772
 7232SOL    HW133158   2.365   1.747   1.615 -0.7474  0.2492 -1.8151
 7232SOL    HW233159   2.407   1.631   1.538 -1.0731  3.2955 -0.4985
 7233SOL     OW33160   4.078   1.107   6.565  0.2652  0.2757  0.1576
 7233SOL    HW133161   4.144   1.122   6.633  1.7096 -0.6539 -1.0369
 7233SOL    HW233162   4.032   1.191   6.572  0.3065  0.3158 -0.0727
 7234SOL     OW33163   2.309   3.377   3.964  0.0889  0.1051  0.5429
 7234SOL    HW133164   2.214   3.379   3.969  0.1427  1.1570  1.0116
 7234SOL    HW233165   2.312   3.297   3.911 -0.3293 -0.2374  1.0401
 7235SOL     OW33166   1.063   1.003   8.085  0.3198 -0.0665 -0.3660
 7235SOL    HW133167   0.986   1.058   8.073  0.6645  0.0242 -2.0984
 7235SOL    HW233168   1.096   1.026   8.172 -3.7574  0.0549  1.1687
 7236SOL     OW33169   4.412   1.542   1.376  0.2963 -0.5543  0.1863
 7236SOL    HW133170   4.339   1.569   1.431  0.8565  0.0127  0.6475
 7236SOL    HW233171   4.399   1.601   1.302 -0.3787  0.5642  1.1992
 7237SOL     OW33172   0.996   0.547  10.330 -0.9673 -0.1233  0.0996
 7237SOL    HW133173   1.017   0.512  10.243  0.8676 -1.7836  1.1900
 7237SOL    HW233174   0.955   0.469  10.367 -0.5712  0.4114  1.6763
 7238SOL     OW33175   0.707   0.486   3.090  0.0010 -0.7729  0.4846
 7238SOL    HW133176   0.754   0.409   3.122 -1.1789 -1.4007  0.6994
 7238SOL    HW233177   0.639   0.453   3.032 -1.2935  0.5616  1.2380
 7239SOL     OW33178   1.734   1.146   6.345  0.2397  0.4228 -0.0509
 7239SOL    HW133179   1.724   1.091   6.423 -2.5991  0.3805 -0.4464
 7239SOL    HW233180   1.660   1.118   6.292 -0.8393 -0.5099  1.9528
 7240SOL     OW33181   1.787   3.494   3.630  0.2220  0.4689 -0.7366
 7240SOL    HW133182   1.834   3.427   3.580 -0.2421  0.4754 -1.1849
 7240SOL    HW233183   1.697   3.465   3.618  0.4022  0.1005 -1.1901
 7241SOL     OW33184   0.055   1.793   4.862 -0.3852  0.0439  0.1426
 7241SOL    HW133185   0.086   1.802   4.772 -2.9032  0.0203 -0.7160
 7241SOL    HW233186   4.703   1.855   4.872  0.6396  0.9307  2.1345
 7242SOL     OW33187   1.011   4.133   3.741  0.2173 -0.0038 -0.1667
 7242SOL    HW133188   1.100   4.148   3.773 -0.8451  0.5066  2.5579
 7242SOL    HW233189   1.013   4.064   3.675  2.6084  0.3780 -0.5041
 7243SOL     OW33190   4.685   4.385  15.774 -0.0942  1.0889  0.7002
 7243SOL    HW133191   0.006   4.326  15.838 -1.0262  0.5900  0.8285
 7243SOL    HW233192   4.593   4.359  15.778  0.9022 -2.7028 -1.2927
 7244SOL     OW33193   2.222   1.841   7.910 -0.1093  0.0583  0.3460
 7244SOL    HW133194   2.199   1.893   7.986  1.9316  2.2563 -0.5375
 7244SOL    HW233195   2.253   1.901   7.842  0.9191  0.2199  0.9668
 7245SOL     OW33196   0.444   4.658   4.775 -0.1233  0.4554  0.5102
 7245SOL    HW133197   0.497   4.646   4.696  1.8274 -0.0486  1.8979
 7245SOL    HW233198   0.363   4.670   4.727 -0.1326  0.6547  0.5788
 7246SOL     OW33199   4.276   3.041  13.440  0.4770 -0.3127  0.1545
 7246SOL    HW133200   4.185   3.070  13.449  0.5432  0.0343 -0.2623
 7246SOL    HW233201   4.252   2.965  13.387  0.2764 -0.3640  0.3178
 7247SOL     OW33202   3.728   4.092  15.406 -0.6417 -0.5299 -0.2627
 7247SOL    HW133203   3.783   4.144  15.464 -1.0643  1.4222 -1.5981
 7247SOL    HW233204   3.641   4.108  15.441 -0.5877 -1.5155  0.3342
 7248SOL     OW33205   3.260   3.213   5.326 -0.1336 -0.2818 -0.1644
 7248SOL    HW133206   3.227   3.275   5.392  0.4109  0.3034 -0.4361
 7248SOL    HW233207   3.296   3.148   5.386 -0.2939  0.3755  0.6601
 7249SOL     OW33208   1.043   0.384  13.080 -0.7241 -0.2216 -0.3097
 7249SOL    HW133209   1.085   0.415  13.000  1.8910 -3.3503 -0.1459
 7249SOL    HW233210   1.030   0.291  13.064  0.1710 -0.0993 -1.7239
 7250SOL     OW33211   2.711   3.927  12.083 -0.1481 -0.1692  0.4530
 7250SOL    HW133212   2.786   3.902  12.030 -0.5752 -0.6347  0.0617
 7250SOL    HW233213   2.747   4.009  12.118  1.0352 -0.1715 -0.7604
 7251SOL     OW33214   0.688   3.645   8.427  0.1142 -0.8239 -0.0430
 7251SOL    HW133215   0.682   3.710   8.497  1.9078  0.0268 -0.6854
 7251SOL    HW233216   0.604   3.599   8.434 -0.3370  0.0038 -0.0105
 7252SOL     OW33217   1.441   1.182  14.877 -0.4453 -0.9960  0.2213
 7252SOL    HW133218   1.458   1.220  14.963 -1.2561 -0.6290  0.2265
 7252SOL    HW233219   1.354   1.147  14.898 -1.1986  0.9530  0.3849
 7253SOL     OW33220   4.000   1.170   7.044 -0.0144  0.2696  0.3528
 7253SOL    HW133221   4.067   1.219   6.996 -2.2582  2.8800 -0.0591
 7253SOL    HW233222   4.023   1.082   7.012 -0.5648 -0.3527  1.6767
 7254SOL     OW33223   4.260   1.595   6.408  0.0086 -0.4749 -0.5639
 7254SOL    HW133224   4.184   1.647   6.384 -0.2908  0.0580  1.5605
 7254SOL    HW233225   4.233   1.504   6.396  0.8819 -0.5269 -2.1563
 7255SOL     OW33226   2.103   2.306   6.032  0.7738  0.1018 -0.0188
 7255SOL    HW133227   2.108   2.219   6.071 -0.7848  0.1768  0.3225
 7255SOL    HW233228   2.009   2.320   6.027  0.8893  0.9408  0.1421
 7256SOL     OW33229   0.382   0.648   5.404  0.1887 -0.0928 -0.0746
 7256SOL    HW133230   0.356   0.657   5.312 -2.0141 -0.8537  0.4790
 7256SOL    HW233231   0.345   0.725   5.448 -1.5569 -0.8082 -0.2964
 7257SOL     OW33232   0.425   1.099   7.459 -0.5533  0.4849 -0.2258
 7257SOL    HW133233   0.348   1.061   7.502  0.8042 -0.3638  1.4657
 7257SOL    HW233234   0.417   1.194   7.462 -2.5024  0.2327  2.2180
 7258SOL     OW33235   0.369   4.664   2.743 -0.1494 -0.2905  0.4203
 7258SOL    HW133236   0.323   4.584   2.718 -2.0302  1.5217 -1.9267
 7258SOL    HW233237   0.300   0.009   2.758  1.7426  1.0845  3.0990
 7259SOL     OW33238   3.585   0.637   2.271  0.3000  0.5119  0.3408
 7259SOL    HW133239   3.615   0.596   2.191 -0.2640  0.7261  0.0173
 7259SOL    HW233240   3.511   0.586   2.304 -1.2348  2.5608  0.1294
 7260SOL     OW33241   0.835   1.604   7.777  0.5563  0.1175 -0.6106
 7260SOL    HW133242   0.833   1.598   7.872 -0.6381 -2.5327 -0.7925
 7260SOL    HW233243   0.852   1.697   7.766 -1.2898  0.7356  1.9751
 7261SOL     OW33244   2.295   2.828   7.323  0.0200  0.5617  0.1681
 7261SOL    HW133245   2.349   2.859   7.396  0.2047 -1.9062  1.0565
 7261SOL    HW233246   2.301   2.908   7.270  0.2401  0.2960 -0.2118
 7262SOL     OW33247   2.023   1.678   5.022  0.5836 -0.0686 -0.5444
 7262SOL    HW133248   1.972   1.760   5.022  1.7754  0.6781 -0.2393
 7262SOL    HW233249   2.090   1.697   5.088  1.4963 -1.4230 -1.0910
 7263SOL     OW33250   3.340   4.163   9.922 -0.2377  0.3510 -0.1021
 7263SOL    HW133251   3.294   4.168   9.839 -1.2805  1.5915  0.5488
 7263SOL    HW233252   3.411   4.224   9.902 -0.1457  0.8874  1.8162
 7264SOL     OW33253   3.914   2.175   7.856  0.3855  0.1040  0.0542
 7264SOL    HW133254   3.992   2.223   7.886 -0.6517  1.9261 -0.1328
 7264SOL    HW233255   3.855   2.250   7.868 -1.9427 -1.6983 -0.3206
 7265SOL     OW33256   3.732   2.068   4.682  0.0253 -0.4052  0.3052
 7265SOL    HW133257   3.638   2.087   4.674  0.3968  2.1622  2.2762
 7265SOL    HW233258   3.775   2.133   4.626 -1.4293 -0.0866 -0.4476
 7266SOL     OW33259   4.371   0.687   7.968  0.5254 -0.3254 -0.4755
 7266SOL    HW133260   4.364   0.629   8.045  0.2867  1.3375  0.7658
 7266SOL    HW233261   4.411   0.636   7.898  0.9877 -0.4854 -0.0962
 7267SOL     OW33262   3.655   4.524  17.412  0.6441 -0.6883 -0.6865
 7267SOL    HW133263   3.726   4.584  17.435  0.3221  0.5660 -2.8886
 7267SOL    HW233264   3.624   4.549  17.324  0.6863  1.0762 -0.2021
 7268SOL     OW33265   0.624   2.666   9.731  0.3267 -0.0074 -0.2101
 7268SOL    HW133266   0.560   2.596   9.721 -0.2857  0.2933  1.5650
 7268SOL    HW233267   0.631   2.654   9.826 -1.9603  1.6786  0.1529
 7269SOL     OW33268   3.038   2.894   5.836  0.1472 -0.5980  0.3778
 7269SOL    HW133269   3.063   2.887   5.743  2.4128  0.5009  0.9201
 7269SOL    HW233270   3.084   2.970   5.872 -0.1150 -0.3790  0.2477
 7270SOL     OW33271   0.351   2.086   8.215 -0.1137  0.5647  0.1160
 7270SOL    HW133272   0.339   2.177   8.241  0.1326  0.4492  0.6232
 7270SOL    HW233273   0.303   2.080   8.132  1.3540 -1.0351 -0.6022
 7271SOL     OW33274   4.142   3.739   8.075  0.8185  0.1334  0.4503
 7271SOL    HW133275   4.106   3.711   7.991  2.8386 -1.0863 -0.0120
 7271SOL    HW233276   4.234   3.716   8.059 -0.1452 -2.1277 -1.8408
 7272SOL     OW33277   2.284   2.230   8.610 -0.3491 -0.4371 -0.6964
 7272SOL    HW133278   2.317   2.223   8.699  0.4570  4.7785 -0.5708
 7272SOL    HW233279   2.192   2.255   8.625  0.2118  1.9987 -1.3428
 7273SOL     OW33280   1.078   2.573  15.269 -0.7055 -0.5073 -0.1037
 7273SOL    HW133281   1.106   2.544  15.182  0.7225  0.9657 -0.1325
 7273SOL    HW233282   0.990   2.607  15.258  0.7816  2.8802 -1.5276
 7274SOL     OW33283   3.420   3.948  10.053 -0.5586  0.1808 -0.0247
 7274SOL    HW133284   3.439   3.976  10.142 -0.7339  0.6355 -0.1316
 7274SOL    HW233285   3.402   4.029  10.005 -2.7672 -0.3050 -0.0049
 7275SOL     OW33286   4.538   4.530   7.608  0.1457 -0.2417  0.1739
 7275SOL    HW133287   4.611   4.468   7.615  1.0363  0.9510  1.5360
 7275SOL    HW233288   4.549   4.580   7.527 -1.0148  1.2690  0.9309
 7276SOL     OW33289   1.285   3.924   3.608  0.2684 -0.3919 -0.1972
 7276SOL    HW133290   1.199   3.888   3.629 -0.5226  0.5183 -1.8568
 7276SOL    HW233291   1.340   3.913   3.685  2.0430 -1.1174 -1.5716
 7277SOL     OW33292   4.573   2.930  13.081  0.1632 -0.2129 -0.4272
 7277SOL    HW133293   4.484   2.903  13.059 -0.1617 -0.3198  0.9946
 7277SOL    HW233294   4.629   2.889  13.016  0.7495 -0.1908  0.0612
 7278SOL     OW33295   0.159   2.989  14.692  0.2386  0.1905 -0.0119
 7278SOL    HW133296   0.113   3.072  14.684  0.0106 -0.1252 -1.9028
 7278SOL    HW233297   0.080   2.938  14.713 -0.2849  0.7821 -0.5447
 7279SOL     OW33298   3.563   0.080  17.556 -0.2547 -0.3146  0.5220
 7279SOL    HW133299   3.576   0.113  17.645 -0.1678 -1.0470  0.7809
 7279SOL    HW233300   3.543   4.708  17.572  1.1879 -0.6119  0.6926
 7280SOL     OW33301   1.803   1.407   6.078  0.1461 -0.6563 -0.1649
 7280SOL    HW133302   1.862   1.335   6.056 -0.7349 -1.5109  0.2539
 7280SOL    HW233303   1.786   1.438   5.989 -2.1774 -2.4623 -0.3423
 7281SOL     OW33304   0.705   4.349   9.254  0.0100 -0.0479 -0.5621
 7281SOL    HW133305   0.752   4.423   9.214  1.0842 -0.0723  0.6716
 7281SOL    HW233306   0.627   4.393   9.289  1.5390  1.5973  0.7717
 7282SOL     OW33307   0.963   2.343   4.366  0.1401  0.1395 -0.4766
 7282SOL    HW133308   1.042   2.392   4.340 -0.4299  0.2435 -2.0087
 7282SOL    HW233309   0.957   2.295   4.283 -0.7589 -1.9277  0.7975
 7283SOL     OW33310   2.168   2.653   2.433  0.2058  0.2669 -0.3312
 7283SOL    HW133311   2.141   2.561   2.437 -0.4240  0.4991  0.7314
 7283SOL    HW233312   2.095   2.685   2.380  0.6812  1.7683 -0.0560
 7284SOL     OW33313   1.021   1.311   7.022 -0.0480 -0.1324 -0.3382
 7284SOL    HW133314   0.997   1.263   6.942 -2.0984  0.7381 -0.2411
 7284SOL    HW233315   0.940   1.312   7.072 -0.5575 -1.4348 -1.1372
 7285SOL     OW33316   3.964   2.478   6.230 -0.3401 -0.4689  0.0880
 7285SOL    HW133317   4.054   2.511   6.237  0.0543 -1.2971 -1.0749
 7285SOL    HW233318   3.981   2.390   6.262  2.3167 -0.2930 -0.8369
 7286SOL     OW33319   3.598   0.340   2.928 -0.1873  0.1506  0.0502
 7286SOL    HW133320   3.572   0.281   2.998  1.0301  0.3602  0.6830
 7286SOL    HW233321   3.515   0.386   2.914 -1.0853 -1.7051 -0.7165
 7287SOL     OW33322   0.583   3.800   2.150  0.1315 -0.1696 -0.3723
 7287SOL    HW133323   0.575   3.705   2.142  2.0945 -0.1602 -2.2735
 7287SOL    HW233324   0.671   3.817   2.182  0.2999 -2.8981  0.6130
 7288SOL     OW33325   0.468   1.533   1.176 -0.6125  0.4243  0.0291
 7288SOL    HW133326   0.522   1.509   1.251  1.3237 -0.3008 -1.6151
 7288SOL    HW233327   0.427   1.610   1.216 -3.6007 -0.2571 -1.6644
 7289SOL     OW33328   3.339   0.317  17.338  0.2666 -0.1160  0.3882
 7289SOL    HW133329   3.395   0.258  17.288 -2.6635 -2.8620  0.3686
 7289SOL    HW233330   3.297   0.249  17.390 -1.1558 -0.0765 -0.7188
 7290SOL     OW33331   2.288   0.776  12.288 -0.6702  0.2793 -0.4553
 7290SOL    HW133332   2.325   0.747  12.204 -1.3887 -2.4346  0.1480
 7290SOL    HW233333   2.297   0.696  12.340 -1.8446  0.1625 -0.4352
 7291SOL     OW33334   3.903   1.444   3.411 -0.4913  0.2877  0.5440
 7291SOL    HW133335   3.853   1.525   3.413  1.0063  1.2016  0.6420
 7291SOL    HW233336   3.950   1.439   3.495 -0.6078 -0.3345  0.5774
 7292SOL     OW33337   2.498   2.344   8.308 -0.8490  0.2544  0.6366
 7292SOL    HW133338   2.498   2.354   8.213  0.6457  0.1576  0.6257
 7292SOL    HW233339   2.508   2.436   8.329 -0.9044  0.3101  0.4199
 7293SOL     OW33340   3.248   0.610   2.199 -0.5628 -0.3006 -0.4471
 7293SOL    HW133341   3.234   0.662   2.120  0.7408  2.1450  0.9131
 7293SOL    HW233342   3.237   0.524   2.158  2.2240 -1.2123  0.6966
 7294SOL     OW33343   3.935   2.991  13.231  0.2882  0.2138 -0.2318
 7294SOL    HW133344   3.941   3.009  13.325 -0.4030  0.3960 -0.2273
 7294SOL    HW233345   3.939   3.081  13.197  0.9373  0.1523 -0.3186
 7295SOL     OW33346   0.115   1.080  15.145 -0.3677 -0.0937 -0.0216
 7295SOL    HW133347   0.035   1.027  15.145 -0.6371  0.3179  0.0978
 7295SOL    HW233348   0.140   1.067  15.053 -0.3039  0.9071 -0.1379
 7296SOL     OW33349   0.744   1.549   0.562  0.0736 -0.5082 -0.4582
 7296SOL    HW133350   0.707   1.637   0.563 -2.3328 -1.5129 -1.0183
 7296SOL    HW233351   0.791   1.541   0.645 -2.6068 -1.3374  0.9995
 7297SOL     OW33352   1.589   2.995   1.453  0.5932  0.0123  0.3703
 7297SOL    HW133353   1.559   3.009   1.363 -0.2880  0.5460  0.7485
 7297SOL    HW233354   1.540   3.065   1.497  2.5331  1.9760 -0.5633
 7298SOL     OW33355   3.585   2.035   1.265  0.2317  0.3163  0.3715
 7298SOL    HW133356   3.512   2.043   1.203  0.6814 -0.5818 -0.2748
 7298SOL    HW233357   3.555   1.975   1.333  0.4040 -1.7925 -1.4064
 7299SOL     OW33358   1.694   1.991   6.790  0.4445 -0.3081  0.0929
 7299SOL    HW133359   1.697   2.058   6.722  2.1061 -0.0770  0.3975
 7299SOL    HW233360   1.602   1.966   6.790 -0.2408  2.2122  0.4272
 7300SOL     OW33361   2.362   3.258   6.714  0.0416 -0.0761 -0.0840
 7300SOL    HW133362   2.307   3.234   6.639 -0.5886 -2.7658  1.2221
 7300SOL    HW233363   2.301   3.252   6.788  0.7809  2.0263  0.6877
 7301SOL     OW33364   0.792   1.377   2.726  0.0194 -0.0811  0.3143
 7301SOL    HW133365   0.843   1.417   2.795 -2.0884  1.0998  1.1836
 7301SOL    HW233366   0.800   1.282   2.733 -1.5019 -0.3829 -1.9389
 7302SOL     OW33367   2.746   2.661  13.804  0.0352  0.1768  0.2475
 7302SOL    HW133368   2.825   2.638  13.853 -0.5604 -0.6113  0.8481
 7302SOL    HW233369   2.715   2.748  13.829  0.4913  0.4145 -0.0089
 7303SOL     OW33370   2.903   2.093  16.499  0.2686 -0.0126  0.5885
 7303SOL    HW133371   2.951   2.149  16.438 -1.5223  0.0320 -0.8035
 7303SOL    HW233372   2.921   2.127  16.586  0.8554  0.5427  0.2548
 7304SOL     OW33373   2.418   1.881   9.971  0.0986 -0.5084 -0.0839
 7304SOL    HW133374   2.339   1.862  10.022  1.2454 -0.5708  1.6512
 7304SOL    HW233375   2.391   1.963   9.930 -0.0662 -0.5336 -0.0255
 7305SOL     OW33376   2.290   2.684   5.030 -0.5112 -0.0611 -0.1207
 7305SOL    HW133377   2.231   2.706   4.958  1.6793  1.4421 -1.4565
 7305SOL    HW233378   2.253   2.598   5.051  2.5935 -1.2851  0.2986
 7306SOL     OW33379   3.127   4.460   7.370  0.1258 -0.0031 -0.5285
 7306SOL    HW133380   3.076   4.420   7.440 -0.1908  0.1677 -0.6619
 7306SOL    HW233381   3.067   4.439   7.298 -0.8716 -1.6808  0.7980
 7307SOL     OW33382   4.349   3.164   3.001 -0.6117 -0.0298 -0.1616
 7307SOL    HW133383   4.427   3.116   3.027 -0.3110  1.1154  1.0407
 7307SOL    HW233384   4.381   3.224   2.933 -0.0112 -0.5275 -0.3149
 7308SOL     OW33385   3.465   1.060  11.820 -0.6137  0.5461 -0.4521
 7308SOL    HW133386   3.539   1.106  11.780 -0.9282  2.0104  0.6268
 7308SOL    HW233387   3.509   1.005  11.884 -0.3406  1.6206  0.2854
 7309SOL     OW33388   2.250   1.272   0.357 -0.4843 -0.2628  0.4241
 7309SOL    HW133389   2.234   1.198   0.415 -0.3387 -1.0908 -0.5865
 7309SOL    HW233390   2.215   1.235   0.276 -1.6976 -0.2740  0.9632
 7310SOL     OW33391   0.966   0.645   8.781  0.5166  0.2949  0.5456
 7310SOL    HW133392   0.902   0.605   8.840  0.4593 -0.1717  0.1632
 7310SOL    HW233393   0.916   0.653   8.700  0.4787  1.3681  0.6738
 7311SOL     OW33394   4.122   4.380  13.819 -0.2211  0.2637  0.7654
 7311SOL    HW133395   4.165   4.462  13.795 -1.3557  0.1647 -1.6016
 7311SOL    HW233396   4.191   4.353  13.879 -0.4896  1.9981  1.8703
 7312SOL     OW33397   0.133   3.795   6.876 -0.3831 -0.3581  0.2840
 7312SOL    HW133398   0.105   3.836   6.958  1.4838  2.1540 -0.3682
 7312SOL    HW233399   0.171   3.874   6.838 -1.5193  0.3285  0.5528
 7313SOL     OW33400   2.349   4.237   3.592 -0.7488 -0.3215 -0.4802
 7313SOL    HW133401   2.277   4.281   3.548 -0.7248 -2.2200 -2.4184
 7313SOL    HW233402   2.422   4.269   3.540 -0.8426 -1.9546 -1.6223
 7314SOL     OW33403   0.800   3.665  11.088 -0.8488  0.0315 -0.2628
 7314SOL    HW133404   0.757   3.588  11.126 -0.2739 -0.7744 -1.2309
 7314SOL    HW233405   0.729   3.718  11.051 -0.4257  1.1487  0.5389
 7315SOL     OW33406   2.738   1.369   4.732 -0.0105  0.3794 -0.0707
 7315SOL    HW133407   2.682   1.440   4.761 -1.4605 -0.5387 -0.5918
 7315SOL    HW233408   2.674   1.298   4.727 -0.7661  1.0562  0.1822
 7316SOL     OW33409   0.279   0.833   2.104  0.5086 -0.0102 -0.2633
 7316SOL    HW133410   0.288   0.739   2.092  0.9716 -0.1069  0.8809
 7316SOL    HW233411   0.363   0.865   2.072  0.1865  0.2871 -0.8224
 7317SOL     OW33412   4.103   1.402   8.949 -0.2118 -0.1564  0.0748
 7317SOL    HW133413   4.088   1.488   8.988  4.0335  0.6801 -0.1297
 7317SOL    HW233414   4.168   1.364   9.009 -2.4959 -0.9217  2.0637
 7318SOL     OW33415   2.784   1.003   2.601  0.7817 -0.2328  0.1391
 7318SOL    HW133416   2.875   0.986   2.625  0.5286  0.5854  1.7001
 7318SOL    HW233417   2.746   0.987   2.688 -2.1296 -0.1011 -1.0976
 7319SOL     OW33418   4.183   4.317  12.953  0.3466  0.5754  0.1474
 7319SOL    HW133419   4.201   4.411  12.962 -1.2895  1.0030 -1.0459
 7319SOL    HW233420   4.087   4.314  12.945  0.2743  1.2018  0.7510
 7320SOL     OW33421   4.683   4.565   8.964  0.2159  0.3399  1.1989
 7320SOL    HW133422   4.652   4.494   8.908  2.5289 -0.6926  1.2221
 7320SOL    HW233423   0.048   4.594   8.930 -0.0729 -2.5042 -1.9022
 7321SOL     OW33424   3.327   2.902   4.366  0.0550 -0.0155 -0.2579
 7321SOL    HW133425   3.249   2.957   4.359  0.9185  0.8829 -2.4067
 7321SOL    HW233426   3.314   2.854   4.449  0.1332 -0.8201 -0.7103
 7322SOL     OW33427   3.024   4.066  16.803 -0.1069  0.4645 -0.1168
 7322SOL    HW133428   3.101   4.119  16.785 -0.3162  0.9285  0.3549
 7322SOL    HW233429   3.058   4.023  16.881  0.4915  0.5290 -0.3421
 7323SOL     OW33430   2.805   1.381   4.010 -0.0258  0.0294  0.1008
 7323SOL    HW133431   2.716   1.348   4.019  0.8368 -2.0937  0.6795
 7323SOL    HW233432   2.822   1.439   4.085 -0.7706 -1.3361  1.3096
 7324SOL     OW33433   0.190   1.808   2.209  0.2564  0.4274 -0.1228
 7324SOL    HW133434   0.149   1.723   2.195 -3.2903  2.0343  0.5849
 7324SOL    HW233435   0.151   1.837   2.291  0.2428  0.5286 -0.1652
 7325SOL     OW33436   1.068   3.082  11.036  0.2567 -0.6258  0.6920
 7325SOL    HW133437   1.039   3.075  11.127  1.0718  0.6577  1.0437
 7325SOL    HW233438   0.983   3.056  11.002  0.3615  1.2536 -1.0065
 7326SOL     OW33439   0.337   2.273   5.282 -0.1626 -0.2684  0.2378
 7326SOL    HW133440   0.348   2.295   5.189 -0.6070  2.2214  0.7820
 7326SOL    HW233441   0.313   2.352   5.330 -0.0765 -0.2208  0.2030
 7327SOL     OW33442   1.939   1.964  16.620  0.5839 -0.6807 -0.0756
 7327SOL    HW133443   1.947   1.888  16.562 -2.4367 -0.3226 -0.9383
 7327SOL    HW233444   1.977   1.925  16.699  2.4495  0.1300 -0.5793
 7328SOL     OW33445   2.671   0.850   0.334 -0.3325  0.0632 -0.5590
 7328SOL    HW133446   2.673   0.768   0.383  2.3000  1.0321  1.0019
 7328SOL    HW233447   2.744   0.899   0.373  2.6086 -3.8209 -1.2833
 7329SOL     OW33448   2.098   4.213   5.989  0.2299  0.4197 -0.1565
 7329SOL    HW133449   2.050   4.138   5.954  0.8779 -0.5810  1.1210
 7329SOL    HW233450   2.050   4.286   5.950  1.0439  0.7089 -0.6230
 7330SOL     OW33451   3.555   4.581   5.569  0.2916  0.2923 -0.3311
 7330SOL    HW133452   3.557   4.673   5.594  1.3214  0.4578 -1.0354
 7330SOL    HW233453   3.636   4.547   5.607 -0.1149 -0.6438 -0.2979
 7331SOL     OW33454   4.059   0.706  10.510 -0.5511 -0.4667 -0.2375
 7331SOL    HW133455   4.027   0.616  10.508 -0.9304 -0.3399 -0.0378
 7331SOL    HW233456   4.011   0.745  10.436  0.2985  0.5858 -0.2321
 7332SOL     OW33457   4.249   1.579  17.593 -0.2646 -0.3018 -0.1548
 7332SOL    HW133458   4.220   1.528  17.668 -4.0385  0.0004 -1.3845
 7332SOL    HW233459   4.186   1.651  17.581 -0.4402 -0.4504 -0.1184
 7333SOL     OW33460   2.447   2.394   8.042 -0.5170 -0.2530 -0.1281
 7333SOL    HW133461   2.473   2.319   7.988  1.2682 -0.3036  0.8269
 7333SOL    HW233462   2.356   2.410   8.016 -0.7152 -2.0257 -0.5351
 7334SOL     OW33463   2.661   1.755   4.326  0.2257  0.0182 -0.4683
 7334SOL    HW133464   2.702   1.669   4.319  0.8156  0.1929  0.8954
 7334SOL    HW233465   2.686   1.776   4.236  0.9369 -1.0562 -0.5166
 7335SOL     OW33466   1.248   3.066   6.808 -0.2514 -0.5063  0.0891
 7335SOL    HW133467   1.246   3.001   6.738 -0.9544 -2.8803  2.3161
 7335SOL    HW233468   1.213   3.019   6.883 -2.4782 -1.9745 -1.8656
 7336SOL     OW33469   1.222   1.955   3.419  0.6455  0.5524  0.6030
 7336SOL    HW133470   1.157   1.961   3.349  2.1719  0.2133 -0.8639
 7336SOL    HW233471   1.242   2.049   3.426  1.7244  0.3161  0.7279
 7337SOL     OW33472   0.337   3.211   0.591 -0.4151  0.2433  0.5866
 7337SOL    HW133473   0.278   3.161   0.535 -0.2981 -0.0109  0.6938
 7337SOL    HW233474   0.274   3.277   0.618 -0.5555  0.6832 -0.7731
 7338SOL     OW33475   1.606   2.840   6.117  0.0135  0.1760 -0.0587
 7338SOL    HW133476   1.687   2.868   6.074  1.0082 -2.3336  0.1414
 7338SOL    HW233477   1.548   2.906   6.080 -0.5603  0.3090  1.0833
 7339SOL     OW33478   4.619   1.014   4.334 -0.1254  0.2365 -0.0808
 7339SOL    HW133479   4.525   0.997   4.340 -0.0020 -0.7474 -1.0100
 7339SOL    HW233480   4.641   0.960   4.258 -1.5620  1.2013 -1.2021
 7340SOL     OW33481   2.796   4.157   7.331  0.1383 -0.1876  0.6646
 7340SOL    HW133482   2.800   4.243   7.289  0.8073 -1.4080 -1.7880
 7340SOL    HW233483   2.758   4.109   7.258  0.0484  0.5400  0.2308
 7341SOL     OW33484   3.892   4.339   9.767  0.1935 -0.4197 -0.7220
 7341SOL    HW133485   3.830   4.404   9.798  0.6326 -0.1355 -0.4492
 7341SOL    HW233486   3.939   4.313   9.846  0.1642 -0.4902 -0.7269
 7342SOL     OW33487   2.497   1.473  12.904  0.1977 -0.6144  0.3337
 7342SOL    HW133488   2.585   1.448  12.879  0.0959 -0.1520 -0.4875
 7342SOL    HW233489   2.453   1.503  12.825 -2.9478 -1.1505  1.8349
 7343SOL     OW33490   1.381   2.812  14.214  0.1987 -0.1451 -0.2000
 7343SOL    HW133491   1.402   2.719  14.200  2.6055  0.3242  0.2465
 7343SOL    HW233492   1.286   2.819  14.216  0.0726 -2.0928  0.6692
 7344SOL     OW33493   4.696   4.702   6.631 -1.0617  0.1772  0.7873
 7344SOL    HW133494   4.706   4.614   6.593 -0.1307  0.6592 -0.0863
 7344SOL    HW233495   4.641   0.029   6.568 -0.3863  0.2056  0.2191
 7345SOL     OW33496   1.931   4.443   4.508 -0.0680 -0.1958  0.2340
 7345SOL    HW133497   1.958   4.452   4.417 -0.8522  0.4762  0.0593
 7345SOL    HW233498   1.908   4.533   4.534  2.2230  0.0094  1.5796
 7346SOL     OW33499   1.752   0.064  16.865 -0.0352 -0.3848  0.1311
 7346SOL    HW133500   1.823   0.120  16.837  0.0303 -0.1018  0.8568
 7346SOL    HW233501   1.748   0.080  16.959  0.2686 -1.4076  0.3252
 7347SOL     OW33502   4.165   3.688   2.700 -0.6863  0.1840 -0.0123
 7347SOL    HW133503   4.121   3.612   2.737  1.3806 -0.4424  1.1504
 7347SOL    HW233504   4.252   3.648   2.703 -0.5877  0.4033  0.0550
 7348SOL     OW33505   1.479   2.209   5.816  1.0182  0.3612  0.6400
 7348SOL    HW133506   1.522   2.137   5.769  1.8665  0.5649  1.1035
 7348SOL    HW233507   1.401   2.214   5.761  1.8680  0.8094 -0.5020
 7349SOL     OW33508   0.852   3.070   1.558  0.8406  0.4551  0.2383
 7349SOL    HW133509   0.889   3.070   1.646  0.6858  2.3361  0.3103
 7349SOL    HW233510   0.778   3.014   1.582  1.0283  0.8394  1.6883
 7350SOL     OW33511   2.572   0.053  14.216 -0.0721  0.0504 -0.1848
 7350SOL    HW133512   2.544   4.683  14.230  1.4826 -0.5646 -0.9315
 7350SOL    HW233513   2.658   0.038  14.175 -1.4588 -1.1607 -2.6749
 7351SOL     OW33514   2.498   0.380   4.575  0.5294  0.5421  0.1131
 7351SOL    HW133515   2.590   0.386   4.549  0.6363 -3.6621 -0.5489
 7351SOL    HW233516   2.478   0.473   4.585 -1.0760  0.1233  0.6754
 7352SOL     OW33517   3.455   1.884   6.587  0.0591 -0.4301  0.2083
 7352SOL    HW133518   3.414   1.886   6.501  2.8457  0.3213 -1.0945
 7352SOL    HW233519   3.388   1.836   6.635 -3.0158  1.4341 -2.2619
 7353SOL     OW33520   0.123   0.615   8.526  0.1760 -0.5333 -0.4266
 7353SOL    HW133521   0.117   0.520   8.525 -1.2234 -0.4421 -0.8412
 7353SOL    HW233522   0.031   0.641   8.515  0.0672 -0.5040  0.5743
 7354SOL     OW33523   4.246   1.596   4.572 -0.1338  0.9881 -0.3052
 7354SOL    HW133524   4.341   1.589   4.581 -0.5101 -2.1202  1.3459
 7354SOL    HW233525   4.228   1.515   4.620 -0.9772  1.0653 -0.5008
 7355SOL     OW33526   2.586   0.071   7.390  0.0650  0.0281  0.9776
 7355SOL    HW133527   2.502   0.081   7.435 -0.3066  2.0666 -0.1947
 7355SOL    HW233528   2.637   0.014   7.449 -1.1294 -0.3865  1.6156
 7356SOL     OW33529   4.705   0.900  12.808 -0.8520 -0.0919  0.0594
 7356SOL    HW133530   4.690   0.956  12.732  0.2624 -0.5864 -0.5300
 7356SOL    HW233531   0.018   0.823  12.761 -0.1694 -1.0591  2.1076
 7357SOL     OW33532   0.504   1.135   3.397  0.0068  0.3017 -0.4952
 7357SOL    HW133533   0.418   1.161   3.430  0.0351  0.2453 -0.3763
 7357SOL    HW233534   0.512   1.053   3.445 -0.3255  1.4996  1.5906
 7358SOL     OW33535   1.932   4.458   5.938 -0.3993 -0.6563  0.1049
 7358SOL    HW133536   1.903   4.549   5.939 -0.3084 -0.6119 -2.5524
 7358SOL    HW233537   1.906   4.427   5.851 -0.4270 -0.8402  0.1790
 7359SOL     OW33538   3.205   0.040  15.702  0.7797 -0.0592 -0.5755
 7359SOL    HW133539   3.200   0.130  15.736 -0.0251 -0.3644  0.0937
 7359SOL    HW233540   3.149   0.043  15.625  1.8910 -1.2586 -1.4243
 7360SOL     OW33541   1.884   4.080   8.432  0.2955 -0.4885 -0.0562
 7360SOL    HW133542   1.937   4.078   8.511 -1.7066  0.6929  1.3086
 7360SOL    HW233543   1.829   4.001   8.430 -0.7425  0.2110  1.5299
 7361SOL     OW33544   0.848   0.834  10.112 -0.3032  0.3207 -0.0436
 7361SOL    HW133545   0.804   0.851  10.029 -1.7003  1.5443  0.9411
 7361SOL    HW233546   0.923   0.785  10.078 -0.5630  0.1350 -0.3400
 7362SOL     OW33547   2.470   2.880   7.027  0.3016  0.1691 -0.0484
 7362SOL    HW133548   2.512   2.965   7.013 -1.4586  1.3653  1.8716
 7362SOL    HW233549   2.459   2.871   7.122 -5.1690  0.6654 -0.5944
 7363SOL     OW33550   1.831   3.519  16.848 -0.6067 -0.0472  0.3843
 7363SOL    HW133551   1.853   3.611  16.834 -1.0733  0.1801  1.1186
 7363SOL    HW233552   1.849   3.482  16.762  1.9756 -0.1203  0.9519
 7364SOL     OW33553   0.230   3.181   3.568  0.0289  0.1766 -0.1827
 7364SOL    HW133554   0.242   3.103   3.512  1.3516  0.6791 -0.6031
 7364SOL    HW233555   0.220   3.229   3.486  1.1639 -1.1676 -1.1172
 7365SOL     OW33556   1.034   0.295   5.400  0.3048  0.3250  0.3604
 7365SOL    HW133557   1.103   0.344   5.443 -0.0430  0.4829  0.7373
 7365SOL    HW233558   0.980   0.374   5.391 -1.1241 -0.5657  1.0530
 7366SOL     OW33559   4.202   0.482   4.871  0.3380  0.1474  0.5289
 7366SOL    HW133560   4.114   0.519   4.860 -1.1936 -3.3621  1.0493
 7366SOL    HW233561   4.189   0.408   4.932  0.4339 -1.5632 -1.5406
 7367SOL     OW33562   4.158   2.598   2.322  0.2368  0.0928 -0.0103
 7367SOL    HW133563   4.128   2.687   2.307  0.3309 -0.1373 -1.5493
 7367SOL    HW233564   4.093   2.576   2.389 -0.3365  1.5512 -0.0857
 7368SOL     OW33565   1.300   3.433  15.062 -0.1088 -0.0843 -0.1166
 7368SOL    HW133566   1.352   3.407  15.137 -0.6752  0.7379  0.5544
 7368SOL    HW233567   1.216   3.449  15.105 -0.5746 -1.8336 -0.3782
 7369SOL     OW33568   2.389   1.410   2.043  0.2177  0.9719  0.4170
 7369SOL    HW133569   2.444   1.333   2.032  0.9763  1.6528 -0.5143
 7369SOL    HW233570   2.419   1.460   1.968  0.8011 -1.1529 -0.7726
 7370SOL     OW33571   0.258   3.220  12.461  0.1796 -0.4305  0.2740
 7370SOL    HW133572   0.218   3.138  12.490 -1.6026 -0.4401 -2.2735
 7370SOL    HW233573   0.186   3.259  12.412  2.0724  3.8335  0.8054
 7371SOL     OW33574   3.909   4.268   2.902  0.4756 -0.0328 -0.3607
 7371SOL    HW133575   3.960   4.199   2.944 -0.1948  0.0989  0.6818
 7371SOL    HW233576   3.833   4.257   2.959  0.1520  2.9565 -0.2257
 7372SOL     OW33577   0.624   1.409   0.862 -0.3858 -0.3931 -0.2184
 7372SOL    HW133578   0.662   1.321   0.862 -1.2486 -0.7657 -1.6811
 7372SOL    HW233579   0.550   1.410   0.801  0.9041  0.1166 -1.7682
 7373SOL     OW33580   4.312   0.540   9.062 -0.0795  0.1625  0.5806
 7373SOL    HW133581   4.291   0.480   9.133  0.6985 -1.0875 -0.2374
 7373SOL    HW233582   4.244   0.522   8.997  2.1328 -0.0140 -1.6839
 7374SOL     OW33583   4.495   4.403  15.018 -1.0063 -0.2393  0.0975
 7374SOL    HW133584   4.575   4.353  15.034  0.2857  1.2453 -1.6803
 7374SOL    HW233585   4.485   4.405  14.923  1.6180 -2.1626 -0.1943
 7375SOL     OW33586   4.676   4.367   2.127 -0.3564 -0.0373 -0.0570
 7375SOL    HW133587   4.675   4.350   2.032  0.5079  0.0370 -0.0851
 7375SOL    HW233588   4.589   4.401   2.147 -0.0381 -0.0136  1.2593
 7376SOL     OW33589   3.653   0.324   2.668 -0.4840  0.4175 -0.4952
 7376SOL    HW133590   3.587   0.257   2.650  1.3700 -1.0729 -1.6404
 7376SOL    HW233591   3.609   0.358   2.746  2.8467  0.4193  1.3573
 7377SOL     OW33592   1.828   0.544  14.814  0.2994 -0.2569 -0.0247
 7377SOL    HW133593   1.775   0.620  14.792 -1.0525 -1.1468  0.1987
 7377SOL    HW233594   1.917   0.578  14.827 -0.2950  0.8678  1.0806
 7378SOL     OW33595   3.790   4.714   5.418 -0.3046 -0.2204 -0.3045
 7378SOL    HW133596   3.798   0.026   5.329  0.8906  1.1756  0.3103
 7378SOL    HW233597   3.813   4.622   5.405 -1.1595 -0.8121  2.3783
 7379SOL     OW33598   0.399   3.314   7.006  0.2845 -0.0301  0.5348
 7379SOL    HW133599   0.383   3.350   7.093 -0.5537  1.8393 -0.3961
 7379SOL    HW233600   0.367   3.224   7.016  0.7508 -0.0022  2.2834
 7380SOL     OW33601   1.777   4.255   3.888  0.4645  0.1150  0.4458
 7380SOL    HW133602   1.758   4.258   3.981  1.5662 -1.5994  0.7250
 7380SOL    HW233603   1.740   4.170   3.863  2.9157 -0.5451 -1.0230
 7381SOL     OW33604   3.431   2.252   3.236  0.3306  0.5033  0.0473
 7381SOL    HW133605   3.371   2.327   3.235 -1.0976 -0.6046  3.0303
 7381SOL    HW233606   3.490   2.292   3.172  1.9909 -0.3909  1.0258
 7382SOL     OW33607   1.335   3.988   2.497 -0.3417 -0.2292 -0.0655
 7382SOL    HW133608   1.256   4.027   2.535 -0.0317  0.4336 -0.1135
 7382SOL    HW233609   1.336   3.898   2.530 -0.8636 -0.8620 -1.7624
 7383SOL     OW33610   1.959   0.927   2.581 -0.1851 -0.2892  0.2159
 7383SOL    HW133611   1.966   1.003   2.523 -4.7910  0.5783  0.7973
 7383SOL    HW233612   1.980   0.968   2.665  2.1049 -1.3135  0.1457
 7384SOL     OW33613   3.534   4.611   7.928  0.3727  0.7460  0.3631
 7384SOL    HW133614   3.575   4.697   7.927 -0.3550  1.0878 -1.4347
 7384SOL    HW233615   3.475   4.636   7.999  0.1547  0.9103  0.1232
 7385SOL     OW33616   1.353   1.128   3.441  1.1695  0.4902  0.0073
 7385SOL    HW133617   1.283   1.182   3.479 -0.8607  0.5182 -3.7725
 7385SOL    HW233618   1.403   1.104   3.519 -1.2696  3.2923  2.4657
 7386SOL     OW33619   0.897   1.515   0.882  0.7338  1.2281 -0.9102
 7386SOL    HW133620   0.818   1.552   0.922  0.6877  0.9486 -0.7440
 7386SOL    HW233621   0.864   1.429   0.855  1.6025 -0.1516  2.4493
 7387SOL     OW33622   2.380   3.328   4.349  0.4625 -0.2220  0.0969
 7387SOL    HW133623   2.445   3.325   4.419  1.3350 -2.4346 -0.8139
 7387SOL    HW233624   2.415   3.377   4.275  0.2453 -2.9226 -1.7771
 7388SOL     OW33625   2.369   0.062   6.983 -0.3040  0.0621 -0.2790
 7388SOL    HW133626   2.456   0.071   7.021 -1.3870  1.6203  1.8391
 7388SOL    HW233627   2.395   0.006   6.910 -0.9778  0.2675 -0.6786
 7389SOL     OW33628   1.153   0.352   8.132 -0.4955  0.1443 -0.1676
 7389SOL    HW133629   1.125   0.441   8.111 -0.0038  0.2716 -0.2849
 7389SOL    HW233630   1.096   0.331   8.206  1.2989 -1.8490  0.6730
 7390SOL     OW33631   3.952   4.093  12.743  0.0676  0.4321  0.4418
 7390SOL    HW133632   3.940   4.184  12.771  1.4474  1.0215 -0.9147
 7390SOL    HW233633   3.975   4.058  12.829 -3.0330 -1.3025  0.5395
 7391SOL     OW33634   1.927   1.304  10.147  0.4121 -0.2634 -0.6087
 7391SOL    HW133635   1.856   1.244  10.173  0.4875  0.1052  0.4687
 7391SOL    HW233636   1.991   1.240  10.113 -0.5356 -1.2118 -0.6190
 7392SOL     OW33637   1.408   4.283   7.555 -0.1738 -0.4729 -0.1946
 7392SOL    HW133638   1.426   4.349   7.487  3.1876 -1.8247 -0.6386
 7392SOL    HW233639   1.494   4.249   7.580  0.7654  0.2103 -2.5188
 7393SOL     OW33640   1.569   3.229   2.763 -0.2635 -0.3036 -0.0981
 7393SOL    HW133641   1.642   3.280   2.799  0.1026 -0.9742  0.0989
 7393SOL    HW233642   1.576   3.260   2.672 -2.9595  1.1737  0.1938
 7394SOL     OW33643   1.667   3.844   4.989 -0.0530 -0.0325  0.5236
 7394SOL    HW133644   1.660   3.810   5.078 -1.3046 -0.1749  0.3668
 7394SOL    HW233645   1.588   3.897   4.981  0.9681  1.6843  1.8630
 7395SOL     OW33646   4.195   4.407  11.130 -0.0837  0.2073  0.3643
 7395SOL    HW133647   4.255   4.476  11.157 -0.2758  0.4853  0.0877
 7395SOL    HW233648   4.164   4.381  11.217 -0.3197 -0.0264  0.2115
 7396SOL     OW33649   1.184   0.117   8.004 -0.3383  0.5209 -0.1980
 7396SOL    HW133650   1.102   0.079   8.035  0.3555  0.0550  1.0752
 7396SOL    HW233651   1.182   0.203   8.048 -0.7840  0.4390 -0.0598
 7397SOL     OW33652   2.112   4.617  14.780 -0.6615 -0.4888 -0.2898
 7397SOL    HW133653   2.195   4.571  14.764 -0.6305 -0.1253 -1.1768
 7397SOL    HW233654   2.078   4.565  14.853 -0.0785  2.5769  2.1417
 7398SOL     OW33655   3.130   4.679   9.338 -0.5819 -0.6024  0.2426
 7398SOL    HW133656   3.153   4.698   9.247 -0.1245  0.8793  0.6652
 7398SOL    HW233657   3.050   4.631   9.318  0.8392 -2.2220 -1.5903
 7399SOL     OW33658   1.804   3.683   7.190  0.0501 -0.1646 -0.0370
 7399SOL    HW133659   1.739   3.715   7.253 -1.3573  0.1221 -1.6184
 7399SOL    HW233660   1.883   3.725   7.224  0.7794 -2.5212  1.2082
 7400SOL     OW33661   2.382   0.416   6.934  0.2716  0.7921  0.3123
 7400SOL    HW133662   2.358   0.505   6.909 -0.2573  0.9153  1.2448
 7400SOL    HW233663   2.366   0.419   7.029 -2.5845 -0.8546 -0.1111
 7401SOL     OW33664   3.716   0.838   3.894  0.6823  0.0120 -0.1908
 7401SOL    HW133665   3.668   0.767   3.937  1.2712  1.2536  2.5025
 7401SOL    HW233666   3.641   0.867   3.842  0.6931 -0.9875 -0.7696
 7402SOL     OW33667   0.070   2.140   0.992  0.1797 -0.0827  0.3903
 7402SOL    HW133668   0.022   2.080   0.935  3.0676 -1.4204 -0.6007
 7402SOL    HW233669   0.140   2.181   0.940  1.2916 -1.1207  1.0739
 7403SOL     OW33670   3.643   0.092  16.562 -0.6148  0.3885  0.4104
 7403SOL    HW133671   3.577   0.161  16.561 -0.3725  0.6032 -0.3978
 7403SOL    HW233672   3.614   0.027  16.498 -0.9403 -1.7578  2.7483
 7404SOL     OW33673   3.166   2.439  13.585 -0.0836  0.3301  0.6060
 7404SOL    HW133674   3.185   2.439  13.679  1.0430  2.1606  0.3830
 7404SOL    HW233675   3.108   2.363  13.581 -0.4816  0.6641  0.0898
 7405SOL     OW33676   2.621   2.387   2.730  0.3868 -0.3582 -0.0642
 7405SOL    HW133677   2.688   2.426   2.674 -0.4284  0.1454 -0.7002
 7405SOL    HW233678   2.616   2.467   2.782 -0.6140 -0.3605 -0.1535
 7406SOL     OW33679   1.703   1.377   0.578  0.3763  0.0088 -0.1870
 7406SOL    HW133680   1.639   1.424   0.631  1.2803 -0.4025  1.2435
 7406SOL    HW233681   1.781   1.395   0.629  0.2801  2.6245 -0.9563
 7407SOL     OW33682   3.460   4.338   3.175 -0.0141 -0.7327 -0.5693
 7407SOL    HW133683   3.516   4.403   3.133  1.1805 -2.3723 -1.5116
 7407SOL    HW233684   3.478   4.273   3.108 -0.7281 -0.2993 -1.1822
 7408SOL     OW33685   3.715   2.995  13.583  0.0949 -0.0351 -0.1624
 7408SOL    HW133686   3.705   2.921  13.522  0.6660 -0.4418  0.2329
 7408SOL    HW233687   3.717   2.939  13.661 -1.2810 -1.1914 -0.9346
 7409SOL     OW33688   1.669   0.553  11.541 -0.4859 -0.1789  0.7926
 7409SOL    HW133689   1.693   0.461  11.550  1.0288 -0.0081 -1.6714
 7409SOL    HW233690   1.742   0.599  11.582  0.6615 -2.1858  0.9764
 7410SOL     OW33691   1.225   1.821  14.131  0.2335  0.1588 -0.0230
 7410SOL    HW133692   1.234   1.726  14.131  0.2068  0.1575 -0.2253
 7410SOL    HW233693   1.148   1.820  14.188  0.3823  0.1479  0.1804
 7411SOL     OW33694   4.559   4.438   3.556 -0.0639  0.5246 -0.0911
 7411SOL    HW133695   4.562   4.403   3.467 -0.5490 -0.9613  0.4640
 7411SOL    HW233696   4.493   4.506   3.544 -0.3411  0.3678  0.5339
 7412SOL     OW33697   0.936   4.122   3.411  0.5859  0.8831 -0.1065
 7412SOL    HW133698   0.983   4.044   3.383 -1.6000 -0.5123  0.1553
 7412SOL    HW233699   0.875   4.126   3.337  1.1920 -0.3619 -0.6743
 7413SOL     OW33700   1.833   2.525   4.059 -0.5487  0.5033 -0.2365
 7413SOL    HW133701   1.811   2.502   3.968  1.6768 -0.1287 -0.6163
 7413SOL    HW233702   1.797   2.614   4.063  3.4908  2.1259 -0.4730
 7414SOL     OW33703   4.062   0.239   1.912  0.0558 -0.1608  0.7880
 7414SOL    HW133704   4.005   0.251   1.836 -0.9197  2.8994  1.9998
 7414SOL    HW233705   4.118   0.165   1.890 -2.4439 -1.7701 -0.1174
 7415SOL     OW33706   3.606   0.483   9.848 -0.1009 -0.3586 -0.1064
 7415SOL    HW133707   3.548   0.541   9.800 -0.5637  0.2257  1.1514
 7415SOL    HW233708   3.611   0.408   9.789 -0.4565  0.3210 -0.9945
 7416SOL     OW33709   0.977   3.359   7.178  0.8003  0.1941 -0.1903
 7416SOL    HW133710   0.894   3.311   7.180  0.8307  0.0899 -1.3310
 7416SOL    HW233711   0.981   3.379   7.084 -2.3914 -6.2479 -1.6828
 7417SOL     OW33712   3.984   1.269   4.125  0.3632 -0.0206  0.1705
 7417SOL    HW133713   3.967   1.265   4.031  0.9013  4.4378 -0.1359
 7417SOL    HW233714   3.900   1.283   4.171  0.2470 -0.0549 -0.0322
 7418SOL     OW33715   0.553   0.794  13.065 -0.0438  0.2376 -0.2453
 7418SOL    HW133716   0.508   0.710  13.076  0.8364  0.1829  2.7310
 7418SOL    HW233717   0.636   0.785  13.018 -1.3281 -3.0226 -1.8966
 7419SOL     OW33718   2.188   1.750  11.377 -0.0414  0.1492  0.1404
 7419SOL    HW133719   2.152   1.765  11.290  0.3198 -1.5289 -0.2864
 7419SOL    HW233720   2.197   1.656  11.362  0.4743  0.2341 -0.0773
 7420SOL     OW33721   0.891   0.538   9.662 -0.6095 -0.7151  0.1435
 7420SOL    HW133722   0.805   0.516   9.697 -0.0841 -1.7019  0.7833
 7420SOL    HW233723   0.943   0.487   9.724 -0.8134 -2.0492 -0.8004
 7421SOL     OW33724   0.385   0.473   3.667 -0.3845 -0.4293  0.0825
 7421SOL    HW133725   0.342   0.485   3.583 -0.0954  0.5819  0.0856
 7421SOL    HW233726   0.355   0.550   3.714 -0.8508  1.2799 -3.0371
 7422SOL     OW33727   1.639   1.822   7.704 -0.3549  0.0895 -0.3609
 7422SOL    HW133728   1.696   1.838   7.780 -2.1541 -0.7351  1.1740
 7422SOL    HW233729   1.558   1.858   7.741 -2.0140 -3.3805 -0.6191
 7423SOL     OW33730   0.773   0.522   5.889 -0.2058  0.4147  0.2487
 7423SOL    HW133731   0.801   0.503   5.978  1.5593 -0.5575 -0.5225
 7423SOL    HW233732   0.774   0.618   5.881  0.9640  0.1566 -2.8226
 7424SOL     OW33733   0.635   4.405   2.882 -0.1290 -0.1014  0.2838
 7424SOL    HW133734   0.606   4.410   2.791 -0.1306 -0.9541  0.2333
 7424SOL    HW233735   0.663   4.491   2.912 -1.2199  0.2285  0.3292
 7425SOL     OW33736   3.538   4.044  13.659 -0.0154  0.8625 -0.2313
 7425SOL    HW133737   3.506   3.997  13.582 -0.7417 -0.8975  1.1448
 7425SOL    HW233738   3.471   4.042  13.727 -0.3983  1.7472 -0.5874
 7426SOL     OW33739   3.927   1.602  10.179  0.4933 -0.3824  0.1430
 7426SOL    HW133740   3.941   1.675  10.238  0.9750 -1.2170  1.0600
 7426SOL    HW233741   3.862   1.563  10.238  2.9384 -1.2272  2.3218
 7427SOL     OW33742   3.596   0.800   7.823  0.4702 -0.0771 -0.0020
 7427SOL    HW133743   3.676   0.828   7.867  1.1842 -0.9971 -0.7105
 7427SOL    HW233744   3.528   0.847   7.872 -1.0746 -0.6980 -1.5544
 7428SOL     OW33745   2.985   4.626  13.183  0.6794  0.1650  0.2593
 7428SOL    HW133746   2.913   4.567  13.160  1.7779 -1.9888  2.2991
 7428SOL    HW233747   3.056   4.569  13.155  1.6016  0.0187  2.9646
 7429SOL     OW33748   4.255   4.068   9.751 -0.1856  0.0667 -0.5098
 7429SOL    HW133749   4.346   4.045   9.731 -0.1480  0.5316 -0.8772
 7429SOL    HW233750   4.210   3.988   9.724 -0.5778 -0.1675  0.8435
 7430SOL     OW33751   0.125   4.228  11.001 -0.8098 -0.2310 -0.0554
 7430SOL    HW133752   0.071   4.205  10.925 -0.4350  1.0894 -0.7171
 7430SOL    HW233753   0.209   4.187  10.979 -1.1121 -0.2384 -1.1753
 7431SOL     OW33754   0.446   1.683   2.265  0.6805  0.3129 -0.1050
 7431SOL    HW133755   0.412   1.667   2.353 -0.7353 -1.6991 -1.0187
 7431SOL    HW233756   0.370   1.735   2.240  1.0230  0.4382 -0.9071
 7432SOL     OW33757   2.072   3.701  11.569  0.3710 -0.2894  0.2614
 7432SOL    HW133758   2.115   3.616  11.578  2.1826  0.3763 -2.1440
 7432SOL    HW233759   1.987   3.675  11.531 -1.2858  2.1705  2.2464
 7433SOL     OW33760   1.701   0.837   8.297 -0.1414  0.3899  0.1998
 7433SOL    HW133761   1.682   0.870   8.385 -1.7969 -1.2994  0.4668
 7433SOL    HW233762   1.674   0.904   8.234 -0.3974  0.2955  0.2083
 7434SOL     OW33763   4.628   4.518   2.867  0.8855  0.1783 -0.5877
 7434SOL    HW133764   4.545   4.549   2.830  0.5543 -0.4885 -0.3991
 7434SOL    HW233765   4.664   4.468   2.794 -0.4312 -0.6545 -0.6674
 7435SOL     OW33766   0.243   0.638  11.058 -0.0439  0.0243  0.4949
 7435SOL    HW133767   0.251   0.544  11.072 -2.0207 -0.6125 -2.6295
 7435SOL    HW233768   0.302   0.662  10.988  0.2926  0.6827  1.0054
 7436SOL     OW33769   2.426   3.660   1.605  0.0017  0.5065  0.3336
 7436SOL    HW133770   2.449   3.658   1.512 -2.3312  2.2001 -0.2909
 7436SOL    HW233771   2.472   3.743   1.620  0.7799  0.3005 -0.8777
 7437SOL     OW33772   4.719   0.594   7.049  0.6291 -0.2765  0.5240
 7437SOL    HW133773   0.065   0.525   7.050  0.4843 -0.4184  0.3664
 7437SOL    HW233774   0.009   0.609   7.143  1.4886 -0.0170  0.3945
 7438SOL     OW33775   0.708   0.944   3.312  0.1505 -0.4841 -0.7081
 7438SOL    HW133776   0.623   0.900   3.319 -0.2674  0.6161  1.1941
 7438SOL    HW233777   0.715   0.973   3.221 -0.2962  0.8440 -0.3298
 7439SOL     OW33778   2.859   1.477   3.739 -0.4932  0.5019 -0.1676
 7439SOL    HW133779   2.937   1.438   3.701 -1.3842 -1.3355 -0.1201
 7439SOL    HW233780   2.839   1.434   3.823  0.9068  0.1900 -0.0025
 7440SOL     OW33781   3.540   4.266  16.027  0.1679 -0.0700  0.3871
 7440SOL    HW133782   3.588   4.293  16.106  2.3430  0.4119 -1.0879
 7440SOL    HW233783   3.453   4.299  16.050  0.8629  0.8915  1.7114
 7441SOL     OW33784   2.932   4.371   1.402 -0.2266 -0.9475 -0.1807
 7441SOL    HW133785   2.853   4.417   1.431 -0.3799 -0.1378 -1.8974
 7441SOL    HW233786   2.976   4.451   1.373  0.7883 -0.6910  2.0794
 7442SOL     OW33787   4.631   1.375   9.730 -0.6384 -0.3115  0.0427
 7442SOL    HW133788   4.629   1.378   9.825  0.2378  3.5089 -0.0666
 7442SOL    HW233789   4.677   1.457   9.713 -0.0222 -0.7815 -0.5729
 7443SOL     OW33790   2.358   0.669  10.734 -0.0052 -0.0204  0.3302
 7443SOL    HW133791   2.398   0.584  10.751 -1.5266 -0.4314  1.9672
 7443SOL    HW233792   2.265   0.648  10.740  0.2877 -1.4955 -0.4902
 7444SOL     OW33793   2.329   2.450   2.223 -0.1927 -0.5592  0.6443
 7444SOL    HW133794   2.276   2.409   2.291 -0.2285  1.1187  1.6059
 7444SOL    HW233795   2.402   2.477   2.277 -0.0644  1.0235 -0.3257
 7445SOL     OW33796   1.468   1.010   8.017 -0.1389  0.3109 -0.7308
 7445SOL    HW133797   1.434   0.923   8.039  3.2703 -0.2965  2.1623
 7445SOL    HW233798   1.515   1.035   8.097  0.2442  0.4096 -0.9874
 7446SOL     OW33799   3.313   2.046   4.447  0.1166  0.6551  0.5033
 7446SOL    HW133800   3.253   2.001   4.388  1.9563 -1.7826  0.5378
 7446SOL    HW233801   3.371   1.976   4.476 -0.2523 -0.9174 -2.6154
 7447SOL     OW33802   1.701   4.260   7.007  0.0202 -0.0629 -0.0943
 7447SOL    HW133803   1.654   4.180   6.984  0.8382 -0.1152 -1.6326
 7447SOL    HW233804   1.778   4.231   7.056  0.5333 -0.8420 -1.3608
 7448SOL     OW33805   3.957   2.836  15.343  0.4219 -0.1809 -0.3801
 7448SOL    HW133806   4.039   2.874  15.375  1.2306 -1.5046 -0.8845
 7448SOL    HW233807   3.987   2.821  15.253  0.8351  0.0845 -0.2851
 7449SOL     OW33808   2.742   1.838   2.385  0.2781  0.2168  0.1898
 7449SOL    HW133809   2.719   1.930   2.397  0.1607  0.0417  1.3754
 7449SOL    HW233810   2.838   1.844   2.389  0.2835 -0.9098  1.7734
 7450SOL     OW33811   0.178   3.724   7.826  0.1005 -0.2401  0.0189
 7450SOL    HW133812   0.155   3.778   7.902  1.1269 -0.7708  0.7136
 7450SOL    HW233813   0.112   3.656   7.840 -0.2713 -0.0244 -0.6745
 7451SOL     OW33814   4.120   1.444  11.356 -0.1476 -0.4229  1.3290
 7451SOL    HW133815   4.171   1.375  11.399  2.1189 -0.0092 -0.7479
 7451SOL    HW233816   4.143   1.522  11.405  0.6758 -1.2473  2.2562
 7452SOL     OW33817   3.869   4.635   1.971 -0.0146 -0.6392  0.1256
 7452SOL    HW133818   3.939   4.607   1.912  0.5368  2.0583 -0.5056
 7452SOL    HW233819   3.804   4.659   1.904 -0.6874  0.7162  1.2542
 7453SOL     OW33820   3.311   1.495   6.598  0.5472 -0.3182  0.1606
 7453SOL    HW133821   3.362   1.488   6.679  0.3742  1.5029  0.4269
 7453SOL    HW233822   3.282   1.587   6.604 -3.7261 -1.5577 -1.1492
 7454SOL     OW33823   0.360   0.423   4.490 -0.6381  0.6324  0.1204
 7454SOL    HW133824   0.274   0.385   4.471 -0.9473  1.2098  0.3564
 7454SOL    HW233825   0.416   0.378   4.426 -2.6176 -2.1647  0.3784
 7455SOL     OW33826   0.440   2.878  13.800 -0.4167 -0.4741  0.5035
 7455SOL    HW133827   0.446   2.874  13.895  0.0991 -2.0043  0.4026
 7455SOL    HW233828   0.347   2.886  13.783 -0.5948 -1.4100  1.0821
 7456SOL     OW33829   1.869   2.565   7.536  0.0207 -0.2937 -0.1641
 7456SOL    HW133830   1.949   2.617   7.529  0.3555 -0.6906  0.8303
 7456SOL    HW233831   1.888   2.474   7.515  1.2461 -0.1255  0.2040
 7457SOL     OW33832   2.813   0.098   5.189 -0.0013  0.5234 -0.6774
 7457SOL    HW133833   2.720   0.120   5.188  0.4194  2.2647 -0.6132
 7457SOL    HW233834   2.823   0.006   5.214 -1.7636  0.8099  1.0653
 7458SOL     OW33835   1.265   2.274  15.275 -0.2823  0.8396 -0.4394
 7458SOL    HW133836   1.229   2.190  15.248 -0.0172  0.6108 -0.0655
 7458SOL    HW233837   1.187   2.317  15.310  2.9976  4.2526  2.6394
 7459SOL     OW33838   1.538   1.134   4.704  0.6870  0.2592 -0.4685
 7459SOL    HW133839   1.628   1.114   4.729  1.3643  2.1426 -1.4229
 7459SOL    HW233840   1.512   1.043   4.694 -2.0125  1.0882 -1.0332
 7460SOL     OW33841   1.164   0.504   0.292 -0.4610  0.2208 -0.4646
 7460SOL    HW133842   1.160   0.574   0.228  0.5704 -1.1119 -1.9971
 7460SOL    HW233843   1.258   0.489   0.299 -0.1763  2.7394  1.0847
 7461SOL     OW33844   1.153   0.741  11.284  0.3686  0.4193  0.2553
 7461SOL    HW133845   1.119   0.668  11.233  0.4853  1.3750 -1.1693
 7461SOL    HW233846   1.145   0.810  11.218 -0.2602 -0.2751 -0.3899
 7462SOL     OW33847   0.436   2.376   3.450  0.4898 -0.2346  0.7127
 7462SOL    HW133848   0.371   2.313   3.482 -0.5028  2.4904  4.0777
 7462SOL    HW233849   0.420   2.442   3.517  1.8459  2.1773 -1.3412
 7463SOL     OW33850   3.817   3.652   4.935  0.0882  0.1804  0.1522
 7463SOL    HW133851   3.730   3.627   4.904  0.6047 -1.0036 -0.3231
 7463SOL    HW233852   3.824   3.615   5.024 -0.8959 -1.1187 -0.3116
 7464SOL     OW33853   4.336   3.097   8.860  0.2883  0.2121 -0.5442
 7464SOL    HW133854   4.373   3.054   8.937  3.6541  1.2557 -1.5938
 7464SOL    HW233855   4.366   3.033   8.795  0.3401 -0.0998 -0.2144
 7465SOL     OW33856   3.587   3.543   4.852 -0.2821  0.5590 -0.2729
 7465SOL    HW133857   3.552   3.566   4.766  0.9337  1.4303 -0.5321
 7465SOL    HW233858   3.509   3.505   4.894  1.5603 -1.0091  1.7697
 7466SOL     OW33859   1.676   0.732   6.460  0.1080 -0.0304  0.0201
 7466SOL    HW133860   1.614   0.803   6.473 -0.5147 -1.0727  2.7001
 7466SOL    HW233861   1.655   0.685   6.541 -0.2113  0.5814  0.2853
 7467SOL     OW33862   4.646   4.405   1.398  0.2858 -0.5654 -0.0415
 7467SOL    HW133863   4.563   4.376   1.360  0.5899  1.6798 -2.3519
 7467SOL    HW233864   4.667   4.319   1.437  1.7068 -0.3748 -0.3953
 7468SOL     OW33865   0.723   2.842   8.666 -0.2786  0.1155  0.1978
 7468SOL    HW133866   0.652   2.779   8.652 -0.0058  0.0759 -1.0021
 7468SOL    HW233867   0.799   2.793   8.635 -0.8453 -1.9049  1.9389
 7469SOL     OW33868   1.670   2.406   0.912 -0.1153  0.3586 -0.0274
 7469SOL    HW133869   1.618   2.477   0.948  0.5095  1.1849 -0.7682
 7469SOL    HW233870   1.619   2.392   0.833 -1.9799 -0.6631  1.3504
 7470SOL     OW33871   3.684   3.951   9.882 -0.1185 -0.0529  0.8393
 7470SOL    HW133872   3.627   3.913   9.948 -0.8646  2.1593  1.4737
 7470SOL    HW233873   3.629   3.925   9.808 -0.3710 -1.5736  1.5608
 7471SOL     OW33874   4.613   2.666   3.291  0.5812  0.5129 -0.3363
 7471SOL    HW133875   4.676   2.597   3.270 -0.3239 -0.4827  0.2333
 7471SOL    HW233876   4.633   2.670   3.385  0.7485 -0.6672 -0.3185
 7472SOL     OW33877   0.232   4.186  14.691 -1.0682 -0.4605  0.0212
 7472SOL    HW133878   0.144   4.151  14.677 -0.9202 -0.6384 -0.4757
 7472SOL    HW233879   0.236   4.234  14.609  0.4898  0.2272  0.5116
 7473SOL     OW33880   4.158   3.496   2.392 -0.0976  0.3805  0.1103
 7473SOL    HW133881   4.248   3.515   2.420  0.0684  0.5991 -0.5799
 7473SOL    HW233882   4.152   3.414   2.441 -0.5219  1.5844  2.0701
 7474SOL     OW33883   2.770   2.233   3.564  0.4456  0.0344 -0.1088
 7474SOL    HW133884   2.687   2.265   3.530  0.6863  2.2034  1.2649
 7474SOL    HW233885   2.810   2.200   3.484  0.3535 -0.4352  0.0404
 7475SOL     OW33886   1.704   1.511   0.292  0.1953 -0.0723 -0.9139
 7475SOL    HW133887   1.719   1.509   0.387  0.3577  2.3798 -0.8862
 7475SOL    HW233888   1.772   1.451   0.263  0.8714  0.8625 -1.2858
 7476SOL     OW33889   2.566   3.332   4.552  0.1011 -0.1251 -0.4330
 7476SOL    HW133890   2.651   3.329   4.597  0.1444  2.1047 -0.3984
 7476SOL    HW233891   2.546   3.425   4.549 -0.9519 -0.3348  0.0924
 7477SOL     OW33892   2.097   1.848   1.764  0.9818 -0.0062  0.1907
 7477SOL    HW133893   2.034   1.881   1.828 -2.5665 -2.1757 -2.2051
 7477SOL    HW233894   2.174   1.892   1.799  1.2616  0.1927 -0.6637
 7478SOL     OW33895   0.729   0.803   5.235 -0.0065 -0.1229 -0.3123
 7478SOL    HW133896   0.803   0.821   5.177  0.7726  1.1336  1.0622
 7478SOL    HW233897   0.741   0.876   5.296 -0.9683 -0.5111  0.3343
 7479SOL     OW33898   3.310   1.247   4.857 -0.0041 -0.2256 -0.3588
 7479SOL    HW133899   3.233   1.271   4.804 -0.8145 -1.7901  0.1273
 7479SOL    HW233900   3.362   1.326   4.839  1.3562 -1.0789 -0.1368
 7480SOL     OW33901   2.685   3.070   6.845 -0.5548  0.0402 -0.2172
 7480SOL    HW133902   2.685   3.103   6.755 -1.4512  1.7091  0.3996
 7480SOL    HW233903   2.594   3.046   6.859 -0.1436 -1.0392  0.6445
 7481SOL     OW33904   3.300   1.149   3.211 -0.4892  0.5766  0.2243
 7481SOL    HW133905   3.217   1.182   3.176 -0.6381 -0.1254 -0.0622
 7481SOL    HW233906   3.307   1.062   3.172 -1.7455 -0.3041  1.9540
 7482SOL     OW33907   2.253   2.767  10.200 -0.2165 -0.4348  0.1337
 7482SOL    HW133908   2.215   2.773  10.288 -2.6558 -0.2048 -0.9081
 7482SOL    HW233909   2.183   2.725  10.150  0.2422 -0.0896 -0.7972
 7483SOL     OW33910   2.856   3.155   7.838 -0.5527 -0.0352  0.1472
 7483SOL    HW133911   2.903   3.234   7.863 -3.1369  1.4672  0.2527
 7483SOL    HW233912   2.840   3.184   7.748 -0.4868 -2.6535 -0.7331
 7484SOL     OW33913   3.046   0.021   9.863  0.2739  0.7511 -0.3581
 7484SOL    HW133914   3.099   4.673   9.905 -0.0163  2.0418  2.0825
 7484SOL    HW233915   2.981   4.694   9.810  1.9465 -3.4283  1.3067
 7485SOL     OW33916   4.186   2.574  16.428  0.2457  0.3814 -0.2648
 7485SOL    HW133917   4.170   2.532  16.512  0.0810  0.1636 -0.4056
 7485SOL    HW233918   4.166   2.505  16.365  1.4933 -0.1942 -0.0318
 7486SOL     OW33919   1.088   2.634   3.050  0.3335  0.2374 -0.3798
 7486SOL    HW133920   1.064   2.661   3.138  1.8476 -0.6533  0.3225
 7486SOL    HW233921   1.136   2.714   3.029 -1.2420  0.9528 -1.2370
 7487SOL     OW33922   2.114   3.323   4.374 -0.0295 -0.2782  0.4898
 7487SOL    HW133923   2.112   3.294   4.465 -1.5409  0.9070  0.8185
 7487SOL    HW233924   2.208   3.325   4.357 -0.0717 -0.7444  0.1933
 7488SOL     OW33925   3.503   0.428   6.672 -0.7833 -0.5909  0.4414
 7488SOL    HW133926   3.460   0.484   6.737  1.3237 -0.6162  1.8345
 7488SOL    HW233927   3.427   0.422   6.614 -0.3420  1.3665 -0.3265
 7489SOL     OW33928   3.121   2.555   6.928 -0.0667 -0.5927  0.3444
 7489SOL    HW133929   3.114   2.636   6.979 -0.4802 -0.4881  0.1215
 7489SOL    HW233930   3.086   2.489   6.987 -2.3237 -0.2366 -0.5952
 7490SOL     OW33931   2.649   1.813   0.282 -0.1092 -0.0903 -0.0150
 7490SOL    HW133932   2.611   1.763   0.353 -1.8071 -0.3367 -1.0962
 7490SOL    HW233933   2.743   1.801   0.298  0.3407  0.3414 -2.3207
 7491SOL     OW33934   1.292   0.304  13.807 -0.1893  0.3264  0.5618
 7491SOL    HW133935   1.215   0.347  13.770 -0.8955 -1.1345  0.3319
 7491SOL    HW233936   1.292   0.223  13.757 -1.3476  0.0477  1.0003
 7492SOL     OW33937   3.046   1.283   3.914  0.1344 -0.1317 -0.1030
 7492SOL    HW133938   3.026   1.286   3.820 -2.3751  1.3914  0.4876
 7492SOL    HW233939   2.969   1.317   3.960 -0.2690 -1.0946 -0.0674
 7493SOL     OW33940   3.045   4.057  11.027 -0.2152  0.3270 -0.2034
 7493SOL    HW133941   3.084   4.053  11.114  1.1641  1.2827 -0.7780
 7493SOL    HW233942   2.973   4.119  11.032  2.3322  3.2322  0.4471
 7494SOL     OW33943   3.219   1.405  17.264 -0.1267  0.8081 -0.0683
 7494SOL    HW133944   3.276   1.335  17.232 -1.1524  0.1574 -0.4574
 7494SOL    HW233945   3.260   1.485  17.231  0.9824  0.7827  1.2771
 7495SOL     OW33946   3.502   3.127  13.134 -0.1031 -0.6684 -0.3029
 7495SOL    HW133947   3.420   3.096  13.095  0.1236 -0.9542 -0.5550
 7495SOL    HW233948   3.504   3.089  13.221  1.0734  0.5327  0.1946
 7496SOL     OW33949   4.411   0.336  13.093 -0.0403  0.0134 -0.0414
 7496SOL    HW133950   4.498   0.374  13.081  0.5653 -1.4085 -0.1971
 7496SOL    HW233951   4.432   0.247  13.121 -0.8191 -1.0440 -2.7498
 7497SOL     OW33952   0.724   1.608  17.546  0.2381 -0.0394 -0.8083
 7497SOL    HW133953   0.738   1.523  17.505 -0.6716 -0.6675  0.1900
 7497SOL    HW233954   0.636   1.629  17.514  0.6691 -0.6527 -2.3862
 7498SOL     OW33955   1.340   3.664   5.525  0.1766 -0.2351  0.0121
 7498SOL    HW133956   1.352   3.732   5.459  1.0700 -0.7169 -0.3254
 7498SOL    HW233957   1.307   3.589   5.476  1.6509 -0.4137 -0.7248
 7499SOL     OW33958   1.769   1.588  17.085 -0.0768  0.7843 -0.0338
 7499SOL    HW133959   1.763   1.682  17.070  1.3095  0.8948  0.0974
 7499SOL    HW233960   1.797   1.554  17.000  0.9947 -0.3074  0.7613
 7500SOL     OW33961   0.100   1.556   4.070 -0.4478  0.2213  0.4898
 7500SOL    HW133962   0.047   1.622   4.115 -1.0390  0.3443 -0.3697
 7500SOL    HW233963   0.135   1.606   3.996 -1.4967  0.8749  0.4292
 7501SOL     OW33964   2.138   0.001   1.993 -0.1252  0.2524 -0.0865
 7501SOL    HW133965   2.191   0.025   2.069 -1.5232  0.0239  0.9607
 7501SOL    HW233966   2.197   4.719   1.918  1.2381  0.0947  1.0009
 7502SOL     OW33967   3.531   3.957   5.413  0.5550  0.0450 -0.1382
 7502SOL    HW133968   3.477   3.892   5.458 -2.1171  2.5524  0.3106
 7502SOL    HW233969   3.469   4.027   5.436 -0.8519 -2.1745  2.7134
 7503SOL     OW33970   1.425   3.218   2.119 -0.7027  0.8457  0.2728
 7503SOL    HW133971   1.385   3.174   2.193 -0.7145 -0.8783 -0.7682
 7503SOL    HW233972   1.492   3.156   2.091 -0.7812  0.0158  1.9476
 7504SOL     OW33973   1.016   0.121   9.623  0.4603  0.9632 -0.2367
 7504SOL    HW133974   0.999   0.086   9.710  1.7856  0.9839  0.0258
 7504SOL    HW233975   0.932   0.163   9.604  0.4544  1.3774  0.7070
 7505SOL     OW33976   2.450   1.296   4.320 -0.2883 -0.0461  0.1814
 7505SOL    HW133977   2.438   1.213   4.366  0.3608 -0.5865 -0.6136
 7505SOL    HW233978   2.365   1.335   4.338 -0.4773 -0.6717  0.6519
 7506SOL     OW33979   0.461   4.618   3.340 -0.0051  0.1340 -0.0931
 7506SOL    HW133980   0.403   4.611   3.415  1.5719  0.1365  1.1355
 7506SOL    HW233981   0.514   4.541   3.362 -0.5159 -0.6306 -1.5754
 7507SOL     OW33982   1.289   1.424  15.255  0.3116  0.1553  0.3250
 7507SOL    HW133983   1.214   1.476  15.226  0.9148  0.4973 -0.6297
 7507SOL    HW233984   1.327   1.462  15.334  2.3142  0.1040 -0.6110
 7508SOL     OW33985   2.983   3.434   3.388 -0.2802 -0.4096 -0.1585
 7508SOL    HW133986   3.063   3.464   3.432 -0.8430  2.2109 -0.9048
 7508SOL    HW233987   2.928   3.506   3.417  1.8083  0.9387  0.5066
 7509SOL     OW33988   2.235   3.862   9.027 -0.2589  0.4581 -0.0984
 7509SOL    HW133989   2.159   3.907   9.064 -0.8089  0.0523 -0.7247
 7509SOL    HW233990   2.219   3.776   9.066  2.0118 -0.3577 -0.9911
 7510SOL     OW33991   3.160   4.390  12.548 -0.4765  0.6485  0.1754
 7510SOL    HW133992   3.168   4.437  12.631 -0.7854  1.2417 -0.1342
 7510SOL    HW233993   3.127   4.463  12.497 -0.0479 -0.9942 -2.4417
 7511SOL     OW33994   2.800   3.832   2.531  0.1518  0.3477 -0.2748
 7511SOL    HW133995   2.875   3.849   2.473  0.0016  0.7438 -0.3541
 7511SOL    HW233996   2.778   3.751   2.485 -1.5278 -0.0106  1.1862
 7512SOL     OW33997   1.674   4.178   3.227  0.3920 -0.5705  0.2563
 7512SOL    HW133998   1.733   4.178   3.151  1.0314 -1.5689  0.7520
 7512SOL    HW233999   1.644   4.088   3.225 -2.9259  0.5523 -0.1500
 7513SOL     OW34000   0.457   1.337   6.760  0.1955  0.0569  0.1170
 7513SOL    HW134001   0.381   1.393   6.739 -0.0628 -1.0604 -1.9631
 7513SOL    HW234002   0.488   1.381   6.839  0.9843  0.4925 -0.4375
 7514SOL     OW34003   4.231   4.609   8.997 -0.6123 -0.0365  0.4218
 7514SOL    HW134004   4.253   4.556   8.920 -0.0862  1.3383 -0.3672
 7514SOL    HW234005   4.156   4.660   8.967 -1.0909 -1.8984 -1.5467
 7515SOL     OW34006   3.227   2.257  16.668  1.0258 -0.2868  0.0992
 7515SOL    HW134007   3.291   2.274  16.738  0.1407  2.4223  0.2552
 7515SOL    HW234008   3.180   2.184  16.707 -0.8522  0.5293 -0.6690
 7516SOL     OW34009   3.203   2.159  16.201  0.2235  0.2755  0.0598
 7516SOL    HW134010   3.250   2.122  16.126 -0.1234 -2.4501  1.1985
 7516SOL    HW234011   3.245   2.112  16.273  1.0151 -2.0569 -1.9403
 7517SOL     OW34012   3.482   3.084  14.668 -0.0292  0.3372  0.2809
 7517SOL    HW134013   3.519   3.051  14.586 -1.5828  0.1529 -0.3364
 7517SOL    HW234014   3.473   3.177  14.645  2.2116  1.0981  2.4526
 7518SOL     OW34015   3.248   2.066   8.285  0.0707 -0.4797 -0.1963
 7518SOL    HW134016   3.229   2.021   8.203  1.0481  2.5416 -2.0964
 7518SOL    HW234017   3.173   2.043   8.340  0.6693 -2.5860 -0.2756
 7519SOL     OW34018   1.312   2.645   1.243  0.7948  0.6172 -0.6422
 7519SOL    HW134019   1.367   2.605   1.310  1.2684  1.2586 -0.6486
 7519SOL    HW234020   1.221   2.648   1.272  0.7968 -1.8325 -0.4027
 7520SOL     OW34021   1.532   0.878   9.379  0.1747 -0.0106 -0.5091
 7520SOL    HW134022   1.590   0.932   9.326  0.6281 -1.0940 -1.1323
 7520SOL    HW234023   1.532   0.805   9.316 -1.8505 -3.0839  3.0395
 7521SOL     OW34024   0.373   0.656  10.243 -0.0919 -0.7224  0.3416
 7521SOL    HW134025   0.414   0.639  10.328 -3.5492 -1.5779  1.8564
 7521SOL    HW234026   0.446   0.657  10.182  1.8346  0.4017  2.6640
 7522SOL     OW34027   0.050   1.068  13.727  0.8460  0.2063 -0.6503
 7522SOL    HW134028   0.038   1.077  13.633 -0.9759  0.3410 -0.4099
 7522SOL    HW234029   0.140   1.036  13.733  0.6896 -0.1416 -0.1403
 7523SOL     OW34030   3.211   4.496   2.333  0.2213 -0.4162  0.5504
 7523SOL    HW134031   3.205   4.585   2.300  0.0807  0.0141  1.7224
 7523SOL    HW234032   3.271   4.501   2.407  1.3921 -0.1421 -0.4254
 7524SOL     OW34033   4.297   4.357  15.244 -0.0485  0.2107 -0.2487
 7524SOL    HW134034   4.343   4.278  15.273  2.0996  1.9752  1.0842
 7524SOL    HW234035   4.350   4.378  15.167 -0.5530  0.2536 -0.5898
 7525SOL     OW34036   4.101   0.272   8.764  0.4134  0.5821  0.0223
 7525SOL    HW134037   4.104   0.186   8.806 -0.4036  0.1546 -0.8046
 7525SOL    HW234038   4.177   0.268   8.707  0.2778  0.2751 -0.1309
 7526SOL     OW34039   3.861   2.598   4.284  0.4115  0.3941 -0.1715
 7526SOL    HW134040   3.906   2.564   4.207 -0.5756  0.4455 -0.7718
 7526SOL    HW234041   3.773   2.562   4.272  1.4242 -1.6967 -1.2884
 7527SOL     OW34042   4.603   3.164  11.490 -0.3995  0.4362  0.0890
 7527SOL    HW134043   4.555   3.163  11.572  3.3038 -0.6375  2.2002
 7527SOL    HW234044   4.576   3.247  11.449 -0.6793  0.9102  1.2481
 7528SOL     OW34045   0.361   2.508  13.823 -0.8332  0.2661 -0.0341
 7528SOL    HW134046   0.358   2.550  13.909 -1.5608  2.8883 -1.3305
 7528SOL    HW234047   0.272   2.535  13.801 -0.3570  3.1943  1.6166
 7529SOL     OW34048   3.014   0.197   2.246  0.1324 -0.0424  0.7116
 7529SOL    HW134049   2.970   0.268   2.294 -1.0235 -0.3969  0.1709
 7529SOL    HW234050   2.932   0.160   2.214  1.1369 -1.6746  0.0633
 7530SOL     OW34051   3.217   1.905   9.410 -0.0377 -0.0718  0.1519
 7530SOL    HW134052   3.130   1.919   9.449  1.7846  1.2091  3.7650
 7530SOL    HW234053   3.227   1.813   9.385  0.1112 -0.3839  1.3382
 7531SOL     OW34054   3.108   2.178   0.954 -0.1643 -0.4468  0.2596
 7531SOL    HW134055   3.085   2.255   1.005 -2.9390 -1.6170  0.7736
 7531SOL    HW234056   3.110   2.109   1.021  0.6245  0.1548  0.8530
 7532SOL     OW34057   0.842   0.242   8.103 -0.0382 -0.3582  0.3408
 7532SOL    HW134058   0.865   0.318   8.157  1.0235 -0.3363 -0.1438
 7532SOL    HW234059   0.752   0.220   8.126 -0.1482 -1.7804 -1.4662
 7533SOL     OW34060   3.343   0.814   5.291 -0.2081 -0.2985  0.1318
 7533SOL    HW134061   3.256   0.820   5.253  1.0300 -1.4305 -2.9696
 7533SOL    HW234062   3.346   0.723   5.321  2.7181  0.2978  1.6651
 7534SOL     OW34063   2.349   4.657  11.757  0.8612 -0.8196  0.0749
 7534SOL    HW134064   2.390   4.657  11.844 -0.0091 -0.5398  0.4891
 7534SOL    HW234065   2.274   4.603  11.782 -0.3378  0.4580 -0.7578
 7535SOL     OW34066   4.117   2.574  16.140 -0.1719 -0.0241 -0.0867
 7535SOL    HW134067   4.037   2.531  16.109 -0.7203 -1.2864  3.0150
 7535SOL    HW234068   4.088   2.634  16.209 -1.7125  0.3371 -1.0498
 7536SOL     OW34069   2.640   2.986   5.090 -0.1345 -0.2540  0.1334
 7536SOL    HW134070   2.663   3.051   5.157  0.1657 -0.4290  0.2037
 7536SOL    HW234071   2.724   2.939   5.091  0.1090  0.1629 -0.9617
 7537SOL     OW34072   3.031   4.397   5.720 -0.0636 -0.3485  0.0816
 7537SOL    HW134073   2.967   4.341   5.763  1.1676 -2.0539 -0.2893
 7537SOL    HW234074   2.994   4.410   5.633 -0.7469 -1.4279  0.2188
 7538SOL     OW34075   3.550   1.186   3.582 -0.0544  0.3156 -0.3963
 7538SOL    HW134076   3.628   1.150   3.539 -0.3628  0.7819 -1.3463
 7538SOL    HW234077   3.576   1.268   3.623 -0.8826  0.0840  0.5999
 7539SOL     OW34078   3.609   3.687   6.967 -0.3190  0.7605 -0.0587
 7539SOL    HW134079   3.604   3.679   6.872  1.1305 -2.4048  0.1379
 7539SOL    HW234080   3.517   3.688   6.994 -0.6772 -2.5655 -1.0795
 7540SOL     OW34081   0.525   2.520  12.427  0.5435 -0.2702 -0.4099
 7540SOL    HW134082   0.609   2.536  12.470 -1.7282  0.7645  3.6203
 7540SOL    HW234083   0.546   2.532  12.334 -2.8690 -0.6754 -1.2347
 7541SOL     OW34084   4.461   2.176   5.549  0.0042  0.1945 -0.4526
 7541SOL    HW134085   4.427   2.109   5.489 -2.4528  1.1673 -0.1500
 7541SOL    HW234086   4.386   2.175   5.608 -0.0340  0.4631 -0.4976
 7542SOL     OW34087   2.906   0.121   4.274  0.0249 -0.2616  0.5826
 7542SOL    HW134088   3.002   0.120   4.273  0.0286  0.0834  0.7396
 7542SOL    HW234089   2.881   0.107   4.182  1.7830 -0.0666  0.0673
 7543SOL     OW34090   4.361   4.161   2.894  0.2432 -0.1606 -0.0789
 7543SOL    HW134091   4.346   4.067   2.881  1.6050 -0.3565 -0.2970
 7543SOL    HW234092   4.453   4.180   2.872 -0.6506  0.5863 -3.2390
 7544SOL     OW34093   1.109   1.138   5.132  0.8243 -0.1672  0.5589
 7544SOL    HW134094   1.184   1.133   5.072 -1.2944 -1.4447 -1.9881
 7544SOL    HW234095   1.055   1.191   5.073  1.9914 -1.8497 -2.0209
 7545SOL     OW34096   0.825   0.574   8.548 -0.0338  0.4471 -0.2670
 7545SOL    HW134097   0.764   0.512   8.588  0.4132 -1.1426 -2.0693
 7545SOL    HW234098   0.789   0.593   8.461  1.0147 -0.9839 -1.0050
 7546SOL     OW34099   4.177   2.102   0.692  0.3741 -0.4999  0.2301
 7546SOL    HW134100   4.237   2.175   0.675  0.5746 -0.3928  1.3747
 7546SOL    HW234101   4.177   2.068   0.603  0.4967 -0.1436  0.0929
 7547SOL     OW34102   4.720   3.399  13.408  0.3781  0.0514  0.0801
 7547SOL    HW134103   0.066   3.370  13.346  0.9512 -1.7040  1.4996
 7547SOL    HW234104   0.052   3.452  13.469 -1.7610 -0.1406  2.0748
 7548SOL     OW34105   0.184   2.333   6.821  0.2450 -1.1096 -0.1506
 7548SOL    HW134106   0.163   2.327   6.914 -3.1209 -3.9966 -1.1023
 7548SOL    HW234107   0.100   2.362   6.785  0.3048  1.1217  1.5408
 7549SOL     OW34108   2.782   2.107   1.290  0.3475  0.3212 -0.8964
 7549SOL    HW134109   2.730   2.175   1.333 -1.0474 -0.8851 -0.6453
 7549SOL    HW234110   2.716   2.059   1.239  0.1417  1.2293 -1.4730
 7550SOL     OW34111   2.143   1.745   8.660  0.4821  0.2874 -0.4936
 7550SOL    HW134112   2.106   1.831   8.642 -0.1211  0.1529  0.0676
 7550SOL    HW234113   2.068   1.699   8.700  1.4457 -0.5230  0.3894
 7551SOL     OW34114   0.992   4.297   4.104  0.3923  0.4768  0.2945
 7551SOL    HW134115   0.928   4.306   4.175 -0.2827 -0.0352 -0.2460
 7551SOL    HW234116   1.078   4.294   4.146  0.6496  2.4663 -0.0614
 7552SOL     OW34117   2.352   2.979  14.533 -0.6735  0.4414 -0.1952
 7552SOL    HW134118   2.272   3.006  14.488 -1.7398  0.0047  1.4423
 7552SOL    HW234119   2.328   2.887  14.543  4.1813 -0.9392 -1.1970
 7553SOL     OW34120   3.267   1.118   9.000 -0.0761  0.3060  0.0259
 7553SOL    HW134121   3.284   1.211   8.983  2.1967  0.0809  1.0915
 7553SOL    HW234122   3.356   1.082   9.000 -0.2172 -0.0205  1.7476
 7554SOL     OW34123   0.357   0.939  15.275 -0.1348  0.4894  0.6238
 7554SOL    HW134124   0.280   0.945  15.220  0.8945 -1.4116 -1.0142
 7554SOL    HW234125   0.396   0.861  15.237  2.0760  0.8310  2.1611
 7555SOL     OW34126   1.499   1.297   0.368  0.1511  0.6096  0.0994
 7555SOL    HW134127   1.559   1.324   0.437 -1.0237  1.9347  0.6114
 7555SOL    HW234128   1.508   1.371   0.308 -0.4702 -0.5458 -1.4088
 7556SOL     OW34129   3.045   1.419   5.341  0.9906 -0.1990 -0.4223
 7556SOL    HW134130   2.997   1.402   5.260 -1.1547 -3.3858  1.5341
 7556SOL    HW234131   2.974   1.402   5.404 -0.0515 -1.9963 -2.0661
 7557SOL     OW34132   1.203   1.953   2.680  0.0845 -0.3940 -0.5363
 7557SOL    HW134133   1.145   1.957   2.605 -1.9069  1.2278  1.0945
 7557SOL    HW234134   1.240   2.041   2.676  0.4176 -0.5913 -1.7568
 7558SOL     OW34135   0.629   1.419   0.296  0.3982 -0.0748 -0.1187
 7558SOL    HW134136   0.662   1.439   0.384  2.2957 -3.1589 -0.1091
 7558SOL    HW234137   0.654   1.500   0.254 -1.1055  1.1009  1.2531
 7559SOL     OW34138   0.244   3.442  11.177 -0.1805  0.1182 -0.0799
 7559SOL    HW134139   0.309   3.469  11.242  0.8875  1.3455 -1.6598
 7559SOL    HW234140   0.171   3.422  11.236 -0.5012 -0.0238 -0.5200
 7560SOL     OW34141   0.724   3.640   8.147 -0.0611  0.0594 -0.5203
 7560SOL    HW134142   0.724   3.644   8.242 -1.5181 -1.0483 -0.4688
 7560SOL    HW234143   0.729   3.546   8.127 -0.9603 -0.3350  1.1716
 7561SOL     OW34144   3.089   4.429   3.946  0.0073 -0.4577 -0.0152
 7561SOL    HW134145   3.062   4.466   4.030 -2.1365 -1.8359 -0.1070
 7561SOL    HW234146   3.059   4.505   3.896  1.5410 -0.2766 -0.6489
 7562SOL     OW34147   2.233   3.171   5.590 -0.1741 -0.1808  0.3406
 7562SOL    HW134148   2.268   3.235   5.528 -1.1588 -0.6769 -0.7306
 7562SOL    HW234149   2.280   3.092   5.561 -2.9167 -1.7967  0.2839
 7563SOL     OW34150   3.756   1.662   7.226  0.2399  0.3958  0.2651
 7563SOL    HW134151   3.802   1.692   7.148  1.2862 -0.9905  0.3601
 7563SOL    HW234152   3.707   1.739   7.257  0.2250  0.9942 -1.2646
 7564SOL     OW34153   3.180   0.930   8.453  0.3706  0.5330  0.7347
 7564SOL    HW134154   3.085   0.944   8.450  0.2329 -0.0714  2.6111
 7564SOL    HW234155   3.186   0.847   8.500  0.6247 -0.4741 -1.0601
 7565SOL     OW34156   0.780   0.473   3.996  0.1568 -0.0771  0.6260
 7565SOL    HW134157   0.743   0.525   3.925 -0.7882 -0.4879  0.8085
 7565SOL    HW234158   0.715   0.497   4.063 -0.4389 -0.2463  0.1162
 7566SOL     OW34159   2.882   4.148   1.231  0.5232 -0.0446 -0.4664
 7566SOL    HW134160   2.920   4.228   1.266 -0.5481  1.1567 -2.0197
 7566SOL    HW234161   2.914   4.151   1.140 -1.7091  3.0156 -1.1449
 7567SOL     OW34162   0.423   3.418   2.698 -0.5203  0.2127  0.1053
 7567SOL    HW134163   0.400   3.511   2.697  1.6234  0.7712  1.1436
 7567SOL    HW234164   0.418   3.406   2.793  1.9034 -1.1249  0.0725
 7568SOL     OW34165   4.500   1.937  13.910 -0.2655 -0.0829 -0.4532
 7568SOL    HW134166   4.577   1.881  13.913  0.9224  1.5290 -0.4736
 7568SOL    HW234167   4.508   1.984  13.827  1.9538 -2.7552 -1.7196
 7569SOL     OW34168   0.736   1.327   5.957  0.0929 -0.9538  0.0139
 7569SOL    HW134169   0.697   1.242   5.935 -2.0355  0.4966 -1.8020
 7569SOL    HW234170   0.674   1.387   5.916 -0.1809 -1.5618 -0.4762
 7570SOL     OW34171   2.202   2.867   4.098 -0.6424 -0.8695 -0.0275
 7570SOL    HW134172   2.199   2.841   4.006  2.1710  0.3856 -0.4434
 7570SOL    HW234173   2.275   2.928   4.090 -1.8389  0.3483 -1.8260
 7571SOL     OW34174   0.356   1.137   1.186  0.3753  0.2036 -0.0035
 7571SOL    HW134175   0.347   1.227   1.156 -1.2109  0.4553  1.2145
 7571SOL    HW234176   0.391   1.151   1.274  0.0592 -0.1569  0.1810
 7572SOL     OW34177   3.401   2.354  15.780 -0.6526  0.2847  0.3106
 7572SOL    HW134178   3.464   2.384  15.714 -0.0269  1.8176  1.6028
 7572SOL    HW234179   3.346   2.431  15.795 -1.6519 -0.1704 -0.9909
 7573SOL     OW34180   0.043   3.044  11.770 -0.4806  0.4169  0.0491
 7573SOL    HW134181   4.699   3.066  11.702  0.7704 -0.6886 -1.4754
 7573SOL    HW234182   4.705   3.033  11.845 -1.1934  0.1644 -0.5326
 7574SOL     OW34183   1.993   0.046   4.977  0.1216 -0.5293 -0.3218
 7574SOL    HW134184   1.994   0.057   5.072 -0.9065  1.0965 -0.4983
 7574SOL    HW234185   1.898   0.049   4.971  0.2271  1.6106 -0.9830
 7575SOL     OW34186   4.278   4.343   5.119  0.1780  0.0224  0.2842
 7575SOL    HW134187   4.184   4.330   5.112  0.1388  0.8320 -0.7970
 7575SOL    HW234188   4.307   4.269   5.172  2.4267  1.0028  0.4537
 7576SOL     OW34189   2.475   0.399   3.521  0.4884 -0.0124 -0.4230
 7576SOL    HW134190   2.433   0.419   3.438 -0.9073  0.0379  0.3068
 7576SOL    HW234191   2.551   0.346   3.494  0.0779 -0.3685 -0.8650
 7577SOL     OW34192   0.045   1.363   7.437 -0.1253  0.0366 -0.2143
 7577SOL    HW134193   0.034   1.304   7.512  0.5498  0.5235  0.2768
 7577SOL    HW234194   4.678   1.353   7.399  0.6881 -3.5438 -1.0830
 7578SOL     OW34195   0.565   1.196   6.562 -0.1742  0.4701  0.0161
 7578SOL    HW134196   0.552   1.243   6.645  0.2377 -0.8392  0.8170
 7578SOL    HW234197   0.480   1.215   6.522  0.2512  1.1629 -0.5641
 7579SOL     OW34198   1.394   2.812   0.890  0.8981  0.6739 -0.6739
 7579SOL    HW134199   1.410   2.875   0.960 -2.0599  0.8551 -0.1510
 7579SOL    HW234200   1.298   2.809   0.890  0.9831 -1.6621  1.6740
 7580SOL     OW34201   0.287   4.039   1.578 -0.2484 -0.4064 -0.1086
 7580SOL    HW134202   0.328   3.971   1.632 -0.4086  0.5627  1.2386
 7580SOL    HW234203   0.313   4.003   1.494  1.5879  0.7041 -0.0219
 7581SOL     OW34204   3.865   3.028  14.971  0.5863  0.6300  0.0136
 7581SOL    HW134205   3.913   2.951  15.004 -0.8865  0.2089  1.1982
 7581SOL    HW234206   3.915   3.091  15.023 -0.9444  1.4783  0.4703
 7582SOL     OW34207   0.736   2.530   5.256 -0.0191  0.1326  0.1966
 7582SOL    HW134208   0.798   2.480   5.202  0.4988  1.2525 -0.2468
 7582SOL    HW234209   0.731   2.465   5.327  1.6418  1.2410  1.3193
 7583SOL     OW34210   3.292   4.293  15.013  0.1636  0.1383  0.6677
 7583SOL    HW134211   3.243   4.366  14.974  2.8396  0.0732 -2.6933
 7583SOL    HW234212   3.287   4.321  15.105  1.1812 -0.2400  0.8404
 7584SOL     OW34213   1.403   3.423   9.417  0.2215 -0.4922 -0.1142
 7584SOL    HW134214   1.441   3.344   9.380  0.9260 -0.4168  0.4471
 7584SOL    HW234215   1.410   3.404   9.510 -0.2448 -1.3467 -0.2551
 7585SOL     OW34216   2.829   2.056   8.645  0.0184 -0.1309 -0.1604
 7585SOL    HW134217   2.844   2.133   8.699 -1.2568 -0.1399  0.2176
 7585SOL    HW234218   2.753   2.084   8.594 -0.9128 -1.5349  0.4478
 7586SOL     OW34219   3.550   3.583  16.642 -0.9776 -0.4213  0.9548
 7586SOL    HW134220   3.596   3.508  16.604 -1.7271  0.2558 -1.3207
 7586SOL    HW234221   3.459   3.558  16.627 -1.1793  1.0473 -0.2525
 7587SOL     OW34222   4.484   1.703   4.757  0.2939  0.5838 -0.1595
 7587SOL    HW134223   4.535   1.647   4.816 -1.7980 -1.4643 -0.2618
 7587SOL    HW234224   4.532   1.710   4.675  0.8552  0.5458  0.1719
 7588SOL     OW34225   3.334   3.885   5.638 -0.2047 -0.2774 -0.1435
 7588SOL    HW134226   3.316   3.975   5.612  0.0224  0.0319  0.7372
 7588SOL    HW234227   3.273   3.871   5.711  0.1240  0.1665  0.2173
 7589SOL     OW34228   1.439   2.156   0.462  0.3243 -0.2602 -0.1979
 7589SOL    HW134229   1.514   2.153   0.403  2.0765  0.5211  1.9789
 7589SOL    HW234230   1.394   2.075   0.440 -1.8109  1.0442 -0.6901
 7590SOL     OW34231   2.691   3.640   4.790  0.5006  0.0120  0.0626
 7590SOL    HW134232   2.735   3.720   4.761  2.9859 -1.4741 -0.2795
 7590SOL    HW234233   2.674   3.654   4.883 -2.4608  1.4460 -0.6949
 7591SOL     OW34234   4.392   3.614   5.533  0.1079  0.2520  0.3197
 7591SOL    HW134235   4.400   3.658   5.448  0.9343 -0.9326 -0.2320
 7591SOL    HW234236   4.302   3.583   5.527 -0.7049  2.7587 -0.3071
 7592SOL     OW34237   3.337   4.535  16.558  1.0197  0.1763 -0.4387
 7592SOL    HW134238   3.410   4.529  16.496  0.8622 -0.3713 -0.5726
 7592SOL    HW234239   3.378   4.526  16.644 -0.9925  0.8212  0.5871
 7593SOL     OW34240   0.595   4.541   7.468 -0.2864 -0.7296  0.1070
 7593SOL    HW134241   0.617   4.598   7.394  1.1815  0.4313  1.4422
 7593SOL    HW234242   0.547   4.586   7.537 -0.3313  1.8150 -1.5784
 7594SOL     OW34243   2.176   0.030   8.984 -0.4375 -0.6569  0.4325
 7594SOL    HW134244   2.228   4.679   9.022 -1.3327 -1.9478 -0.7589
 7594SOL    HW234245   2.228   0.061   8.910  0.5971 -0.2860  1.3171
 7595SOL     OW34246   2.014   0.649  11.042  1.0544 -0.2249  0.3160
 7595SOL    HW134247   2.068   0.705  10.986  0.0186 -1.9270 -2.3923
 7595SOL    HW234248   2.063   0.569  11.024  2.6610  0.8635 -0.1610
 7596SOL     OW34249   2.383   3.828   6.191 -0.1830  0.8578  0.1219
 7596SOL    HW134250   2.326   3.826   6.114 -3.5400  1.8137  2.5669
 7596SOL    HW234251   2.434   3.908   6.179  1.8097 -0.2474  1.1976
 7597SOL     OW34252   0.326   1.373   2.624  0.3724  0.1625 -0.1101
 7597SOL    HW134253   0.232   1.392   2.626  0.8125  2.3537 -1.1589
 7597SOL    HW234254   0.370   1.454   2.602 -0.9280  1.1446  0.9049
 7598SOL     OW34255   1.068   3.374   3.957 -0.3012  0.3658 -0.7660
 7598SOL    HW134256   0.996   3.404   3.901  0.2711  1.3815 -0.9534
 7598SOL    HW234257   1.066   3.281   3.936 -1.9668 -0.0082  0.9832
 7599SOL     OW34258   1.895   4.587  14.619 -0.1593  0.0633 -0.2458
 7599SOL    HW134259   1.987   4.613  14.620  0.4278 -2.0594  2.2968
 7599SOL    HW234260   1.889   4.499  14.582 -1.5405 -0.3488  0.9533
 7600SOL     OW34261   2.255   4.314   4.629  0.2001 -0.0596 -0.2254
 7600SOL    HW134262   2.351   4.319   4.628  0.2395 -1.3717 -1.9285
 7600SOL    HW234263   2.237   4.406   4.611 -1.1221 -0.5250 -1.2169
 7601SOL     OW34264   2.375   2.698   1.443  0.2292 -0.6887  0.0945
 7601SOL    HW134265   2.321   2.769   1.410  1.1745  0.5143  1.1364
 7601SOL    HW234266   2.410   2.745   1.519 -0.2556  0.0970 -0.1685
 7602SOL     OW34267   1.288   2.019   7.539  0.0488 -0.5368 -0.2308
 7602SOL    HW134268   1.268   2.017   7.445 -0.3306  1.2745 -0.1780
 7602SOL    HW234269   1.197   2.009   7.568  0.1184 -1.8566 -0.4366
 7603SOL     OW34270   3.099   4.050   0.626 -0.2729  0.6257 -0.1466
 7603SOL    HW134271   3.089   3.984   0.558 -0.4139  0.5576 -0.0579
 7603SOL    HW234272   3.192   4.037   0.649 -0.8375  1.4280  2.5904
 7604SOL     OW34273   4.012   3.671   6.350 -0.3861  0.0234  0.2009
 7604SOL    HW134274   3.934   3.725   6.354  1.6134  2.8318  1.4684
 7604SOL    HW234275   3.970   3.595   6.310 -1.3288  0.0482  1.1375
 7605SOL     OW34276   4.031   0.835   3.036 -0.5506 -0.0294  0.3657
 7605SOL    HW134277   4.037   0.761   2.976 -1.0544  0.2408 -0.0209
 7605SOL    HW234278   4.077   0.902   2.985 -0.2207 -0.3703  0.2204
 7606SOL     OW34279   1.528   3.616  11.420  0.3109  0.4755  0.2820
 7606SOL    HW134280   1.471   3.672  11.367  0.0928 -1.2596 -1.3490
 7606SOL    HW234281   1.566   3.674  11.486  0.8348  0.0855  0.3185
 7607SOL     OW34282   3.675   4.509   2.475 -0.0511  0.3869  0.4865
 7607SOL    HW134283   3.728   4.588   2.465  0.2441 -0.1536 -2.1682
 7607SOL    HW234284   3.694   4.463   2.394 -0.9089 -1.8186  1.5303
 7608SOL     OW34285   2.457   0.171  15.987  0.1677  0.2582  0.2719
 7608SOL    HW134286   2.463   0.168  16.083  1.3006 -0.8448  0.1564
 7608SOL    HW234287   2.541   0.210  15.966  0.3407 -0.2130  0.0989
 7609SOL     OW34288   1.739   1.685   8.086  0.7414  0.0238 -0.2067
 7609SOL    HW134289   1.652   1.726   8.085  0.0075 -1.5194 -0.0633
 7609SOL    HW234290   1.788   1.762   8.057  1.6528 -1.1752 -1.8086
 7610SOL     OW34291   0.431   1.049   4.072  0.1844 -0.1056 -0.1240
 7610SOL    HW134292   0.462   1.102   4.146  0.0283 -0.8434  0.4749
 7610SOL    HW234293   0.346   1.092   4.073 -0.2247 -0.9094 -0.5638
 7611SOL     OW34294   1.717   0.487   6.093  0.0986  0.3320  0.0327
 7611SOL    HW134295   1.801   0.446   6.115 -1.1815 -2.9468 -1.1212
 7611SOL    HW234296   1.729   0.499   5.999  0.0103  0.7971  0.0832
 7612SOL     OW34297   1.683   3.383   0.627 -1.1920  0.0201 -0.0134
 7612SOL    HW134298   1.668   3.307   0.683  3.6477 -0.0246  1.2204
 7612SOL    HW234299   1.741   3.440   0.677  0.5813  0.8127 -2.9814
 7613SOL     OW34300   1.455   1.565   1.764  0.2764  0.3863 -0.0623
 7613SOL    HW134301   1.391   1.628   1.732  0.0744 -0.8371 -2.0474
 7613SOL    HW234302   1.397   1.491   1.783 -1.3894  1.7941  0.3481
 7614SOL     OW34303   3.057   4.541  13.693  0.1894 -0.0371  0.3609
 7614SOL    HW134304   2.978   4.584  13.727  0.9075  0.1441  1.8263
 7614SOL    HW234305   3.090   4.486  13.764  0.6115  0.7558  0.7778
 7615SOL     OW34306   2.206   1.269   3.765  0.0813 -0.1425 -0.2282
 7615SOL    HW134307   2.216   1.178   3.791 -2.8573 -0.9214 -1.8837
 7615SOL    HW234308   2.297   1.291   3.784 -0.0149  0.7867 -0.8366
 7616SOL     OW34309   3.635   4.688  16.954  0.2250 -0.4133  0.4066
 7616SOL    HW134310   3.615   0.050  16.908  1.7505 -1.0670 -1.4187
 7616SOL    HW234311   3.729   4.695  16.938  0.3226 -1.9562  0.3146
 7617SOL     OW34312   0.883   4.536   3.534 -0.2765  0.5140  0.5515
 7617SOL    HW134313   0.805   4.590   3.547 -1.9101 -1.7583  0.1604
 7617SOL    HW234314   0.923   4.543   3.621 -0.0568  1.6166  0.3660
 7618SOL     OW34315   1.140   0.296   7.746  0.4972 -0.2505 -0.0928
 7618SOL    HW134316   1.059   0.245   7.747 -0.8814  1.9433 -1.2172
 7618SOL    HW234317   1.194   0.223   7.715 -0.3733 -0.4966 -1.0055
 7619SOL     OW34318   4.099   4.597   4.809  0.3856  0.3271 -0.2660
 7619SOL    HW134319   4.093   4.503   4.827 -1.7416  0.2366 -1.4106
 7619SOL    HW234320   4.014   4.610   4.766 -0.0030 -1.8494 -0.1499
 7620SOL     OW34321   2.230   1.397   9.099 -0.0119  0.3063 -0.1280
 7620SOL    HW134322   2.174   1.377   9.174 -0.2601 -1.8521 -0.8670
 7620SOL    HW234323   2.163   1.416   9.032 -2.6617  1.2682  2.8056
 7621SOL     OW34324   1.051   0.044   8.998  0.2331 -0.0825  0.4637
 7621SOL    HW134325   1.027   0.096   8.921  0.0389  0.1158  0.6558
 7621SOL    HW234326   1.146   0.036   8.998  0.1960 -0.5637  0.8945
 7622SOL     OW34327   4.022   2.274   8.420  0.6240 -0.3949 -0.0721
 7622SOL    HW134328   4.061   2.219   8.489 -1.2656  0.4189  1.6638
 7622SOL    HW234329   3.977   2.206   8.369 -0.8641 -1.1572  2.2078
 7623SOL     OW34330   0.118   3.193   3.105  0.3355  0.0014 -0.1204
 7623SOL    HW134331   0.170   3.231   3.177 -0.4387 -0.4135  0.6549
 7623SOL    HW234332   0.155   3.105   3.108 -0.6589 -0.3834  0.7844
 7624SOL     OW34333   1.610   0.154   3.167 -0.0070  0.0271 -0.3131
 7624SOL    HW134334   1.622   0.234   3.115  1.4683  0.4532  0.6950
 7624SOL    HW234335   1.632   0.182   3.256 -1.6582  1.1092 -0.2306
 7625SOL     OW34336   1.919   0.495   4.179  0.0936 -0.6669  0.2037
 7625SOL    HW134337   1.865   0.426   4.217 -0.8405  0.0531  0.1967
 7625SOL    HW234338   1.963   0.527   4.258  0.0786 -1.4984  0.5443
 7626SOL     OW34339   3.854   4.469   6.682 -0.3168 -0.0873  0.1369
 7626SOL    HW134340   3.933   4.450   6.733 -1.3938 -2.6874  0.8187
 7626SOL    HW234341   3.799   4.408   6.731 -1.3719 -0.2719 -1.2667
 7627SOL     OW34342   2.646   4.047  12.438  0.0252 -0.0866 -0.5182
 7627SOL    HW134343   2.681   4.078  12.354  0.3420 -0.8452 -0.6708
 7627SOL    HW234344   2.626   3.959  12.406 -1.4001  1.0064 -2.6185
 7628SOL     OW34345   0.974   4.166   7.070  0.2814 -0.9754  0.2137
 7628SOL    HW134346   0.963   4.261   7.074  0.7153 -1.0260  2.5507
 7628SOL    HW234347   0.881   4.149   7.056  0.0698 -1.5878  2.3939
 7629SOL     OW34348   3.799   0.900   7.318  0.0099  0.1512 -0.0969
 7629SOL    HW134349   3.731   0.837   7.294 -2.3043  2.9456 -0.9019
 7629SOL    HW234350   3.782   0.970   7.255  0.7689  0.0743 -0.3839
 7630SOL     OW34351   3.501   2.787   2.190 -0.1338  0.4483  0.1657
 7630SOL    HW134352   3.561   2.813   2.120  1.7674 -3.1252  0.4610
 7630SOL    HW234353   3.559   2.743   2.252 -0.0655  1.0345  0.5234
 7631SOL     OW34354   0.196   2.316   9.926 -0.2026 -0.6682 -0.0085
 7631SOL    HW134355   0.151   2.232   9.933  0.5598 -0.8412  3.0839
 7631SOL    HW234356   0.161   2.344   9.842  0.8271  1.0333  0.1311
 7632SOL     OW34357   4.250   0.721   3.203  0.6603  0.3560 -0.0047
 7632SOL    HW134358   4.285   0.687   3.121  0.4608  1.7972 -0.6908
 7632SOL    HW234359   4.177   0.777   3.176 -0.8969 -0.1967  2.9567
 7633SOL     OW34360   3.922   2.544   5.966  0.0626  0.1687 -0.7966
 7633SOL    HW134361   3.965   2.626   5.942  0.6917 -0.7081 -2.7050
 7633SOL    HW234362   3.956   2.522   6.053 -2.0740 -1.7179 -0.4580
 7634SOL     OW34363   1.124   2.772   7.136  0.2128  0.0161  0.1008
 7634SOL    HW134364   1.034   2.767   7.104  0.0756 -0.8495  0.6366
 7634SOL    HW234365   1.150   2.854   7.094  1.2088  0.0528  0.7873
 7635SOL     OW34366   0.104   3.488  14.851  0.5052 -0.3415  0.1151
 7635SOL    HW134367   0.152   3.566  14.825 -0.7141  0.6714  0.8796
 7635SOL    HW234368   0.141   3.471  14.938 -0.6430  2.6264  1.2186
 7636SOL     OW34369   0.109   3.447   5.280 -0.0735 -0.0864  0.2079
 7636SOL    HW134370   0.177   3.391   5.318  1.0145  1.4208  0.4746
 7636SOL    HW234371   0.030   3.411   5.321 -1.4087 -0.8079 -3.0385
 7637SOL     OW34372   0.978   1.859   1.709 -0.0457 -0.2538 -0.3517
 7637SOL    HW134373   0.920   1.916   1.759 -0.4135 -0.5910 -0.3943
 7637SOL    HW234374   0.921   1.833   1.637  0.3110 -0.8151 -0.4341
 7638SOL     OW34375   3.077   0.391   3.211 -0.1920  0.5987 -0.0301
 7638SOL    HW134376   3.127   0.435   3.279  0.5657  0.3344 -0.4090
 7638SOL    HW234377   3.102   0.299   3.224  1.5785  0.8127 -1.8559
 7639SOL     OW34378   4.175   2.186   0.086 -0.1344 -0.1374  0.2345
 7639SOL    HW134379   4.221   2.270   0.083  0.8809 -0.8087 -2.7755
 7639SOL    HW234380   4.091   2.202   0.128 -0.7217 -0.1063 -0.9421
 7640SOL     OW34381   3.606   2.857  12.775  0.9318  0.3522  0.3438
 7640SOL    HW134382   3.633   2.897  12.858  0.1744  2.1513 -0.2644
 7640SOL    HW234383   3.673   2.789  12.773  1.2271  0.7309 -2.5344
 7641SOL     OW34384   3.542   3.681   2.154  0.0658 -0.8428 -0.0102
 7641SOL    HW134385   3.571   3.599   2.194 -1.9048 -1.9417 -0.8044
 7641SOL    HW234386   3.621   3.733   2.149 -0.2485 -0.0978  2.6883
 7642SOL     OW34387   0.592   4.095   4.063 -0.3265  0.4820 -0.1502
 7642SOL    HW134388   0.664   4.121   4.005 -1.9589 -0.1513 -2.4443
 7642SOL    HW234389   0.541   4.176   4.063 -1.3535 -0.1733 -0.1354
 7643SOL     OW34390   1.476   3.295   4.539  0.1814 -0.2499 -0.0877
 7643SOL    HW134391   1.529   3.374   4.527  0.2284 -0.2162  0.3415
 7643SOL    HW234392   1.440   3.298   4.627  1.1277  1.8229  0.2225
 7644SOL     OW34393   4.562   1.629   1.110  0.0739  0.2191 -0.3160
 7644SOL    HW134394   4.515   1.678   1.043 -1.3432  0.7829  1.0903
 7644SOL    HW234395   4.499   1.558   1.122 -1.4926  1.5259 -0.9321
 7645SOL     OW34396   3.714   2.445  15.785  0.0658  0.2925  0.4059
 7645SOL    HW134397   3.649   2.388  15.742 -1.1109  1.3424  0.8113
 7645SOL    HW234398   3.740   2.497  15.708  2.2707  1.2101  1.7722
 7646SOL     OW34399   1.204   3.917   8.937 -0.2031  0.0142  0.4655
 7646SOL    HW134400   1.230   3.924   9.029  0.2595  0.1521  0.3201
 7646SOL    HW234401   1.197   3.822   8.923  1.5665  0.1242 -1.1775
 7647SOL     OW34402   3.396   3.583   8.086  0.4630 -0.7259 -0.7162
 7647SOL    HW134403   3.331   3.579   8.015 -0.9469  0.6624  0.4787
 7647SOL    HW234404   3.476   3.573   8.034  0.5970 -3.1913 -0.0270
 7648SOL     OW34405   0.656   1.140  16.617 -0.0570  0.2027  0.4272
 7648SOL    HW134406   0.701   1.094  16.688  0.7829  2.3972  1.3403
 7648SOL    HW234407   0.564   1.131  16.639  0.1154  1.1884  1.5469
 7649SOL     OW34408   2.413   2.847  10.004 -0.2819  0.3738 -0.2990
 7649SOL    HW134409   2.354   2.820  10.074 -2.5219  1.5904 -1.7065
 7649SOL    HW234410   2.390   2.783   9.936 -0.5043  0.2739 -0.1297
 7650SOL     OW34411   1.801   1.781   5.611 -0.2174 -0.2243  0.2261
 7650SOL    HW134412   1.753   1.823   5.682 -2.4782 -1.6267 -0.4906
 7650SOL    HW234413   1.873   1.761   5.671 -0.8110 -1.6621  0.4713
 7651SOL     OW34414   2.456   1.884   0.094  0.1615 -0.0919  0.1464
 7651SOL    HW134415   2.465   1.804   0.042  2.8271 -0.2611  0.8867
 7651SOL    HW234416   2.518   1.864   0.164 -0.5734  0.4955  0.9585
 7652SOL     OW34417   2.751   0.633  13.029  0.0124  0.0066 -0.3500
 7652SOL    HW134418   2.744   0.668  13.118  2.8913  0.7769 -0.4480
 7652SOL    HW234419   2.689   0.692  12.985  2.2538  2.4310 -0.2170
 7653SOL     OW34420   2.995   1.161   3.335 -0.1336 -0.0321  0.4926
 7653SOL    HW134421   2.978   1.200   3.249  0.5601 -1.4186 -0.2776
 7653SOL    HW234422   2.969   1.238   3.386 -1.4713 -1.3035  1.7148
 7654SOL     OW34423   3.036   0.283   6.556  0.1027 -0.0656 -0.5652
 7654SOL    HW134424   3.052   0.215   6.622 -0.1331 -0.0715 -0.5150
 7654SOL    HW234425   3.028   0.222   6.483  0.1887 -0.8416  0.0646
 7655SOL     OW34426   0.629   3.436  13.009 -0.2490 -0.9494 -0.1780
 7655SOL    HW134427   0.666   3.445  13.097  0.2858  0.1650 -0.5284
 7655SOL    HW234428   0.535   3.416  13.016  0.0930 -1.8139  1.8948
 7656SOL     OW34429   4.502   4.492  12.846 -0.3460 -0.3661 -0.0258
 7656SOL    HW134430   4.463   4.541  12.774  1.4359  0.0215 -0.7033
 7656SOL    HW234431   4.537   4.562  12.901  0.5033 -1.2789  0.5856
 7657SOL     OW34432   3.058   3.738   3.177 -0.2906  0.1175  0.8214
 7657SOL    HW134433   3.115   3.726   3.102  0.4869 -0.7961  1.5546
 7657SOL    HW234434   3.096   3.673   3.236  0.2401  0.4708  0.8709
 7658SOL     OW34435   4.569   0.627   8.709  0.0588  0.2172  0.8377
 7658SOL    HW134436   4.487   0.632   8.660  0.2807 -2.5717  0.1303
 7658SOL    HW234437   4.597   0.717   8.695 -2.9155  0.8267 -1.0988
 7659SOL     OW34438   0.831   4.347   5.430  0.2049 -0.3111 -0.5411
 7659SOL    HW134439   0.773   4.381   5.362  0.2164  3.2707  1.2472
 7659SOL    HW234440   0.790   4.392   5.503 -2.4932 -0.3358 -2.0692
 7660SOL     OW34441   2.525   4.292   7.934  0.3086  0.0164  0.3494
 7660SOL    HW134442   2.439   4.274   7.972 -0.6336  0.5587 -1.5386
 7660SOL    HW234443   2.573   4.292   8.016 -0.4024 -0.9743  0.7680
 7661SOL     OW34444   0.483   1.911  11.941 -0.4003 -0.3219 -0.3312
 7661SOL    HW134445   0.564   1.862  11.954  1.0131  1.6980 -1.4805
 7661SOL    HW234446   0.437   1.893  12.024  0.7958  3.6171  1.2010
 7662SOL     OW34447   1.829   0.107   2.925  0.4150 -0.3512  0.3329
 7662SOL    HW134448   1.854   0.039   2.988 -0.5332 -0.2964  0.7757
 7662SOL    HW234449   1.734   0.098   2.937  0.0797  1.7660 -0.8798
 7663SOL     OW34450   2.548   2.402  10.553 -0.3875 -0.3943  0.2907
 7663SOL    HW134451   2.622   2.459  10.573 -1.2931  0.9160 -0.0716
 7663SOL    HW234452   2.588   2.315  10.549  0.0312 -0.2306  0.9352
 7664SOL     OW34453   1.246   1.459  10.010 -0.0752 -0.3049  0.1014
 7664SOL    HW134454   1.178   1.402   9.974 -1.6294  0.8915  1.1628
 7664SOL    HW234455   1.231   1.458  10.105 -0.8750 -0.4103 -0.0227
 7665SOL     OW34456   0.093   1.765   1.406 -0.1733 -0.3911  0.3344
 7665SOL    HW134457   0.104   1.741   1.315  1.6410 -0.9925  0.7161
 7665SOL    HW234458   0.026   1.703   1.433 -3.0600  1.7600 -1.9372
 7666SOL     OW34459   0.313   0.824   8.443 -0.0334 -0.2411 -0.6974
 7666SOL    HW134460   0.253   0.749   8.446 -0.0087 -0.3503 -2.5420
 7666SOL    HW234461   0.282   0.877   8.369  2.2370  1.1683 -0.6403
 7667SOL     OW34462   2.685   0.209   3.802 -0.2172  1.0219  0.5210
 7667SOL    HW134463   2.673   0.166   3.718 -2.6808  0.5117  1.1357
 7667SOL    HW234464   2.780   0.205   3.812  0.0295  3.6044 -0.9122
 7668SOL     OW34465   1.163   3.080  15.465  0.3251 -0.2743 -0.0780
 7668SOL    HW134466   1.245   3.078  15.415  0.3671 -1.8916  0.0605
 7668SOL    HW234467   1.126   3.163  15.434  0.5447  0.1056  0.6582
 7669SOL     OW34468   3.908   4.254  15.538  0.6240  0.4867 -0.6357
 7669SOL    HW134469   3.954   4.246  15.622 -0.6985  1.4590  0.1952
 7669SOL    HW234470   3.955   4.324  15.493  0.2455  0.7749 -0.5863
 7670SOL     OW34471   1.935   1.563   1.141 -0.2640 -0.7556  0.5169
 7670SOL    HW134472   1.881   1.528   1.070 -0.8096  0.1262  0.5048
 7670SOL    HW234473   1.910   1.517   1.221  2.8820 -2.0951  0.7509
 7671SOL     OW34474   0.187   3.344   2.240 -0.5680  0.1620  0.1712
 7671SOL    HW134475   0.180   3.252   2.216  2.0346 -0.1933  0.7675
 7671SOL    HW234476   0.263   3.345   2.298 -1.2506  1.8905  1.0544
 7672SOL     OW34477   0.573   2.333   6.056  0.5168 -0.1304 -0.3849
 7672SOL    HW134478   0.580   2.377   6.140  0.8975  4.5337 -2.8387
 7672SOL    HW234479   0.507   2.382   6.007  0.1256  0.9239  1.2053
 7673SOL     OW34480   4.494   0.336   5.074 -0.1720 -0.0942 -0.5558
 7673SOL    HW134481   4.578   0.297   5.054 -0.6276 -0.9440 -0.8024
 7673SOL    HW234482   4.445   0.254   5.086 -0.5242 -0.2537 -3.0929
 7674SOL     OW34483   0.603   0.314   9.328 -0.5537  0.0954  0.0814
 7674SOL    HW134484   0.617   0.408   9.326 -1.6078  0.2568  0.3739
 7674SOL    HW234485   0.519   0.315   9.374 -0.9544 -0.4560 -0.6433
 7675SOL     OW34486   0.300   1.107   5.818 -0.4378 -0.1329  0.6777
 7675SOL    HW134487   0.363   1.098   5.747 -1.6449 -1.8972 -0.1525
 7675SOL    HW234488   0.351   1.089   5.898  3.4697  0.3740 -1.7278
 7676SOL     OW34489   3.502   2.429   5.764  0.3701 -0.0350  0.1947
 7676SOL    HW134490   3.512   2.354   5.704  1.6548  0.5105 -0.2767
 7676SOL    HW234491   3.414   2.412   5.798  0.2578 -1.6400 -0.8837
 7677SOL     OW34492   2.699   1.474  10.868  0.5189 -0.2050  0.2514
 7677SOL    HW134493   2.749   1.556  10.875 -0.6357  0.5997 -1.0645
 7677SOL    HW234494   2.765   1.412  10.836  2.2370  2.1165 -0.7315
 7678SOL     OW34495   0.950   3.342  10.990 -0.2877  0.4622  0.2998
 7678SOL    HW134496   1.006   3.265  11.005  0.4976  1.0182  0.2023
 7678SOL    HW234497   0.943   3.387  11.073 -2.3688 -1.6778  1.2869
 7679SOL     OW34498   1.091   0.083   2.465 -0.3349 -0.6613 -0.2035
 7679SOL    HW134499   1.032   0.150   2.501  0.1504  0.7550 -2.0543
 7679SOL    HW234500   1.044   0.062   2.384 -0.8923 -1.8012  0.4102
 7680SOL     OW34501   1.811   1.071   7.461 -0.3324 -0.1064 -0.2448
 7680SOL    HW134502   1.769   0.989   7.436 -0.6787 -0.3313  1.0543
 7680SOL    HW234503   1.784   1.139   7.400 -0.3517 -2.0234 -2.3886
 7681SOL     OW34504   0.153   4.442   3.577  0.0410 -0.4349 -0.0632
 7681SOL    HW134505   0.190   4.404   3.497 -1.6135  0.2802 -1.1539
 7681SOL    HW234506   0.200   4.396   3.647  1.3852 -0.3794 -0.9140
 7682SOL     OW34507   3.598   0.939   8.696 -0.1053 -0.0956 -0.1122
 7682SOL    HW134508   3.562   1.025   8.721  0.1873  0.2278 -0.8116
 7682SOL    HW234509   3.669   0.930   8.759  1.7357 -1.3026 -2.3511
 7683SOL     OW34510   2.188   2.250   7.993  0.3306 -0.1681 -0.6580
 7683SOL    HW134511   2.192   2.223   8.085  1.2026 -1.2053 -0.9956
 7683SOL    HW234512   2.249   2.183   7.962  1.5371 -0.0441  1.4302
 7684SOL     OW34513   3.278   4.018   6.870 -0.3223  0.0646 -0.0566
 7684SOL    HW134514   3.331   4.070   6.930  1.8598  0.3289 -2.2234
 7684SOL    HW234515   3.199   3.999   6.921 -1.4034  2.9047 -0.6824
 7685SOL     OW34516   0.980   0.132  10.148  0.4883 -0.4187  0.3201
 7685SOL    HW134517   0.970   0.147  10.242  0.9231 -2.5646  0.6896
 7685SOL    HW234518   1.030   0.211  10.128  1.5746 -1.8806 -2.7371
 7686SOL     OW34519   3.796   3.007  12.105  0.1494 -0.2215 -0.0592
 7686SOL    HW134520   3.874   3.001  12.050 -0.3629  0.6213 -0.8926
 7686SOL    HW234521   3.839   3.018  12.189  0.7308  0.1911 -0.4122
 7687SOL     OW34522   0.552   0.946   8.533  0.1261 -0.6315 -0.1819
 7687SOL    HW134523   0.608   0.872   8.558  1.1928 -0.0290 -0.8007
 7687SOL    HW234524   0.476   0.900   8.498 -0.1219  1.8144 -2.8580
 7688SOL     OW34525   2.265   4.053  13.555 -0.8385 -0.1601  0.0305
 7688SOL    HW134526   2.205   3.992  13.513 -1.9144 -0.8836  2.5968
 7688SOL    HW234527   2.204   4.110  13.602 -0.6315 -0.9563  1.2615
 7689SOL     OW34528   3.667   1.412  11.203 -0.2396  0.3627 -0.4051
 7689SOL    HW134529   3.596   1.425  11.266 -1.3494 -0.9765 -1.3727
 7689SOL    HW234530   3.741   1.433  11.260 -0.3691  2.8638 -1.1441
 7690SOL     OW34531   2.221   3.722   5.593  0.1311  0.4965 -0.0983
 7690SOL    HW134532   2.315   3.713   5.610 -0.2504 -3.3445 -0.0989
 7690SOL    HW234533   2.203   3.649   5.534 -0.4020  0.7738 -0.2739
 7691SOL     OW34534   0.958   2.219   2.654  0.2838 -0.2154 -0.4145
 7691SOL    HW134535   0.878   2.196   2.700  0.3613  1.3019  0.4591
 7691SOL    HW234536   0.924   2.260   2.574 -1.0949 -0.5093  0.0243
 7692SOL     OW34537   2.033   1.986   6.035 -0.2311 -0.0444 -0.1246
 7692SOL    HW134538   2.068   1.906   5.997  0.8858  0.6024 -0.4605
 7692SOL    HW234539   1.995   1.969   6.121 -1.7264  1.3328 -0.5039
 7693SOL     OW34540   0.429   4.693   1.751 -0.4789 -0.5124  0.0577
 7693SOL    HW134541   0.407   0.052   1.801  1.1523  2.0824 -3.3046
 7693SOL    HW234542   0.369   4.708   1.677 -1.0017 -1.7912  0.2232
 7694SOL     OW34543   0.977   4.031  16.428  0.3749 -0.0662 -0.2469
 7694SOL    HW134544   0.953   4.066  16.342 -1.2701  0.0641  0.2586
 7694SOL    HW234545   0.935   4.098  16.483  0.2201  0.1093 -0.5831
 7695SOL     OW34546   3.411   2.781   6.695  0.0195  0.2380 -0.0539
 7695SOL    HW134547   3.415   2.690   6.724  0.6432  0.5818  0.9493
 7695SOL    HW234548   3.475   2.780   6.624 -1.0828 -0.1510 -1.0417
 7696SOL     OW34549   0.941   4.625  11.864 -0.5510  0.2806  0.4641
 7696SOL    HW134550   0.987   4.541  11.870  0.0216  0.4099 -2.2912
 7696SOL    HW234551   1.010   4.683  11.898  0.0935 -0.3574  0.2425
 7697SOL     OW34552   4.478   2.083   2.701 -0.2756 -0.4685  0.5163
 7697SOL    HW134553   4.527   2.088   2.619 -0.4502  3.7874  0.6462
 7697SOL    HW234554   4.447   1.993   2.707  0.3648 -0.7377 -0.2349
 7698SOL     OW34555   4.657   3.878   6.077  0.0732  0.3061  0.9477
 7698SOL    HW134556   4.652   3.783   6.065 -0.4238  0.2719  1.3683
 7698SOL    HW234557   0.028   3.887   6.105  1.0796 -1.9288 -1.6315
 7699SOL     OW34558   0.043   4.080   1.907  0.4799 -0.1745  0.0114
 7699SOL    HW134559   0.134   4.052   1.918  0.6494 -0.6111 -2.3544
 7699SOL    HW234560   0.012   4.087   1.997  0.3058  0.3377 -0.0869
 7700SOL     OW34561   3.688   3.476   4.481  0.0135  0.0820 -0.2814
 7700SOL    HW134562   3.723   3.453   4.395 -0.0263 -0.4135 -0.1703
 7700SOL    HW234563   3.681   3.571   4.480  0.0043  0.0816 -0.2504
 7701SOL     OW34564   1.077   2.388   1.269 -0.1251 -0.0520 -0.0340
 7701SOL    HW134565   1.143   2.401   1.201  0.6974 -1.7982  0.4147
 7701SOL    HW234566   1.023   2.319   1.231 -2.5889  2.5504 -1.1685
 7702SOL     OW34567   0.728   2.546   8.177 -0.6126  0.0312  0.6572
 7702SOL    HW134568   0.792   2.618   8.176 -1.1714  0.5240  0.2632
 7702SOL    HW234569   0.649   2.600   8.186 -1.3388 -0.4651 -2.4753
 7703SOL     OW34570   3.406   0.531   2.898 -0.4291  0.4568 -0.1552
 7703SOL    HW134571   3.375   0.550   2.809  0.2011 -2.2558 -0.9569
 7703SOL    HW234572   3.324   0.544   2.945 -0.8038 -0.7126 -0.4782
 7704SOL     OW34573   3.611   3.020   5.705  0.2959  0.0464 -0.3351
 7704SOL    HW134574   3.660   3.069   5.639  0.9705 -0.8615 -0.5029
 7704SOL    HW234575   3.635   2.928   5.695  2.6728  0.6113  0.2668
 7705SOL     OW34576   0.982   1.790   5.935  0.6348  0.3363  0.0089
 7705SOL    HW134577   0.889   1.793   5.954  0.4455  0.3064 -0.8965
 7705SOL    HW234578   0.993   1.879   5.900  1.5580  0.7810  1.4733
 7706SOL     OW34579   2.425   2.103   7.936  0.8945 -0.0895 -0.6585
 7706SOL    HW134580   2.437   2.066   8.024 -2.7318 -1.8545 -0.9132
 7706SOL    HW234581   2.484   2.047   7.886  0.6516 -1.7323  0.8945
 7707SOL     OW34582   0.293   0.951  13.672 -0.4314  0.2604 -0.2952
 7707SOL    HW134583   0.336   0.974  13.590 -0.3977 -1.0741 -0.6494
 7707SOL    HW234584   0.286   0.856  13.663 -1.0390  0.2620  0.1806
 7708SOL     OW34585   2.861   0.964   0.475  0.1200 -0.1001  0.0277
 7708SOL    HW134586   2.813   0.952   0.557 -1.1251  3.3648 -0.1778
 7708SOL    HW234587   2.927   1.030   0.497  1.4833 -1.1738 -0.8393
 7709SOL     OW34588   2.937   1.187   2.900 -0.4597  0.3109 -0.1338
 7709SOL    HW134589   2.879   1.113   2.886 -2.1887  1.2314  2.2859
 7709SOL    HW234590   2.957   1.206   2.808  0.7657  1.4107  0.3521
 7710SOL     OW34591   0.373   0.300   9.485 -0.1390  0.2783  0.4469
 7710SOL    HW134592   0.385   0.236   9.554 -3.0148 -1.2295 -0.4619
 7710SOL    HW234593   0.312   0.357   9.533 -1.9852 -1.8175  0.5949
 7711SOL     OW34594   1.617   4.508  15.168 -0.4776  0.2835 -0.0102
 7711SOL    HW134595   1.602   4.444  15.237  1.4489 -1.5817 -1.3463
 7711SOL    HW234596   1.711   4.526  15.175 -0.2336 -0.0579 -2.1843
 7712SOL     OW34597   4.180   0.563  17.025 -0.0305 -0.0066  0.4863
 7712SOL    HW134598   4.216   0.609  16.949  1.0328 -4.3305 -1.6077
 7712SOL    HW234599   4.102   0.616  17.042 -1.3456 -1.9114  0.3885
 7713SOL     OW34600   0.941   3.943   6.683  0.4073  0.2826 -0.0126
 7713SOL    HW134601   0.888   3.902   6.751 -1.8747  2.2202 -0.5903
 7713SOL    HW234602   1.011   3.977   6.738 -0.0920 -1.6632  1.8222
 7714SOL     OW34603   2.464   1.849   6.096  0.1682  0.1493  0.2155
 7714SOL    HW134604   2.552   1.865   6.064 -0.3040  1.9913 -0.1346
 7714SOL    HW234605   2.475   1.878   6.187 -0.0782  0.8036  0.0351
 7715SOL     OW34606   1.297   0.707   7.508 -0.5567  0.1537  0.8863
 7715SOL    HW134607   1.253   0.777   7.460 -2.6764 -0.7975  1.3964
 7715SOL    HW234608   1.223   0.653   7.538 -0.3737  0.7611  2.4340
 7716SOL     OW34609   4.401   0.740   0.921  0.6425 -0.1383  0.4354
 7716SOL    HW134610   4.347   0.815   0.944 -1.9209 -1.3821 -1.6281
 7716SOL    HW234611   4.429   0.755   0.831 -1.8838 -1.4077 -0.5741
 7717SOL     OW34612   4.232   1.696   8.264 -0.5249  0.2041 -0.2097
 7717SOL    HW134613   4.138   1.702   8.284 -0.9259  0.2661 -2.0529
 7717SOL    HW234614   4.237   1.602   8.246 -0.4146  0.7598 -3.0550
 7718SOL     OW34615   1.351   3.575   6.748  0.5179  0.0938  0.0476
 7718SOL    HW134616   1.321   3.489   6.719  3.2121 -1.4305  1.7517
 7718SOL    HW234617   1.278   3.617   6.792 -0.2137  0.5892 -1.6478
 7719SOL     OW34618   3.268   1.721   8.136 -0.2923  0.4963 -0.0262
 7719SOL    HW134619   3.299   1.641   8.092 -0.0107  0.1507  0.7968
 7719SOL    HW234620   3.348   1.737   8.186  0.2214 -0.2991 -0.5921
 7720SOL     OW34621   0.649   3.887   7.090  0.3412 -0.1445  0.7271
 7720SOL    HW134622   0.663   3.981   7.088 -0.1954 -0.0922 -1.1711
 7720SOL    HW234623   0.734   3.862   7.127  1.6215  0.6578 -1.6527
 7721SOL     OW34624   3.671   1.773   4.427  0.2167  0.2125  0.2161
 7721SOL    HW134625   3.672   1.866   4.452  0.7659  0.1444  0.4404
 7721SOL    HW234626   3.675   1.731   4.512 -2.1368  2.0053  1.2418
 7722SOL     OW34627   2.185   0.141   3.305  0.0218 -0.2964 -0.3021
 7722SOL    HW134628   2.092   0.164   3.300 -0.0704 -0.6744 -0.2710
 7722SOL    HW234629   2.174   0.055   3.266  0.2955  0.3753 -1.8909
 7723SOL     OW34630   3.570   3.867   9.657  0.1754 -0.1721 -0.5723
 7723SOL    HW134631   3.582   3.779   9.692 -1.8531  0.0471  0.6834
 7723SOL    HW234632   3.505   3.850   9.589 -0.8051 -1.6443  0.7332
 7724SOL     OW34633   0.380   2.824   8.387  0.0316  0.5424  0.2370
 7724SOL    HW134634   0.366   2.816   8.481  2.2571 -1.6012  0.3913
 7724SOL    HW234635   0.453   2.886   8.378 -0.2248  0.5795 -1.5856
 7725SOL     OW34636   3.050   0.848  15.093 -0.1024  0.1633  0.0310
 7725SOL    HW134637   3.143   0.828  15.078 -0.0197  0.0453  0.7130
 7725SOL    HW234638   3.013   0.770  15.052 -1.2631  0.7864 -0.0879
 7726SOL     OW34639   3.595   2.254  11.706 -0.1258 -0.3223  0.3398
 7726SOL    HW134640   3.642   2.283  11.784  0.6508 -0.3153 -0.1328
 7726SOL    HW234641   3.566   2.166  11.728  0.9772 -0.4583  1.2617
 7727SOL     OW34642   3.022   4.023   9.957  0.4214  0.3183  0.0127
 7727SOL    HW134643   3.117   4.016   9.967  0.0945 -0.5320  2.5269
 7727SOL    HW234644   2.990   3.933   9.947  2.9913 -0.5529 -0.2141
 7728SOL     OW34645   0.231   3.221   9.133 -0.1362  0.0766  0.4327
 7728SOL    HW134646   0.158   3.281   9.119 -0.6839 -1.0470 -1.5231
 7728SOL    HW234647   0.257   3.208   9.042 -1.1801  0.7485  0.0455
 7729SOL     OW34648   1.044   0.155   0.463 -0.1315 -0.1249 -0.2567
 7729SOL    HW134649   1.131   0.192   0.453  0.6845 -2.2679 -1.2346
 7729SOL    HW234650   0.994   0.236   0.452  0.7681  0.6342  1.3349
 7730SOL     OW34651   2.829   3.624   7.097 -0.1517 -0.2348  0.7002
 7730SOL    HW134652   2.897   3.637   7.031 -0.7269  0.5878  0.2803
 7730SOL    HW234653   2.860   3.544   7.139 -1.5723 -1.2044 -0.1089
 7731SOL     OW34654   0.421   3.508   8.486 -0.2299  0.0001 -0.0651
 7731SOL    HW134655   0.420   3.527   8.579 -1.6882  2.3555 -0.5680
 7731SOL    HW234656   0.327   3.499   8.470 -0.4738  3.0488 -0.3144
 7732SOL     OW34657   2.746   0.341  15.090  0.6114  0.0710  0.7032
 7732SOL    HW134658   2.661   0.308  15.061  0.4285  2.6816 -1.6899
 7732SOL    HW234659   2.773   0.391  15.013 -0.7102 -1.8948 -1.0394
 7733SOL     OW34660   2.635   2.957   3.420  0.2157 -0.1762  0.2054
 7733SOL    HW134661   2.572   2.983   3.353 -0.2517 -1.8140 -0.0105
 7733SOL    HW234662   2.632   2.861   3.417 -3.5387 -0.0494 -0.2107
 7734SOL     OW34663   1.243   2.507   4.541  0.5133 -0.0297 -0.3426
 7734SOL    HW134664   1.231   2.496   4.446  2.6192 -1.5508 -0.4242
 7734SOL    HW234665   1.252   2.601   4.554  2.2953 -0.4817  1.6939
 7735SOL     OW34666   4.352   4.640  13.418  0.1825 -0.8872 -0.0197
 7735SOL    HW134667   4.267   4.613  13.383  1.0208 -0.3865 -2.3794
 7735SOL    HW234668   4.346   4.654  13.513 -0.1077  0.6841 -0.2743
 7736SOL     OW34669   1.111   2.034   5.835 -0.3376 -0.0564 -0.3068
 7736SOL    HW134670   1.082   2.097   5.902  2.3105  1.6672 -0.7846
 7736SOL    HW234671   1.184   1.989   5.878  0.7882  1.4307 -0.6546
 7737SOL     OW34672   0.191   4.681  16.745 -0.1535  0.2624  0.7607
 7737SOL    HW134673   0.183   4.718  16.657  0.4529  0.2145  0.6843
 7737SOL    HW234674   0.159   4.592  16.733 -0.3471  0.4028  0.2442
 7738SOL     OW34675   1.827   0.389   5.055 -0.4868 -0.2463  0.0231
 7738SOL    HW134676   1.758   0.426   5.000 -0.2847  0.6529  0.3761
 7738SOL    HW234677   1.794   0.299   5.057 -0.2934 -0.3142  0.1079
 7739SOL     OW34678   1.408   2.831   7.124  0.2294 -0.1951 -0.4128
 7739SOL    HW134679   1.393   2.805   7.215  0.8493  0.8069 -0.0223
 7739SOL    HW234680   1.362   2.915   7.124  0.5370 -0.0259 -1.0692
 7740SOL     OW34681   0.966   1.452   3.776 -0.0616 -0.4714 -0.0214
 7740SOL    HW134682   1.032   1.396   3.816 -1.6668 -1.0707  1.7752
 7740SOL    HW234683   0.900   1.388   3.745  1.8634 -1.5096 -1.9914
 7741SOL     OW34684   0.755   2.047   5.041  0.4812 -0.6865  0.5643
 7741SOL    HW134685   0.667   2.009   5.035 -0.2109  1.1845 -0.9396
 7741SOL    HW234686   0.764   2.059   4.946  1.1860 -0.2255  0.6956
 7742SOL     OW34687   0.051   4.258   9.309  0.5197 -0.2432  0.1984
 7742SOL    HW134688   0.063   4.351   9.290  0.2532  0.0203  1.3303
 7742SOL    HW234689   4.690   4.238   9.261  1.7465  0.3884 -2.1237
 7743SOL     OW34690   4.594   1.510   5.955 -0.4892 -0.1606  1.0406
 7743SOL    HW134691   4.633   1.452   6.022  0.6112  0.0173  0.5569
 7743SOL    HW234692   4.626   1.466   5.877  1.7535  3.0255  0.1625
 7744SOL     OW34693   0.670   2.730   0.345  0.1104  0.0619 -0.4715
 7744SOL    HW134694   0.743   2.779   0.383  0.3243  0.5206 -1.4831
 7744SOL    HW234695   0.663   2.766   0.256 -0.8383  0.5417 -0.2005
 7745SOL     OW34696   4.673   1.887  10.840 -0.3183  0.5737 -0.3935
 7745SOL    HW134697   4.667   1.983  10.831  2.7656  1.1210  3.1985
 7745SOL    HW234698   4.681   1.868  10.747 -0.9271 -1.8497  0.0494
 7746SOL     OW34699   0.969   3.910   5.556  0.2890 -0.0713  0.1425
 7746SOL    HW134700   0.918   3.980   5.595 -0.0325 -0.4982  0.4871
 7746SOL    HW234701   1.050   3.957   5.537  0.2918 -0.4552 -0.8147
 7747SOL     OW34702   1.001   0.822   3.908 -0.1176 -0.5379  0.1329
 7747SOL    HW134703   0.927   0.878   3.931 -0.1581 -0.3002 -0.5881
 7747SOL    HW234704   0.960   0.756   3.852  1.5268 -2.1343  0.8355
 7748SOL     OW34705   1.541   0.707  11.341 -0.1886  0.5255 -0.3526
 7748SOL    HW134706   1.557   0.634  11.282  0.3417 -0.5001  1.0432
 7748SOL    HW234707   1.569   0.667  11.423 -0.3681 -0.8343 -0.9623
 7749SOL     OW34708   1.719   4.167  13.981  0.6671 -0.4458  0.3086
 7749SOL    HW134709   1.638   4.175  13.931  1.1186  1.1223 -0.1664
 7749SOL    HW234710   1.752   4.078  13.967 -1.0832 -1.3626  2.0131
 7750SOL     OW34711   3.171   2.557   5.662 -0.0388  0.4530  0.5260
 7750SOL    HW134712   3.198   2.485   5.720  0.6994  0.4879  0.2173
 7750SOL    HW234713   3.132   2.496   5.600  1.5377 -0.2671  0.2348
 7751SOL     OW34714   3.001   4.622   6.146 -0.1135  0.1305 -1.1174
 7751SOL    HW134715   3.027   4.662   6.063 -0.1956 -1.5194 -1.9432
 7751SOL    HW234716   3.076   4.568   6.173 -1.4702 -0.7128  0.8999
 7752SOL     OW34717   4.269   3.396  17.057  0.2260  0.2601 -0.0316
 7752SOL    HW134718   4.202   3.375  16.992  1.3466  1.9109 -1.6946
 7752SOL    HW234719   4.255   3.490  17.060 -1.4253 -0.0194  1.3901
 7753SOL     OW34720   2.438   1.983   3.681 -0.2835 -0.7611  0.2596
 7753SOL    HW134721   2.504   2.047   3.708 -1.3542  0.3282  0.2818
 7753SOL    HW234722   2.362   1.996   3.737 -1.3144 -0.6365 -1.1611
 7754SOL     OW34723   0.290   3.772   2.166 -0.2357 -0.3149  0.2306
 7754SOL    HW134724   0.360   3.766   2.231 -0.2028 -0.5180  0.1754
 7754SOL    HW234725   0.294   3.682   2.132 -2.6158 -0.2635 -0.2132
 7755SOL     OW34726   2.387   3.348   5.954  0.0541 -0.1520 -0.9560
 7755SOL    HW134727   2.478   3.320   5.952 -0.0165 -0.3790 -0.9940
 7755SOL    HW234728   2.343   3.283   5.900  0.6099 -1.4165  0.1267
 7756SOL     OW34729   1.087   4.634   3.724  0.0166 -0.0936  0.3596
 7756SOL    HW134730   1.057   4.561   3.777 -1.7461  0.7079  0.4761
 7756SOL    HW234731   1.157   4.585   3.682  0.1651 -0.4859  1.0654
 7757SOL     OW34732   1.405   0.143   9.329 -0.0492 -0.1743  0.1992
 7757SOL    HW134733   1.356   0.095   9.262 -1.3861 -0.3114  1.2890
 7757SOL    HW234734   1.456   0.211   9.284 -1.3309  0.9305  0.4412
 7758SOL     OW34735   2.255   0.073  16.283  0.6602  0.4608 -0.2410
 7758SOL    HW134736   2.293   0.161  16.287  0.6901  0.4817 -0.9666
 7758SOL    HW234737   2.205   0.071  16.202 -0.1911  1.7454  0.2526
 7759SOL     OW34738   3.798   1.932  11.185  0.2634  0.0914 -0.7948
 7759SOL    HW134739   3.774   1.973  11.269  0.2531 -2.6635  0.5392
 7759SOL    HW234740   3.710   1.902  11.162 -0.3625  1.9472 -0.8192
 7760SOL     OW34741   2.733   0.968   2.336  0.2910  0.4135  0.2872
 7760SOL    HW134742   2.816   0.932   2.304 -1.0091 -2.7284  0.4270
 7760SOL    HW234743   2.762   0.977   2.426  0.7734  0.1526  0.1586
 7761SOL     OW34744   0.285   0.572   1.983  0.4167 -0.0929  0.3096
 7761SOL    HW134745   0.368   0.539   2.015 -0.4851 -0.5836  2.1525
 7761SOL    HW234746   0.286   0.567   1.888 -0.1082  0.6113  0.2719
 7762SOL     OW34747   3.109   0.032  17.282 -0.2766  0.2171  0.2058
 7762SOL    HW134748   3.128   0.061  17.193 -1.5286  0.8644  0.1474
 7762SOL    HW234749   3.027   4.703  17.281 -0.1192 -0.0621  0.7469
 7763SOL     OW34750   3.421   4.393   6.638  0.4191  0.1867 -0.3151
 7763SOL    HW134751   3.448   4.405   6.729  0.5068  1.2548 -0.4862
 7763SOL    HW234752   3.502   4.397   6.589  1.1132  0.9808  0.8913
 7764SOL     OW34753   1.261   1.340   9.193  0.1354  0.9239 -0.3049
 7764SOL    HW134754   1.279   1.422   9.146 -1.9129  0.0441 -2.6122
 7764SOL    HW234755   1.287   1.270   9.133 -1.2191 -1.1640  1.5818
 7765SOL     OW34756   0.467   4.220   1.684  0.7480 -0.9380 -0.5783
 7765SOL    HW134757   0.410   4.153   1.645 -1.6121  0.2643  0.7698
 7765SOL    HW234758   0.483   4.279   1.610  0.7414  0.1368  0.2784
 7766SOL     OW34759   3.833   2.116   7.443  0.1639  0.2884  0.3466
 7766SOL    HW134760   3.816   2.136   7.351  0.5135  0.3263  0.2929
 7766SOL    HW234761   3.779   2.186   7.481  2.2363  2.0981 -0.0634
 7767SOL     OW34762   3.814   3.351   4.962 -0.2927  0.3029  0.0248
 7767SOL    HW134763   3.792   3.420   4.899 -1.3470  0.1630  0.2424
 7767SOL    HW234764   3.891   3.316   4.918 -0.4180  0.1874 -0.1048
 7768SOL     OW34765   2.496   2.221   4.592  0.1901 -0.0671  0.7112
 7768SOL    HW134766   2.562   2.153   4.586 -0.9268 -1.1904  1.1720
 7768SOL    HW234767   2.442   2.191   4.518 -0.5328  0.0534  1.1878
 7769SOL     OW34768   2.097   4.337   2.613  0.3607  0.0220 -0.2492
 7769SOL    HW134769   2.054   4.296   2.537  0.4578 -3.1614  1.3787
 7769SOL    HW234770   2.038   4.406   2.642 -0.6932 -1.4983  1.2548
 7770SOL     OW34771   2.753   2.847  15.234 -0.2752 -0.1003 -0.0714
 7770SOL    HW134772   2.777   2.772  15.178 -2.3594 -0.0292 -1.0446
 7770SOL    HW234773   2.697   2.806  15.300 -1.1545  0.4149 -0.5068
 7771SOL     OW34774   0.686   4.094   1.758 -0.2122  0.5947  0.0181
 7771SOL    HW134775   0.617   4.137   1.708 -2.6424 -0.1704  2.7326
 7771SOL    HW234776   0.747   4.059   1.693 -2.7489 -1.4594 -1.2362
 7772SOL     OW34777   1.041   3.446   6.872  0.2092 -0.3779 -0.8451
 7772SOL    HW134778   0.991   3.383   6.819  0.1613 -1.0077 -0.0539
 7772SOL    HW234779   1.093   3.484   6.801  2.9880 -0.3228  1.2288
 7773SOL     OW34780   4.491   4.033   6.793  0.4218  0.0120 -0.0999
 7773SOL    HW134781   4.403   4.005   6.770  1.0189 -0.3761 -1.9249
 7773SOL    HW234782   4.521   3.942   6.789 -0.5550 -0.3516  0.8542
 7774SOL     OW34783   1.708   2.632  12.145 -0.4981 -0.0968  0.3001
 7774SOL    HW134784   1.706   2.625  12.241 -0.8126  1.0771  0.3870
 7774SOL    HW234785   1.772   2.701  12.129  0.1667 -0.5513  0.9794
 7775SOL     OW34786   0.402   2.864   8.068 -0.4726 -1.0368 -0.3658
 7775SOL    HW134787   0.376   2.874   7.977  0.4987 -0.3428 -0.5736
 7775SOL    HW234788   0.337   2.905   8.125  3.0728  2.2665  1.3180
 7776SOL     OW34789   2.817   2.998   3.921 -0.3717 -0.0958  0.0538
 7776SOL    HW134790   2.896   2.951   3.897 -1.1090 -0.1700 -2.2229
 7776SOL    HW234791   2.775   3.010   3.835  0.2169  0.5230 -0.1434
 7777SOL     OW34792   2.315   3.785   9.649  0.0412  0.3161  0.3688
 7777SOL    HW134793   2.354   3.814   9.566  1.5762  0.2596  1.0692
 7777SOL    HW234794   2.221   3.795   9.637 -0.0354 -2.4750 -1.5353
 7778SOL     OW34795   1.054   2.361  15.449 -0.2033  0.1422 -0.6031
 7778SOL    HW134796   1.076   2.429  15.385  1.0041 -2.1605 -2.6144
 7778SOL    HW234797   1.009   2.415  15.514  0.8114  1.4755 -1.0183
 7779SOL     OW34798   1.409   1.761  12.303  0.4205 -0.1257 -0.2077
 7779SOL    HW134799   1.499   1.791  12.314 -0.2499  1.7863  0.1974
 7779SOL    HW234800   1.377   1.842  12.263 -0.0583  0.2395  0.9026
 7780SOL     OW34801   1.898   0.391   9.525  0.0232  0.0164 -0.4131
 7780SOL    HW134802   1.925   0.465   9.579  0.6860 -1.3857  1.1550
 7780SOL    HW234803   1.881   0.332   9.598  0.8232 -0.3239 -0.5069
 7781SOL     OW34804   3.965   0.525   4.374 -0.7135  0.4106  0.3887
 7781SOL    HW134805   3.898   0.554   4.313  0.4124 -1.4352 -1.7261
 7781SOL    HW234806   3.940   0.435   4.396  0.2803  0.1515  0.4492
 7782SOL     OW34807   2.396   2.567   3.529  0.0021  0.2579 -0.2148
 7782SOL    HW134808   2.347   2.649   3.535 -1.0340 -0.3655 -0.1108
 7782SOL    HW234809   2.342   2.501   3.574  0.5382  2.0188  3.0301
 7783SOL     OW34810   3.473   1.165   6.747 -0.3292 -0.0988 -0.6104
 7783SOL    HW134811   3.480   1.099   6.817 -0.7247 -2.5415 -2.8540
 7783SOL    HW234812   3.446   1.238   6.802  1.8589  0.3662 -0.1536
 7784SOL     OW34813   0.166   1.554  12.962  0.1726  0.0047 -0.1142
 7784SOL    HW134814   0.209   1.479  12.920  1.0241 -0.2484  1.2080
 7784SOL    HW234815   0.087   1.514  12.997 -0.2838  0.9221 -0.1099
 7785SOL     OW34816   4.161   1.519  11.076 -0.1983  1.2772 -0.1589
 7785SOL    HW134817   4.124   1.519  11.164  0.3974 -0.9129  0.0951
 7785SOL    HW234818   4.250   1.489  11.092 -0.6886  0.3022  0.7458
 7786SOL     OW34819   1.761   4.223   9.380  0.0485  0.0039 -0.0540
 7786SOL    HW134820   1.852   4.211   9.404 -0.0506 -0.5883  0.0222
 7786SOL    HW234821   1.733   4.267   9.460 -0.3198  0.6935 -0.5536
 7787SOL     OW34822   2.813   4.570   2.217  0.1848  0.2379  0.2643
 7787SOL    HW134823   2.872   4.563   2.142  0.7074 -0.5038  0.7428
 7787SOL    HW234824   2.748   4.503   2.199 -0.3775  0.0293  3.0495
 7788SOL     OW34825   4.180   2.377   5.204 -0.4041  0.1174  0.0075
 7788SOL    HW134826   4.119   2.324   5.153 -0.4234  2.0200 -1.9483
 7788SOL    HW234827   4.260   2.324   5.196 -0.9904 -0.9783  1.4452
 7789SOL     OW34828   0.599   3.041  13.137 -0.1274 -0.4291 -0.1830
 7789SOL    HW134829   0.628   2.963  13.090 -0.9804 -1.7334  1.4431
 7789SOL    HW234830   0.510   3.013  13.158  0.7727 -3.0134  0.2982
 7790SOL     OW34831   0.042   3.496   3.941 -0.0862  0.5867 -0.1208
 7790SOL    HW134832   4.695   3.431   3.920 -1.2887  2.2759 -1.4911
 7790SOL    HW234833   0.030   3.510   4.035  4.2336  2.1917  0.1920
 7791SOL     OW34834   3.185   4.106   7.629  0.3861 -0.1973 -0.8637
 7791SOL    HW134835   3.192   4.042   7.559  1.0833 -1.4805  0.3736
 7791SOL    HW234836   3.273   4.099   7.666 -2.4122 -1.8016  5.5030
 7792SOL     OW34837   1.491   0.248  11.320 -0.2862  0.1356  0.0452
 7792SOL    HW134838   1.460   0.327  11.365 -0.0059  0.3779 -0.1876
 7792SOL    HW234839   1.484   0.181  11.388  3.3906  0.6135  0.9217
 7793SOL     OW34840   1.147   3.694   3.439 -0.1655 -0.5689 -0.1602
 7793SOL    HW134841   1.109   3.725   3.521 -1.5930 -0.2694 -0.9458
 7793SOL    HW234842   1.234   3.736   3.437  0.2777 -1.5926 -2.8169
 7794SOL     OW34843   4.536   2.568  13.701  0.9004 -0.3555  0.0530
 7794SOL    HW134844   4.497   2.612  13.777 -1.2289  0.0741 -1.3152
 7794SOL    HW234845   4.520   2.624  13.626  2.9091 -0.5248 -0.4994
 7795SOL     OW34846   3.118   0.435  12.837  0.2196 -0.0563  0.1836
 7795SOL    HW134847   3.081   0.522  12.846 -2.7235 -1.4536  1.6088
 7795SOL    HW234848   3.147   0.434  12.746  0.4019 -0.4136  0.2438
 7796SOL     OW34849   3.948   1.702   1.050 -0.4365 -0.3290  0.0069
 7796SOL    HW134850   3.854   1.721   1.057 -0.6283 -1.7017  1.0862
 7796SOL    HW234851   3.986   1.759   1.116  0.1069  1.6302 -1.9810
 7797SOL     OW34852   1.154   1.723   4.571 -0.4273  0.6043 -0.1256
 7797SOL    HW134853   1.238   1.715   4.617  0.8768  0.8667 -2.4518
 7797SOL    HW234854   1.129   1.632   4.559 -0.0635  0.6417 -1.1724
 7798SOL     OW34855   2.709   1.477   8.308  0.5515 -0.4837 -0.3118
 7798SOL    HW134856   2.642   1.418   8.343  0.2834 -0.0463 -0.0867
 7798SOL    HW234857   2.666   1.508   8.228 -1.0827  0.2740  0.8567
 7799SOL     OW34858   1.048   4.103   8.155 -0.1312 -0.1366  0.0226
 7799SOL    HW134859   0.972   4.161   8.148  1.0985  1.2801 -1.2848
 7799SOL    HW234860   1.084   4.111   8.244 -0.0039  1.6831 -0.2068
 7800SOL     OW34861   1.937   2.149   4.361 -0.4362 -0.4750  0.2502
 7800SOL    HW134862   1.962   2.236   4.329  0.6372 -0.1297  2.0171
 7800SOL    HW234863   2.019   2.100   4.363 -0.8855 -1.2501 -0.2695
 7801SOL     OW34864   2.770   3.052  17.238  0.5282  0.5525 -0.1383
 7801SOL    HW134865   2.772   3.146  17.255 -0.7879  0.8967 -1.9072
 7801SOL    HW234866   2.837   3.017  17.298  0.0737 -0.4259 -0.1919
 7802SOL     OW34867   2.171   2.577  15.080  0.2847  0.2232  0.0241
 7802SOL    HW134868   2.255   2.615  15.053  0.6623 -1.0904 -0.7012
 7802SOL    HW234869   2.157   2.628  15.159  0.8941  2.0697 -1.0553
 7803SOL     OW34870   1.876   1.549   2.107 -0.0230 -0.3400  0.2302
 7803SOL    HW134871   1.837   1.542   2.020  0.4951 -0.9071  0.0463
 7803SOL    HW234872   1.951   1.490   2.101  0.2267 -0.2193  2.0899
 7804SOL     OW34873   1.153   2.302   3.298  0.0868 -0.4057  0.1241
 7804SOL    HW134874   1.177   2.295   3.391  2.3461  0.0623 -0.4296
 7804SOL    HW234875   1.244   2.316   3.272 -0.3608  1.8904 -0.2835
 7805SOL     OW34876   1.235   2.392  17.509 -0.0300 -0.0868 -0.1653
 7805SOL    HW134877   1.259   2.390  17.416 -1.2827  2.9219 -0.5339
 7805SOL    HW234878   1.140   2.395  17.506 -0.1539 -2.9484  0.9141
 7806SOL     OW34879   0.811   4.181  16.049  0.0353 -0.1595 -0.5670
 7806SOL    HW134880   0.786   4.099  16.091 -2.4973  0.5158 -0.7171
 7806SOL    HW234881   0.843   4.148  15.965 -0.7353  0.3999 -1.0925
 7807SOL     OW34882   0.132   0.858   8.963 -0.1874 -0.3174  0.3111
 7807SOL    HW134883   0.070   0.825   8.899 -1.4701 -0.0656  1.4302
 7807SOL    HW234884   0.069   0.890   9.028 -0.8327  2.8040 -1.8502
 7808SOL     OW34885   0.302   1.671  13.160  0.0959 -0.6973 -0.3418
 7808SOL    HW134886   0.322   1.749  13.109 -0.6330  0.1374  0.6257
 7808SOL    HW234887   0.243   1.629  13.097 -0.0827 -0.3571 -0.4017
 7809SOL     OW34888   2.347   3.782  14.378 -0.3090  0.4078  0.2960
 7809SOL    HW134889   2.312   3.726  14.309  1.9036  0.2928 -0.7645
 7809SOL    HW234890   2.411   3.822  14.319 -0.7027  2.8161  1.5145
 7810SOL     OW34891   0.953   2.009   5.413 -0.2280  0.3057  0.2716
 7810SOL    HW134892   0.956   1.976   5.324 -1.4142 -0.9718  0.7164
 7810SOL    HW234893   0.953   2.104   5.401 -0.1462 -0.0137 -2.0891
 7811SOL     OW34894   2.788   4.439   7.296  0.7922  0.1453 -0.1334
 7811SOL    HW134895   2.775   4.491   7.217  2.0843  0.8054  0.0774
 7811SOL    HW234896   2.713   4.468   7.348  0.5781  2.6919 -1.8465
 7812SOL     OW34897   4.243   0.251   1.636  0.2033  0.2123  0.0204
 7812SOL    HW134898   4.263   0.172   1.586 -1.4086  0.4831 -1.0512
 7812SOL    HW234899   4.330   0.262   1.674 -0.6431  1.5685  1.5375
 7813SOL     OW34900   4.713   1.878  17.671  1.1370 -0.7787  0.0245
 7813SOL    HW134901   0.005   1.850   0.079  1.0771  2.7500  1.1254
 7813SOL    HW234902   0.058   1.825  17.627  1.3638  0.4912 -1.1876
 7814SOL     OW34903   0.872   1.616   6.545 -0.0095  0.5753 -0.1180
 7814SOL    HW134904   0.778   1.601   6.550 -0.1061  0.7988 -1.1292
 7814SOL    HW234905   0.896   1.647   6.457 -1.1365 -0.0052 -0.6375
 7815SOL     OW34906   0.911   1.711   7.405 -0.5804  0.2105 -0.7105
 7815SOL    HW134907   0.879   1.639   7.352 -2.4252  1.3332 -1.1408
 7815SOL    HW234908   0.834   1.738   7.455 -1.4237 -5.6721  1.1359
 7816SOL     OW34909   0.020   1.965   2.379  0.0241 -0.3642  0.2210
 7816SOL    HW134910   0.036   1.966   2.474 -0.5581 -1.3766  0.3249
 7816SOL    HW234911   4.656   2.011   2.384 -0.5383 -1.6562  3.1496
 7817SOL     OW34912   1.642   4.412   4.103  0.1587 -0.4875  0.1677
 7817SOL    HW134913   1.655   4.500   4.069  0.1616 -0.4031  0.3877
 7817SOL    HW234914   1.569   4.383   4.047  1.6415 -2.5472 -0.6892
 7818SOL     OW34915   2.795   2.891  11.372  0.2137 -0.2155  0.4470
 7818SOL    HW134916   2.885   2.873  11.400  0.4654 -1.0709 -0.9276
 7818SOL    HW234917   2.785   2.982  11.401  1.0836  0.4321 -1.2503
 7819SOL     OW34918   0.739   3.437   4.805 -0.0084 -0.3377  0.2488
 7819SOL    HW134919   0.652   3.455   4.771 -0.0462 -0.9673  0.0098
 7819SOL    HW234920   0.783   3.429   4.720 -3.0533 -0.2673 -1.3492
 7820SOL     OW34921   2.516   2.046   5.435  0.2762 -0.0792 -0.2440
 7820SOL    HW134922   2.461   1.968   5.428 -3.3516  2.3964  0.5269
 7820SOL    HW234923   2.547   2.050   5.344  3.1283  1.0513  0.7710
 7821SOL     OW34924   0.463   1.497  16.109 -0.2160 -0.0246 -0.2276
 7821SOL    HW134925   0.444   1.434  16.178  0.3500  1.0777  0.9548
 7821SOL    HW234926   0.377   1.537  16.095 -2.1910 -4.1558  0.2414
 7822SOL     OW34927   0.598   4.654   1.961  0.2321 -0.4288  0.1921
 7822SOL    HW134928   0.636   0.022   1.969  2.0964 -1.2862  0.9353
 7822SOL    HW234929   0.537   4.660   1.888  1.4890  0.8212 -0.7694
 7823SOL     OW34930   4.606   3.265   9.114  0.0530 -0.0446  0.3293
 7823SOL    HW134931   4.592   3.287   9.206 -2.8268 -1.6270  0.2583
 7823SOL    HW234932   4.535   3.204   9.097 -0.1057 -0.4832  2.5501
 7824SOL     OW34933   1.354   1.094   5.590 -0.4292 -0.1037 -0.2796
 7824SOL    HW134934   1.307   1.166   5.631 -1.0869 -0.6138 -0.1376
 7824SOL    HW234935   1.344   1.027   5.658  0.4028  1.0406  0.9671
 7825SOL     OW34936   4.324   0.753  10.563  0.0209  0.4266 -0.2956
 7825SOL    HW134937   4.357   0.670  10.526 -0.4635  0.3628 -0.5761
 7825SOL    HW234938   4.229   0.745  10.562 -0.0496  0.7861  2.2054
 7826SOL     OW34939   0.748   2.453  17.494 -0.2843  0.2541 -0.0251
 7826SOL    HW134940   0.826   2.503  17.470 -0.3921  1.2884  1.8202
 7826SOL    HW234941   0.759   2.374  17.441  1.5624 -0.7486  1.8897
 7827SOL     OW34942   2.072   0.160  16.649  0.0855  0.2320  0.0788
 7827SOL    HW134943   2.078   0.251  16.621 -1.2827 -0.1469 -1.4603
 7827SOL    HW234944   2.062   0.183  16.742 -1.6201 -0.7010  0.1420
 7828SOL     OW34945   2.262   4.083   6.545 -0.3840 -0.9674 -0.3828
 7828SOL    HW134946   2.227   4.136   6.474  0.8421 -1.6655 -1.5071
 7828SOL    HW234947   2.188   4.023   6.556 -2.2392  1.2217 -0.9921
 7829SOL     OW34948   4.383   4.711   0.706 -0.0690 -0.1010  0.0672
 7829SOL    HW134949   4.332   4.663   0.771  1.1526 -0.2769  0.8864
 7829SOL    HW234950   4.338   0.075   0.717 -2.5269 -1.6492  1.9290
 7830SOL     OW34951   1.819   1.054   8.963 -0.4573  0.7065 -0.8719
 7830SOL    HW134952   1.900   1.104   8.957  0.6586 -1.1304 -1.0060
 7830SOL    HW234953   1.807   1.042   8.869  2.0931 -0.0936 -1.0747
 7831SOL     OW34954   2.979   1.197   5.740  0.0925  0.9295  0.3954
 7831SOL    HW134955   3.022   1.261   5.797  3.0201 -1.5141  0.9426
 7831SOL    HW234956   2.906   1.245   5.702 -0.5076 -1.6952 -1.7414
 7832SOL     OW34957   4.113   0.314  14.090 -0.3130 -0.2576 -0.5086
 7832SOL    HW134958   4.179   0.306  14.160 -0.6691 -1.0079 -0.2611
 7832SOL    HW234959   4.126   0.407  14.070  0.0861 -0.7304 -2.3882
 7833SOL     OW34960   0.471   1.084   5.557  0.2440  0.5860 -0.0705
 7833SOL    HW134961   0.453   1.117   5.469  1.5017 -0.8737 -0.8666
 7833SOL    HW234962   0.424   1.001   5.554 -0.3455  0.9241 -0.2353
 7834SOL     OW34963   1.858   3.553   0.142 -0.5011 -0.6272  0.7743
 7834SOL    HW134964   1.850   3.466   0.182  1.7709 -1.6272 -0.9756
 7834SOL    HW234965   1.814   3.608   0.208 -0.0862  0.1818  0.3695
 7835SOL     OW34966   3.615   2.429   7.126  0.6051  0.7319  0.0378
 7835SOL    HW134967   3.523   2.410   7.106  0.8790  1.0304 -1.4724
 7835SOL    HW234968   3.655   2.410   7.042 -0.1995 -1.0761  0.0488
 7836SOL     OW34969   4.457   3.627   5.228  0.0661  0.0932  0.0565
 7836SOL    HW134970   4.473   3.619   5.134 -2.1582  3.7194 -0.6462
 7836SOL    HW234971   4.433   3.719   5.240  0.8629  0.3241 -0.0668
 7837SOL     OW34972   3.923   1.252  10.898  0.3741  0.5934 -0.2093
 7837SOL    HW134973   3.927   1.253  10.993 -0.8325 -1.8238 -0.1247
 7837SOL    HW234974   3.946   1.343  10.877 -0.6718  0.4789 -1.8745
 7838SOL     OW34975   2.771   3.631   8.469 -0.3370 -0.6150  0.0538
 7838SOL    HW134976   2.865   3.621   8.454 -0.4671 -1.6245 -0.0443
 7838SOL    HW234977   2.757   3.725   8.460  0.5048 -0.7288 -2.3786
 7839SOL     OW34978   3.674   4.018   7.532  0.1039  0.2498  0.4158
 7839SOL    HW134979   3.764   4.019   7.567  1.0088  0.2679 -1.9020
 7839SOL    HW234980   3.649   3.928   7.550  0.4073 -0.1782 -1.3082
 7840SOL     OW34981   3.763   0.459   7.399 -0.3018  0.2586  0.5081
 7840SOL    HW134982   3.819   0.449   7.476  1.4506  0.5347 -0.7300
 7840SOL    HW234983   3.674   0.462   7.432 -0.4468 -0.7007  0.1973
 7841SOL     OW34984   1.222   1.557   6.335  0.5156 -0.3382  0.1061
 7841SOL    HW134985   1.139   1.510   6.342 -0.6982  1.8316  0.2477
 7841SOL    HW234986   1.185   1.639   6.366  3.0189  0.8092  0.0030
 7842SOL     OW34987   1.539   1.134  16.233 -0.0646 -0.0189  0.0027
 7842SOL    HW134988   1.532   1.094  16.146  1.1989 -0.1143 -0.0469
 7842SOL    HW234989   1.606   1.080  16.274  1.4613  1.1309 -0.9774
 7843SOL     OW34990   3.802   2.043   5.780 -0.2948  0.2059  0.3531
 7843SOL    HW134991   3.739   1.997   5.835 -2.3954  1.7054 -0.7875
 7843SOL    HW234992   3.760   2.024   5.696 -0.9232  1.1208  0.4566
 7844SOL     OW34993   2.830   3.493   0.786  0.2392 -0.6476 -0.0940
 7844SOL    HW134994   2.747   3.534   0.761  1.6981  1.7305 -1.0211
 7844SOL    HW234995   2.816   3.399   0.797 -1.1252 -0.6312 -1.7624
 7845SOL     OW34996   1.047   1.692   4.866  0.2438  0.1684 -0.7579
 7845SOL    HW134997   1.092   1.776   4.866  0.9415 -0.2070  1.5026
 7845SOL    HW234998   1.130   1.646   4.870 -1.1065 -2.2993 -0.9528
 7846SOL     OW34999   3.548   4.548  15.703 -0.1726 -0.1552  0.2370
 7846SOL    HW135000   3.581   4.480  15.645  1.1961 -1.4525  2.5328
 7846SOL    HW235001   3.551   4.623  15.644 -1.7782 -1.4222 -1.4560
 7847SOL     OW35002   0.955   2.155   3.670  0.0138  0.0978 -0.4621
 7847SOL    HW135003   0.924   2.136   3.582  1.1817 -0.4932 -0.7341
 7847SOL    HW235004   1.003   2.075   3.691  0.2539  0.4049  0.1437
 7848SOL     OW35005   2.703   0.863   1.963 -0.0516 -0.2361 -0.0470
 7848SOL    HW135006   2.695   0.947   2.009  1.4101 -0.7870  1.2312
 7848SOL    HW235007   2.611   0.842   1.977 -0.3246 -0.0200 -1.5554
 7849SOL     OW35008   2.454   3.600   1.335  0.1477 -0.2559 -0.1338
 7849SOL    HW135009   2.537   3.552   1.331 -0.7876 -2.0816  2.5428
 7849SOL    HW235010   2.390   3.541   1.296 -2.4588  1.2919  1.7289
 7850SOL     OW35011   4.424   3.337   5.312 -0.0749  0.5243  0.4394
 7850SOL    HW135012   4.450   3.403   5.248 -1.2337 -0.0877 -0.6495
 7850SOL    HW235013   4.372   3.278   5.257  0.5527  1.6136 -1.3072
 7851SOL     OW35014   0.189   3.894   4.477 -0.0464  0.4949  0.0753
 7851SOL    HW135015   0.134   3.827   4.436  1.7070 -0.9054  0.0068
 7851SOL    HW235016   0.136   3.917   4.553 -0.5566 -0.6013  0.0518
 7852SOL     OW35017   0.494   3.777   0.991  0.5932  0.4594  0.3060
 7852SOL    HW135018   0.429   3.827   1.040 -1.4085 -1.8241 -0.0268
 7852SOL    HW235019   0.535   3.739   1.069 -0.0911  0.2753  0.5734
 7853SOL     OW35020   1.019   2.141   7.609 -0.3532  0.1225  0.1387
 7853SOL    HW135021   1.033   2.229   7.572  3.0216 -0.7203 -0.5693
 7853SOL    HW235022   1.064   2.146   7.693 -1.5005 -0.6404  0.7995
 7854SOL     OW35023   0.370   2.675   1.066 -0.4720 -0.1449 -0.2426
 7854SOL    HW135024   0.458   2.681   1.028 -0.7406  0.2529 -0.7938
 7854SOL    HW235025   0.328   2.759   1.046 -1.7077 -0.5312  0.7464
 7855SOL     OW35026   3.332   2.416   2.499 -0.2408 -0.5983  0.2814
 7855SOL    HW135027   3.428   2.417   2.489 -0.2375 -0.9732  0.2788
 7855SOL    HW235028   3.316   2.328   2.533  2.2912 -1.3201 -0.3826
 7856SOL     OW35029   4.596   0.299   7.775 -0.9750 -0.2729  0.0173
 7856SOL    HW135030   4.603   0.307   7.870  0.8841 -2.9632  0.0883
 7856SOL    HW235031   4.537   0.225   7.759  1.5735 -2.5088  0.9999
 7857SOL     OW35032   3.914   3.437   2.257  0.0928 -0.1330 -0.2540
 7857SOL    HW135033   3.964   3.479   2.327 -0.9186 -1.2092  1.1121
 7857SOL    HW235034   3.948   3.475   2.176 -0.4093 -2.2503 -1.4545
 7858SOL     OW35035   1.439   0.047   4.105  0.1297  0.1555 -0.3116
 7858SOL    HW135036   1.388   4.695   4.069  3.1299 -1.1698 -1.9181
 7858SOL    HW235037   1.385   0.123   4.082 -0.2999  0.5084  1.9080
 7859SOL     OW35038   1.349   1.559   8.076 -0.3142  0.0525 -0.4371
 7859SOL    HW135039   1.400   1.637   8.099 -0.6096 -0.1324  0.8246
 7859SOL    HW235040   1.347   1.571   7.981 -2.9080  2.7396 -0.0458
 7860SOL     OW35041   3.495   1.056   4.753 -0.1033  0.1364 -0.0969
 7860SOL    HW135042   3.430   1.113   4.793 -2.2844 -2.4174  0.0305
 7860SOL    HW235043   3.472   1.058   4.660  0.2086 -0.7644 -0.1948
 7861SOL     OW35044   4.076   4.051   2.969  0.1574 -0.5248 -0.1087
 7861SOL    HW135045   4.162   4.047   3.011 -0.5580 -1.0459  1.3022
 7861SOL    HW235046   4.075   3.969   2.920 -1.2496 -0.9536  0.6313
 7862SOL     OW35047   3.359   0.015  13.043 -0.1520 -0.2694  0.3106
 7862SOL    HW135048   3.437   0.059  13.011  0.4483 -1.4284  0.1823
 7862SOL    HW235049   3.397   4.647  13.036 -1.2333 -0.7291  0.2144
 7863SOL     OW35050   2.392   4.684  10.529  0.2646  0.1231 -0.0815
 7863SOL    HW135051   2.351   0.048  10.550  0.4171 -0.3132  1.9561
 7863SOL    HW235052   2.336   4.621  10.575  2.3695 -0.5857  1.5070
 7864SOL     OW35053   0.450   4.624  12.875  0.0663  0.7698 -0.4122
 7864SOL    HW135054   0.451   4.594  12.966  1.4899 -2.8757 -1.5921
 7864SOL    HW235055   0.440   4.539  12.830 -0.8341  0.6772 -0.0489
 7865SOL     OW35056   3.809   3.686   2.645  0.2063 -0.2718 -0.2853
 7865SOL    HW135057   3.868   3.756   2.675 -0.6301 -0.2709  1.3480
 7865SOL    HW235058   3.803   3.711   2.552 -2.6263 -0.7382 -0.2137
 7866SOL     OW35059   3.400   1.343   8.691 -0.1984 -0.8764  0.1625
 7866SOL    HW135060   3.319   1.361   8.739 -0.8092 -0.4081 -1.0694
 7866SOL    HW235061   3.360   1.300   8.616  1.3148 -0.9598 -0.6012
 7867SOL     OW35062   3.415   1.921   1.472 -0.1293  0.1597  0.0118
 7867SOL    HW135063   3.408   1.828   1.453 -1.4722  0.1861  0.3538
 7867SOL    HW235064   3.396   1.930   1.566  0.1218  1.0685 -0.0227
 7868SOL     OW35065   1.343   0.163   4.383 -0.4116 -0.0032 -0.3956
 7868SOL    HW135066   1.385   0.246   4.404  1.4982 -1.3528  1.1476
 7868SOL    HW235067   1.409   0.098   4.358  0.2107  0.0001  1.2218
 7869SOL     OW35068   3.924   3.839   9.795  0.0441 -0.2969  0.8845
 7869SOL    HW135069   3.840   3.885   9.787 -0.4335 -1.2752  0.2891
 7869SOL    HW235070   3.957   3.869   9.880  1.2610 -0.7807  0.5777
 7870SOL     OW35071   3.764   1.518   8.323  0.5629 -0.4520  0.2956
 7870SOL    HW135072   3.682   1.514   8.372 -0.7085  0.4312 -1.7343
 7870SOL    HW235073   3.784   1.425   8.311 -0.0832 -0.2245 -2.6183
 7871SOL     OW35074   1.105   4.394   6.468  0.7208 -0.3099 -0.2448
 7871SOL    HW135075   1.199   4.378   6.466  0.9079  0.8201 -0.3743
 7871SOL    HW235076   1.078   4.314   6.422  1.7658  0.6044 -2.3809
 7872SOL     OW35077   2.903   2.296   5.850  0.0910 -0.0764  0.0145
 7872SOL    HW135078   2.937   2.294   5.939  1.6548 -0.6344 -0.5928
 7872SOL    HW235079   2.817   2.256   5.859 -0.9501  1.6428 -2.5136
 7873SOL     OW35080   2.941   1.935   6.785 -0.0475  0.2973 -0.0929
 7873SOL    HW135081   2.987   1.950   6.703 -1.4916  0.3618 -0.9029
 7873SOL    HW235082   2.888   2.014   6.780  2.0882  1.6994 -0.1670
 7874SOL     OW35083   3.926   0.562   9.515  0.0332 -0.1948  0.1716
 7874SOL    HW135084   3.855   0.622   9.541  0.7704 -0.2786  2.3462
 7874SOL    HW235085   3.869   0.514   9.455 -2.1598 -0.1836  2.1981
 7875SOL     OW35086   4.375   1.976   0.036 -0.5472  0.3883  0.6620
 7875SOL    HW135087   4.307   2.043   0.043 -1.2393 -0.2862  0.5016
 7875SOL    HW235088   4.400   1.987  17.627  0.3768  2.1913  1.1358
 7876SOL     OW35089   0.911   1.189   6.132  0.3765  0.3366  0.1099
 7876SOL    HW135090   0.990   1.179   6.080 -1.3237 -0.0360 -2.4104
 7876SOL    HW235091   0.854   1.236   6.071 -0.2823 -0.4900  0.0851
 7877SOL     OW35092   0.538   3.085  14.216  0.0309 -0.4828  0.5323
 7877SOL    HW135093   0.583   3.169  14.227 -1.7377  0.6436 -0.9063
 7877SOL    HW235094   0.518   3.066  14.307 -0.2438 -0.6486  0.4380
 7878SOL     OW35095   4.638   1.964   6.183 -0.2155 -0.5310  0.0571
 7878SOL    HW135096   4.683   1.902   6.125 -0.6613 -0.9454  0.1499
 7878SOL    HW235097   4.577   1.896   6.212 -1.1143  0.1146 -0.3598
 7879SOL     OW35098   1.539   1.457   6.100  0.1593  0.1159  0.5776
 7879SOL    HW135099   1.631   1.433   6.114 -0.2499 -2.3978 -0.9974
 7879SOL    HW235100   1.510   1.453   6.191  0.3861 -0.8511  0.6109
 7880SOL     OW35101   2.271   0.060   6.557  0.0374 -1.0520 -0.3107
 7880SOL    HW135102   2.262   0.140   6.609 -1.6151 -2.4167  1.5094
 7880SOL    HW235103   2.190   0.014   6.576  0.1985 -0.1323  2.6618
 7881SOL     OW35104   1.991   2.549  11.098 -0.6444 -0.3520  0.1187
 7881SOL    HW135105   2.055   2.486  11.130  1.7966  2.6114  1.0744
 7881SOL    HW235106   1.954   2.579  11.181 -3.0842  3.1310 -2.1985
 7882SOL     OW35107   0.560   1.133   1.852 -0.0857 -0.1415 -0.1459
 7882SOL    HW135108   0.536   1.062   1.911 -0.5220  0.0668 -0.0677
 7882SOL    HW235109   0.647   1.101   1.828 -0.4070 -1.6118  0.6685
 7883SOL     OW35110   3.473   1.399   6.398  0.6160  0.0092 -0.4724
 7883SOL    HW135111   3.464   1.308   6.424 -0.4281 -0.0420 -1.0146
 7883SOL    HW235112   3.396   1.433   6.444  1.4289 -1.0039  1.6705
 7884SOL     OW35113   1.356   3.177   1.306 -0.4465 -0.0943  0.2421
 7884SOL    HW135114   1.403   3.255   1.337 -1.2819  0.2237  0.7213
 7884SOL    HW235115   1.356   3.131   1.390 -0.5085 -0.7826 -0.1345
 7885SOL     OW35116   1.380   4.246   8.223 -0.5183 -0.2171 -0.0083
 7885SOL    HW135117   1.389   4.198   8.141 -0.5752 -0.0332 -0.1221
 7885SOL    HW235118   1.439   4.319   8.204 -1.0007  0.5249  1.2862
 7886SOL     OW35119   2.126   2.454   5.786 -0.5405  1.1058  0.2654
 7886SOL    HW135120   2.124   2.417   5.874  2.6461  3.8862  1.5030
 7886SOL    HW235121   2.085   2.540   5.793 -0.1721  1.4541 -1.8699
 7887SOL     OW35122   3.729   2.550   8.988 -0.3888  0.2262  0.2523
 7887SOL    HW135123   3.680   2.506   9.057 -1.4404 -1.0741 -1.3348
 7887SOL    HW235124   3.662   2.581   8.928 -1.2336 -1.8994  0.1134
 7888SOL     OW35125   2.919   3.440   4.210  0.0700  0.3862 -0.1980
 7888SOL    HW135126   2.893   3.512   4.153  0.3334 -0.6865 -1.6777
 7888SOL    HW235127   2.921   3.369   4.145 -1.2275 -0.7252  0.9775
 7889SOL     OW35128   2.525   1.176   4.768 -0.1826  0.2597 -0.6003
 7889SOL    HW135129   2.516   1.103   4.829  0.5068 -0.1643 -1.0109
 7889SOL    HW235130   2.438   1.216   4.774  1.0275  2.4670  1.8590
 7890SOL     OW35131   1.390   2.621  11.777  0.2777 -0.0612  0.1690
 7890SOL    HW135132   1.304   2.663  11.771  0.1987 -0.3942 -1.1267
 7890SOL    HW235133   1.361   2.541  11.822 -1.0390 -1.1075 -2.4912
 7891SOL     OW35134   1.610   4.127  10.774  0.7153  0.6664 -0.1360
 7891SOL    HW135135   1.650   4.156  10.856 -1.8738 -0.5068  1.5624
 7891SOL    HW235136   1.647   4.041  10.757 -0.7281 -0.2280  1.2811
 7892SOL     OW35137   3.362   0.651   4.641  0.0927  0.4611 -0.0548
 7892SOL    HW135138   3.269   0.659   4.665 -0.0916 -2.3194  0.2513
 7892SOL    HW235139   3.353   0.647   4.546  0.5964  1.5296 -0.1362
 7893SOL     OW35140   0.190   1.787  10.291 -0.0289  0.2714  0.2275
 7893SOL    HW135141   0.156   1.712  10.242  0.4182  0.1754  0.0599
 7893SOL    HW235142   0.245   1.821  10.220  0.1452  0.8038  0.6154
 7894SOL     OW35143   4.641   4.148   5.208 -0.0810  0.0395 -0.2253
 7894SOL    HW135144   4.554   4.173   5.240 -0.0289  1.6897 -1.4426
 7894SOL    HW235145   4.695   4.149   5.287 -1.0095 -3.6070  0.4918
 7895SOL     OW35146   1.781   3.570   3.309  0.2523 -0.6735  0.2050
 7895SOL    HW135147   1.787   3.487   3.356 -0.1916 -0.2706  0.9629
 7895SOL    HW235148   1.692   3.597   3.332  1.5664  2.7543  1.3733
 7896SOL     OW35149   0.853   1.139   2.822  0.1295 -0.7476  0.4260
 7896SOL    HW135150   0.837   1.091   2.904 -2.1336 -0.1458  0.3444
 7896SOL    HW235151   0.892   1.064   2.779  1.0073  0.6482 -1.2219
 7897SOL     OW35152   3.076   2.240   3.620 -0.2646  0.0132 -0.0223
 7897SOL    HW135153   3.035   2.242   3.706 -0.4610 -2.1513 -0.0797
 7897SOL    HW235154   3.079   2.148   3.596  3.9936  0.1907 -0.1608
 7898SOL     OW35155   2.102   0.533   2.700  0.2104  0.3849  0.2313
 7898SOL    HW135156   2.118   0.555   2.608 -0.4061 -1.2905 -0.2892
 7898SOL    HW235157   2.136   0.603   2.755 -0.9680 -0.5160  2.0943
 7899SOL     OW35158   2.392   1.733   5.701 -0.5482 -0.1428  0.7181
 7899SOL    HW135159   2.329   1.747   5.771 -0.6819 -2.1524  1.0129
 7899SOL    HW235160   2.345   1.774   5.628  1.9945 -1.3051 -1.5993
 7900SOL     OW35161   2.133   1.815   2.155  0.0422  0.2771  0.3459
 7900SOL    HW135162   2.096   1.810   2.067  0.3145  0.7619  0.2026
 7900SOL    HW235163   2.080   1.758   2.212 -0.1000  1.7043  1.6600
 7901SOL     OW35164   4.228   0.675  15.935  0.0363  0.2201 -0.1095
 7901SOL    HW135165   4.321   0.673  15.916 -0.1262  2.2815 -1.1445
 7901SOL    HW235166   4.209   0.768  15.947  1.0154  0.3335  0.5777
 7902SOL     OW35167   2.030   3.849  16.312  0.5042 -0.3276  0.0862
 7902SOL    HW135168   2.027   3.940  16.282  0.3961 -0.5397 -0.5392
 7902SOL    HW235169   2.096   3.845  16.381  0.5975 -0.2826  0.0015
 7903SOL     OW35170   1.829   2.650   7.190  0.1355 -0.1630 -0.0263
 7903SOL    HW135171   1.890   2.681   7.257 -1.0949 -0.0032  1.0348
 7903SOL    HW235172   1.764   2.719   7.206  1.0307  0.9271 -1.0680
 7904SOL     OW35173   1.946   4.235  16.631  0.2046  0.1279  0.1471
 7904SOL    HW135174   2.005   4.228  16.706  0.2657  1.2699  0.2076
 7904SOL    HW235175   1.865   4.261  16.676 -1.8138  0.5960 -3.8232
 7905SOL     OW35176   1.596   2.151   2.677  0.0207 -0.0114  0.4083
 7905SOL    HW135177   1.647   2.230   2.694  0.8946 -1.0606  2.6558
 7905SOL    HW235178   1.538   2.181   2.607  0.7145  0.0660 -0.1233
 7906SOL     OW35179   4.146   3.047  17.530 -0.3432  0.7211  0.2614
 7906SOL    HW135180   4.238   3.050  17.557 -0.8508  0.8559  1.9738
 7906SOL    HW235181   4.149   3.032  17.436 -1.9638 -0.6003  0.4044
 7907SOL     OW35182   2.907   3.364  12.842 -0.3323 -0.2608  0.2419
 7907SOL    HW135183   2.917   3.288  12.899 -0.6426  0.6071  1.4418
 7907SOL    HW235184   2.994   3.393  12.815 -0.4512 -0.9050 -0.8447
 7908SOL     OW35185   4.680   0.073  11.293 -0.5366  0.2523 -0.1040
 7908SOL    HW135186   0.021   0.146  11.286 -0.9927  0.7979  1.4678
 7908SOL    HW235187   4.676   0.052  11.200 -0.1026 -1.2326  0.1987
 7909SOL     OW35188   0.641   1.289   1.130  0.1176 -0.0294 -0.4402
 7909SOL    HW135189   0.566   1.299   1.189 -0.9458  0.1968 -1.8384
 7909SOL    HW235190   0.619   1.357   1.067 -1.2474  0.4563  0.5449
 7910SOL     OW35191   3.583   0.429   5.139 -0.0238  0.6588  0.1427
 7910SOL    HW135192   3.571   0.498   5.204  0.7732  0.0851  0.8888
 7910SOL    HW235193   3.521   0.458   5.072 -1.3093  0.9815  1.4443
 7911SOL     OW35194   0.795   2.167  12.679 -0.6115  0.4093  0.6395
 7911SOL    HW135195   0.788   2.104  12.607  0.0352  1.2944 -0.1951
 7911SOL    HW235196   0.889   2.184  12.679 -0.3733 -1.0165 -1.6082
 7912SOL     OW35197   3.779   0.699   7.049  0.9984 -0.6003 -0.1832
 7912SOL    HW135198   3.858   0.675   7.099  0.8000 -1.4805 -0.2956
 7912SOL    HW235199   3.722   0.725   7.121  1.5324  1.7273 -0.5869
 7913SOL     OW35200   1.558   3.687   9.367 -0.0009 -0.0918 -0.4525
 7913SOL    HW135201   1.479   3.634   9.374 -0.2874  0.3430 -0.3909
 7913SOL    HW235202   1.521   3.773   9.387  1.8279  0.5742  0.0908
 7914SOL     OW35203   4.369   4.420   3.007 -0.0452  0.3152  0.0640
 7914SOL    HW135204   4.449   4.435   2.957 -0.6070  0.1323 -0.8897
 7914SOL    HW235205   4.336   4.346   2.957 -1.4953 -0.8373  2.7123
 7915SOL     OW35206   1.304   0.560   6.099 -0.0114  0.6405  0.3322
 7915SOL    HW135207   1.352   0.522   6.025  1.4363 -0.2495  1.7200
 7915SOL    HW235208   1.340   0.647   6.115  0.3148  0.5451  0.1255
 7916SOL     OW35209   1.570   3.024  10.309  0.1051  0.5868  0.3840
 7916SOL    HW135210   1.494   2.971  10.284  1.8508 -1.3310 -0.9290
 7916SOL    HW235211   1.534   3.111  10.325  0.3019  0.8246 -0.4603
 7917SOL     OW35212   3.858   1.510   5.175 -0.4227  0.4963 -0.1238
 7917SOL    HW135213   3.765   1.529   5.189  0.3804  1.0932  4.3898
 7917SOL    HW235214   3.875   1.437   5.235 -2.5320  0.6658  0.6952
 7918SOL     OW35215   1.868   1.673  12.375 -0.6807 -0.2779 -0.6276
 7918SOL    HW135216   1.790   1.727  12.364  0.4924  1.6402  0.4326
 7918SOL    HW235217   1.878   1.622  12.294  0.7857  0.6188 -1.0128
 7919SOL     OW35218   1.345   1.667  15.454 -0.0908  0.6835  0.1530
 7919SOL    HW135219   1.421   1.612  15.437  0.1571  0.1088  3.2316
 7919SOL    HW235220   1.354   1.692  15.546 -0.0558  1.8877 -0.1728
 7920SOL     OW35221   2.676   4.358  10.318 -0.0006 -0.0793  0.0089
 7920SOL    HW135222   2.613   4.293  10.348  0.4967 -0.0632  1.1005
 7920SOL    HW235223   2.715   4.369  10.405  1.3846 -0.9649 -0.4813
 7921SOL     OW35224   3.076   4.384   2.780 -0.2684  0.0050  0.8162
 7921SOL    HW135225   3.033   4.420   2.857 -4.0855  1.2824 -1.9438
 7921SOL    HW235226   3.131   4.317   2.822 -2.3852 -2.5979 -0.5382
 7922SOL     OW35227   0.598   1.937   0.965 -0.2201  0.3239  0.5627
 7922SOL    HW135228   0.519   1.990   0.952 -0.1911 -0.0573 -1.0771
 7922SOL    HW235229   0.653   1.947   0.888 -0.1355  2.4039  0.9036
 7923SOL     OW35230   3.715   2.242   0.158  0.0616  0.1019  0.1277
 7923SOL    HW135231   3.806   2.257   0.183 -0.1599  0.9984  0.3884
 7923SOL    HW235232   3.727   2.178   0.088  0.9397  0.0745  0.3077
 7924SOL     OW35233   1.941   3.478  17.092  0.3309  0.2122 -0.1222
 7924SOL    HW135234   1.894   3.500  17.011 -0.6135 -0.9610  0.1269
 7924SOL    HW235235   2.028   3.470  17.052  0.4736  1.9241 -0.1714
 7925SOL     OW35236   3.113   0.675   5.228  0.2851  0.6162 -0.4781
 7925SOL    HW135237   3.145   0.644   5.144  0.0423 -0.5119 -0.1568
 7925SOL    HW235238   3.028   0.704   5.196 -1.1577 -2.0745  0.9419
 7926SOL     OW35239   1.515   2.798   4.299 -0.1705 -0.8694  0.0205
 7926SOL    HW135240   1.525   2.886   4.336 -1.4770 -1.8354  2.7154
 7926SOL    HW235241   1.423   2.804   4.272 -0.0078  0.1307 -0.2940
 7927SOL     OW35242   4.293   0.937  11.506  0.2495 -0.3382 -0.4318
 7927SOL    HW135243   4.329   0.906  11.589  0.1808 -0.2709 -0.3776
 7927SOL    HW235244   4.201   0.960  11.515 -0.2974 -3.2676  1.1060
 7928SOL     OW35245   0.246   1.112   2.496 -0.0414 -0.4693 -0.1678
 7928SOL    HW135246   0.253   1.206   2.511  1.0332 -0.4591 -0.7345
 7928SOL    HW235247   0.233   1.080   2.586  1.9613  0.9615  0.6215
 7929SOL     OW35248   0.606   4.452   2.163 -0.1410  0.4389  0.2951
 7929SOL    HW135249   0.529   4.404   2.134 -0.0880  1.1015 -0.9173
 7929SOL    HW235250   0.608   4.509   2.087 -0.8428  1.6411  1.1904
 7930SOL     OW35251   3.332   2.497   4.657  0.3188  0.1632  0.0974
 7930SOL    HW135252   3.419   2.497   4.618  0.1664 -0.6181 -0.2375
 7930SOL    HW235253   3.311   2.413   4.617  0.5484  0.1724 -0.0418
 7931SOL     OW35254   4.527   2.745  17.463  0.3429 -0.4083 -0.5300
 7931SOL    HW135255   4.516   2.691  17.541  1.2890  0.8518  0.4899
 7931SOL    HW235256   4.604   2.798  17.484  0.5557 -0.3678 -1.4533
 7932SOL     OW35257   2.222   0.816   1.802 -0.0106 -0.0008 -0.3095
 7932SOL    HW135258   2.219   0.808   1.707 -1.3798  0.2788 -0.2856
 7932SOL    HW235259   2.159   0.887   1.811  1.6510  1.2781  1.2347
 7933SOL     OW35260   0.833   3.863   2.184  0.1639  0.2855 -0.1718
 7933SOL    HW135261   0.854   3.836   2.273  0.3019 -0.3470 -0.3986
 7933SOL    HW235262   0.867   3.953   2.182  0.7713  0.0777  0.7075
 7934SOL     OW35263   2.206   1.944   7.217  0.0041 -0.2050 -0.0296
 7934SOL    HW135264   2.140   1.962   7.284 -1.2131  1.1062 -1.5884
 7934SOL    HW235265   2.280   1.914   7.271  0.4940  1.9950  0.5341
 7935SOL     OW35266   1.347   1.793  14.614 -0.0700  0.2125  0.1083
 7935SOL    HW135267   1.437   1.762  14.608 -0.0063  0.1648  1.2964
 7935SOL    HW235268   1.356   1.860  14.547  0.1688  0.9054  0.8350
 7936SOL     OW35269   1.141   3.704   6.900  0.2989  0.1557 -0.3438
 7936SOL    HW135270   1.070   3.642   6.915 -0.4632  1.6716  2.3757
 7936SOL    HW235271   1.090   3.785   6.897  0.3992  0.2296 -0.0808
 7937SOL     OW35272   2.275   4.541   5.980 -0.3622  1.1099 -0.6602
 7937SOL    HW135273   2.241   4.626   5.953  0.0769  1.4633 -0.0889
 7937SOL    HW235274   2.251   4.483   5.908  0.5212  0.5091 -0.4697
 7938SOL     OW35275   0.807   3.127   5.765 -0.2730 -0.0595  0.4839
 7938SOL    HW135276   0.759   3.140   5.683  0.4563  1.8337  0.3410
 7938SOL    HW235277   0.748   3.061   5.801 -1.0077  0.1897 -0.2826
 7939SOL     OW35278   0.638   4.675  11.571  0.3503  0.1566  0.3180
 7939SOL    HW135279   0.545   4.651  11.564  1.5093 -3.8288 -0.7953
 7939SOL    HW235280   0.648   4.708  11.482 -1.4912  0.6975  0.3067
 7940SOL     OW35281   3.021   3.637   4.810  0.2225  0.0490  0.5217
 7940SOL    HW135282   3.027   3.712   4.870  3.3908  0.2968 -0.0777
 7940SOL    HW235283   3.026   3.563   4.871  1.8195 -0.8561 -0.7190
 7941SOL     OW35284   1.738   4.392  14.865 -0.4455 -0.0588 -0.5195
 7941SOL    HW135285   1.687   4.348  14.932 -0.6002  0.0434 -0.5711
 7941SOL    HW235286   1.688   4.377  14.785 -1.2479 -0.3735  0.0436
 7942SOL     OW35287   0.215   4.211   4.682  0.4726  0.0682 -0.3667
 7942SOL    HW135288   0.246   4.209   4.772  0.1706 -0.7070 -0.2750
 7942SOL    HW235289   0.159   4.134   4.694  1.5150 -0.9484 -1.9047
 7943SOL     OW35290   2.597   3.010   8.591 -0.4119  0.1276  0.1022
 7943SOL    HW135291   2.501   3.011   8.597 -0.5370 -1.1352 -1.7643
 7943SOL    HW235292   2.614   3.067   8.516  1.6457  1.1120  1.3212
 7944SOL     OW35293   4.563   0.673   9.871 -0.2109 -0.4782  0.0623
 7944SOL    HW135294   4.616   0.648   9.796 -0.4143 -1.3281  0.1999
 7944SOL    HW235295   4.494   0.609   9.855 -1.5201  0.2457  2.6806
 7945SOL     OW35296   4.104   3.468   4.022 -0.1627  0.7627 -0.0197
 7945SOL    HW135297   4.080   3.523   4.098 -0.6674 -1.2884  1.3027
 7945SOL    HW235298   4.190   3.435   4.047  0.4556  1.2503 -1.5318
 7946SOL     OW35299   0.712   2.458  10.497  0.3582  0.3930 -1.0239
 7946SOL    HW135300   0.736   2.410  10.417  2.7883  2.0986 -1.3426
 7946SOL    HW235301   0.643   2.517  10.468  0.3491  0.8098 -0.1391
 7947SOL     OW35302   1.172   2.549   4.807  0.0330 -0.4000 -0.7220
 7947SOL    HW135303   1.199   2.509   4.724 -0.9273  0.0671 -1.2625
 7947SOL    HW235304   1.257   2.592   4.815 -0.5095  0.2998  1.1131
 7948SOL     OW35305   4.548   4.514   4.717  0.1022 -0.5599  0.2784
 7948SOL    HW135306   4.532   4.443   4.779  1.0132 -1.1029 -0.1212
 7948SOL    HW235307   4.601   4.471   4.650 -1.0900 -1.2733 -0.2155
 7949SOL     OW35308   2.061   0.936   4.159 -0.1482  0.2740  0.1456
 7949SOL    HW135309   2.067   0.967   4.249 -2.2199 -1.1866  0.7752
 7949SOL    HW235310   1.998   1.002   4.132  0.1468  1.6477  2.7924
 7950SOL     OW35311   3.565   3.068   4.456 -0.0279 -0.1059  0.3995
 7950SOL    HW135312   3.534   2.987   4.497 -0.7869 -0.4511 -0.8211
 7950SOL    HW235313   3.549   3.046   4.364 -3.6892 -0.3506  1.0561
 7951SOL     OW35314   1.976   2.774   6.911  0.3566 -0.1611  0.0271
 7951SOL    HW135315   1.966   2.693   6.960  0.1371 -0.8316 -1.1121
 7951SOL    HW235316   1.919   2.837   6.954 -0.9509  0.1015 -2.1075
 7952SOL     OW35317   0.440   4.031   8.174 -0.2662  0.0759 -0.2344
 7952SOL    HW135318   0.533   4.048   8.163 -0.0822 -0.2401  0.8228
 7952SOL    HW235319   0.417   3.991   8.090 -0.8596  2.4313 -1.1933
 7953SOL     OW35320   4.709   3.168   2.076 -0.5239  0.2995  0.1239
 7953SOL    HW135321   4.643   3.141   2.012  1.1206 -2.4139 -0.4494
 7953SOL    HW235322   0.047   3.091   2.075 -1.5177 -0.4672  2.0227
 7954SOL     OW35323   0.986   2.582  17.521  0.2014 -0.4794 -0.2872
 7954SOL    HW135324   1.032   2.635  17.456  2.1486 -2.6157 -0.6519
 7954SOL    HW235325   1.034   2.608  17.599  1.9925 -2.6205 -0.6692
 7955SOL     OW35326   3.586   0.191   1.841  0.1879 -0.1925 -0.2941
 7955SOL    HW135327   3.536   0.268   1.815  2.1479  0.5604 -1.8919
 7955SOL    HW235328   3.649   0.230   1.901 -0.9484 -0.1270  0.8557
 7956SOL     OW35329   2.844   4.374  13.345 -0.0746 -0.4976 -0.1395
 7956SOL    HW135330   2.816   4.454  13.388  1.1900  0.5669 -1.2912
 7956SOL    HW235331   2.831   4.395  13.252 -1.4479 -1.4266 -0.1494
 7957SOL     OW35332   2.191   4.058   8.837  0.0882  0.4403  0.4203
 7957SOL    HW135333   2.124   4.102   8.890 -0.7438 -0.3925  0.0808
 7957SOL    HW235334   2.205   3.983   8.894  0.7274  0.2266 -0.0186
 7958SOL     OW35335   0.734   3.242   2.901  0.5637  0.0433  0.1246
 7958SOL    HW135336   0.815   3.191   2.891 -0.5133 -1.5458 -0.5770
 7958SOL    HW235337   0.746   3.300   2.827 -1.1328  0.0825 -0.1210
 7959SOL     OW35338   2.134   4.409  12.165  0.2765  0.4261  0.3731
 7959SOL    HW135339   2.131   4.374  12.254 -0.3587  1.5018  0.7754
 7959SOL    HW235340   2.119   4.502  12.181 -0.2712  0.2827  0.6831
 7960SOL     OW35341   3.301   3.203   2.983  0.4328 -0.2896  0.4571
 7960SOL    HW135342   3.254   3.223   2.902  1.4983  1.3449  0.2393
 7960SOL    HW235343   3.247   3.256   3.041  0.7202 -2.0036  2.3045
 7961SOL     OW35344   1.218   4.498  12.402  0.4394 -0.4077 -0.2317
 7961SOL    HW135345   1.147   4.453  12.356  1.1866 -2.0884  0.2539
 7961SOL    HW235346   1.257   4.554  12.335 -0.3156  1.7059  1.1085
 7962SOL     OW35347   1.758   2.755  16.173  0.3870  0.0315 -0.0476
 7962SOL    HW135348   1.751   2.835  16.226 -2.5977  0.7519 -1.5571
 7962SOL    HW235349   1.854   2.750  16.170  0.3176 -0.0534 -1.7441
 7963SOL     OW35350   3.284   0.456   1.819  0.2348 -0.2806 -0.5458
 7963SOL    HW135351   3.274   0.418   1.907  1.3374  0.5996 -0.0418
 7963SOL    HW235352   3.234   0.387   1.776  0.1519  0.1449 -1.1267
 7964SOL     OW35353   1.088   2.788   0.877 -0.0558 -0.2362 -0.6452
 7964SOL    HW135354   1.008   2.823   0.916 -0.2150  1.3419 -2.3987
 7964SOL    HW235355   1.069   2.768   0.785 -0.9294  1.6824 -0.8834
 7965SOL     OW35356   1.633   4.532  16.195  0.2075  0.0173  0.5735
 7965SOL    HW135357   1.660   4.588  16.122  1.6727  0.0667  1.1544
 7965SOL    HW235358   1.565   4.482  16.149 -1.9455  3.2446  0.1910
 7966SOL     OW35359   2.188   0.148  15.999  0.0431 -0.2961  0.6146
 7966SOL    HW135360   2.282   0.127  16.002  0.3774  0.8543 -1.6432
 7966SOL    HW235361   2.188   0.222  15.939 -0.1743  0.3101  1.3588
 7967SOL     OW35362   1.223   2.128   2.962 -0.2709  0.5021  0.4074
 7967SOL    HW135363   1.243   2.113   2.869 -2.3893  0.3957 -0.0300
 7967SOL    HW235364   1.276   2.207   2.968 -0.4680  0.5722  1.1931
 7968SOL     OW35365   3.593   0.914   6.524 -0.4681 -0.3504  0.3897
 7968SOL    HW135366   3.681   0.950   6.539 -0.9873 -0.0519  2.7352
 7968SOL    HW235367   3.579   0.866   6.605  0.1876 -1.5042 -0.1755
 7969SOL     OW35368   3.273   2.532   3.233  0.3612 -0.3330  0.3205
 7969SOL    HW135369   3.344   2.569   3.182 -0.0784 -0.2477 -0.2291
 7969SOL    HW235370   3.205   2.577   3.183  1.9512  0.8960 -0.7145
 7970SOL     OW35371   4.164   1.843   3.369  0.0639  0.1156 -0.1300
 7970SOL    HW135372   4.232   1.790   3.326  0.6204  1.7864 -1.2853
 7970SOL    HW235373   4.110   1.869   3.295  1.4212  1.9159 -0.4669
 7971SOL     OW35374   3.141   0.695   0.519 -0.1969 -0.1422 -0.4834
 7971SOL    HW135375   3.126   0.602   0.500  1.7270 -0.5347 -0.1067
 7971SOL    HW235376   3.063   0.719   0.569  0.1450 -1.4819  0.6748
 7972SOL     OW35377   2.100   3.072  16.609  0.5363  0.2187  0.4548
 7972SOL    HW135378   2.074   3.086  16.700  1.5300 -2.6398  1.2002
 7972SOL    HW235379   2.195   3.082  16.602  0.7785 -1.4497  1.4149
 7973SOL     OW35380   1.564   4.019   7.904 -0.3900 -0.0407 -0.6549
 7973SOL    HW135381   1.606   3.992   7.986 -0.7289 -0.5827 -0.6596
 7973SOL    HW235382   1.490   3.958   7.905  1.3201 -2.0609  0.6992
 7974SOL     OW35383   4.385   4.377   9.359 -0.3342 -0.3976  0.0291
 7974SOL    HW135384   4.395   4.467   9.330 -0.9207 -0.7439 -1.2524
 7974SOL    HW235385   4.416   4.385   9.449  1.1739  1.2719 -0.6489
 7975SOL     OW35386   0.745   2.153   9.466  0.3828  0.6384 -0.1447
 7975SOL    HW135387   0.662   2.201   9.465  0.4673  0.7324 -2.5993
 7975SOL    HW235388   0.706   2.068   9.486  1.7791  0.1847  0.6535
 7976SOL     OW35389   3.211   4.055  10.769  0.0876 -0.2154  0.3408
 7976SOL    HW135390   3.144   4.031  10.833 -0.4553  0.4486  0.0231
 7976SOL    HW235391   3.254   3.975  10.738  0.8156  0.7562 -1.1919
 7977SOL     OW35392   3.199   4.550   1.536  0.8310 -0.0291  0.0358
 7977SOL    HW135393   3.188   4.505   1.452 -1.5890  1.3998 -0.4330
 7977SOL    HW235394   3.113   4.590   1.547  1.3657  0.4315  2.3306
 7978SOL     OW35395   1.443   1.583   7.129 -0.2927 -0.0725  0.1686
 7978SOL    HW135396   1.399   1.498   7.121  0.3207 -0.4655  1.0110
 7978SOL    HW235397   1.397   1.630   7.059  1.2519 -1.6966 -1.9776
 7979SOL     OW35398   1.258   2.284   7.293 -0.1131  0.3269 -0.4483
 7979SOL    HW135399   1.304   2.306   7.374 -0.1862  0.5168 -0.4594
 7979SOL    HW235400   1.212   2.366   7.280 -0.1114  0.2889 -0.6988
 7980SOL     OW35401   1.996   1.084  13.508  0.2819 -0.5502 -0.1346
 7980SOL    HW135402   1.977   1.162  13.561 -1.5311 -0.0802 -1.4534
 7980SOL    HW235403   2.091   1.091  13.500  0.4320 -1.8374  0.6421
 7981SOL     OW35404   4.014   1.236  16.125  0.1994 -0.0452  0.2791
 7981SOL    HW135405   4.018   1.145  16.095  1.0982 -0.5716  2.0538
 7981SOL    HW235406   3.968   1.276  16.051 -0.2617 -1.0134  0.0363
 7982SOL     OW35407   2.448   3.114   5.290 -0.2295  0.5113 -0.6086
 7982SOL    HW135408   2.383   3.045   5.288  0.1804  0.1021  0.1155
 7982SOL    HW235409   2.407   3.185   5.241 -2.2350  0.5134  1.1175
 7983SOL     OW35410   2.743   1.855   1.535 -1.1188  0.1487  0.3929
 7983SOL    HW135411   2.700   1.894   1.459 -0.4333  0.2307  0.0522
 7983SOL    HW235412   2.750   1.933   1.590  1.7668  0.2354 -0.1327
 7984SOL     OW35413   2.207   0.004   2.635  0.3146 -0.2021  0.1978
 7984SOL    HW135414   2.161   0.035   2.713 -1.8375 -1.0907 -0.7055
 7984SOL    HW235415   2.144   0.008   2.563  0.8145  0.1507 -0.2120
 7985SOL     OW35416   1.910   2.824  12.098 -0.1381 -0.4139  0.2287
 7985SOL    HW135417   1.994   2.869  12.110 -0.0923 -1.1402  2.8050
 7985SOL    HW235418   1.900   2.835  12.004  1.1716 -0.0795  0.1162
 7986SOL     OW35419   0.048   4.543   9.234  0.0249 -0.2975 -0.6018
 7986SOL    HW135420   4.712   4.550   9.156 -0.7480  0.1676 -0.0010
 7986SOL    HW235421   4.705   4.554   9.304 -1.0696 -2.2190 -1.2681
 7987SOL     OW35422   1.731   3.050   6.709  0.2278 -0.2238  0.1361
 7987SOL    HW135423   1.723   2.995   6.787 -0.9779 -1.0488 -0.5560
 7987SOL    HW235424   1.797   3.113   6.736  1.2499 -0.4185 -1.9356
 7988SOL     OW35425   1.529   0.624   5.754 -0.0018 -0.0915  0.4826
 7988SOL    HW135426   1.490   0.542   5.785  1.3068  0.1310  2.6775
 7988SOL    HW235427   1.620   0.601   5.770  0.7314  3.3193  1.2570
 7989SOL     OW35428   3.402   1.435   7.179 -0.4043 -0.0718  0.2718
 7989SOL    HW135429   3.431   1.523   7.205  0.5297  0.1804 -1.6183
 7989SOL    HW235430   3.324   1.431   7.234 -0.1988 -1.1194  0.4914
 7990SOL     OW35431   3.797   3.679  14.291  0.3274 -0.2215 -0.1068
 7990SOL    HW135432   3.828   3.760  14.330 -0.8149  0.4187 -0.5233
 7990SOL    HW235433   3.801   3.712  14.201 -1.4175  0.8144  0.1777
 7991SOL     OW35434   1.941   2.588   5.996  0.1514 -0.4689 -0.0430
 7991SOL    HW135435   1.963   2.607   6.087  0.1516  0.9135 -0.3294
 7991SOL    HW235436   1.871   2.524   6.009 -1.3415  0.8434 -1.5953
 7992SOL     OW35437   2.773   0.594   6.348 -0.5628  0.1871  0.1678
 7992SOL    HW135438   2.738   0.671   6.393 -2.0392 -1.5027  1.8864
 7992SOL    HW235439   2.719   0.590   6.269 -0.9516  1.5658  0.3722
 7993SOL     OW35440   3.628   4.168   4.074  0.7104 -0.8892 -0.0243
 7993SOL    HW135441   3.691   4.236   4.050  1.7464 -1.6724  0.4964
 7993SOL    HW235442   3.651   4.102   4.009 -1.2098 -2.9386  1.3620
 7994SOL     OW35443   4.370   1.917   1.200  0.3958  0.0152  0.4437
 7994SOL    HW135444   4.446   1.957   1.158  2.0913 -1.9504  1.6597
 7994SOL    HW235445   4.332   1.991   1.247  1.2414  0.9620 -0.3551
 7995SOL     OW35446   4.251   4.138  13.163  0.4785  0.3947 -0.4006
 7995SOL    HW135447   4.340   4.171  13.175  0.4086 -0.1555  1.6616
 7995SOL    HW235448   4.222   4.200  13.096  1.7179  1.2446 -0.1364
 7996SOL     OW35449   3.148   3.920   9.578  0.3574  0.1981  0.1699
 7996SOL    HW135450   3.088   3.990   9.603  0.2770  0.6320 -1.2387
 7996SOL    HW235451   3.089   3.847   9.598 -1.9014  0.8760 -3.9131
 7997SOL     OW35452   0.602   0.361   9.000  0.9582  0.2893 -0.1488
 7997SOL    HW135453   0.522   0.414   8.995 -0.3399 -1.6421  0.3788
 7997SOL    HW235454   0.557   0.286   8.961  0.5910  0.2102  0.4183
 7998SOL     OW35455   4.597   0.424  11.132 -0.1858  0.0426 -0.7198
 7998SOL    HW135456   4.596   0.509  11.088  1.7343 -0.6419 -2.0753
 7998SOL    HW235457   4.507   0.393  11.124 -0.6298  0.5885  2.0217
 7999SOL     OW35458   1.764   1.999   0.834  0.1596 -0.4566  0.2263
 7999SOL    HW135459   1.817   1.934   0.881  1.1599 -0.0239 -0.2876
 7999SOL    HW235460   1.680   1.954   0.835  0.0233 -0.1959  0.3405
 8000SOL     OW35461   1.827   3.100  12.431  0.0241 -0.1928  0.0201
 8000SOL    HW135462   1.795   3.085  12.342  1.2343  1.7192 -0.7215
 8000SOL    HW235463   1.757   3.065  12.486  0.4076 -0.1654  0.5194
 8001SOL     OW35464   3.404   4.620  16.169  0.3780 -0.0299 -0.2771
 8001SOL    HW135465   3.403   4.644  16.077 -0.9615  0.4014 -0.1551
 8001SOL    HW235466   3.338   4.550  16.169  0.1570  0.1722  2.0096
 8002SOL     OW35467   3.326   3.469   4.710  0.0569 -0.3004 -0.1445
 8002SOL    HW135468   3.261   3.506   4.649  1.1006  3.4597  0.9908
 8002SOL    HW235469   3.378   3.413   4.653  1.6360 -0.6404  1.6049
 8003SOL     OW35470   0.591   1.604   5.198  0.6120 -0.0105  0.4221
 8003SOL    HW135471   0.653   1.543   5.158  0.4130  0.8639 -1.2273
 8003SOL    HW235472   0.529   1.618   5.126  2.9932 -0.1153 -1.6590
 8004SOL     OW35473   1.524   3.947   9.442  0.3145  0.3349 -0.2360
 8004SOL    HW135474   1.604   3.962   9.391  0.1947  1.1066 -0.1931
 8004SOL    HW235475   1.472   4.024   9.420 -0.4376  0.3813  1.6455
 8005SOL     OW35476   1.081   1.255   3.507 -0.5956 -0.2784 -0.1946
 8005SOL    HW135477   1.006   1.211   3.548 -1.3474  0.3408 -0.8983
 8005SOL    HW235478   1.034   1.308   3.442  0.1182  0.1692 -0.3505
 8006SOL     OW35479   3.569   2.399   3.052  0.2181 -0.1583  0.4621
 8006SOL    HW135480   3.576   2.467   3.119 -0.5935  0.1736  0.2130
 8006SOL    HW235481   3.641   2.417   2.992  1.0437  0.5376  1.6639
 8007SOL     OW35482   3.286   4.684   0.134  0.2289 -0.6728  0.0732
 8007SOL    HW135483   3.220   0.031   0.153 -0.5967 -1.1931 -1.0288
 8007SOL    HW235484   3.357   0.004   0.185 -0.0253 -0.9216  0.6216
 8008SOL     OW35485   1.544   0.711   9.129  0.3753 -1.1383  0.1005
 8008SOL    HW135486   1.636   0.717   9.103  0.2907 -0.0780  0.0794
 8008SOL    HW235487   1.518   0.726   9.039  0.8516  1.8392  0.4526
 8009SOL     OW35488   3.709   0.226  14.024 -0.3594 -0.0458  0.2613
 8009SOL    HW135489   3.716   0.264  13.937  1.1018  1.3716  1.0198
 8009SOL    HW235490   3.751   0.293  14.078 -1.5341  0.1228  0.9818
 8010SOL     OW35491   0.948   4.509  11.209 -0.3981 -0.2006  0.0959
 8010SOL    HW135492   0.859   4.494  11.178 -0.1546 -2.0927  0.3002
 8010SOL    HW235493   0.972   4.593  11.171 -1.7074 -0.3550 -1.0551
 8011SOL     OW35494   4.315   2.025   4.046 -0.1788 -0.6150  0.2432
 8011SOL    HW135495   4.230   2.065   4.025  1.2466  2.1743 -0.3106
 8011SOL    HW235496   4.284   1.942   4.083 -0.1325 -0.6004  0.3154
 8012SOL     OW35497   2.433   4.392   8.950  0.0403 -0.5098 -0.0777
 8012SOL    HW135498   2.469   4.472   8.909 -0.7061 -0.1189  0.0311
 8012SOL    HW235499   2.507   4.332   8.941  0.1066 -0.6119  1.2404
 8013SOL     OW35500   1.994   2.665  14.712  0.4671  0.4481  0.1489
 8013SOL    HW135501   1.946   2.739  14.749  1.1241  0.1569  1.5640
 8013SOL    HW235502   1.957   2.593  14.763  2.1097 -1.1894 -0.9464
 8014SOL     OW35503   3.111   1.144  14.625 -0.5926 -0.0411  0.1096
 8014SOL    HW135504   3.140   1.215  14.682 -2.4376  1.1911 -0.4822
 8014SOL    HW235505   3.072   1.080  14.684 -1.6113 -0.6690 -1.2480
 8015SOL     OW35506   1.724   3.586  17.290 -0.4009  0.5991 -0.2930
 8015SOL    HW135507   1.724   3.557  17.199 -1.3456  0.9020 -0.3902
 8015SOL    HW235508   1.677   3.518  17.338 -0.1374  2.4464  2.5749
 8016SOL     OW35509   2.803   0.948   6.680  0.1223 -0.6037 -0.4180
 8016SOL    HW135510   2.864   1.019   6.659  1.6866 -1.5393  0.9061
 8016SOL    HW235511   2.849   0.868   6.706  0.2786 -1.2240 -2.6485
 8017SOL     OW35512   0.065   0.870   7.039  0.1484  0.2565  0.4458
 8017SOL    HW135513   0.037   0.779   7.028  2.2822 -0.2880 -0.6936
 8017SOL    HW235514   0.072   0.892   6.946 -0.1048  0.8463  0.5683
 8018SOL     OW35515   3.159   0.122   4.164  0.4050 -0.5114 -0.8761
 8018SOL    HW135516   3.248   0.100   4.190  0.3949  1.4189  0.8184
 8018SOL    HW235517   3.167   0.204   4.115 -0.6299 -0.3607 -0.8037
 8019SOL     OW35518   2.474   0.761  15.686  0.1161  0.2202 -0.1284
 8019SOL    HW135519   2.464   0.854  15.667  0.9262  0.4408  0.5354
 8019SOL    HW235520   2.501   0.735  15.598 -1.9074 -1.5571 -0.2414
 8020SOL     OW35521   1.228   1.207   3.122  0.2991  0.2520  0.0270
 8020SOL    HW135522   1.188   1.230   3.206 -0.6147 -0.6523 -0.1711
 8020SOL    HW235523   1.216   1.289   3.074 -4.9869  1.1644  2.9405
 8021SOL     OW35524   1.584   4.487   4.844  0.4852 -0.3587  0.5747
 8021SOL    HW135525   1.631   4.405   4.834 -1.1096 -1.5398  2.6296
 8021SOL    HW235526   1.583   4.521   4.755 -0.4774  2.5083  1.6629
 8022SOL     OW35527   0.990   2.702   1.525 -0.6669  0.6106  0.2257
 8022SOL    HW135528   1.061   2.646   1.558 -0.8187 -1.1559 -2.4139
 8022SOL    HW235529   1.020   2.728   1.438 -0.1369  2.7134  1.0549
 8023SOL     OW35530   2.640   0.431  15.339 -0.4070 -0.0008 -0.1912
 8023SOL    HW135531   2.631   0.382  15.257  0.0066 -2.9467  1.4980
 8023SOL    HW235532   2.694   0.499  15.300  0.3010 -0.4539  0.0068
 8024SOL     OW35533   4.640   0.731   9.196  0.0952 -0.3378  0.1247
 8024SOL    HW135534   4.637   0.675   9.118  0.5493  0.1877 -0.2703
 8024SOL    HW235535   4.605   0.816   9.170  0.2735 -0.1166  0.6124
 8025SOL     OW35536   0.586   3.198   5.293  0.0889  0.0813  0.5916
 8025SOL    HW135537   0.574   3.108   5.324 -2.3189  0.0592 -0.4736
 8025SOL    HW235538   0.663   3.217   5.347  1.0467  1.0266 -1.0969
 8026SOL     OW35539   3.580   2.806   2.763  0.5013  0.0557  0.3955
 8026SOL    HW135540   3.539   2.723   2.740  1.3337 -0.0696 -0.6961
 8026SOL    HW235541   3.648   2.808   2.695  0.1836  3.4825  0.1886
 8027SOL     OW35542   1.798   4.670   3.553  0.1641 -0.3036  0.1743
 8027SOL    HW135543   1.756   0.020   3.603 -0.4699 -0.3411 -0.3148
 8027SOL    HW235544   1.778   4.606   3.621 -0.2835 -0.1138  0.2223
 8028SOL     OW35545   3.476   0.144   0.736 -0.3968 -0.4873 -0.0297
 8028SOL    HW135546   3.491   0.152   0.831 -1.1479  0.1181  0.0441
 8028SOL    HW235547   3.478   0.049   0.727 -1.4160 -0.4280 -0.8484
 8029SOL     OW35548   2.000   4.542  11.391 -0.5072 -0.1427 -0.2001
 8029SOL    HW135549   1.961   4.463  11.428  0.1711 -1.3108 -2.0228
 8029SOL    HW235550   1.959   4.605  11.451 -1.1825 -2.3806  1.6840
 8030SOL     OW35551   1.511   1.282  12.052  0.0322  0.3536 -0.2568
 8030SOL    HW135552   1.466   1.214  12.102 -0.0935 -0.2627 -1.2322
 8030SOL    HW235553   1.506   1.360  12.109  1.7279  1.0805 -1.1150
 8031SOL     OW35554   1.228   1.858   0.713  0.5111  0.2128  0.9275
 8031SOL    HW135555   1.151   1.833   0.763  2.5106  0.3692  4.0357
 8031SOL    HW235556   1.238   1.779   0.660 -2.5775 -0.8216  1.8677
 8032SOL     OW35557   3.708   2.339   7.536 -0.2439  0.3687  0.0279
 8032SOL    HW135558   3.613   2.328   7.532 -0.1908 -0.5068  1.3248
 8032SOL    HW235559   3.707   2.411   7.472  1.5833  0.2489 -0.1206
 8033SOL     OW35560   0.219   2.084   7.936  0.4228  0.5418 -0.3284
 8033SOL    HW135561   0.247   2.076   7.845  4.0105 -1.5777  0.9749
 8033SOL    HW235562   0.125   2.098   7.943 -0.0089 -1.5205 -2.1107
 8034SOL     OW35563   2.591   3.712   3.403  0.2879  0.3607 -0.1030
 8034SOL    HW135564   2.601   3.803   3.374  3.1590  0.8299  2.3502
 8034SOL    HW235565   2.522   3.680   3.345 -0.7953 -1.1212  1.9779
 8035SOL     OW35566   1.409   0.289   8.052  0.3473  0.8131 -0.3599
 8035SOL    HW135567   1.438   0.199   8.040  0.2744  0.9780 -1.7384
 8035SOL    HW235568   1.314   0.277   8.053  0.5528 -0.8113 -0.8384
 8036SOL     OW35569   2.432   4.108   0.509  0.0135 -0.2317  0.4974
 8036SOL    HW135570   2.400   4.121   0.420  2.0654  0.8983 -0.0756
 8036SOL    HW235571   2.484   4.188   0.523 -0.1533  0.0624 -0.5532
 8037SOL     OW35572   3.068   0.251  11.933 -0.9259  0.1599 -0.3296
 8037SOL    HW135573   3.041   0.308  12.005  2.2210  2.2828 -0.8452
 8037SOL    HW235574   3.120   0.315  11.886 -0.8936 -1.0517 -1.9531
 8038SOL     OW35575   3.293   1.312  14.005  0.0469 -0.5788 -0.0843
 8038SOL    HW135576   3.225   1.329  13.941 -1.1806  1.5234  1.7704
 8038SOL    HW235577   3.349   1.387  13.984  0.3353 -0.3937  1.3130
 8039SOL     OW35578   0.437   2.234  15.583  0.2482 -0.1795 -0.0534
 8039SOL    HW135579   0.371   2.302  15.578  2.4342  1.7337 -2.6283
 8039SOL    HW235580   0.388   2.158  15.615  0.5329 -0.4016 -0.1362
 8040SOL     OW35581   3.982   1.928  13.941  0.4514  0.1857 -0.3008
 8040SOL    HW135582   3.890   1.955  13.932  0.3216 -0.2021 -0.1638
 8040SOL    HW235583   3.991   1.846  13.892  0.3460 -0.7787  1.2899
 8041SOL     OW35584   3.906   0.786   0.738 -0.1083 -0.4874  0.5389
 8041SOL    HW135585   3.821   0.758   0.703 -1.3410  0.1390  3.0753
 8041SOL    HW235586   3.882   0.784   0.830 -0.0484  0.9380  0.5768
 8042SOL     OW35587   2.613   0.601   6.112 -0.0950 -0.2446  0.2213
 8042SOL    HW135588   2.646   0.687   6.084  0.3874 -1.1087 -1.8422
 8042SOL    HW235589   2.618   0.540   6.038 -0.7421 -0.8620  0.6855
 8043SOL     OW35590   1.014   3.650   7.622  0.2220  0.0805  0.2150
 8043SOL    HW135591   1.043   3.584   7.559  0.1521 -0.5081  0.8010
 8043SOL    HW235592   0.977   3.595   7.691  0.9853 -0.1333  0.4542
 8044SOL     OW35593   3.101   4.099   6.306 -0.2066  0.1181  0.2954
 8044SOL    HW135594   3.040   4.168   6.280  0.3534  0.9296  1.1466
 8044SOL    HW235595   3.064   4.027   6.255  0.0030  0.9816 -1.0646
 8045SOL     OW35596   4.149   2.694   5.865 -0.5975  0.0747 -0.4333
 8045SOL    HW135597   4.224   2.685   5.806 -0.2125 -1.0932  0.2321
 8045SOL    HW235598   4.200   2.685   5.946 -1.7013 -0.8675  0.1478
 8046SOL     OW35599   1.744   1.828   9.283  0.0384  0.2574  0.2443
 8046SOL    HW135600   1.795   1.800   9.359  2.1540  0.8263 -0.9526
 8046SOL    HW235601   1.664   1.774   9.288 -0.0965  0.5300  1.0057
 8047SOL     OW35602   1.767   1.014   6.638  0.0113  0.2488  0.2323
 8047SOL    HW135603   1.796   0.981   6.723 -3.6699  0.2084  1.4964
 8047SOL    HW235604   1.674   0.990   6.643  0.1533 -0.0256  1.5102
 8048SOL     OW35605   1.431   1.069   9.629 -0.0959  0.7301  0.0710
 8048SOL    HW135606   1.389   1.137   9.576 -0.5905 -1.6955 -2.6567
 8048SOL    HW235607   1.414   1.104   9.717 -0.3349  0.4857  0.1231
 8049SOL     OW35608   0.908   2.769  15.663 -0.1668  0.1368  0.5152
 8049SOL    HW135609   0.830   2.796  15.615 -0.8318 -1.1313  0.8826
 8049SOL    HW235610   0.929   2.850  15.711 -0.1289 -0.3260  1.2840
 8050SOL     OW35611   3.373   2.168   8.907  0.3005 -0.0882  0.0537
 8050SOL    HW135612   3.455   2.208   8.877  1.0746  0.1498  2.5221
 8050SOL    HW235613   3.412   2.084   8.932 -0.0823  0.1989  1.5915
 8051SOL     OW35614   1.750   2.769   4.088 -0.1429 -0.0263  0.1936
 8051SOL    HW135615   1.799   2.850   4.104 -0.2008  0.2637 -1.1084
 8051SOL    HW235616   1.695   2.769   4.167 -3.3895  1.1833 -2.0327
 8052SOL     OW35617   0.645   2.950   8.135 -0.0028  0.5170  0.5083
 8052SOL    HW135618   0.622   2.980   8.223  0.3842 -1.3427  1.2436
 8052SOL    HW235619   0.560   2.918   8.103 -0.1792  0.7524  0.7416
 8053SOL     OW35620   0.185   0.401   9.648  0.3307  0.0840 -0.3179
 8053SOL    HW135621   0.104   0.434   9.610  0.0357 -0.2841 -0.0174
 8053SOL    HW235622   0.170   0.306   9.643 -0.6220  0.2168  0.1130
 8054SOL     OW35623   1.005   2.934  16.841 -0.0784 -0.5259  0.5882
 8054SOL    HW135624   1.027   3.021  16.807 -0.7384  0.2233  2.0798
 8054SOL    HW235625   1.091   2.892  16.838  0.1118  0.0196 -1.6088
 8055SOL     OW35626   0.229   0.884   5.516  0.0034 -0.0720 -0.2134
 8055SOL    HW135627   0.164   0.898   5.584 -0.4424  1.3034 -0.9153
 8055SOL    HW235628   0.181   0.916   5.439 -1.8961 -0.2498  0.9047
 8056SOL     OW35629   3.961   0.609   1.782  0.0002  0.2928 -0.1590
 8056SOL    HW135630   3.940   0.563   1.700 -1.3399  2.5688 -1.0582
 8056SOL    HW235631   4.044   0.563   1.800 -0.5644  0.1344  1.9926
 8057SOL     OW35632   3.348   4.113   9.608 -0.5281 -0.1123  0.1547
 8057SOL    HW135633   3.435   4.083   9.581 -0.0302 -0.7845  2.4623
 8057SOL    HW235634   3.293   4.035   9.602  1.1292 -1.3733  1.1579
 8058SOL     OW35635   0.381   1.236   4.791  0.2688 -0.3267 -0.2176
 8058SOL    HW135636   0.326   1.167   4.754 -1.3529 -0.4864  2.5039
 8058SOL    HW235637   0.468   1.196   4.801  1.1401  1.1014 -1.9630
 8059SOL     OW35638   4.406   3.701   3.939  0.1810 -0.4357 -0.3611
 8059SOL    HW135639   4.402   3.625   3.997  0.6370 -0.8261 -0.8378
 8059SOL    HW235640   4.313   3.709   3.917 -0.2515 -3.9287  0.2167
 8060SOL     OW35641   0.936   3.710  15.280 -0.3584 -0.3053  0.0912
 8060SOL    HW135642   0.944   3.796  15.240  0.7462  0.5611  2.1291
 8060SOL    HW235643   0.882   3.735  15.355  1.4127 -0.1903  1.3604
 8061SOL     OW35644   1.438   2.935   9.456 -0.2683  0.1887 -0.2816
 8061SOL    HW135645   1.489   2.860   9.425 -0.3945 -0.9834  2.2791
 8061SOL    HW235646   1.358   2.890   9.483 -0.0716 -1.4351 -2.3660
 8062SOL     OW35647   0.302   0.823  11.278 -0.2086 -0.0183  0.5151
 8062SOL    HW135648   0.248   0.750  11.246  3.0443 -2.7309  1.2649
 8062SOL    HW235649   0.392   0.807  11.248 -0.8201 -1.3037 -0.6516
 8063SOL     OW35650   2.927   0.604  12.076 -0.0382  0.1618  0.1957
 8063SOL    HW135651   2.908   0.527  12.131 -0.1173 -0.6041 -0.9018
 8063SOL    HW235652   3.015   0.624  12.107  1.1412 -0.9728 -2.3959
 8064SOL     OW35653   4.122   4.158   1.976  0.2304 -0.5309  0.0357
 8064SOL    HW135654   4.192   4.173   2.040 -1.0188  2.7094  0.6575
 8064SOL    HW235655   4.087   4.074   2.005  0.3645 -0.4457  0.4435
 8065SOL     OW35656   4.590   3.073   7.889  0.4095  0.2686 -0.2831
 8065SOL    HW135657   4.637   3.049   7.808  0.0299  0.9145 -0.6898
 8065SOL    HW235658   4.587   3.168   7.884 -0.8582  0.2463  0.2346
 8066SOL     OW35659   2.014   3.467   5.565 -0.0252 -0.1943  0.0482
 8066SOL    HW135660   2.068   3.388   5.555  1.2398  0.4884  1.4688
 8066SOL    HW235661   1.945   3.442   5.505 -0.4110  2.0171 -0.4122
 8067SOL     OW35662   4.169   3.949   9.485  0.2591 -0.3417 -0.1523
 8067SOL    HW135663   4.238   4.002   9.444  0.8885 -1.4625 -0.5281
 8067SOL    HW235664   4.210   3.865   9.465  2.1729  0.6630 -0.4408
 8068SOL     OW35665   3.988   0.877   1.828 -0.4312  0.4577 -0.1270
 8068SOL    HW135666   3.893   0.889   1.836 -0.0047  3.0856  1.1710
 8068SOL    HW235667   3.988   0.782   1.818  2.0123  0.5088 -0.5807
 8069SOL     OW35668   4.220   3.122   0.463  0.3195 -0.0767  0.0871
 8069SOL    HW135669   4.242   3.149   0.553 -0.7344  0.1233  0.2807
 8069SOL    HW235670   4.286   3.057   0.438  1.1073  1.1446 -1.0284
 8070SOL     OW35671   0.709   4.061   2.663  0.1949  0.5732  0.4127
 8070SOL    HW135672   0.777   4.017   2.612 -0.0190 -1.2014  1.6900
 8070SOL    HW235673   0.646   4.075   2.592 -1.1742 -0.8518  1.3797
 8071SOL     OW35674   3.612   2.160   2.840 -0.3254 -0.6526  0.0496
 8071SOL    HW135675   3.654   2.238   2.876 -1.2559 -0.1228 -0.0018
 8071SOL    HW235676   3.653   2.163   2.753 -2.4219  0.7991 -0.9168
 8072SOL     OW35677   0.617   1.514  14.692 -0.6601  0.3836  0.1179
 8072SOL    HW135678   0.654   1.488  14.607 -0.0685 -0.1307  0.5361
 8072SOL    HW235679   0.639   1.606  14.683  2.8829 -0.3595  1.3752
 8073SOL     OW35680   0.029   2.053   6.512  0.2295 -0.3443  0.4694
 8073SOL    HW135681   0.029   1.960   6.487 -0.7372 -0.7692  2.1036
 8073SOL    HW235682   0.105   2.079   6.564  0.3466 -2.6294  1.4243
 8074SOL     OW35683   2.583   4.044   7.436  0.6986  0.6098  0.3617
 8074SOL    HW135684   2.656   4.099   7.410  0.3517  1.9271  2.2207
 8074SOL    HW235685   2.553   4.086   7.516 -1.7243 -0.2671 -0.0698
 8075SOL     OW35686   0.924   2.196   1.142 -0.2679  0.3741  0.5599
 8075SOL    HW135687   0.860   2.240   1.087  0.9827  1.1196 -0.2794
 8075SOL    HW235688   0.953   2.122   1.089  0.3711  0.9590  0.1109
 8076SOL     OW35689   3.882   1.404   0.153  0.1187 -0.5815  0.3413
 8076SOL    HW135690   3.863   1.315   0.181 -1.1923 -0.5392 -0.3977
 8076SOL    HW235691   3.882   1.379   0.060  1.1570 -0.5645  0.3303
 8077SOL     OW35692   0.203   2.618  10.536 -0.0487 -0.1654 -0.3663
 8077SOL    HW135693   0.274   2.627  10.472 -0.2282  0.4665 -0.4713
 8077SOL    HW235694   0.226   2.693  10.590 -1.3010  0.1573 -0.2955
 8078SOL     OW35695   1.460   2.669   7.788 -0.1193 -0.3323 -0.3872
 8078SOL    HW135696   1.450   2.754   7.833  0.6483 -0.5449  0.1892
 8078SOL    HW235697   1.528   2.628   7.841 -0.2804  0.8048  0.7045
 8079SOL     OW35698   2.053   2.158   2.956 -0.0169  0.0558  0.2584
 8079SOL    HW135699   2.091   2.140   2.870  0.2969 -0.9192  0.6100
 8079SOL    HW235700   1.976   2.103   2.948  0.5472 -0.4891 -1.4276
 8080SOL     OW35701   2.906   3.825  12.908  0.3236  0.2595  0.0409
 8080SOL    HW135702   2.901   3.752  12.969  0.5776  0.4759  0.3238
 8080SOL    HW235703   2.815   3.851  12.893  0.7813  1.3018 -0.9776
 8081SOL     OW35704   3.423   3.336   6.909 -0.1623  0.1622  0.0339
 8081SOL    HW135705   3.383   3.380   6.984 -1.1672  1.4292 -1.2614
 8081SOL    HW235706   3.494   3.289   6.954 -2.3468 -2.6033  0.6387
 8082SOL     OW35707   1.005   1.577   2.178 -0.0595 -0.2332  0.0347
 8082SOL    HW135708   1.043   1.543   2.097  2.1150 -1.9453  1.7715
 8082SOL    HW235709   1.075   1.560   2.241 -0.0190 -0.9015 -0.1926
 8083SOL     OW35710   1.726   2.447   1.583 -0.4130  1.0387 -0.1651
 8083SOL    HW135711   1.682   2.399   1.513  0.4586 -0.5817  0.4079
 8083SOL    HW235712   1.812   2.442   1.540  1.3899 -0.2624  3.6102
 8084SOL     OW35713   0.408   3.885   7.941  0.1069 -0.6268  0.2742
 8084SOL    HW135714   0.326   3.843   7.914 -0.6256  1.4488 -0.7457
 8084SOL    HW235715   0.446   3.810   7.987  2.3715 -0.4303 -1.2420
 8085SOL     OW35716   0.199   3.727  11.242 -0.1483 -0.8505  0.5111
 8085SOL    HW135717   0.223   3.660  11.306 -0.7450  0.5707  2.1964
 8085SOL    HW235718   0.276   3.782  11.229 -0.9474  0.0649 -0.3287
 8086SOL     OW35719   1.762   2.642   7.788 -0.7354  0.1969 -0.3610
 8086SOL    HW135720   1.716   2.697   7.725 -2.5265 -0.7349  0.1395
 8086SOL    HW235721   1.801   2.577   7.729  0.1326  1.5146 -1.2278
 8087SOL     OW35722   1.983   2.808   5.836 -0.7081 -0.7262 -0.6452
 8087SOL    HW135723   1.984   2.733   5.894  0.9826 -1.6258 -1.8376
 8087SOL    HW235724   1.975   2.761   5.753 -1.5950 -2.3511  0.3559
 8088SOL     OW35725   3.554   0.696  13.413 -0.3364  0.1891  0.4311
 8088SOL    HW135726   3.494   0.623  13.428 -0.2495 -0.2338 -1.2981
 8088SOL    HW235727   3.529   0.742  13.493 -0.9661 -1.3844  1.1580
 8089SOL     OW35728   4.025   3.704   9.325 -0.0839 -0.0282 -0.0931
 8089SOL    HW135729   4.060   3.670   9.407 -1.6967  0.2374  0.7062
 8089SOL    HW235730   3.976   3.777   9.363  0.0432  0.9695 -1.8428
 8090SOL     OW35731   2.196   2.404   3.638  0.2026 -0.7242 -0.0166
 8090SOL    HW135732   2.197   2.343   3.711  0.0598 -2.8856 -1.8415
 8090SOL    HW235733   2.174   2.344   3.567  1.1908  0.0228 -0.9593
 8091SOL     OW35734   3.274   0.890  10.906  0.0110 -0.1688 -0.6526
 8091SOL    HW135735   3.322   0.855  10.831 -0.2001  1.1095 -1.3828
 8091SOL    HW235736   3.296   0.983  10.895 -0.6878  0.0941  0.1712
 8092SOL     OW35737   4.457   1.191   9.616 -0.0122  0.0552  0.3059
 8092SOL    HW135738   4.505   1.186   9.534 -1.6003  1.4005 -0.7050
 8092SOL    HW235739   4.504   1.263   9.660 -0.2865  1.2630 -1.3851
 8093SOL     OW35740   1.857   1.555  10.036  0.3055 -0.4811  0.1402
 8093SOL    HW135741   1.861   1.617  10.109 -0.7228  0.6730 -0.7772
 8093SOL    HW235742   1.886   1.481  10.088 -1.3658  0.2587  2.1601
 8094SOL     OW35743   3.471   3.655   2.678 -0.1487  0.1022 -0.3670
 8094SOL    HW135744   3.396   3.609   2.639  0.1997  0.3710 -1.3570
 8094SOL    HW235745   3.474   3.618   2.767 -1.9786  0.9407  0.0320
 8095SOL     OW35746   1.183   3.437   3.395 -0.6110  0.1066  0.1203
 8095SOL    HW135747   1.169   3.424   3.489  0.4265 -0.4251  0.2079
 8095SOL    HW235748   1.182   3.532   3.396 -1.1367  0.1275 -2.8784
 8096SOL     OW35749   2.066   1.916   3.146 -0.7610 -0.1443  0.3787
 8096SOL    HW135750   2.121   1.972   3.092 -2.3218  1.4241  0.4191
 8096SOL    HW235751   2.127   1.883   3.212 -0.7214  2.5571  1.6806
 8097SOL     OW35752   0.465   4.319   4.070  0.0323 -0.7221  0.0139
 8097SOL    HW135753   0.523   4.384   4.109 -1.3435 -0.2350  1.2365
 8097SOL    HW235754   0.397   4.378   4.039  0.7467 -0.0087 -0.1988
 8098SOL     OW35755   3.738   1.946  10.284 -0.2971 -0.1506  0.5740
 8098SOL    HW135756   3.664   1.995  10.320  0.1923  1.3354 -0.4211
 8098SOL    HW235757   3.695   1.885  10.223  0.6720  0.8590 -1.1317
 8099SOL     OW35758   1.786   0.766  10.187  0.1157  0.0060  0.3097
 8099SOL    HW135759   1.760   0.729  10.271  1.1763  0.9017  1.0171
 8099SOL    HW235760   1.858   0.710  10.158  1.1153  2.0691 -1.1411
 8100SOL     OW35761   2.026   1.721  11.154  0.0305 -0.2867 -0.1096
 8100SOL    HW135762   1.992   1.665  11.224  1.8357  0.4426  1.3317
 8100SOL    HW235763   1.982   1.683  11.078  1.6818 -0.2455 -1.0809
 8101SOL     OW35764   4.493   2.223   3.130 -0.2095 -0.1637 -1.2277
 8101SOL    HW135765   4.508   2.129   3.121 -1.2794 -0.3126 -1.4756
 8101SOL    HW235766   4.428   2.235   3.199 -0.4302 -1.6918 -1.1617
 8102SOL     OW35767   0.736   0.310   8.391 -0.1716  0.0736  0.0621
 8102SOL    HW135768   0.661   0.291   8.447  1.1379 -2.0837  1.0335
 8102SOL    HW235769   0.683   0.353   8.323 -0.0734 -2.8659 -1.8644
 8103SOL     OW35770   0.363   2.069   0.856 -0.4963 -0.5207  0.8404
 8103SOL    HW135771   0.308   1.992   0.872  0.3371 -1.0734  1.0457
 8103SOL    HW235772   0.374   2.044   0.764 -1.9614  1.2037  0.2013
 8104SOL     OW35773   4.055   2.035   1.858  0.1335 -0.1899  0.4271
 8104SOL    HW135774   4.074   2.129   1.862  0.1566 -0.1231 -1.3971
 8104SOL    HW235775   3.964   2.038   1.889 -0.1325 -0.9806 -0.2874
 8105SOL     OW35776   0.224   4.552   8.313  0.3489 -0.3110 -0.0645
 8105SOL    HW135777   0.299   4.491   8.309  1.5214  1.1393 -0.3157
 8105SOL    HW235778   0.177   4.511   8.241 -1.6897  1.1532  0.4483
 8106SOL     OW35779   1.599   2.840  14.749 -0.1219  0.3259 -0.3068
 8106SOL    HW135780   1.562   2.843  14.837 -2.0197 -1.3669 -1.0388
 8106SOL    HW235781   1.691   2.855  14.768  0.6135 -1.5881 -2.3688
 8107SOL     OW35782   1.739   1.517   3.668  0.1868 -0.1634  0.5767
 8107SOL    HW135783   1.759   1.444   3.608  1.4510  0.3821  0.3394
 8107SOL    HW235784   1.643   1.519   3.667  0.2861  3.9407  1.8792
 8108SOL     OW35785   4.128   1.256   9.204  0.1524  1.1268 -0.2647
 8108SOL    HW135786   4.170   1.229   9.285 -0.3772 -2.9110 -1.3235
 8108SOL    HW235787   4.060   1.305   9.250  0.1201 -0.3149  1.1845
 8109SOL     OW35788   0.319   0.941   4.740  0.0604 -0.1123  0.0627
 8109SOL    HW135789   0.260   1.005   4.699  1.2924 -0.2129 -1.8549
 8109SOL    HW235790   0.262   0.864   4.734 -0.2303  0.0260  0.9808
 8110SOL     OW35791   0.829   4.273  15.101 -0.4122  0.3506 -0.0427
 8110SOL    HW135792   0.737   4.252  15.114  0.0120 -1.1892  0.4933
 8110SOL    HW235793   0.849   4.271  15.007  1.1542 -1.9443  0.3130
 8111SOL     OW35794   3.935   2.173   3.705  0.0005  0.0558 -0.0184
 8111SOL    HW135795   3.853   2.162   3.754 -1.0599 -0.8641 -1.9974
 8111SOL    HW235796   3.914   2.103   3.643  0.8370 -1.0073  0.9182
 8112SOL     OW35797   0.590   2.006   7.773  0.3659 -0.2878 -0.0195
 8112SOL    HW135798   0.512   1.959   7.742  0.5005 -0.5257 -0.0034
 8112SOL    HW235799   0.621   2.061   7.702  0.8250  0.3367  0.6701
 8113SOL     OW35800   1.498   4.617   3.421  0.5500  0.2242  0.0813
 8113SOL    HW135801   1.581   4.645   3.460  0.7988 -0.4580  0.0430
 8113SOL    HW235802   1.532   4.590   3.336  1.7223  2.0330 -0.0328
 8114SOL     OW35803   4.220   1.436   5.044  0.2601  0.5429 -0.1139
 8114SOL    HW135804   4.210   1.423   5.139  1.8256 -1.1631 -0.1690
 8114SOL    HW235805   4.257   1.351   5.020  0.4898  0.2041  1.4199
 8115SOL     OW35806   2.521   0.905   4.265 -0.4387  0.1590 -0.2584
 8115SOL    HW135807   2.513   0.966   4.338  1.4722 -0.7587  0.7196
 8115SOL    HW235808   2.433   0.867   4.266  0.2354 -1.4209 -0.6124
 8116SOL     OW35809   0.248   1.120   7.864 -0.7587 -0.2814  0.3791
 8116SOL    HW135810   0.245   1.204   7.819  3.2460 -0.8765 -1.0377
 8116SOL    HW235811   0.168   1.082   7.829  0.5194 -1.2831 -1.4168
 8117SOL     OW35812   3.909   2.513   8.626 -0.2243 -0.3665 -0.2563
 8117SOL    HW135813   3.928   2.451   8.555 -1.8640 -1.8255  0.5888
 8117SOL    HW235814   3.817   2.497   8.646  0.7297  0.4545  4.7409
 8118SOL     OW35815   1.000   3.656   4.669  0.5589  0.0667  0.4199
 8118SOL    HW135816   0.954   3.574   4.653  1.6201 -0.6126  0.9058
 8118SOL    HW235817   0.978   3.698   4.586 -0.0720  0.6918  0.9101
 8119SOL     OW35818   1.170   4.368   8.483 -0.1183 -0.4309 -0.5243
 8119SOL    HW135819   1.219   4.444   8.452  0.5873 -0.1951  1.1998
 8119SOL    HW235820   1.162   4.389   8.576  1.4751 -1.7231 -0.1146
 8120SOL     OW35821   2.361   3.101   4.101 -0.3345  0.3687 -0.2089
 8120SOL    HW135822   2.332   3.191   4.115 -1.5444 -0.2504  1.2031
 8120SOL    HW235823   2.445   3.103   4.145 -1.1816  0.0213  1.4241
 8121SOL     OW35824   0.831   3.293   6.765 -0.2613  0.0740 -0.0173
 8121SOL    HW135825   0.757   3.238   6.790  0.4293 -0.9297 -0.2010
 8121SOL    HW235826   0.791   3.375   6.735  2.4921  0.7375 -1.9832
 8122SOL     OW35827   3.142   2.715   8.188  0.0997  0.0639 -0.9424
 8122SOL    HW135828   3.056   2.701   8.226  0.4710 -0.4872 -0.2892
 8122SOL    HW235829   3.189   2.632   8.200 -2.2746 -1.2210 -0.4823
 8123SOL     OW35830   2.841   4.690  17.064 -0.0854 -0.4379  0.5031
 8123SOL    HW135831   2.791   4.629  17.118 -1.5903 -0.2341 -0.6389
 8123SOL    HW235832   2.801   0.055  17.080  3.2457  1.4033 -1.0500
 8124SOL     OW35833   1.250   3.078  17.654 -0.5000 -0.3965  0.0665
 8124SOL    HW135834   1.244   2.983  17.666 -1.7871 -0.1495  1.3791
 8124SOL    HW235835   1.178   3.104   0.028 -0.1463  2.0828 -0.6164
 8125SOL     OW35836   4.551   1.587   5.127 -0.1719 -0.1193  0.1667
 8125SOL    HW135837   4.644   1.579   5.148 -0.8498  3.0179  4.4746
 8125SOL    HW235838   4.543   1.540   5.044 -0.1243  0.5719 -0.2383
 8126SOL     OW35839   0.370   0.403   6.300  0.1307 -0.2638  1.0990
 8126SOL    HW135840   0.411   0.376   6.383  1.4915 -1.2495  0.0980
 8126SOL    HW235841   0.438   0.378   6.237 -1.0499  2.9592 -1.4292
 8127SOL     OW35842   1.670   3.488   2.950 -0.3955  0.0975 -0.1054
 8127SOL    HW135843   1.744   3.496   3.011 -0.4135  0.9406 -0.1962
 8127SOL    HW235844   1.605   3.455   3.012  0.1841 -1.1368 -0.1635
 8128SOL     OW35845   1.534   1.269   5.256  0.3980  0.0108 -0.4878
 8128SOL    HW135846   1.547   1.246   5.348  1.6229  1.5247 -0.2828
 8128SOL    HW235847   1.448   1.310   5.263  1.1094  1.4422 -0.1499
 8129SOL     OW35848   2.006   2.979  16.232  0.4526 -0.1126 -0.5496
 8129SOL    HW135849   2.095   3.011  16.218  0.2589 -0.3068 -2.2821
 8129SOL    HW235850   2.014   2.885  16.218  0.0121 -0.2184 -0.0856
 8130SOL     OW35851   3.622   3.152   7.006  0.9070 -0.1276  0.1305
 8130SOL    HW135852   3.701   3.205   6.993  1.6190 -1.5386 -1.2542
 8130SOL    HW235853   3.654   3.078   6.955  2.5985  0.9359 -0.3548
 8131SOL     OW35854   2.358   3.534   5.417 -0.0545 -0.2638 -0.0924
 8131SOL    HW135855   2.447   3.567   5.421 -0.4780  0.9438 -0.5495
 8131SOL    HW235856   2.368   3.448   5.457 -0.4992 -1.6787 -2.9537
 8132SOL     OW35857   0.098   0.271   3.363  0.3884  0.4800 -0.0565
 8132SOL    HW135858   0.160   0.199   3.352  0.6844  1.1745 -2.8681
 8132SOL    HW235859   0.048   0.229   3.432  1.4798 -0.9080 -0.1190
 8133SOL     OW35860   0.467   2.226   4.858 -0.0254  0.2311 -0.0085
 8133SOL    HW135861   0.536   2.283   4.825  0.3989  0.3064  1.0098
 8133SOL    HW235862   0.417   2.280   4.920 -2.0890 -1.1307 -0.5067
 8134SOL     OW35863   2.500   4.664   8.583 -0.0739  0.2090 -0.8063
 8134SOL    HW135864   2.520   4.714   8.504 -0.8266  1.3155 -0.3026
 8134SOL    HW235865   2.467   4.581   8.549  3.1635  0.3329 -4.2321
 8135SOL     OW35866   2.541   2.493   9.648 -0.1780  0.0680 -0.1350
 8135SOL    HW135867   2.556   2.398   9.650 -2.0741 -0.2516 -1.5407
 8135SOL    HW235868   2.609   2.504   9.581 -1.1850 -0.7226 -1.2802
 8136SOL     OW35869   0.242   2.662   2.058 -0.0481 -0.0251  0.8284
 8136SOL    HW135870   0.247   2.584   2.114 -1.2252 -1.5852 -1.2309
 8136SOL    HW235871   0.273   2.635   1.972  1.3677 -0.3594  1.4554
 8137SOL     OW35872   3.056   4.649   5.029 -0.5287  0.4895 -0.1399
 8137SOL    HW135873   2.964   4.670   5.016 -0.7245  0.3287  0.9411
 8137SOL    HW235874   3.063   4.678   5.120  1.1734  2.0195 -0.7623
 8138SOL     OW35875   0.285   1.243   3.550  0.4282 -0.1226  0.5461
 8138SOL    HW135876   0.207   1.192   3.572  0.0697  0.6986  1.2027
 8138SOL    HW235877   0.250   1.332   3.540  1.6024  0.1383 -1.1610
 8139SOL     OW35878   3.935   0.196  16.884 -0.0658  0.5730 -0.0428
 8139SOL    HW135879   4.027   0.197  16.910 -0.1842 -0.0984  0.3950
 8139SOL    HW235880   3.898   0.175  16.969  0.0953  0.7474  0.0710
 8140SOL     OW35881   1.414   4.479   7.961  0.1524 -0.5571 -0.1629
 8140SOL    HW135882   1.466   4.465   8.041 -1.5277  1.1720  1.2438
 8140SOL    HW235883   1.394   4.387   7.943 -0.5948 -0.4482  0.1137
 8141SOL     OW35884   0.634   3.334   9.856  0.3199  0.1311  0.4067
 8141SOL    HW135885   0.663   3.264   9.797 -3.3649 -0.7583 -0.4036
 8141SOL    HW235886   0.561   3.365   9.802  0.2162  2.6819  2.0420
 8142SOL     OW35887   0.135   1.029   7.269 -0.1581  0.3226 -0.0049
 8142SOL    HW135888   0.136   0.945   7.224  0.4942  0.3244  0.0103
 8142SOL    HW235889   0.044   1.058   7.263 -0.0451  0.4347 -1.3080
 8143SOL     OW35890   2.539   3.678   4.215  0.3485  0.5097  0.7751
 8143SOL    HW135891   2.538   3.582   4.206 -0.0807  0.6515 -0.7417
 8143SOL    HW235892   2.486   3.723   4.149 -0.8411  0.2666  1.5578
 8144SOL     OW35893   3.730   4.547  11.060  0.1388  0.3236  0.1863
 8144SOL    HW135894   3.715   4.502  11.143  2.0028  0.6497  0.6906
 8144SOL    HW235895   3.821   4.567  11.079 -0.1497  0.7504  1.0925
 8145SOL     OW35896   2.959   3.050   3.084 -0.3012 -0.1733  0.1710
 8145SOL    HW135897   2.935   2.964   3.049 -0.7419  1.2103 -2.9175
 8145SOL    HW235898   2.905   3.061   3.162 -1.7926 -1.3201 -0.6910
 8146SOL     OW35899   1.997   1.276   6.459  0.8649  0.0189  0.4967
 8146SOL    HW135900   2.092   1.280   6.471  0.9912 -1.9487  0.1007
 8146SOL    HW235901   1.964   1.202   6.510  0.2488 -0.3823 -0.4720
 8147SOL     OW35902   0.946   2.307   4.844  0.2163  0.1660  0.2466
 8147SOL    HW135903   0.973   2.220   4.871 -0.7602  0.1133  1.0331
 8147SOL    HW235904   0.982   2.319   4.756 -1.4082  0.9964 -0.3071
 8148SOL     OW35905   0.566   1.372   7.022  0.0780 -0.0573  0.5609
 8148SOL    HW135906   0.510   1.449   7.030 -1.9884 -1.3090 -1.6708
 8148SOL    HW235907   0.525   1.302   7.072  0.0045 -0.0134  0.5621
 8149SOL     OW35908   0.145   0.171   8.760  0.3996  0.4880 -0.1885
 8149SOL    HW135909   0.137   0.083   8.796  0.1266  0.8399  0.6070
 8149SOL    HW235910   0.059   0.214   8.761 -0.2613 -0.8284 -0.7837
 8150SOL     OW35911   1.145   4.077  17.504  0.4083  0.2622  0.0343
 8150SOL    HW135912   1.149   4.172  17.499 -1.0458  0.3325  0.3274
 8150SOL    HW235913   1.050   4.083  17.506  0.2989 -1.5936  0.2206
 8151SOL     OW35914   1.586   2.006   5.671  0.1317 -0.1991 -0.0902
 8151SOL    HW135915   1.562   1.926   5.718 -0.8090 -0.8781 -1.7534
 8151SOL    HW235916   1.537   1.984   5.592 -0.3664 -0.9003  0.4136
 8152SOL     OW35917   0.571   3.061   3.957 -0.3536  0.1261  0.2960
 8152SOL    HW135918   0.610   3.142   3.990 -0.8220  1.2554 -1.9153
 8152SOL    HW235919   0.495   3.097   3.911 -1.2749  0.8656  2.4273
 8153SOL     OW35920   0.670   0.078   7.023 -0.2076  0.5044 -0.7154
 8153SOL    HW135921   0.611   0.026   6.968  2.1659 -0.0159 -2.7725
 8153SOL    HW235922   0.682   0.149   6.960  0.4994  1.3783  0.4188
 8154SOL     OW35923   1.341   1.163   6.638 -0.4393 -0.1536 -0.6077
 8154SOL    HW135924   1.319   1.156   6.731  1.9937 -1.1447 -0.1031
 8154SOL    HW235925   1.359   1.257   6.635  0.2378 -0.2618  0.1518
 8155SOL     OW35926   1.360   0.412   5.550 -0.3197 -0.3171  0.4052
 8155SOL    HW135927   1.362   0.481   5.484  0.3002 -0.0175  0.7328
 8155SOL    HW235928   1.428   0.352   5.517 -2.2131 -0.9490 -2.3104
 8156SOL     OW35929   0.597   2.947   5.880 -0.4805  0.1735 -0.3615
 8156SOL    HW135930   0.506   2.929   5.858  0.1661  0.2302 -3.0800
 8156SOL    HW235931   0.619   2.881   5.946  0.4948 -0.2674 -1.1206
 8157SOL     OW35932   3.668   4.324   6.511  0.0816  0.5903 -0.0819
 8157SOL    HW135933   3.687   4.240   6.552  0.3308  2.0027  2.6973
 8157SOL    HW235934   3.729   4.389   6.547 -0.9413  0.2103  2.2767
 8158SOL     OW35935   1.251   1.333   5.291 -0.1710 -0.3058  0.6083
 8158SOL    HW135936   1.211   1.292   5.214  1.8372 -1.4055  0.1497
 8158SOL    HW235937   1.194   1.310   5.364 -1.5603 -0.5746 -0.5568
 8159SOL     OW35938   0.136   1.757   9.930  0.0407 -0.0805  0.2107
 8159SOL    HW135939   0.174   1.685   9.880  1.4346 -0.3543  1.6457
 8159SOL    HW235940   0.204   1.780   9.994 -0.2796 -0.3531  0.6517
 8160SOL     OW35941   3.438   2.364   7.498 -0.8087 -0.0831 -0.5111
 8160SOL    HW135942   3.362   2.319   7.462 -1.1017 -0.2226  0.2803
 8160SOL    HW235943   3.390   2.413   7.564  0.2597 -0.1315  0.2982
 8161SOL     OW35944   0.821   1.309   9.590  0.3781  0.1624  0.1439
 8161SOL    HW135945   0.741   1.299   9.538  0.0532 -2.2466  1.0800
 8161SOL    HW235946   0.883   1.298   9.518 -0.3503  2.5658 -0.8393
 8162SOL     OW35947   1.981   2.086   5.777 -0.1884 -0.0866 -0.0886
 8162SOL    HW135948   2.001   2.079   5.871 -0.2565 -0.3960 -0.0945
 8162SOL    HW235949   1.932   2.005   5.761 -1.0871  0.6424 -1.0196
 8163SOL     OW35950   2.605   4.214   6.807 -0.0573  0.1173 -0.3794
 8163SOL    HW135951   2.627   4.288   6.751  2.5416 -0.6632 -0.4070
 8163SOL    HW235952   2.534   4.246   6.861  0.2310  2.2247 -1.2591
 8164SOL     OW35953   2.061   1.104   3.136 -0.2191  0.6069 -0.7500
 8164SOL    HW135954   2.010   1.184   3.148  0.0336  0.5901  0.4808
 8164SOL    HW235955   2.147   1.138   3.163 -0.0782  0.3603 -0.8823
 8165SOL     OW35956   1.680   4.182  14.666 -0.4245  0.6431 -0.3079
 8165SOL    HW135957   1.660   4.158  14.756  0.4255  1.9174  0.2174
 8165SOL    HW235958   1.611   4.134  14.620  0.1415  1.1100 -1.6594
 8166SOL     OW35959   1.414   2.914   7.938 -0.1930  0.2640 -0.3590
 8166SOL    HW135960   1.481   2.949   7.879  1.5681 -1.6198  0.5488
 8166SOL    HW235961   1.394   2.983   8.001 -0.1417  1.4099 -1.5961
 8167SOL     OW35962   4.005   0.395   7.656  0.2623 -0.3976 -0.0980
 8167SOL    HW135963   3.923   0.426   7.695  2.5198  2.2581  2.5869
 8167SOL    HW235964   3.980   0.309   7.623  1.3490 -0.9823  0.5987
 8168SOL     OW35965   3.575   1.577   7.582 -0.1178 -0.1582 -0.1467
 8168SOL    HW135966   3.618   1.576   7.668  1.1171 -0.6631 -0.7827
 8168SOL    HW235967   3.595   1.666   7.552 -1.3016  0.7941  1.8389
 8169SOL     OW35968   0.905   1.129   6.863  0.0055  0.1069  0.1522
 8169SOL    HW135969   0.850   1.075   6.919  1.6140 -1.5348  0.1386
 8169SOL    HW235970   0.939   1.066   6.800  0.5619  2.1354 -1.5697
 8170SOL     OW35971   0.900   4.232  12.787 -0.1532 -0.1566 -0.3173
 8170SOL    HW135972   0.956   4.167  12.829  1.1125 -0.5728 -2.5918
 8170SOL    HW235973   0.960   4.264  12.719 -0.1303 -0.7160 -0.5608
 8171SOL     OW35974   0.861   3.294   5.009  0.6593 -0.2143  0.4780
 8171SOL    HW135975   0.811   3.338   4.940  2.3757  1.6528  0.4380
 8171SOL    HW235976   0.901   3.374   5.042 -0.8144  0.9575 -0.5626
 8172SOL     OW35977   3.392   4.482  17.511 -0.3662 -0.5234 -0.2406
 8172SOL    HW135978   3.479   4.484  17.471 -0.5051 -0.7056 -0.5510
 8172SOL    HW235979   3.345   4.427  17.449 -0.5587 -1.7722  1.0011
 8173SOL     OW35980   1.641   0.480   7.023 -0.0418  0.1300  0.2766
 8173SOL    HW135981   1.701   0.538   7.069  0.0186 -0.9483  1.5543
 8173SOL    HW235982   1.601   0.437   7.098 -1.1229 -1.9289 -1.4679
 8174SOL     OW35983   0.098   3.430  12.698 -0.0167 -0.2785  0.1036
 8174SOL    HW135984   0.061   3.516  12.719 -0.8330 -0.6170  0.0550
 8174SOL    HW235985   0.070   3.386  12.778 -1.5109 -1.1680 -0.9106
 8175SOL     OW35986   2.757   1.782   7.246  0.2479  0.3122  0.4701
 8175SOL    HW135987   2.789   1.787   7.156 -2.2691  0.3272 -0.4202
 8175SOL    HW235988   2.664   1.765   7.235  0.6480 -0.8527 -1.0019
 8176SOL     OW35989   0.384   2.369   1.975 -0.0526 -0.1048 -0.1703
 8176SOL    HW135990   0.329   2.397   2.047 -0.9321  0.9894 -1.2756
 8176SOL    HW235991   0.320   2.368   1.904 -1.5430  1.4051  1.1739
 8177SOL     OW35992   0.704   4.160  17.354 -0.2901 -0.0145 -0.5887
 8177SOL    HW135993   0.731   4.229  17.294  2.7113  0.1823  1.0090
 8177SOL    HW235994   0.682   4.086  17.297  1.2085 -2.1424  1.5885
 8178SOL     OW35995   1.708   2.692   6.348 -0.2202 -0.0847 -0.5315
 8178SOL    HW135996   1.668   2.729   6.270 -0.7100  0.1163 -0.1809
 8178SOL    HW235997   1.633   2.670   6.404 -1.0416  1.7304 -0.9200
 8179SOL     OW35998   3.653   1.521   9.401 -0.3661 -0.6857  0.5130
 8179SOL    HW135999   3.671   1.614   9.392  0.4860 -0.9541 -0.6202
 8179SOL    HW236000   3.736   1.495   9.441  1.4344  1.0103 -2.1695
 8180SOL     OW36001   1.943   3.129   7.524 -0.0406 -0.1306 -0.6189
 8180SOL    HW136002   1.924   3.218   7.554  3.3963  0.3529  0.0962
 8180SOL    HW236003   1.857   3.094   7.500 -0.1850 -0.4805  0.4097
 8181SOL     OW36004   2.442   1.005   4.975 -0.0878  1.2796  0.2119
 8181SOL    HW136005   2.423   0.911   4.981 -0.2877  1.3171  0.1606
 8181SOL    HW236006   2.381   1.038   5.041 -1.7321  0.0416 -0.6729
 8182SOL     OW36007   2.867   2.185   7.780  0.1330 -0.0307  0.7861
 8182SOL    HW136008   2.944   2.231   7.746 -0.4219  0.4815  0.2249
 8182SOL    HW236009   2.843   2.131   7.705  1.2662  0.4098  0.1001
 8183SOL     OW36010   1.519   3.578   2.732 -0.4568 -0.0634  0.6646
 8183SOL    HW136011   1.584   3.554   2.799  1.4934 -1.1976 -1.6484
 8183SOL    HW236012   1.516   3.673   2.746 -0.9504 -0.2099  1.5964
 8184SOL     OW36013   1.027   2.671  10.432 -0.1277  0.1885 -0.2553
 8184SOL    HW136014   1.050   2.583  10.403 -0.2843  0.0962 -0.1017
 8184SOL    HW236015   1.089   2.690  10.501  0.0797 -0.1472 -0.3487
 8185SOL     OW36016   1.528   1.173   7.559  0.4914 -0.2940  0.6106
 8185SOL    HW136017   1.603   1.140   7.510  1.3358  1.7180  0.5220
 8185SOL    HW236018   1.467   1.160   7.486  0.9861  1.7575 -0.1766
 8186SOL     OW36019   2.414   0.910   5.345  1.1113 -0.2352  0.2082
 8186SOL    HW136020   2.448   0.891   5.433  3.2597 -0.7521 -0.7343
 8186SOL    HW236021   2.322   0.919   5.370  0.3165 -1.8353 -2.1276
 8187SOL     OW36022   0.445   3.272  14.864 -0.2619  0.7843  0.2588
 8187SOL    HW136023   0.515   3.244  14.922 -0.1805  1.7387  0.6271
 8187SOL    HW236024   0.465   3.366  14.867 -0.6000  0.9700 -2.9364
 8188SOL     OW36025   0.236   0.741  12.906  0.2563 -0.3465 -0.3270
 8188SOL    HW136026   0.315   0.774  12.863 -1.0273  1.6638 -1.1076
 8188SOL    HW236027   0.195   0.711  12.824 -1.7770  0.1273  0.5451
 8189SOL     OW36028   4.675   0.244   2.110  0.0785  0.2351  0.0250
 8189SOL    HW136029   4.613   0.309   2.078 -2.4609 -1.6821  1.0485
 8189SOL    HW236030   4.631   0.196   2.181 -0.1270 -1.6728 -1.3995
 8190SOL     OW36031   2.738   1.155   0.951 -0.9660  0.1159  0.1535
 8190SOL    HW136032   2.832   1.162   0.970 -0.2444  0.1888 -3.4385
 8190SOL    HW236033   2.732   1.201   0.867 -3.7367  0.4891  0.5616
 8191SOL     OW36034   0.044   3.229   6.034  0.4865  0.0552 -0.0506
 8191SOL    HW136035   4.681   3.267   6.004 -0.0355 -0.1016  1.1879
 8191SOL    HW236036   0.076   3.296   6.094  2.2103  1.3003 -2.4048
 8192SOL     OW36037   1.768   2.759  11.835 -0.0991 -0.4516  0.3719
 8192SOL    HW136038   1.726   2.799  11.759  0.8934  0.4060  0.2815
 8192SOL    HW236039   1.846   2.716  11.799 -0.7295 -1.0974 -0.2265
 8193SOL     OW36040   0.852   3.729   4.434  0.3778  0.2170  0.1138
 8193SOL    HW136041   0.845   3.651   4.379  0.6211 -0.1589  0.6152
 8193SOL    HW236042   0.764   3.742   4.470  0.2858  1.1459 -0.4498
 8194SOL     OW36043   2.319   0.043   4.933 -0.4386  0.2182 -0.4297
 8194SOL    HW136044   2.225   0.043   4.951  0.2343 -0.8016  3.0505
 8194SOL    HW236045   2.325   0.114   4.868  1.0655  0.5946  0.1177
 8195SOL     OW36046   3.217   3.866   5.980  0.5699  0.5002  0.6481
 8195SOL    HW136047   3.230   3.838   6.071  1.2937 -2.2561 -0.3239
 8195SOL    HW236048   3.265   3.949   5.970 -1.8161  1.7628 -0.3093
 8196SOL     OW36049   0.439   1.443   5.382  0.5383 -0.4847 -0.0810
 8196SOL    HW136050   0.503   1.469   5.315  1.5065 -2.3224  0.1379
 8196SOL    HW236051   0.437   1.525   5.433 -0.5167 -1.4052  1.3446
 8197SOL     OW36052   3.629   0.879   0.443  0.0135 -0.3051 -0.4261
 8197SOL    HW136053   3.571   0.870   0.368 -1.1519 -1.1006  0.5733
 8197SOL    HW236054   3.601   0.965   0.472 -0.4678 -0.8571  0.7575
 8198SOL     OW36055   2.706   0.614   8.135  0.0466  0.0402 -0.0226
 8198SOL    HW136056   2.676   0.693   8.181  1.1765 -0.3184  1.3144
 8198SOL    HW236057   2.764   0.568   8.195  2.0395 -1.1703 -2.8798
 8199SOL     OW36058   1.938   2.464  12.248 -0.4550  0.8675 -0.1072
 8199SOL    HW136059   1.852   2.495  12.219 -0.6482  1.0155  0.6370
 8199SOL    HW236060   1.984   2.454  12.165 -1.5698  0.4189 -0.6725
 8200SOL     OW36061   2.371   4.112   5.705 -0.3658 -0.4566 -0.1675
 8200SOL    HW136062   2.298   4.053   5.686 -0.0537 -0.3780 -1.6200
 8200SOL    HW236063   2.358   4.151   5.792 -1.1211  0.3831 -0.6549
 8201SOL     OW36064   2.326   1.547  15.338  0.1842 -1.0233  0.3429
 8201SOL    HW136065   2.245   1.504  15.312 -0.4685 -0.8763  2.1499
 8201SOL    HW236066   2.400   1.488  15.319  0.0247 -1.0752 -0.1098
 8202SOL     OW36067   3.498   0.602   3.902 -0.0560 -0.1421 -0.1489
 8202SOL    HW136068   3.423   0.662   3.893 -1.2721 -1.9567 -2.0971
 8202SOL    HW236069   3.507   0.596   3.807  0.8186  1.8691 -0.1878
 8203SOL     OW36070   0.988   1.322   9.375  0.2935 -0.1618 -0.2930
 8203SOL    HW136071   1.071   1.278   9.391  0.3144 -1.0340 -2.7566
 8203SOL    HW236072   1.010   1.413   9.355  0.0389  0.4090  2.0825
 8204SOL     OW36073   3.182   0.194   9.117 -0.5113  0.1654 -0.3237
 8204SOL    HW136074   3.268   0.154   9.130 -0.2952  0.8793  0.5188
 8204SOL    HW236075   3.198   0.281   9.154  1.3222  0.4126 -1.7497
 8205SOL     OW36076   4.079   1.980   5.735  0.1697 -0.5455  0.1324
 8205SOL    HW136077   3.991   2.017   5.727  0.5373  0.3579  0.2366
 8205SOL    HW236078   4.065   1.904   5.790  0.4584 -0.2277  0.6404
 8206SOL     OW36079   1.487   0.379   4.500 -0.5087  0.1732 -0.0432
 8206SOL    HW136080   1.440   0.358   4.581 -0.4986  0.2159 -0.0262
 8206SOL    HW236081   1.575   0.378   4.538 -0.3731 -0.2627 -0.3738
 8207SOL     OW36082   1.517   1.971   2.011 -0.1482  0.1872 -0.3777
 8207SOL    HW136083   1.536   1.888   1.966 -0.1834 -0.6655  1.1629
 8207SOL    HW236084   1.427   1.951   2.036 -0.4686 -1.9443 -3.2035
 8208SOL     OW36085   0.194   1.420   4.427 -0.1221 -0.0840  0.3644
 8208SOL    HW136086   0.164   1.398   4.339  0.8134 -0.9574  0.2509
 8208SOL    HW236087   0.282   1.444   4.398 -0.6029  1.3224  0.1093
 8209SOL     OW36088   0.250   1.994  14.469 -0.1057  0.2673  0.0804
 8209SOL    HW136089   0.236   1.923  14.531  0.4761  1.1220  1.1882
 8209SOL    HW236090   0.182   2.054  14.499  1.3552  1.6315  0.6332
 8210SOL     OW36091   3.777   2.761   2.091 -0.3624  0.0993  1.0233
 8210SOL    HW136092   3.844   2.828   2.082  0.7810 -1.4438 -1.8968
 8210SOL    HW236093   3.800   2.700   2.020 -3.0225  0.5243 -0.2191
 8211SOL     OW36094   0.665   1.816   4.348  0.1911 -0.7215 -0.2050
 8211SOL    HW136095   0.687   1.774   4.431 -1.5346  0.2656  0.7450
 8211SOL    HW236096   0.594   1.755   4.324 -1.4067  1.5374 -1.2281
 8212SOL     OW36097   3.008   2.286  16.329 -0.2136  0.0853 -0.7650
 8212SOL    HW136098   3.078   2.267  16.267  0.3592 -1.4656  0.3600
 8212SOL    HW236099   2.930   2.304  16.276  0.8573  1.8148 -1.7567
 8213SOL     OW36100   3.496   3.410   6.097 -0.5112  0.1256 -0.1787
 8213SOL    HW136101   3.551   3.466   6.151  0.6869 -0.8597 -0.3718
 8213SOL    HW236102   3.465   3.342   6.156  2.3467 -1.0275  0.0150
 8214SOL     OW36103   2.404   1.699   3.877 -0.0121 -0.2889  0.3256
 8214SOL    HW136104   2.486   1.733   3.843  0.0431 -0.6915  0.0572
 8214SOL    HW236105   2.426   1.688   3.970 -1.0756 -1.4888  0.4362
 8215SOL     OW36106   2.045   3.820   7.225  0.3302  0.4958  0.3451
 8215SOL    HW136107   2.128   3.800   7.182 -0.4045  2.2620 -1.9115
 8215SOL    HW236108   2.065   3.793   7.315 -1.3430  0.8560  0.8198
 8216SOL     OW36109   3.976   4.011   7.166 -0.8004  0.4805 -0.1272
 8216SOL    HW136110   3.975   3.934   7.224 -0.5786 -0.0864 -0.8842
 8216SOL    HW236111   3.949   3.976   7.082 -1.6015  1.6920 -0.3662
 8217SOL     OW36112   1.765   1.585   5.424 -0.1443  0.2019 -0.2598
 8217SOL    HW136113   1.776   1.669   5.469  0.7359 -0.9031  1.5837
 8217SOL    HW236114   1.682   1.557   5.463  0.4578 -1.3147 -0.0855
 8218SOL     OW36115   1.607   1.385   8.601  0.5769 -0.0577 -0.7613
 8218SOL    HW136116   1.680   1.390   8.663  0.3780 -0.5032 -0.4865
 8218SOL    HW236117   1.567   1.471   8.609 -0.2070 -0.2794 -2.2913
 8219SOL     OW36118   0.175   4.306  17.568  0.2702  0.4838  0.1839
 8219SOL    HW136119   0.120   4.374  17.527  0.3785  0.3331 -0.2059
 8219SOL    HW236120   0.167   4.237  17.502 -1.0278  0.1636  0.6731
 8220SOL     OW36121   0.837   4.134   5.720  0.1963 -0.4515 -0.1440
 8220SOL    HW136122   0.917   4.141   5.772 -1.1972  3.3642  1.4826
 8220SOL    HW236123   0.804   4.219   5.751  0.0654  0.4053 -2.6450
 8221SOL     OW36124   4.583   4.085   7.660 -0.0780  0.7329  0.5568
 8221SOL    HW136125   4.635   4.005   7.662 -0.1834  0.6274 -0.9475
 8221SOL    HW236126   4.532   4.069   7.740  2.5911 -0.8771  1.9315
 8222SOL     OW36127   4.009   3.846   5.007  0.0634 -0.6747  0.4393
 8222SOL    HW136128   4.058   3.787   5.064  1.1502  1.3222  1.5506
 8222SOL    HW236129   3.933   3.790   4.989  0.1263 -0.3183 -0.9088
 8223SOL     OW36130   4.209   4.484   5.985 -0.0520 -0.8879  0.0986
 8223SOL    HW136131   4.205   4.453   5.894  0.7283 -1.4038  0.2378
 8223SOL    HW236132   4.122   4.523   5.992  0.2198 -0.1796 -0.5186
 8224SOL     OW36133   2.876   0.052  14.169  0.6517 -0.3570 -1.0416
 8224SOL    HW136134   2.842   0.112  14.235  0.4147  0.8454 -2.2612
 8224SOL    HW236135   2.966   0.042  14.201  0.9478  1.0199 -1.4714
 8225SOL     OW36136   2.872   2.343   9.637 -0.2071  0.0636  0.1929
 8225SOL    HW136137   2.918   2.263   9.663  0.7836  1.0247  1.4119
 8225SOL    HW236138   2.783   2.308   9.629 -0.8763  1.7491  0.4475
 8226SOL     OW36139   1.036   3.269  10.332  0.3382  0.3234  0.1576
 8226SOL    HW136140   1.067   3.356  10.359  3.8473 -0.6965 -0.7253
 8226SOL    HW236141   0.995   3.245  10.415  0.4900  0.1723  0.1861
 8227SOL     OW36142   1.193   3.887  10.808 -0.1057  0.2843 -0.2734
 8227SOL    HW136143   1.116   3.897  10.865  0.1045 -2.2244  0.4486
 8227SOL    HW236144   1.155   3.907  10.723  0.3504 -0.1212 -0.5771
 8228SOL     OW36145   4.226   4.694   4.158 -0.2858  0.8165 -0.0554
 8228SOL    HW136146   4.229   4.620   4.097 -1.7979  0.9426 -0.2936
 8228SOL    HW236147   4.316   0.004   4.147 -0.6393  0.8973 -2.9883
 8229SOL     OW36148   0.138   0.303  13.909 -0.1272  0.3775  0.1431
 8229SOL    HW136149   0.094   0.386  13.929 -2.4505 -0.6030 -0.8631
 8229SOL    HW236150   0.059   0.252  13.930  0.0697 -0.5478 -1.3202
 8230SOL     OW36151   3.208   2.419  12.417 -0.6057  0.0713  0.1937
 8230SOL    HW136152   3.212   2.453  12.327  2.3182  1.3708  0.7968
 8230SOL    HW236153   3.119   2.386  12.414  0.4240 -2.6237 -0.3166
 8231SOL     OW36154   4.009   2.377   3.484  0.6212 -0.2819  1.3332
 8231SOL    HW136155   3.952   2.404   3.412  2.0218 -1.1846 -0.1429
 8231SOL    HW236156   3.953   2.305   3.512  0.0638 -0.2391  0.3359
 8232SOL     OW36157   2.450   2.348   7.058 -0.1913 -0.0777  0.4141
 8232SOL    HW136158   2.362   2.310   7.059  1.0413 -2.9495 -0.4951
 8232SOL    HW236159   2.443   2.388   7.145 -1.2743  2.1101 -0.7020
 8233SOL     OW36160   0.070   0.354  11.296  0.2037 -0.1463 -0.2936
 8233SOL    HW136161   0.012   0.355  11.219  1.4645 -2.2760 -1.2879
 8233SOL    HW236162   0.012   0.382  11.366  1.8560  1.3757  0.4722
 8234SOL     OW36163   0.662   4.686   5.206 -0.8057  0.5242 -0.2635
 8234SOL    HW136164   0.628   0.040   5.256  3.0865  2.5901 -0.6940
 8234SOL    HW236165   0.607   4.692   5.128 -3.1933 -0.8304  1.3326
 8235SOL     OW36166   2.489   2.112  15.031  0.3231  0.1417  0.0480
 8235SOL    HW136167   2.463   2.162  14.954  1.0720 -1.3277 -1.1764
 8235SOL    HW236168   2.410   2.133  15.080  2.5369  0.5624  3.4208
 8236SOL     OW36169   4.127   0.089   4.432  0.1023  0.0447 -0.0856
 8236SOL    HW136170   4.176   0.016   4.470  0.8856  2.3757  3.3348
 8236SOL    HW236171   4.148   0.074   4.340 -2.1665 -3.0033 -0.1105
 8237SOL     OW36172   1.314   0.264   3.962  0.3650 -0.3515  0.1618
 8237SOL    HW136173   1.363   0.324   4.019  2.1205 -1.2007 -0.4443
 8237SOL    HW236174   1.253   0.323   3.919  2.3263  1.2344 -0.4014
 8238SOL     OW36175   1.227   0.053  11.680  0.0977 -0.4147  0.3973
 8238SOL    HW136176   1.189   0.043  11.767 -1.3658  2.3865  0.0781
 8238SOL    HW236177   1.300   0.113  11.699 -0.9759  1.0638 -0.1375
 8239SOL     OW36178   2.242   3.792  12.102 -0.1024 -0.0514  0.7373
 8239SOL    HW136179   2.294   3.721  12.141 -0.4448 -0.1565  0.9962
 8239SOL    HW236180   2.186   3.751  12.037 -0.9334 -2.4594  2.9615
 8240SOL     OW36181   0.690   2.499   9.471  0.9680 -0.3799  0.5848
 8240SOL    HW136182   0.636   2.420   9.477  1.5593 -0.8987 -0.8870
 8240SOL    HW236183   0.771   2.472   9.427  0.3388  0.7085 -1.2334
 8241SOL     OW36184   3.757   0.573   2.559 -0.3460  0.0230 -0.5052
 8241SOL    HW136185   3.692   0.516   2.518 -0.0830 -0.8616  0.3196
 8241SOL    HW236186   3.837   0.553   2.510  0.2302 -2.5721  1.4843
 8242SOL     OW36187   1.682   0.487   3.313  0.2886  0.1283  0.3962
 8242SOL    HW136188   1.770   0.523   3.325  0.1197  0.8742 -0.5664
 8242SOL    HW236189   1.626   0.553   3.273 -0.1793 -0.3003  0.3368
 8243SOL     OW36190   1.285   2.928  11.234  0.0044  0.1166 -0.1788
 8243SOL    HW136191   1.253   2.996  11.174  2.1590 -0.3899 -1.8931
 8243SOL    HW236192   1.332   2.872  11.172 -0.6225  1.0403 -1.4854
 8244SOL     OW36193   0.881   4.100  17.537 -0.1669 -0.0140  0.0518
 8244SOL    HW136194   0.854   4.018  17.580  0.3320  0.8402  1.9527
 8244SOL    HW236195   0.797   4.129  17.501 -0.0041 -2.1370 -2.1014
 8245SOL     OW36196   4.571   2.975   2.754  0.4396  0.3700  0.2399
 8245SOL    HW136197   4.639   3.038   2.731  1.3597 -1.5580 -2.2814
 8245SOL    HW236198   4.606   2.892   2.724  2.2700  1.3862 -0.3998
 8246SOL     OW36199   1.653   1.983  11.005  0.1036  0.5024  0.1528
 8246SOL    HW136200   1.667   1.993  11.099  1.9142 -0.2190 -0.0462
 8246SOL    HW236201   1.557   1.983  11.006  0.0790  0.3660 -1.5761
 8247SOL     OW36202   4.150   0.198   0.021  0.0256 -1.2735  0.3191
 8247SOL    HW136203   4.171   0.176  17.612  1.1118 -0.0229  0.2592
 8247SOL    HW236204   4.197   0.130   0.068  1.1753 -1.5514 -1.2085
 8248SOL     OW36205   0.872   2.591  10.664 -0.0725 -0.4307  0.5150
 8248SOL    HW136206   0.805   2.538  10.621 -0.3849  0.7633 -0.4746
 8248SOL    HW236207   0.927   2.612  10.587 -1.2423 -1.9214 -0.7267
 8249SOL     OW36208   1.946   3.825   5.392 -0.0835 -0.0447  0.3873
 8249SOL    HW136209   2.005   3.876   5.337  0.5855 -1.9028 -0.5982
 8249SOL    HW236210   1.915   3.885   5.460  1.7054  1.3076  0.0100
 8250SOL     OW36211   4.040   3.996  12.165  0.0998 -0.1673  0.5742
 8250SOL    HW136212   4.054   3.952  12.249  0.6208 -2.0992 -0.5438
 8250SOL    HW236213   4.057   3.924  12.105 -0.5775  0.1688 -0.0151
 8251SOL     OW36214   1.400   2.531  10.256  0.3910  0.2642 -0.6186
 8251SOL    HW136215   1.451   2.467  10.206  0.8792  0.2533 -0.1130
 8251SOL    HW236216   1.462   2.545  10.328  0.8930 -2.4378 -0.5425
 8252SOL     OW36217   0.744   2.435  15.384 -0.0941  0.1439 -0.1907
 8252SOL    HW136218   0.802   2.455  15.458 -0.9808  0.0412  0.5341
 8252SOL    HW236219   0.716   2.346  15.403  1.2978 -0.2539  0.0240
 8253SOL     OW36220   3.581   2.448   8.204  0.3333  0.0376 -0.3194
 8253SOL    HW136221   3.526   2.442   8.125 -1.0329  4.6213  0.2657
 8253SOL    HW236222   3.558   2.369   8.253  4.5424  0.8216  2.8812
 8254SOL     OW36223   4.486   1.296  13.852 -0.3799 -0.3682  0.0045
 8254SOL    HW136224   4.457   1.232  13.917  1.1340  1.4356  2.4344
 8254SOL    HW236225   4.574   1.310  13.886 -0.7541 -2.8017  1.9928
 8255SOL     OW36226   0.065   0.682  12.662  0.1884 -0.0108 -0.3638
 8255SOL    HW136227   0.016   0.605  12.690  0.3923 -0.4406 -1.2041
 8255SOL    HW236228   0.087   0.660  12.572  0.6347 -1.4735  0.1059
 8256SOL     OW36229   2.712   0.302   4.367  0.9374 -0.0400 -0.6576
 8256SOL    HW136230   2.733   0.209   4.371 -0.3946 -0.4957 -3.4104
 8256SOL    HW236231   2.641   0.294   4.302  2.6357  0.7308 -2.6204
 8257SOL     OW36232   1.599   2.973  15.607  0.2562  1.2396 -0.7061
 8257SOL    HW136233   1.656   3.040  15.644  0.6219  1.8592 -2.3710
 8257SOL    HW236234   1.623   2.897  15.660 -0.1657  1.7538  0.2097
 8258SOL     OW36235   2.113   4.059   2.660  0.0927 -0.4518 -0.3429
 8258SOL    HW136236   2.076   4.146   2.643  0.3062 -0.2121  0.4189
 8258SOL    HW236237   2.202   4.064   2.626  0.5887  1.6820  1.2895
 8259SOL     OW36238   3.754   0.914   3.132 -0.4142 -0.1566  0.0211
 8259SOL    HW136239   3.690   0.912   3.060 -0.3494  0.2000 -0.0447
 8259SOL    HW236240   3.831   0.876   3.090 -1.7971 -2.6112 -0.2672
 8260SOL     OW36241   1.909   4.606   3.070  0.1618 -0.0202 -0.3857
 8260SOL    HW136242   1.977   4.615   3.138 -2.0737 -1.4887  2.0561
 8260SOL    HW236243   1.948   4.547   3.005 -1.7076 -1.9741  0.2710
 8261SOL     OW36244   4.090   2.292   1.890  0.0384 -0.3229 -0.1582
 8261SOL    HW136245   4.041   2.303   1.972 -1.4867  1.2288 -1.2892
 8261SOL    HW236246   4.168   2.343   1.914  0.8963 -0.7357 -2.1138
 8262SOL     OW36247   4.339   2.369  10.572  0.0597  0.0120  0.3559
 8262SOL    HW136248   4.374   2.427  10.640  1.7395  1.2758 -1.5706
 8262SOL    HW236249   4.344   2.415  10.488  2.2592 -2.0858 -0.6482
 8263SOL     OW36250   1.681   0.539   6.721  0.0624 -0.5229 -0.2509
 8263SOL    HW136251   1.647   0.524   6.810  1.7706 -3.4461 -0.1025
 8263SOL    HW236252   1.706   0.450   6.695  2.7190 -0.5674  2.4319
 8264SOL     OW36253   1.522   1.684   2.371 -0.3015  0.1671 -0.2269
 8264SOL    HW136254   1.565   1.638   2.444  1.0629  0.0073 -1.1338
 8264SOL    HW236255   1.497   1.766   2.414  2.6724  0.8242  0.2585
 8265SOL     OW36256   2.295   3.820   4.121 -0.0827 -0.1225  0.6257
 8265SOL    HW136257   2.255   3.879   4.186  1.1292  1.7347 -0.3034
 8265SOL    HW236258   2.234   3.832   4.049  1.0160 -1.0344 -0.4485
 8266SOL     OW36259   4.718   3.868  17.633 -0.5678 -0.2794  0.2114
 8266SOL    HW136260   0.040   3.784  17.613  3.0553  1.3515  0.8620
 8266SOL    HW236261   4.710   3.865   0.045  0.0496 -0.4677  0.2612
 8267SOL     OW36262   4.202   4.562  16.366  0.4429  0.0273 -0.2752
 8267SOL    HW136263   4.152   4.626  16.315  1.9870  2.4139  1.2096
 8267SOL    HW236264   4.128   4.557  16.426 -0.0473  0.2697 -0.8544
 8268SOL     OW36265   0.203   3.479   5.026  0.5665 -0.2877 -0.0631
 8268SOL    HW136266   0.136   3.515   4.967 -0.6712  0.8323  2.0582
 8268SOL    HW236267   0.166   3.485   5.113  0.6908 -1.5914  0.0849
 8269SOL     OW36268   0.467   0.526  11.266  0.1488 -0.3189  0.1444
 8269SOL    HW136269   0.530   0.589  11.232  0.7343 -0.8718  0.2099
 8269SOL    HW236270   0.501   0.457  11.209 -0.6691  0.7071 -1.6036
 8270SOL     OW36271   0.006   1.585   0.683  0.1004 -0.7741  0.1710
 8270SOL    HW136272   0.041   1.660   0.634 -0.2060 -2.1454 -2.1347
 8270SOL    HW236273   4.655   1.621   0.736  0.5022  1.1847 -0.6074
 8271SOL     OW36274   0.148   4.471   4.015  0.4783 -0.6081 -0.2739
 8271SOL    HW136275   0.147   4.455   4.109  0.4139  0.5458 -0.0849
 8271SOL    HW236276   0.054   4.486   4.015  0.9006  2.0060  0.6754
 8272SOL     OW36277   1.909   1.156   6.133  0.3510 -0.1129  0.5122
 8272SOL    HW136278   1.835   1.152   6.194 -0.2619  0.8024 -0.1843
 8272SOL    HW236279   1.986   1.170   6.188 -0.1531  0.8249  0.9710
 8273SOL     OW36280   2.071   3.667   4.987 -0.0714  0.2070  0.2920
 8273SOL    HW136281   2.068   3.756   5.022 -1.5842  0.3246 -0.1275
 8273SOL    HW236282   2.161   3.648   5.013  0.1925 -0.1175 -0.8915
 8274SOL     OW36283   0.691   2.973  10.064 -0.4346  0.2234 -0.0339
 8274SOL    HW136284   0.770   3.002  10.111  1.1264 -0.5695 -2.1811
 8274SOL    HW236285   0.715   2.970   9.971 -1.1539  0.5985 -0.2311
 8275SOL     OW36286   0.162   4.526   3.191 -0.2230  0.2652 -0.2287
 8275SOL    HW136287   0.237   4.567   3.147 -0.6610  0.6275 -0.6328
 8275SOL    HW236288   0.170   4.565   3.278 -1.9209  0.1779 -0.0407
 8276SOL     OW36289   1.686   4.550   5.478 -0.0701 -0.4318  0.2677
 8276SOL    HW136290   1.684   4.534   5.384  1.5844 -0.3865  0.2250
 8276SOL    HW236291   1.603   4.593   5.497  0.4610  1.7415 -2.3938
 8277SOL     OW36292   4.397   2.663  13.926 -0.0480  0.4115 -0.5161
 8277SOL    HW136293   4.455   2.739  13.939  0.2498  0.2348 -0.8107
 8277SOL    HW236294   4.319   2.698  13.883 -1.5120 -2.5539 -0.2287
 8278SOL     OW36295   3.143   0.459   7.487  0.3354  0.0935 -0.1164
 8278SOL    HW136296   3.048   0.456   7.486  0.2993  0.8223  1.4211
 8278SOL    HW236297   3.178   0.435   7.572 -1.0616 -0.7993  0.2058
 8279SOL     OW36298   3.119   0.703   7.771 -0.3523 -0.0917  0.5457
 8279SOL    HW136299   3.064   0.781   7.760 -0.4210 -0.0501  1.1836
 8279SOL    HW236300   3.086   0.659   7.850  0.5758 -1.3021  0.2586
 8280SOL     OW36301   1.945   3.703   7.703  0.3170  0.8835 -0.1213
 8280SOL    HW136302   1.938   3.633   7.767 -1.0486  1.5366  0.4399
 8280SOL    HW236303   1.909   3.777   7.753 -3.7009 -0.3449 -1.1763
 8281SOL     OW36304   2.700   1.733   3.723  0.7316 -0.4129 -0.0976
 8281SOL    HW136305   2.701   1.792   3.648 -0.5461 -2.1754 -1.5070
 8281SOL    HW236306   2.751   1.660   3.688  0.9879 -1.1455  1.8288
 8282SOL     OW36307   1.508   0.863   1.275 -0.2511 -0.2447  0.0481
 8282SOL    HW136308   1.414   0.871   1.257 -0.0670 -0.5561 -1.0536
 8282SOL    HW236309   1.535   0.955   1.285  0.5359 -0.5454  0.6577
 8283SOL     OW36310   2.497   1.662   8.504 -0.6392  0.6282 -0.1843
 8283SOL    HW136311   2.587   1.686   8.480  0.0847 -2.7334 -0.8771
 8283SOL    HW236312   2.471   1.617   8.423  0.2014 -2.0940  1.0465
 8284SOL     OW36313   0.326   0.421   5.133 -0.6963 -0.1456 -0.1070
 8284SOL    HW136314   0.305   0.330   5.152  2.2141 -0.5081  1.3214
 8284SOL    HW236315   0.328   0.418   5.037 -2.6817 -0.0913 -0.1456
 8285SOL     OW36316   0.246   3.929   6.522 -0.6399 -0.4474  0.4753
 8285SOL    HW136317   0.307   4.001   6.539 -0.5948 -0.6804  1.3043
 8285SOL    HW236318   0.166   3.975   6.547 -0.9163 -1.6575  1.7997
 8286SOL     OW36319   3.024   2.321   1.167 -0.0954  0.2581  0.1461
 8286SOL    HW136320   3.091   2.387   1.185  1.6457 -1.7545  0.9959
 8286SOL    HW236321   2.942   2.361   1.138 -0.1141  0.3618  0.3385
 8287SOL     OW36322   4.396   2.229   3.685  0.6140 -0.1678 -0.3952
 8287SOL    HW136323   4.340   2.173   3.631  0.3499  2.6911 -3.0797
 8287SOL    HW236324   4.485   2.216   3.653  1.1248 -1.1153  1.3973
 8288SOL     OW36325   1.293   1.648   3.121 -0.0351 -0.0635  0.3687
 8288SOL    HW136326   1.262   1.562   3.151 -0.1233  0.0894  0.7201
 8288SOL    HW236327   1.220   1.707   3.136 -1.4110 -1.2926 -1.5951
 8289SOL     OW36328   2.806   4.689  17.347  0.0590 -0.0811 -0.2421
 8289SOL    HW136329   2.751   0.015  17.411  1.1199  0.1812  0.4677
 8289SOL    HW236330   2.736   4.646  17.298 -0.3525 -2.1268  2.1161
 8290SOL     OW36331   1.565   2.696   9.377  0.5044 -0.1519 -0.8348
 8290SOL    HW136332   1.558   2.671   9.284 -0.5468  1.1972 -1.1111
 8290SOL    HW236333   1.621   2.628   9.414 -0.6468 -0.9115 -0.4913
 8291SOL     OW36334   1.784   3.149  14.497  0.0100 -0.1547 -0.5143
 8291SOL    HW136335   1.807   3.129  14.407 -0.1241  0.1138 -0.6094
 8291SOL    HW236336   1.689   3.151  14.485 -0.0722 -1.5570 -0.1344
 8292SOL     OW36337   4.248   4.051  12.854 -0.2901  0.2895  0.8281
 8292SOL    HW136338   4.190   4.030  12.928 -0.7368  1.1929  0.7392
 8292SOL    HW236339   4.257   4.145  12.866 -1.2887  0.3922  0.7961
 8293SOL     OW36340   2.272   3.579   3.777  0.0078  0.1353 -0.7042
 8293SOL    HW136341   2.292   3.528   3.855 -0.7974  0.4522 -0.2923
 8293SOL    HW236342   2.237   3.653   3.826 -1.4455 -0.6883 -0.5049
 8294SOL     OW36343   2.127   4.256  13.701 -0.0546  0.2148  0.1963
 8294SOL    HW136344   2.188   4.306  13.755  1.7265 -2.5011  0.7118
 8294SOL    HW236345   2.040   4.288  13.723  1.0947  4.2506 -0.9728
 8295SOL     OW36346   0.305   2.882   5.873  0.4509  0.5179 -0.6033
 8295SOL    HW136347   0.240   2.908   5.808  0.0946  0.9875 -0.0554
 8295SOL    HW236348   0.279   2.902   5.963 -0.7802 -1.3991 -0.5408
 8296SOL     OW36349   3.831   3.958   8.071 -0.3397 -0.8248  0.5987
 8296SOL    HW136350   3.746   3.918   8.050 -1.9275  1.5253  2.4665
 8296SOL    HW236351   3.861   3.911   8.148  0.7187  1.2122  1.4267
 8297SOL     OW36352   1.145   3.746   7.965  0.1033 -0.1686 -0.0944
 8297SOL    HW136353   1.193   3.663   7.969  1.1187  0.4752  1.3520
 8297SOL    HW236354   1.105   3.753   8.052  1.4254 -0.4838  0.5427
 8298SOL     OW36355   2.500   3.005  17.107  0.7610 -0.1552  0.1723
 8298SOL    HW136356   2.442   2.996  17.031 -2.7952  0.3088  2.8623
 8298SOL    HW236357   2.532   3.095  17.098 -0.9831  0.5975  1.6867
 8299SOL     OW36358   2.052   3.403   9.610  0.1906  0.5982  0.1490
 8299SOL    HW136359   2.052   3.499   9.618 -0.8724  0.4848  1.6814
 8299SOL    HW236360   1.965   3.393   9.573 -0.1636  1.2106  0.8069
 8300SOL     OW36361   1.597   4.672  10.230  0.7742  0.7892  0.3669
 8300SOL    HW136362   1.547   4.595  10.201  1.6230  1.4923 -2.9662
 8300SOL    HW236363   1.536   4.710  10.293 -1.5757  0.5268 -1.7033
 8301SOL     OW36364   2.941   1.246  11.493 -0.2521  0.2585  0.5367
 8301SOL    HW136365   2.857   1.234  11.448 -0.0805  0.9005  0.0385
 8301SOL    HW236366   2.974   1.157  11.487 -0.6220  0.1257  0.4506
 8302SOL     OW36367   0.690   1.794   2.881  0.0173  0.5743  0.1514
 8302SOL    HW136368   0.761   1.817   2.941 -0.0892  0.7276  0.2176
 8302SOL    HW236369   0.649   1.879   2.863  1.6342  1.3794  0.2017
 8303SOL     OW36370   3.060   1.516   3.484 -0.3119  0.4689 -0.0211
 8303SOL    HW136371   2.967   1.499   3.498  0.2539 -0.7716  2.1509
 8303SOL    HW236372   3.060   1.601   3.438 -1.4002  1.4562  1.8165
 8304SOL     OW36373   1.410   3.682   3.055  0.4064  0.6396 -0.1167
 8304SOL    HW136374   1.410   3.710   2.964 -0.5370 -3.1384 -1.2734
 8304SOL    HW236375   1.352   3.746   3.097  0.7382  1.1098 -0.3750
 8305SOL     OW36376   2.293   3.001   2.081  0.4449  0.1121 -0.3862
 8305SOL    HW136377   2.282   3.084   2.036 -0.5474  0.1555 -0.0792
 8305SOL    HW236378   2.217   2.952   2.048 -0.3981  0.9131  0.3563
 8306SOL     OW36379   0.300   1.538  15.110 -0.6846  0.2355 -0.4460
 8306SOL    HW136380   0.353   1.519  15.033  0.3596  1.0227  0.0871
 8306SOL    HW236381   0.305   1.447  15.139 -0.3028  1.2771  2.7888
 8307SOL     OW36382   0.540   0.875   2.036 -0.1801  0.1430  0.4198
 8307SOL    HW136383   0.598   0.871   2.112  0.3418  1.4745  0.0975
 8307SOL    HW236384   0.570   0.801   1.984  2.5481  0.7041  1.1857
 8308SOL     OW36385   4.411   3.746   4.328 -0.2235  0.0979 -0.2014
 8308SOL    HW136386   4.350   3.793   4.386  2.2745  1.6966  1.1635
 8308SOL    HW236387   4.397   3.805   4.254 -1.1486 -0.3678 -0.3934
 8309SOL     OW36388   2.920   2.040   4.428 -0.1990 -0.2441 -0.0853
 8309SOL    HW136389   2.882   2.128   4.427  1.0312  0.2825  0.3477
 8309SOL    HW236390   2.960   2.045   4.515  0.4812  0.1953 -0.4221
 8310SOL     OW36391   3.988   0.771   4.926 -0.1776 -0.0349 -0.0252
 8310SOL    HW136392   4.009   0.767   5.019 -2.4522  1.2942  0.5464
 8310SOL    HW236393   3.896   0.796   4.934 -0.2217 -0.8516  1.9335
 8311SOL     OW36394   4.546   0.008   5.328 -0.2189 -0.0381  0.3058
 8311SOL    HW136395   4.536   0.026   5.421  2.8922 -0.2683  0.6862
 8311SOL    HW236396   4.465   4.683   5.301  0.6049 -0.8315 -0.8458
 8312SOL     OW36397   3.493   2.260   6.638  0.2747  0.2001 -0.3551
 8312SOL    HW136398   3.399   2.242   6.631  0.1043  0.3834  1.4963
 8312SOL    HW236399   3.507   2.334   6.579  1.6641 -0.8938 -1.4084
 8313SOL     OW36400   2.459   3.073   4.926 -0.0986  0.1376  0.5921
 8313SOL    HW136401   2.431   3.142   4.987 -1.2423  1.0762 -1.0152
 8313SOL    HW236402   2.524   3.035   4.985  0.5088  0.6887  0.2803
 8314SOL     OW36403   2.185   0.327   2.261  0.2611 -0.1186 -0.1010
 8314SOL    HW136404   2.122   0.378   2.211 -0.5130 -2.6226 -1.6640
 8314SOL    HW236405   2.267   0.377   2.259  0.2444 -0.0910 -0.0953
 8315SOL     OW36406   2.169   0.238   7.074 -0.1898  0.2165  0.2534
 8315SOL    HW136407   2.235   0.173   7.048 -0.2482  0.0243  0.5778
 8315SOL    HW236408   2.225   0.310   7.102  1.5682 -1.2453  0.5584
 8316SOL     OW36409   3.137   3.607   1.848  0.1530 -0.1464 -0.1959
 8316SOL    HW136410   3.159   3.678   1.788 -2.2349  1.1086  0.3978
 8316SOL    HW236411   3.158   3.647   1.933 -2.1466 -2.1326  1.2901
 8317SOL     OW36412   2.100   2.645   3.896  0.4079 -0.1639  0.3926
 8317SOL    HW136413   2.120   2.551   3.901  0.4655 -0.2342 -1.1806
 8317SOL    HW236414   2.042   2.648   3.973 -0.6453  0.2631 -0.4164
 8318SOL     OW36415   1.486   2.684  15.805 -0.3810 -0.7529  0.0144
 8318SOL    HW136416   1.556   2.722  15.859  2.4256 -2.9918 -2.0364
 8318SOL    HW236417   1.532   2.661  15.724 -1.4004 -0.8178 -0.5386
 8319SOL     OW36418   2.090   0.459   8.388 -0.1767 -0.7967 -0.1262
 8319SOL    HW136419   2.120   0.474   8.298  0.3043  3.3047  0.7268
 8319SOL    HW236420   2.145   0.525   8.430 -1.2840 -0.1824  0.3588
 8320SOL     OW36421   0.178   4.120  17.347 -0.1270 -0.7478 -0.1329
 8320SOL    HW136422   0.220   4.086  17.268  0.7522  0.4623 -0.1778
 8320SOL    HW236423   0.116   4.179  17.304  1.5220  1.8027  1.0455
 8321SOL     OW36424   3.999   4.626   7.780 -0.6262 -0.0604 -0.2895
 8321SOL    HW136425   4.052   4.550   7.756 -1.5030 -0.7535 -0.0400
 8321SOL    HW236426   4.070   4.690   7.781  0.1862 -0.9430 -1.7089
 8322SOL     OW36427   3.580   3.247  13.781 -0.5776 -0.5415  0.0048
 8322SOL    HW136428   3.673   3.228  13.770 -0.0647  2.6049 -1.0708
 8322SOL    HW236429   3.576   3.262  13.876 -1.4479  0.2579 -0.1548
 8323SOL     OW36430   0.782   2.886   6.674  0.7541 -0.5302  0.3020
 8323SOL    HW136431   0.806   2.964   6.623  1.0560 -1.5436 -1.0978
 8323SOL    HW236432   0.838   2.827   6.623  0.5364 -1.7844  1.5134
 8324SOL     OW36433   2.138   3.437   7.682 -0.4993 -0.3236 -0.3819
 8324SOL    HW136434   2.082   3.459   7.607  0.4334  0.2939 -0.9013
 8324SOL    HW236435   2.080   3.377   7.728 -0.5788  0.6202  0.7476
 8325SOL     OW36436   1.369   3.378   2.571 -1.4610  0.0923  0.2016
 8325SOL    HW136437   1.416   3.451   2.610 -1.4055 -0.3271  0.9248
 8325SOL    HW236438   1.434   3.346   2.509 -0.0260  1.0801  1.2216
 8326SOL     OW36439   1.682   3.291   8.050 -0.2643  0.4486  0.5128
 8326SOL    HW136440   1.744   3.218   8.055 -2.0093 -1.0692  0.2464
 8326SOL    HW236441   1.688   3.330   8.137  0.3027  0.4985  0.4504
 8327SOL     OW36442   1.982   2.197   1.815 -0.7846  0.3661  0.5343
 8327SOL    HW136443   2.016   2.175   1.729  2.6263  0.0353  1.9512
 8327SOL    HW236444   1.895   2.159   1.801 -0.8347 -0.2372  2.4095
 8328SOL     OW36445   3.193   0.829   6.399 -0.1823  0.0195  0.1670
 8328SOL    HW136446   3.261   0.782   6.351  1.2235  0.5896  1.6198
 8328SOL    HW236447   3.116   0.773   6.386 -0.0890  0.2404 -1.3786
 8329SOL     OW36448   3.686   2.581   3.509  0.3229 -0.7827  0.0576
 8329SOL    HW136449   3.732   2.623   3.436  0.3430 -0.5477  0.2085
 8329SOL    HW236450   3.599   2.617   3.489 -0.4810 -0.8205  3.5633
 8330SOL     OW36451   3.448   4.360  12.736  0.0280  0.5088 -0.6818
 8330SOL    HW136452   3.396   4.284  12.709  0.8212  0.3238 -1.6787
 8330SOL    HW236453   3.538   4.331  12.721 -0.6385 -1.6269 -0.5734
 8331SOL     OW36454   1.492   4.085   8.750 -0.6599 -0.0303  0.1586
 8331SOL    HW136455   1.511   4.145   8.678  1.0271 -3.0568 -1.9011
 8331SOL    HW236456   1.569   4.028   8.740 -0.2291  0.6472 -0.4090
 8332SOL     OW36457   4.169   1.065   7.976 -0.0683  0.0420  0.5101
 8332SOL    HW136458   4.255   1.024   7.963  0.9760  1.9727  1.1593
 8332SOL    HW236459   4.139   1.080   7.886 -0.9139 -0.9358  0.6381
 8333SOL     OW36460   4.279   0.410   7.678  0.5464  0.3337 -0.9422
 8333SOL    HW136461   4.195   0.434   7.640 -0.0323 -1.5230 -0.8543
 8333SOL    HW236462   4.302   0.333   7.624  1.8681 -0.4794  0.7762
 8334SOL     OW36463   2.499   1.750  13.986  0.0926 -0.2516 -0.3389
 8334SOL    HW136464   2.548   1.726  14.065 -1.3319  0.2386  0.7049
 8334SOL    HW236465   2.568   1.806  13.951 -0.8289  0.8604 -0.3773
 8335SOL     OW36466   1.243   3.418   4.389  0.3204  0.1616  0.0234
 8335SOL    HW136467   1.240   3.513   4.381 -0.8777  0.1095 -0.1568
 8335SOL    HW236468   1.337   3.403   4.397  0.1521 -0.9020 -0.0012
 8336SOL     OW36469   1.136   3.860   6.174 -0.0868 -0.1249 -0.1623
 8336SOL    HW136470   1.176   3.824   6.254  1.6541 -2.7827 -2.2688
 8336SOL    HW236471   1.174   3.801   6.110  2.8510  1.2092  0.3372
 8337SOL     OW36472   0.141   2.892  15.647 -0.2837 -0.2536  0.2001
 8337SOL    HW136473   0.117   2.802  15.668 -1.7670 -0.0363 -0.6155
 8337SOL    HW236474   0.082   2.903  15.573  2.9468 -1.0726 -2.4910
 8338SOL     OW36475   1.606   0.741   5.239  0.9251 -0.2246 -0.5356
 8338SOL    HW136476   1.616   0.764   5.331  0.2680  0.2540 -0.5884
 8338SOL    HW236477   1.578   0.818   5.190 -0.3558 -0.0717  0.4502
 8339SOL     OW36478   4.278   0.631  16.533  0.6712 -0.3968 -0.3176
 8339SOL    HW136479   4.260   0.617  16.440  1.3305  0.8816 -0.6272
 8339SOL    HW236480   4.342   0.701  16.523  0.6249 -0.3711 -0.4317
 8340SOL     OW36481   4.448   0.073  10.319 -1.1543 -0.8710  0.4388
 8340SOL    HW136482   4.429   0.095  10.228 -1.1469  0.1505  0.6776
 8340SOL    HW236483   4.510   0.002  10.308  1.1083  1.1817 -0.1168
 8341SOL     OW36484   0.975   2.169   9.613  0.5343 -0.0068  0.7011
 8341SOL    HW136485   0.913   2.161   9.540  2.1314 -1.9177 -0.4408
 8341SOL    HW236486   0.940   2.239   9.668 -1.3684  0.6956 -1.4159
 8342SOL     OW36487   3.702   0.386   5.656 -0.0663  0.7108  0.0434
 8342SOL    HW136488   3.630   0.450   5.651  1.2944  2.2758  0.6677
 8342SOL    HW236489   3.730   0.382   5.564  1.2093 -0.7257  0.5150
 8343SOL     OW36490   1.219   4.486   3.146 -0.4233  0.1828 -0.9590
 8343SOL    HW136491   1.260   4.572   3.136 -1.0371  0.6454  0.5384
 8343SOL    HW236492   1.277   4.439   3.206  0.6056  0.2447 -1.9012
 8344SOL     OW36493   4.667   0.793   8.379 -0.3002 -0.0386 -0.1046
 8344SOL    HW136494   4.576   0.783   8.406  0.5046  0.7747  2.9457
 8344SOL    HW236495   4.673   0.728   8.309 -2.6330 -0.5593  0.2016
 8345SOL     OW36496   3.570   4.664   7.162  0.0525  0.5139 -0.1436
 8345SOL    HW136497   3.614   4.594   7.210  1.7395  2.6866  1.4273
 8345SOL    HW236498   3.480   4.633   7.152 -0.2212  1.1384  0.3900
 8346SOL     OW36499   2.432   2.220  14.496 -0.0101  0.9320 -0.6295
 8346SOL    HW136500   2.378   2.232  14.574  0.3136  0.3664 -0.3213
 8346SOL    HW236501   2.485   2.147  14.527 -0.5169  1.5642  1.7436
 8347SOL     OW36502   2.183   2.382   2.709  0.0689  0.2687  0.5663
 8347SOL    HW136503   2.233   2.463   2.716 -0.5013  0.6114  0.6594
 8347SOL    HW236504   2.254   2.320   2.693  0.0202  0.2969  0.2437
 8348SOL     OW36505   2.498   4.624  11.957  0.4585  0.3032  0.2180
 8348SOL    HW136506   2.499   4.610  12.052 -1.0725  1.0130  0.3391
 8348SOL    HW236507   2.590   4.618  11.931  0.2541  1.4398 -0.7414
 8349SOL     OW36508   0.808   2.519  10.148 -0.2444 -0.2106  0.1096
 8349SOL    HW136509   0.874   2.485  10.087  0.0234  0.8367 -0.1780
 8349SOL    HW236510   0.791   2.441  10.202 -0.7384 -0.0423  0.1941
 8350SOL     OW36511   2.500   1.519   1.828  0.0908 -0.8825  0.4162
 8350SOL    HW136512   2.459   1.577   1.764  0.8700 -0.5044  0.2617
 8350SOL    HW236513   2.578   1.497   1.778  0.3768 -0.7180  0.7834
 8351SOL     OW36514   4.053   1.802   8.597 -0.2723 -0.3221  0.6521
 8351SOL    HW136515   4.009   1.745   8.660 -2.7529 -0.4028 -1.1381
 8351SOL    HW236516   4.022   1.775   8.511  0.1467  0.9417  0.0980
 8352SOL     OW36517   0.960   2.072   1.434 -0.1570 -0.0842 -0.1142
 8352SOL    HW136518   0.973   1.983   1.467 -1.4284  0.9480  3.1766
 8352SOL    HW236519   0.933   2.052   1.345  1.3514  1.7264 -0.9797
 8353SOL     OW36520   3.385   1.112   8.222 -0.1043  0.2607  0.5274
 8353SOL    HW136521   3.299   1.107   8.180  0.6304  0.1057 -0.9586
 8353SOL    HW236522   3.365   1.156   8.305 -1.5672 -1.2534  0.9763
 8354SOL     OW36523   4.289   4.135   4.812 -0.2777  0.4183  0.6476
 8354SOL    HW136524   4.329   4.144   4.725 -2.6392  1.9514 -0.2859
 8354SOL    HW236525   4.332   4.212   4.850  1.5109  0.7137 -1.9380
 8355SOL     OW36526   1.757   1.674   3.393  0.7312 -0.1268 -0.1863
 8355SOL    HW136527   1.767   1.708   3.481 -0.9227 -0.6781  0.2302
 8355SOL    HW236528   1.664   1.695   3.379  0.8923  1.0755  0.6247
 8356SOL     OW36529   2.670   2.691  14.810 -0.0531  0.1316 -0.2090
 8356SOL    HW136530   2.760   2.721  14.794  0.2114 -1.0866 -1.0795
 8356SOL    HW236531   2.652   2.726  14.897 -0.2640 -0.0189 -0.1927
 8357SOL     OW36532   1.853   0.597   3.709 -0.1193 -0.2298  0.1287
 8357SOL    HW136533   1.812   0.513   3.728  1.1454 -1.3283 -1.9874
 8357SOL    HW236534   1.908   0.612   3.786 -1.1115 -0.4500  0.8909
 8358SOL     OW36535   4.004   1.985  11.044  0.1173 -0.2041  0.1160
 8358SOL    HW136536   3.930   1.944  11.089  2.0326 -0.5460  2.9677
 8358SOL    HW236537   3.987   2.076  11.067  3.9790  0.9247 -1.6297
 8359SOL     OW36538   0.297   2.008  15.658 -0.3603 -0.0230  0.0583
 8359SOL    HW136539   0.235   1.959  15.605  0.2635  0.4648 -1.1512
 8359SOL    HW236540   0.306   1.948  15.732  0.0129 -0.1766 -0.1065
 8360SOL     OW36541   0.894   4.152  15.790  0.0068 -0.2306  0.1591
 8360SOL    HW136542   0.976   4.192  15.760 -0.6045  2.8559  2.6256
 8360SOL    HW236543   0.891   4.078  15.729  1.1366 -0.7227  0.7050
 8361SOL     OW36544   3.263   0.786   6.990  0.5227  0.1748 -0.4454
 8361SOL    HW136545   3.171   0.760   6.990 -0.2809  3.0133  0.9098
 8361SOL    HW236546   3.257   0.872   7.031 -2.1964 -1.0055  1.6264
 8362SOL     OW36547   1.145   1.735   8.541 -0.7268 -0.2860  0.2621
 8362SOL    HW136548   1.219   1.770   8.591 -0.5244  1.8848 -1.5278
 8362SOL    HW236549   1.089   1.730   8.619 -0.0228 -0.1106  0.7849
 8363SOL     OW36550   0.694   1.599  15.660  0.2370 -0.1922  0.2988
 8363SOL    HW136551   0.784   1.586  15.689 -1.3651 -0.6075  5.0665
 8363SOL    HW236552   0.693   1.692  15.684  1.4947 -0.3335  0.9083
 8364SOL     OW36553   4.215   1.268   6.358  0.4308  0.4348 -0.0376
 8364SOL    HW136554   4.223   1.187   6.409 -2.4369 -0.5406 -1.0954
 8364SOL    HW236555   4.295   1.272   6.305  1.1894  2.2922  1.2592
 8365SOL     OW36556   2.062   0.633   4.354  0.8692  0.5530  0.6346
 8365SOL    HW136557   2.021   0.712   4.389  0.9504  0.2790  1.3430
 8365SOL    HW236558   2.082   0.586   4.435  0.0998 -0.4319  0.2394
 8366SOL     OW36559   4.464   0.428  11.653  0.1034 -0.7620  0.1103
 8366SOL    HW136560   4.391   0.381  11.612  0.7538 -1.6197 -0.0610
 8366SOL    HW236561   4.515   0.452  11.576 -1.1134 -1.8226 -1.0455
 8367SOL     OW36562   4.206   4.334   9.621  0.5029 -0.1911  0.2042
 8367SOL    HW136563   4.193   4.240   9.635  1.2831 -0.2185  0.7667
 8367SOL    HW236564   4.301   4.330   9.609  0.3259 -2.0951 -0.5476
 8368SOL     OW36565   3.229   4.038   5.167  0.3159  0.1666 -0.3032
 8368SOL    HW136566   3.289   4.101   5.128  1.0235 -0.6538 -0.5373
 8368SOL    HW236567   3.294   3.968   5.166  1.0849  0.8734 -0.1807
 8369SOL     OW36568   0.580   1.303   2.502 -0.1283 -0.7273 -0.0170
 8369SOL    HW136569   0.485   1.313   2.514 -0.2277 -1.9204  0.1381
 8369SOL    HW236570   0.602   1.218   2.540  0.9551 -0.2076  0.5069
 8370SOL     OW36571   0.904   2.468   0.757 -0.0332  0.5214  0.6796
 8370SOL    HW136572   0.974   2.407   0.734 -0.0098  0.1213  1.8030
 8370SOL    HW236573   0.955   2.532   0.807 -2.3199  2.5351  0.4496
 8371SOL     OW36574   2.016   0.134   8.098  0.4864  0.4056 -0.0185
 8371SOL    HW136575   2.022   0.208   8.038  1.5142  0.7384  0.4785
 8371SOL    HW236576   1.935   0.095   8.067 -0.0573  2.2767 -0.9528
 8372SOL     OW36577   3.209   1.415  14.392 -0.4541 -0.0155 -0.2616
 8372SOL    HW136578   3.161   1.497  14.402 -1.6557 -0.6975 -0.3972
 8372SOL    HW236579   3.219   1.391  14.484 -2.2056 -1.3739 -0.4236
 8373SOL     OW36580   1.305   1.138   6.918  0.2359  0.0729  0.9091
 8373SOL    HW136581   1.269   1.052   6.942  0.8852 -0.4541  0.0083
 8373SOL    HW236582   1.296   1.187   6.999 -0.3018  2.9807 -0.8820
 8374SOL     OW36583   4.089   2.810   3.769  0.4348  0.2358 -0.2542
 8374SOL    HW136584   4.027   2.878   3.798  0.9279  0.7089 -0.3077
 8374SOL    HW236585   4.022   2.746   3.745 -1.0901  1.2733  1.1664
 8375SOL     OW36586   0.665   1.025   7.257  0.4042  0.0163  0.0079
 8375SOL    HW136587   0.727   0.975   7.310  1.5885 -1.9366 -3.2165
 8375SOL    HW236588   0.589   1.036   7.315  1.0402 -1.8728  1.2275
 8376SOL     OW36589   1.471   0.991   1.734  1.2519  0.1299 -0.3970
 8376SOL    HW136590   1.524   0.912   1.721  0.4915 -0.5783  0.8237
 8376SOL    HW236591   1.519   1.039   1.802  2.0254 -0.0017 -0.8410
 8377SOL     OW36592   3.087   0.896  12.409  0.3018  0.6024  0.0369
 8377SOL    HW136593   3.134   0.974  12.438  1.5798 -0.8217  1.7822
 8377SOL    HW236594   3.046   0.878  12.493 -0.6614 -1.9961 -0.9728
 8378SOL     OW36595   1.624   0.351   2.966 -0.5328  0.4644  0.4278
 8378SOL    HW136596   1.571   0.336   2.887  0.0356  0.5518  0.0308
 8378SOL    HW236597   1.696   0.399   2.926  1.7838 -1.0148  2.8374
 8379SOL     OW36598   2.626   1.618  14.894  0.7793 -0.1338  0.2639
 8379SOL    HW136599   2.612   1.703  14.938  0.7592  0.3876 -0.7579
 8379SOL    HW236600   2.721   1.613  14.886  0.7726  0.5285 -0.1859
 8380SOL     OW36601   2.668   0.376   8.907 -0.4985  0.5609 -0.5149
 8380SOL    HW136602   2.668   0.472   8.906 -0.4635  0.5809  1.1376
 8380SOL    HW236603   2.574   0.357   8.909 -0.2661 -0.6813 -1.2391
 8381SOL     OW36604   2.059   0.913   4.815 -0.0509 -0.1423  0.8735
 8381SOL    HW136605   1.971   0.938   4.845 -0.5529 -2.7516  1.5257
 8381SOL    HW236606   2.085   0.847   4.879  4.2695 -1.0232 -1.8095
 8382SOL     OW36607   0.979   1.170   5.817 -0.8074 -0.2067  0.0114
 8382SOL    HW136608   0.962   1.248   5.763 -1.0980 -0.3446 -0.0925
 8382SOL    HW236609   0.892   1.131   5.827 -1.4841  0.9820 -1.1392
 8383SOL     OW36610   3.352   0.876   9.670  0.3013  0.0866 -0.2524
 8383SOL    HW136611   3.271   0.825   9.678  0.4701 -0.4022 -1.6548
 8383SOL    HW236612   3.366   0.904   9.760 -0.0273 -0.3292 -0.0693
 8384SOL     OW36613   4.676   4.068   3.868  0.2592 -0.2570 -0.0893
 8384SOL    HW136614   4.665   4.079   3.774  0.0233 -0.7623 -0.1182
 8384SOL    HW236615   4.686   3.973   3.866 -0.9653 -0.4297  1.5155
 8385SOL     OW36616   1.167   1.420   1.998 -0.0145 -0.1481  0.1254
 8385SOL    HW136617   1.159   1.452   1.908  3.1375 -0.7934 -0.3948
 8385SOL    HW236618   1.255   1.453   2.019 -0.1597  0.8887 -0.8357
 8386SOL     OW36619   3.963   1.900  15.777  0.0860 -0.2574  0.2383
 8386SOL    HW136620   4.034   1.851  15.736  0.7697  1.5433 -0.7258
 8386SOL    HW236621   3.923   1.827  15.824 -0.8049  0.2374  0.2414
 8387SOL     OW36622   4.478   0.575   7.756  0.1889 -0.2398  0.2309
 8387SOL    HW136623   4.538   0.503   7.740 -0.3946 -0.4709 -0.9063
 8387SOL    HW236624   4.405   0.551   7.699 -0.6330  1.6385  0.4943
 8388SOL     OW36625   0.212   3.761   8.474 -0.6504  0.0021 -0.2195
 8388SOL    HW136626   0.254   3.789   8.392 -0.3865  0.9166  0.2291
 8388SOL    HW236627   0.206   3.666   8.461 -1.8186  0.1380 -0.6898
 8389SOL     OW36628   0.287   2.498   5.385  0.1684  0.2231  0.0066
 8389SOL    HW136629   0.300   2.555   5.309 -1.4965  1.3416  0.5580
 8389SOL    HW236630   0.200   2.517   5.420 -0.3744 -0.5697 -0.9070
 8390SOL     OW36631   3.543   0.535   1.786 -0.3335  0.3156  0.6062
 8390SOL    HW136632   3.544   0.624   1.751  1.9635 -0.4060 -1.1536
 8390SOL    HW236633   3.448   0.522   1.790 -0.0573 -2.5749 -1.7088
 8391SOL     OW36634   0.358   0.010   5.411  0.0470  0.0038  0.3054
 8391SOL    HW136635   0.396   0.074   5.472  0.5342 -0.1706  0.1847
 8391SOL    HW236636   0.280   4.718   5.464  0.9638 -2.2329  1.1401
 8392SOL     OW36637   2.386   0.535  12.969 -0.6298 -0.3229  0.0368
 8392SOL    HW136638   2.455   0.468  12.970  0.4300  0.7852  1.8656
 8392SOL    HW236639   2.312   0.506  13.021  0.3008 -0.6284  1.1860
 8393SOL     OW36640   2.841   0.509   7.245 -0.4117 -0.3742  0.1831
 8393SOL    HW136641   2.816   0.430   7.198 -1.2713 -0.0875  0.1606
 8393SOL    HW236642   2.776   0.576   7.221 -0.2768  0.6060  2.5902
 8394SOL     OW36643   2.952   0.344  12.186  0.0332  0.6259 -0.2493
 8394SOL    HW136644   2.916   0.256  12.181 -3.3069  1.9201  0.6856
 8394SOL    HW236645   2.923   0.366  12.275  0.9555 -0.2463  0.2682
 8395SOL     OW36646   2.884   4.274   6.371  0.1173 -0.7705 -0.1878
 8395SOL    HW136647   2.803   4.314   6.401 -1.8861 -1.9931 -4.0388
 8395SOL    HW236648   2.845   4.191   6.345  0.5004 -0.5032 -1.6093
 8396SOL     OW36649   1.553   3.638  15.605  0.3297 -0.1494  0.4127
 8396SOL    HW136650   1.553   3.546  15.581  0.8037  0.4043 -1.7386
 8396SOL    HW236651   1.646   3.661  15.599 -0.0121  1.1814  0.2174
 8397SOL     OW36652   4.535   3.044   3.979  0.0871  0.0811  0.0002
 8397SOL    HW136653   4.623   3.008   3.986 -0.4342 -0.8345  1.9444
 8397SOL    HW236654   4.486   2.990   4.042  0.3050 -2.4729 -2.0515
 8398SOL     OW36655   1.565   3.909   3.394  0.1558  0.0967 -0.3985
 8398SOL    HW136656   1.570   3.900   3.299  0.2979 -1.4422 -0.2466
 8398SOL    HW236657   1.499   3.978   3.400 -0.4251 -0.5135  0.1857
 8399SOL     OW36658   1.650   1.039   1.503  0.7448  0.3479  0.0755
 8399SOL    HW136659   1.733   1.022   1.459 -0.3733  0.7301 -2.1495
 8399SOL    HW236660   1.666   1.000   1.589  0.3873  2.6822  1.1890
 8400SOL     OW36661   1.283   1.351   3.669  0.5212 -0.6555  0.3739
 8400SOL    HW136662   1.235   1.344   3.752  1.5596  0.9232  1.1167
 8400SOL    HW236663   1.209   1.318   3.617  0.6986 -1.6816  0.7739
 8401SOL     OW36664   3.193   1.956   4.198  0.0639  0.3388  0.5976
 8401SOL    HW136665   3.175   2.045   4.170 -0.4469  0.0965  0.1674
 8401SOL    HW236666   3.157   1.907   4.125  1.9290 -2.2092  1.3522
 8402SOL     OW36667   0.865   1.337   2.028 -0.1511 -0.5517  0.4280
 8402SOL    HW136668   0.776   1.359   2.002  0.3769  1.1327  0.0402
 8402SOL    HW236669   0.912   1.384   1.959 -2.8681 -0.0943 -1.0860
 8403SOL     OW36670   0.692   2.429   8.428 -0.1195 -0.4567  0.3610
 8403SOL    HW136671   0.749   2.357   8.457 -1.7514 -1.3786  1.2726
 8403SOL    HW236672   0.733   2.488   8.365 -1.9862 -0.3183 -0.7216
 8404SOL     OW36673   4.332   1.812   7.235  0.0095  0.0141 -0.3632
 8404SOL    HW136674   4.377   1.873   7.177 -0.6864 -0.8147 -1.7968
 8404SOL    HW236675   4.297   1.869   7.304 -1.7304 -1.6050  0.0854
 8405SOL     OW36676   2.408   2.233   2.621  0.3751  0.2842  0.4998
 8405SOL    HW136677   2.450   2.178   2.555 -1.0999  0.3260 -0.4945
 8405SOL    HW236678   2.483   2.285   2.650 -0.0975 -0.3820  2.9127
 8406SOL     OW36679   0.313   4.412   9.860  0.2106  0.3991  0.1302
 8406SOL    HW136680   0.346   4.323   9.845 -0.5181  0.0784  0.3983
 8406SOL    HW236681   0.398   4.454   9.865  0.8595 -0.7855 -1.0663
 8407SOL     OW36682   0.594   1.010   4.829  0.9192  0.1253 -0.3337
 8407SOL    HW136683   0.627   0.931   4.872 -0.5307 -1.3385 -1.9113
 8407SOL    HW236684   0.523   0.960   4.788  0.3236  1.1367 -0.5413
 8408SOL     OW36685   0.772   4.640  10.366  0.3762  0.2577 -0.2359
 8408SOL    HW136686   0.863   4.642  10.398  0.7525  0.2502 -1.3233
 8408SOL    HW236687   0.732   4.618  10.450 -0.2471 -0.7406 -0.8002
 8409SOL     OW36688   2.748   2.330   1.038  1.0833 -0.2851 -0.4717
 8409SOL    HW136689   2.664   2.355   1.078  2.6508  2.4095  1.1049
 8409SOL    HW236690   2.716   2.240   1.032  2.6897 -1.0370  2.3890
 8410SOL     OW36691   0.510   3.728  14.602  0.2401 -0.3807  0.1625
 8410SOL    HW136692   0.448   3.800  14.590 -1.1273 -1.2128  2.3566
 8410SOL    HW236693   0.499   3.719  14.697  1.3714  1.1217  0.4523
 8411SOL     OW36694   4.269   0.836   5.054 -0.8174 -0.8705 -0.5580
 8411SOL    HW136695   4.252   0.854   5.147  0.9937  1.0814 -0.5989
 8411SOL    HW236696   4.352   0.790   5.054  0.0080  0.6283 -0.4248
 8412SOL     OW36697   2.253   3.399   2.908 -0.3436 -0.3587  0.1064
 8412SOL    HW136698   2.277   3.406   3.001 -0.4292 -0.1642  0.1129
 8412SOL    HW236699   2.329   3.357   2.867 -1.0314 -1.3973 -0.0986
 8413SOL     OW36700   0.636   0.193   1.927  0.7282  0.0796 -0.3263
 8413SOL    HW136701   0.665   0.276   1.889 -1.6227  0.6526 -0.8453
 8413SOL    HW236702   0.542   0.199   1.910  1.0520 -0.1341 -2.2710
 8414SOL     OW36703   4.229   3.739   3.078  0.3000 -0.6485  0.1805
 8414SOL    HW136704   4.210   3.757   3.170  0.4745 -1.8036  0.4432
 8414SOL    HW236705   4.142   3.717   3.045 -0.1233  0.3578  0.6319
 8415SOL     OW36706   3.023   0.572  13.328 -0.5629 -0.0291  0.2760
 8415SOL    HW136707   2.940   0.593  13.371 -0.3440  0.0378  0.6696
 8415SOL    HW236708   3.011   0.635  13.257 -1.7328  0.6079  1.0253
 8416SOL     OW36709   3.085   1.665   9.066  0.2348  0.3613  0.3502
 8416SOL    HW136710   3.087   1.714   8.984  0.0809  0.5645  0.4675
 8416SOL    HW236711   3.101   1.737   9.127  1.9467  0.3980 -0.1417
 8417SOL     OW36712   1.862   2.451  16.371  0.0858  0.1763 -0.2412
 8417SOL    HW136713   1.838   2.385  16.436 -0.0132 -0.6627 -1.1293
 8417SOL    HW236714   1.777   2.474  16.332  0.5511  0.6959 -0.9552
 8418SOL     OW36715   4.444   4.573   6.367 -0.2497  0.2564  0.5286
 8418SOL    HW136716   4.389   4.632   6.418  0.1734 -0.6379  2.0412
 8418SOL    HW236717   4.454   4.621   6.285 -0.2355  0.4835  0.6642
 8419SOL     OW36718   4.018   0.412   0.664  0.2026  0.0675  0.3860
 8419SOL    HW136719   3.930   0.427   0.697  0.5430 -2.2125  2.3483
 8419SOL    HW236720   4.013   0.409   0.568 -0.4873 -0.6276  0.4370
 8420SOL     OW36721   3.995   0.662   2.161 -0.3044  0.1466 -0.5454
 8420SOL    HW136722   3.955   0.576   2.166 -1.2758  0.6475  0.1438
 8420SOL    HW236723   3.932   0.717   2.114 -2.1781  0.3387  2.2413
 8421SOL     OW36724   1.637   2.219   2.092  0.2968 -0.4906 -0.6333
 8421SOL    HW136725   1.606   2.131   2.075 -0.0972 -0.6198  0.7419
 8421SOL    HW236726   1.552   2.260   2.106  0.7376  0.5063 -0.8740
 8422SOL     OW36727   3.061   3.582  16.761  0.0744 -0.1148  0.2129
 8422SOL    HW136728   3.081   3.627  16.678 -1.9470 -0.3494 -0.3846
 8422SOL    HW236729   3.097   3.493  16.754  1.0251  0.1118  2.2897
 8423SOL     OW36730   2.065   0.338   0.306  0.6754  0.0500  0.0851
 8423SOL    HW136731   2.065   0.265   0.369 -0.8617 -0.0786 -0.0669
 8423SOL    HW236732   2.084   0.286   0.228 -0.2616  0.2339 -0.2692
 8424SOL     OW36733   3.853   4.260   2.387  0.6784 -0.0276 -0.1498
 8424SOL    HW136734   3.814   4.318   2.322  0.1881  1.0602  1.1104
 8424SOL    HW236735   3.783   4.201   2.418 -0.3343  0.8796 -0.7111
 8425SOL     OW36736   3.939   2.215   6.000 -0.4321 -0.7635  0.5707
 8425SOL    HW136737   3.926   2.180   5.912  0.8094  2.2727 -0.8127
 8425SOL    HW236738   3.851   2.246   6.021 -0.8925 -1.1616 -0.7374
 8426SOL     OW36739   0.708   2.777  14.449  0.1227 -0.2157  0.2353
 8426SOL    HW136740   0.668   2.788  14.363  0.3382  0.0767  0.1689
 8426SOL    HW236741   0.701   2.863  14.491  0.9042  0.4633 -1.0127
 8427SOL     OW36742   1.831   0.148  11.402  0.2011 -0.7052 -0.0566
 8427SOL    HW136743   1.817   0.224  11.458  0.5777 -0.4868 -0.2552
 8427SOL    HW236744   1.849   0.179  11.313 -0.5398 -2.7477 -0.9180
 8428SOL     OW36745   0.625   3.939   7.810 -0.0688  0.0576 -0.9604
 8428SOL    HW136746   0.556   3.918   7.873  0.7509  0.8314  0.1995
 8428SOL    HW236747   0.647   3.854   7.774 -0.3139  0.1298 -1.2770
 8429SOL     OW36748   2.668   4.123   3.661 -0.0927 -0.2270  0.9943
 8429SOL    HW136749   2.609   4.061   3.703 -0.3970  0.6320  1.8218
 8429SOL    HW236750   2.659   4.195   3.724 -2.0557  0.7562 -0.4070
 8430SOL     OW36751   0.018   3.799   0.464 -0.2732 -0.3875  0.5262
 8430SOL    HW136752   0.105   3.761   0.450  0.0451  0.9695 -1.1583
 8430SOL    HW236753   4.675   3.728   0.478  1.0963 -1.8038 -0.3356
 8431SOL     OW36754   0.427   4.687   8.655 -0.3827 -0.3116  0.1007
 8431SOL    HW136755   0.353   4.634   8.627 -1.9264  1.9744 -0.2150
 8431SOL    HW236756   0.494   4.671   8.589 -1.4307  0.3202 -1.1261
 8432SOL     OW36757   3.636   3.463   2.301 -0.3884 -0.0210  0.1264
 8432SOL    HW136758   3.610   3.429   2.216  0.6418  0.3594 -0.3545
 8432SOL    HW236759   3.729   3.441   2.306 -0.7208 -1.5807 -0.6006
 8433SOL     OW36760   1.014   2.818   0.309 -0.3273 -0.1870 -0.1735
 8433SOL    HW136761   0.959   2.868   0.369  2.1097  1.3447  0.7696
 8433SOL    HW236762   1.099   2.862   0.310 -0.6307  0.4005 -0.4126
 8434SOL     OW36763   1.354   1.894   5.946  0.1824 -0.5868  0.3205
 8434SOL    HW136764   1.347   1.828   6.015  0.5102 -0.3434  0.5884
 8434SOL    HW236765   1.405   1.963   5.990 -0.1087 -0.6046  0.6838
 8435SOL     OW36766   1.636   4.659  13.562 -0.3169  0.5650  0.2970
 8435SOL    HW136767   1.655   0.019  13.611  1.1446  0.2702  0.2180
 8435SOL    HW236768   1.545   4.674  13.537 -1.0911 -1.9377  1.6253
 8436SOL     OW36769   2.719   1.225  12.320  0.8002  0.4630  0.5899
 8436SOL    HW136770   2.750   1.256  12.235 -0.0499  0.4859  0.2920
 8436SOL    HW236771   2.634   1.190  12.293  1.2323 -3.1043  3.8416
 8437SOL     OW36772   3.788   0.116  16.286  0.3297 -0.3185  0.0717
 8437SOL    HW136773   3.833   0.122  16.370 -0.4454  1.7494  0.3598
 8437SOL    HW236774   3.861   0.136  16.228  0.0260 -0.7309 -0.4499
 8438SOL     OW36775   0.781   0.214   5.831  0.7953  0.1706  0.2746
 8438SOL    HW136776   0.745   0.302   5.848 -2.1196 -1.5574  3.1612
 8438SOL    HW236777   0.697   0.169   5.833  0.5429  0.6617  1.2137
 8439SOL     OW36778   4.535   3.010   8.159 -0.3633  0.3631  0.8122
 8439SOL    HW136779   4.610   3.025   8.101  0.2450  1.0111  1.7427
 8439SOL    HW236780   4.487   2.942   8.113 -0.0383  0.3780  0.4493
 8440SOL     OW36781   1.016   0.688   1.191  0.5398 -0.4551 -0.5789
 8440SOL    HW136782   1.055   0.603   1.174  2.4557  0.4574 -0.8387
 8440SOL    HW236783   0.956   0.675   1.265 -1.9027 -1.6535 -2.8005
 8441SOL     OW36784   3.276   4.317  15.475 -0.7479  0.7256 -0.1476
 8441SOL    HW136785   3.279   4.413  15.479 -0.4672  0.7307 -0.4530
 8441SOL    HW236786   3.208   4.298  15.410 -1.5198 -1.3314  1.2819
 8442SOL     OW36787   4.012   3.120   4.043  0.1405 -0.5184 -0.3171
 8442SOL    HW136788   4.041   3.033   4.073  0.1634 -0.6298 -0.6708
 8442SOL    HW236789   3.945   3.132   4.111 -0.0049  0.1418 -0.5826
 8443SOL     OW36790   1.757   4.540   8.366 -0.1075  0.3032  0.0231
 8443SOL    HW136791   1.842   4.572   8.336 -0.8749  2.8152  0.4999
 8443SOL    HW236792   1.716   4.623   8.392 -2.2821 -0.5766 -0.6484
 8444SOL     OW36793   3.347   1.447   7.989  0.1492  0.0245  0.0877
 8444SOL    HW136794   3.302   1.412   8.067  0.0125  1.7527  0.7865
 8444SOL    HW236795   3.419   1.386   7.976 -0.8524 -1.5648  1.9244
 8445SOL     OW36796   0.767   3.776  15.485 -0.2092 -0.8100 -0.7209
 8445SOL    HW136797   0.824   3.839  15.529 -2.5208 -0.5003  1.8043
 8445SOL    HW236798   0.723   3.739  15.561  0.0783 -0.3004 -0.3027
 8446SOL     OW36799   1.059   4.276  10.719  0.5605 -0.3549 -0.0609
 8446SOL    HW136800   0.990   4.215  10.744 -0.6694  1.3851  0.7519
 8446SOL    HW236801   1.137   4.223  10.735  1.4317  0.1620 -2.6507
 8447SOL     OW36802   2.195   2.053  11.185 -0.2767 -0.1602 -0.1773
 8447SOL    HW136803   2.262   2.090  11.127 -0.0306  0.3735  0.4489
 8447SOL    HW236804   2.119   2.042  11.128 -0.5746  1.3316 -0.0484
 8448SOL     OW36805   1.886   3.794   8.783  0.0685  0.1383  0.2630
 8448SOL    HW136806   1.907   3.854   8.711  0.5452  1.1312  1.2359
 8448SOL    HW236807   1.911   3.845   8.860 -2.1966  1.8895 -0.1477
 8449SOL     OW36808   3.508   0.964   3.777  0.4555  0.5508  0.4655
 8449SOL    HW136809   3.490   0.896   3.712 -1.2963 -0.5361  2.0626
 8449SOL    HW236810   3.503   1.039   3.718 -0.0927  0.0708 -0.0951
 8450SOL     OW36811   2.436   0.838   1.981 -0.1875 -0.0176  0.3117
 8450SOL    HW136812   2.397   0.759   2.017  2.0043 -0.1978  2.2753
 8450SOL    HW236813   2.357   0.873   1.938  0.5311  1.1939 -0.0203
 8451SOL     OW36814   4.675   0.980  13.961  0.5631  0.3551  0.4992
 8451SOL    HW136815   4.711   1.022  13.883 -3.0881  2.8652  0.1773
 8451SOL    HW236816   4.586   1.010  13.975  1.2452  1.5626  2.3145
 8452SOL     OW36817   2.153   0.878   2.295  0.2526 -0.5287 -0.0485
 8452SOL    HW136818   2.205   0.906   2.220  1.6481  0.5233  1.3159
 8452SOL    HW236819   2.072   0.930   2.288  0.8421  0.4850  0.5845
 8453SOL     OW36820   4.452   2.955   0.723  0.3339  0.0652 -0.6718
 8453SOL    HW136821   4.483   2.991   0.806  0.0704 -2.1786  0.3903
 8453SOL    HW236822   4.474   2.862   0.722 -0.2132 -0.0678 -0.0451
 8454SOL     OW36823   1.834   3.937   7.815 -0.0280  0.0547  0.0602
 8454SOL    HW136824   1.880   4.015   7.784 -1.4576  0.5441 -0.8302
 8454SOL    HW236825   1.758   3.961   7.868  0.5463 -0.4959  1.1462
 8455SOL     OW36826   0.648   4.242  12.619 -0.1433  0.0286 -0.1440
 8455SOL    HW136827   0.727   4.210  12.663 -1.2100 -0.3544  1.4955
 8455SOL    HW236828   0.667   4.335  12.606  2.2325 -0.8908 -3.0568
 8456SOL     OW36829   2.445   1.583  14.437 -0.1862  0.2434 -0.3354
 8456SOL    HW136830   2.517   1.549  14.490 -1.0122  0.3903  0.8946
 8456SOL    HW236831   2.417   1.503  14.392  3.3533 -1.1919  0.0103
 8457SOL     OW36832   3.341   3.333   5.619  0.9914 -0.1721  0.5712
 8457SOL    HW136833   3.422   3.349   5.571  0.1137 -1.3137 -1.2799
 8457SOL    HW236834   3.283   3.377   5.556  0.0985 -0.0045  1.5011
 8458SOL     OW36835   1.887   3.217   5.943 -0.7389  0.2839 -0.1154
 8458SOL    HW136836   1.959   3.279   5.947 -0.4764 -0.0871  1.1601
 8458SOL    HW236837   1.877   3.199   5.850  2.9823  3.0958 -1.0124
 8459SOL     OW36838   2.494   1.069   8.540 -0.0385  0.1159 -0.0991
 8459SOL    HW136839   2.496   1.044   8.633 -2.4059 -3.2380 -0.9646
 8459SOL    HW236840   2.405   1.039   8.519 -0.5954  2.1266 -0.6651
 8460SOL     OW36841   1.202   0.780   3.482 -0.2146  0.5125 -0.0557
 8460SOL    HW136842   1.198   0.828   3.565 -0.1105 -0.3233  0.4226
 8460SOL    HW236843   1.109   0.787   3.464 -0.0435  0.5390 -0.9480
 8461SOL     OW36844   0.851   1.872   9.976 -0.4592  0.2362  0.2892
 8461SOL    HW136845   0.806   1.911   9.901 -1.9926  0.5538  1.3642
 8461SOL    HW236846   0.911   1.943   9.996  0.6823 -0.3497 -1.0434
 8462SOL     OW36847   3.220   4.477   3.173 -0.5042  0.1927 -0.1546
 8462SOL    HW136848   3.290   4.542   3.182  0.4618 -0.7250 -1.1692
 8462SOL    HW236849   3.277   4.401   3.157 -2.0309 -1.0156  0.1430
 8463SOL     OW36850   2.008   3.387  15.211 -0.0620  0.1788 -0.0798
 8463SOL    HW136851   2.053   3.450  15.155  1.4548 -0.3980  0.5041
 8463SOL    HW236852   2.002   3.316  15.146 -0.9184  0.2445 -0.0721
 8464SOL     OW36853   3.849   3.604  16.529 -0.2294  0.6778 -0.1987
 8464SOL    HW136854   3.854   3.679  16.469  0.5573  1.9218  1.4181
 8464SOL    HW236855   3.824   3.643  16.613  2.2794  0.5882  0.5825
 8465SOL     OW36856   3.962   1.259  11.176  0.0518  0.6886  0.2944
 8465SOL    HW136857   3.988   1.316  11.248  1.5791  2.2833 -1.5053
 8465SOL    HW236858   3.893   1.213  11.223  0.2787 -0.6134 -0.6142
 8466SOL     OW36859   1.201   1.893  16.755 -0.1596  0.6359  0.7198
 8466SOL    HW136860   1.260   1.890  16.680 -0.5606 -0.3989  0.4426
 8466SOL    HW236861   1.179   1.803  16.782 -0.3054 -0.7900 -4.1289
 8467SOL     OW36862   0.919   3.219   0.461 -0.0131  0.1196 -0.5921
 8467SOL    HW136863   0.882   3.305   0.443  0.5304  0.3992 -0.3601
 8467SOL    HW236864   0.992   3.210   0.398  0.3990  0.1385 -0.1185
 8468SOL     OW36865   3.623   0.866   9.098 -0.0847  0.5375  0.6126
 8468SOL    HW136866   3.711   0.829   9.095  0.0733  0.8297  1.6458
 8468SOL    HW236867   3.641   0.958   9.116  1.9775  0.3966 -0.7292
 8469SOL     OW36868   1.466   3.942   5.890  0.2741 -0.0495  0.0209
 8469SOL    HW136869   1.378   3.982   5.885  0.4948  0.7900  3.1972
 8469SOL    HW236870   1.452   3.856   5.929 -0.3899  0.1063  0.1430
 8470SOL     OW36871   3.072   2.884   7.792  0.2816  0.4300  0.1199
 8470SOL    HW136872   3.014   2.944   7.746  1.9020  1.3726 -0.6903
 8470SOL    HW236873   3.053   2.810   7.735  0.6419  0.3546  0.0987
 8471SOL     OW36874   3.744   2.338   4.378 -0.5796 -0.1217 -0.5354
 8471SOL    HW136875   3.767   2.293   4.297  2.2831 -0.0323  0.2221
 8471SOL    HW236876   3.811   2.297   4.433  1.0573  1.3242 -1.4169
 8472SOL     OW36877   3.236   2.734   5.927  0.0219 -0.0520 -0.0553
 8472SOL    HW136878   3.166   2.799   5.931  0.5967  0.3801  3.0079
 8472SOL    HW236879   3.215   2.687   5.846 -0.9984  0.0394  0.1542
 8473SOL     OW36880   4.187   2.968  12.523  0.1590  0.1446 -0.0998
 8473SOL    HW136881   4.241   2.981  12.601 -0.1425 -1.3809  0.3643
 8473SOL    HW236882   4.104   2.992  12.564  0.7961  0.6525  0.9034
 8474SOL     OW36883   3.268   3.079   7.296 -0.3267 -0.3197  0.1376
 8474SOL    HW136884   3.341   3.140   7.280 -0.2012 -0.2632  0.8944
 8474SOL    HW236885   3.313   2.996   7.309 -0.1582 -0.0367  1.4075
 8475SOL     OW36886   4.005   1.516   2.592 -0.3283 -0.3167 -0.5771
 8475SOL    HW136887   3.985   1.481   2.505 -0.8996 -0.0246 -0.5688
 8475SOL    HW236888   3.928   1.503   2.647 -0.6959 -0.1234 -1.0377
 8476SOL     OW36889   0.214   2.964   7.835  0.6638  0.7120  0.6280
 8476SOL    HW136890   0.156   2.946   7.762  0.7672 -0.6870  0.8944
 8476SOL    HW236891   0.176   3.049   7.856  0.1315  0.7258 -0.4199
 8477SOL     OW36892   4.638   4.447   8.044 -0.0940 -0.1561 -0.0896
 8477SOL    HW136893   4.558   4.496   8.062 -1.7272 -1.6071 -3.4644
 8477SOL    HW236894   4.634   4.393   8.123 -0.5826 -0.8824 -0.6166
 8478SOL     OW36895   3.246   4.442  13.863  0.0549 -0.1196 -0.0893
 8478SOL    HW136896   3.333   4.413  13.890  1.5793  2.6973 -1.9747
 8478SOL    HW236897   3.221   4.500  13.935  2.9950 -0.5613  1.2836
 8479SOL     OW36898   3.996   2.236  13.237  0.1213 -0.0959 -0.0351
 8479SOL    HW136899   4.070   2.237  13.297  1.5519  0.5830 -1.8214
 8479SOL    HW236900   3.999   2.315  13.183 -1.8441 -0.6976 -1.0258
 8480SOL     OW36901   3.500   1.603   1.085  0.0547  0.6751  0.1391
 8480SOL    HW136902   3.546   1.687   1.086  0.8175  0.2671 -1.1410
 8480SOL    HW236903   3.537   1.573   1.168 -4.3219 -0.1746  1.7838
 8481SOL     OW36904   1.335   1.693   6.892  0.6385 -0.1509  0.0680
 8481SOL    HW136905   1.248   1.659   6.874  0.3440  0.3999  0.4517
 8481SOL    HW236906   1.325   1.787   6.878  1.6522 -0.0913 -0.2835
 8482SOL     OW36907   1.213   3.230  10.100  0.6181  0.1086 -0.2717
 8482SOL    HW136908   1.125   3.238  10.136  0.9997  1.1789  0.4409
 8482SOL    HW236909   1.190   3.221  10.008 -0.9124 -0.8993  0.2245
 8483SOL     OW36910   1.439   1.952   6.671  0.3061 -0.3331 -0.2831
 8483SOL    HW136911   1.432   2.025   6.608 -1.2715 -1.3410 -1.2928
 8483SOL    HW236912   1.364   1.969   6.728  0.5778  0.8535 -0.2714
 8484SOL     OW36913   0.700   1.024  13.627  0.3493 -0.1566  0.2893
 8484SOL    HW136914   0.781   0.991  13.667 -0.5420 -0.4124  1.8744
 8484SOL    HW236915   0.657   0.947  13.589  0.6456  0.2185 -0.8253
 8485SOL     OW36916   3.331   2.853   6.983  0.1728 -0.1074  0.4867
 8485SOL    HW136917   3.243   2.874   6.950  0.8462  2.4014  0.2992
 8485SOL    HW236918   3.378   2.859   6.900 -1.7409  2.3568 -0.4014
 8486SOL     OW36919   1.503   0.758   7.686  0.0258  0.4384 -0.0400
 8486SOL    HW136920   1.476   0.846   7.661 -2.2009 -0.3208 -0.2452
 8486SOL    HW236921   1.432   0.711   7.643 -0.1212 -0.4032  1.1444
 8487SOL     OW36922   1.329   3.406   7.219 -0.1058 -0.1076 -0.3089
 8487SOL    HW136923   1.256   3.465   7.242  0.1358 -0.7293  2.0775
 8487SOL    HW236924   1.309   3.359   7.138 -1.5826  0.5730 -0.3378
 8488SOL     OW36925   2.511   1.422   2.994 -0.2135  0.4914  0.3080
 8488SOL    HW136926   2.529   1.410   2.901  0.2340  0.9195  0.3427
 8488SOL    HW236927   2.592   1.455   3.033  0.8242 -1.3476 -0.2884
 8489SOL     OW36928   1.978   1.539   0.127  0.0668 -0.6898  0.3025
 8489SOL    HW136929   1.994   1.452   0.164 -0.9348 -1.0513 -0.1299
 8489SOL    HW236930   2.015   1.534   0.038 -2.2413 -0.4834 -0.6505
 8490SOL     OW36931   1.073   2.057   8.518  0.6965  0.0038  0.7352
 8490SOL    HW136932   1.070   1.979   8.464 -1.0415  0.1754  0.5609
 8490SOL    HW236933   1.163   2.068   8.548  0.9580 -3.1267  1.1158
 8491SOL     OW36934   3.269   3.764   6.231 -0.4043  0.0350 -0.1378
 8491SOL    HW136935   3.290   3.678   6.266  0.1646  0.2803  0.1174
 8491SOL    HW236936   3.318   3.814   6.297 -1.1911 -1.8169  1.8492
 8492SOL     OW36937   2.787   3.294   7.582  0.1096 -0.3839  0.6385
 8492SOL    HW136938   2.786   3.264   7.491  2.3243 -1.0963  0.8395
 8492SOL    HW236939   2.852   3.364   7.578 -1.8496  1.4469  1.2251
 8493SOL     OW36940   0.417   0.670   1.059  0.5154 -0.0490 -0.3174
 8493SOL    HW136941   0.418   0.630   1.146  0.8210  3.1156  1.1310
 8493SOL    HW236942   0.436   0.760   1.085  2.2488 -0.7863  0.9913
 8494SOL     OW36943   3.240   1.550  14.652 -0.5097  0.1580 -0.3156
 8494SOL    HW136944   3.175   1.609  14.690 -1.6714 -1.5476  0.3595
 8494SOL    HW236945   3.231   1.468  14.701  2.3909 -0.4020 -0.7574
 8495SOL     OW36946   3.418   4.118   9.292  0.3721 -0.2898 -0.0148
 8495SOL    HW136947   3.396   4.027   9.271 -1.9794  0.4553 -0.7419
 8495SOL    HW236948   3.482   4.115   9.363 -0.2266  2.3798  0.6177
 8496SOL     OW36949   3.526   3.293   8.621 -0.4869 -0.3897 -0.4653
 8496SOL    HW136950   3.517   3.253   8.707 -1.2541  1.3958  0.2803
 8496SOL    HW236951   3.578   3.367   8.653  1.8990 -2.2278 -0.1460
 8497SOL     OW36952   3.854   2.398   5.716 -0.5691  0.3359 -0.3707
 8497SOL    HW136953   3.790   2.327   5.714 -1.4453  1.1761 -1.8924
 8497SOL    HW236954   3.851   2.424   5.808 -1.1051  1.6956 -0.7656
 8498SOL     OW36955   4.347   3.468   3.257 -0.1721  0.5135 -0.6928
 8498SOL    HW136956   4.277   3.533   3.262 -0.2583  0.4339 -0.8717
 8498SOL    HW236957   4.299   3.406   3.312  1.0169  0.7672  0.6454
 8499SOL     OW36958   3.866   3.988   7.782  0.0972  0.5634 -0.7208
 8499SOL    HW136959   3.875   3.995   7.877 -2.5257  0.1554 -0.4264
 8499SOL    HW236960   3.840   4.079   7.768 -1.2885  0.6107  2.0329
 8500SOL     OW36961   0.729   3.723   2.854  0.6272  0.3985 -0.4685
 8500SOL    HW136962   0.658   3.713   2.918 -0.6964 -1.3905 -2.2404
 8500SOL    HW236963   0.807   3.743   2.906 -0.0004  0.6916  0.3577
 8501SOL     OW36964   0.990   2.594  14.452 -0.2410  0.2611 -0.2641
 8501SOL    HW136965   0.899   2.609  14.429 -0.8533 -1.5092  1.0596
 8501SOL    HW236966   0.975   2.523  14.514  0.8270  2.0352  1.9904
 8502SOL     OW36967   3.253   3.675  13.953  0.3585  0.0598  0.0492
 8502SOL    HW136968   3.221   3.660  13.863  0.0945 -4.0501  0.8029
 8502SOL    HW236969   3.335   3.628  13.936  0.3506  0.3402 -0.7898
 8503SOL     OW36970   1.483   3.440   6.167  0.1847  0.1754 -0.7217
 8503SOL    HW136971   1.576   3.450   6.146 -0.0293  1.3672 -1.1411
 8503SOL    HW236972   1.445   3.436   6.079  1.4427 -0.5111 -1.2280
 8504SOL     OW36973   2.246   2.285  13.623 -0.2304 -0.1728 -0.2695
 8504SOL    HW136974   2.217   2.279  13.532  2.6169 -0.5142 -1.1383
 8504SOL    HW236975   2.243   2.380  13.635  1.6064 -0.1633  0.1727
 8505SOL     OW36976   0.151   0.968   4.434  0.7016  0.7317 -0.0663
 8505SOL    HW136977   0.061   0.983   4.404 -0.6761 -2.3477  2.5100
 8505SOL    HW236978   0.148   0.873   4.443  2.0228  0.6763 -0.2443
 8506SOL     OW36979   0.587   4.178  14.044  0.4288  0.0384 -0.1894
 8506SOL    HW136980   0.539   4.239  13.988  0.1989 -0.1423 -0.1933
 8506SOL    HW236981   0.679   4.199  14.032  0.9456 -1.1706  1.6061
 8507SOL     OW36982   1.280   3.312   4.102 -0.3130  0.0703 -0.2371
 8507SOL    HW136983   1.201   3.334   4.053 -0.3155 -0.8467 -0.6548
 8507SOL    HW236984   1.229   3.268   4.169  0.3538  0.3624  0.4678
 8508SOL     OW36985   4.593   0.491  11.996 -0.4106  0.3685  0.3542
 8508SOL    HW136986   4.533   0.417  12.005 -0.4990  0.4068  0.1058
 8508SOL    HW236987   4.672   0.447  11.964 -0.9171  0.7367 -1.3984
 8509SOL     OW36988   4.242   1.399   1.002  0.0034  0.2660 -1.0486
 8509SOL    HW136989   4.255   1.493   1.015 -0.2518  0.6802 -3.8467
 8509SOL    HW236990   4.303   1.363   1.067 -0.0457  1.7665 -0.1717
 8510SOL     OW36991   3.388   0.465   5.837  0.7707 -0.3216 -0.3397
 8510SOL    HW136992   3.328   0.404   5.881 -0.2621  1.5045  0.7792
 8510SOL    HW236993   3.330   0.539   5.822 -1.7310 -2.2639 -0.3541
 8511SOL     OW36994   2.019   1.980   8.587  0.1534 -0.1988 -0.4682
 8511SOL    HW136995   2.040   2.071   8.566 -1.9835  0.5367  0.5556
 8511SOL    HW236996   1.968   1.958   8.509 -2.6364  0.6295  1.1254
 8512SOL     OW36997   1.347   0.857   4.473 -0.0974 -0.0867 -0.0842
 8512SOL    HW136998   1.307   0.928   4.422 -1.8262 -0.2597  1.0399
 8512SOL    HW236999   1.264   0.835   4.514 -0.6091  1.3942 -0.3495
 8513SOL     OW37000   1.898   1.136  12.939  0.2909 -0.7417  0.2572
 8513SOL    HW137001   1.822   1.193  12.930 -0.3662 -1.3924  1.7111
 8513SOL    HW237002   1.916   1.132  12.845  1.4474  2.0322  0.3613
 8514SOL     OW37003   2.175   2.943  12.072  0.2579  0.7368  0.2734
 8514SOL    HW137004   2.209   2.903  11.992 -0.0816  2.5277 -0.7682
 8514SOL    HW237005   2.231   2.903  12.138  1.2058  1.0295 -0.3353
 8515SOL     OW37006   3.865   2.488   8.151  0.7827 -0.2593 -0.7032
 8515SOL    HW137007   3.846   2.488   8.057  2.0843  0.7624 -0.9763
 8515SOL    HW237008   3.777   2.514   8.178 -0.3956 -0.9735 -3.8777
 8516SOL     OW37009   1.918   2.546   5.397 -0.6624  1.0653  0.3810
 8516SOL    HW137010   1.905   2.458   5.361  1.2446  0.6510  0.7060
 8516SOL    HW237011   1.942   2.594   5.318 -2.0339 -0.3530 -0.8999
 8517SOL     OW37012   1.061   2.723   3.889 -0.6487  0.2202  0.5379
 8517SOL    HW137013   1.034   2.782   3.960 -0.1932  0.2934  0.6467
 8517SOL    HW237014   1.064   2.641   3.938 -1.4110 -1.3961 -2.1083
 8518SOL     OW37015   2.864   0.760   5.569 -0.7112 -0.4315  0.3701
 8518SOL    HW137016   2.957   0.746   5.552 -0.4070 -0.7671  2.3235
 8518SOL    HW237017   2.840   0.837   5.518  0.4179 -1.3893 -1.6381
 8519SOL     OW37018   4.125   4.494  13.348  0.0844  0.6255 -0.3561
 8519SOL    HW137019   4.111   4.406  13.383  1.7576  0.1140 -0.9515
 8519SOL    HW237020   4.053   4.539  13.390 -2.0282 -0.1635 -3.1158
 8520SOL     OW37021   1.020   4.197   9.122  0.0310 -0.3512  0.1656
 8520SOL    HW137022   1.066   4.113   9.126  0.6269  0.0002  0.7099
 8520SOL    HW237023   1.036   4.217   9.030  1.3148 -1.6096  0.1223
 8521SOL     OW37024   2.885   3.388  13.256 -0.7112  0.2152  0.2056
 8521SOL    HW137025   2.818   3.329  13.292 -1.9159  1.1540 -0.4781
 8521SOL    HW237026   2.955   3.379  13.320  0.3444 -1.9665 -1.2388
 8522SOL     OW37027   4.527   2.251  15.690  0.5172  0.5498  0.3847
 8522SOL    HW137028   4.609   2.247  15.739  1.9043 -0.8753 -2.0401
 8522SOL    HW237029   4.570   2.261  15.605 -0.1436  1.7196  0.1982
 8523SOL     OW37030   3.062   1.997   5.418 -0.8911 -0.1099 -0.2561
 8523SOL    HW137031   3.005   1.932   5.377  0.8697 -0.3832 -2.2823
 8523SOL    HW237032   3.103   2.054   5.353  1.0006 -0.8994  0.2366
 8524SOL     OW37033   2.457   1.775  14.259 -0.1049  0.1726  0.1913
 8524SOL    HW137034   2.380   1.827  14.282  0.1659  0.6248  0.0718
 8524SOL    HW237035   2.446   1.694  14.310 -3.8077  2.1597  2.5914
 8525SOL     OW37036   2.507   4.106   1.551 -0.4649 -0.1955  0.4811
 8525SOL    HW137037   2.496   4.068   1.464 -0.0803 -1.4356  0.9844
 8525SOL    HW237038   2.429   4.073   1.595  0.7196 -0.6373  2.2259
 8526SOL     OW37039   1.731   3.551   3.904 -0.1336  0.4205  0.1052
 8526SOL    HW137040   1.739   3.479   3.966  1.3702 -0.2795 -0.8891
 8526SOL    HW237041   1.787   3.529   3.829 -0.3584 -0.9782  0.3603
 8527SOL     OW37042   1.160   1.771   7.286 -0.0035  0.2986 -0.0604
 8527SOL    HW137043   1.127   1.860   7.299  2.1590  1.0157  0.5593
 8527SOL    HW237044   1.112   1.724   7.354  0.5694  2.0473  1.5843
 8528SOL     OW37045   4.421   2.841   3.201 -0.2406  0.4559  0.4876
 8528SOL    HW137046   4.493   2.787   3.233  0.6110  0.3042 -1.6892
 8528SOL    HW237047   4.476   2.919   3.203 -0.5787  0.6954  0.5400
 8529SOL     OW37048   1.250   2.958   5.219  0.0802 -0.0595 -0.7477
 8529SOL    HW137049   1.288   3.009   5.148 -1.0060  1.6467 -0.1057
 8529SOL    HW237050   1.323   2.955   5.281 -0.7658  1.5488  0.3207
 8530SOL     OW37051   2.848   3.638   7.821 -0.5271 -0.5090  0.3581
 8530SOL    HW137052   2.778   3.700   7.799  1.5111  1.6171 -0.1783
 8530SOL    HW237053   2.842   3.620   7.914  2.8201 -0.9077  0.5003
 8531SOL     OW37054   4.684   0.713   6.698 -0.1105  0.3011  0.0646
 8531SOL    HW137055   4.613   0.698   6.760 -3.0578  0.2812 -3.3217
 8531SOL    HW237056   0.001   0.798   6.719 -0.3414  0.5004 -0.3528
 8532SOL     OW37057   0.640   3.129   3.330 -0.1042  0.2968 -0.2096
 8532SOL    HW137058   0.684   3.196   3.278  1.7625 -0.0999  0.8720
 8532SOL    HW237059   0.650   3.170   3.416  1.4038 -0.0136 -0.2453
 8533SOL     OW37060   0.851   3.847   5.096 -0.0600 -0.2478 -0.2174
 8533SOL    HW137061   0.804   3.931   5.093 -0.2226 -0.3537 -0.5963
 8533SOL    HW237062   0.830   3.809   5.011  1.2410  2.2299 -1.6479
 8534SOL     OW37063   4.337   1.127   6.688  0.5865  0.3112  0.5413
 8534SOL    HW137064   4.401   1.069   6.647 -0.7835  0.5701 -1.9373
 8534SOL    HW237065   4.395   1.202   6.702  2.0823 -1.0514  1.7731
 8535SOL     OW37066   1.099   3.037   8.443  0.2346 -0.3914  0.1018
 8535SOL    HW137067   1.073   2.961   8.495  0.2381 -0.3088  0.2247
 8535SOL    HW237068   1.155   2.991   8.381  1.4532 -1.4109  1.9508
 8536SOL     OW37069   4.065   4.403   6.817 -0.3402  0.1014  0.0769
 8536SOL    HW137070   4.149   4.425   6.779  1.0368 -2.8806  1.4085
 8536SOL    HW237071   4.068   4.456   6.897 -0.7417 -2.0770  1.5234
 8537SOL     OW37072   1.212   1.855  10.205 -0.0617  0.2916 -0.7357
 8537SOL    HW137073   1.121   1.850  10.233  0.1274  0.1050 -0.1566
 8537SOL    HW237074   1.238   1.929  10.261  0.3631  1.2059 -2.1249
 8538SOL     OW37075   3.101   4.151   8.259  0.2796 -0.2190 -0.4416
 8538SOL    HW137076   3.121   4.242   8.282  0.0444 -0.2400 -0.1467
 8538SOL    HW237077   3.130   4.102   8.336  0.3367 -1.7323 -1.4280
 8539SOL     OW37078   2.167   4.205   6.306  0.2323  0.3424  0.0979
 8539SOL    HW137079   2.247   4.204   6.254  1.2429  1.9512  1.6387
 8539SOL    HW237080   2.124   4.285   6.276  0.2564  0.3558  0.0995
 8540SOL     OW37081   1.898   2.883   6.280 -0.3713  0.1827 -0.0949
 8540SOL    HW137082   1.823   2.833   6.310 -0.2398 -0.2297 -0.4480
 8540SOL    HW237083   1.872   2.920   6.195  0.2793 -0.7301 -0.6920
 8541SOL     OW37084   2.065   3.005   7.898  0.1956 -0.2976 -0.1299
 8541SOL    HW137085   2.096   2.915   7.885 -0.4400 -1.0197  3.2581
 8541SOL    HW237086   2.143   3.048   7.934  0.0490 -0.5711  0.5134
 8542SOL     OW37087   4.013   2.513   4.072  0.1558 -0.0987  0.1353
 8542SOL    HW137088   4.041   2.456   4.000 -0.5591 -0.6054  0.2502
 8542SOL    HW237089   4.064   2.471   4.141  0.2979 -0.1089  0.0230
 8543SOL     OW37090   1.539   3.355   3.566 -0.2106  0.9443  0.6791
 8543SOL    HW137091   1.505   3.313   3.645  1.6223  0.6353  1.3020
 8543SOL    HW237092   1.540   3.275   3.513  2.2534  1.3181  0.1460
 8544SOL     OW37093   2.202   1.942   4.442  0.4978  0.0304 -0.4828
 8544SOL    HW137094   2.224   1.851   4.422  1.5745 -0.1908  1.6204
 8544SOL    HW237095   2.206   1.930   4.537 -0.8324  2.2121 -0.1427
 8545SOL     OW37096   1.352   3.196  10.319  0.1421  0.3712 -0.0738
 8545SOL    HW137097   1.293   3.148  10.378 -0.2357  0.2694 -0.5373
 8545SOL    HW237098   1.296   3.211  10.243 -0.6141  0.3223  0.4757
 8546SOL     OW37099   1.005   0.023   3.968  1.1825  0.5226 -0.2337
 8546SOL    HW137100   0.953   0.097   3.936 -0.4200 -1.1886 -1.6290
 8546SOL    HW237101   1.019   4.692   3.888 -0.9829  2.0460 -1.5811
 8547SOL     OW37102   4.260   3.951  13.333 -0.3140  0.0131  0.1814
 8547SOL    HW137103   4.354   3.952  13.315  0.2141  1.1008  2.9354
 8547SOL    HW237104   4.231   4.019  13.272 -1.2438  0.4525  1.1086
 8548SOL     OW37105   3.820   1.348   8.885 -0.3039 -0.0695  0.7956
 8548SOL    HW137106   3.851   1.326   8.797  0.9282 -2.4401  1.8323
 8548SOL    HW237107   3.896   1.342   8.942 -0.0983  1.5398  0.6941
 8549SOL     OW37108   0.844   1.607   5.680 -0.0975 -0.8187 -0.2742
 8549SOL    HW137109   0.757   1.614   5.719  1.3433 -0.8448  2.9086
 8549SOL    HW237110   0.862   1.696   5.650 -2.8249  0.0412  0.6498
 8550SOL     OW37111   2.258   4.261   3.920  0.6442  0.6266  0.1521
 8550SOL    HW137112   2.323   4.318   3.880 -1.6828  1.3085 -2.7046
 8550SOL    HW237113   2.201   4.232   3.848  1.7888  1.3231 -1.0386
 8551SOL     OW37114   4.222   1.235   7.720  0.2070 -0.2236 -0.1084
 8551SOL    HW137115   4.178   1.275   7.795  0.8540 -0.5304  0.4298
 8551SOL    HW237116   4.212   1.303   7.653 -1.6971 -1.5600 -1.1907
 8552SOL     OW37117   4.306   4.314   8.204  0.1468  0.4008  0.5642
 8552SOL    HW137118   4.280   4.376   8.136  2.4969 -0.2515 -0.9328
 8552SOL    HW237119   4.251   4.242   8.172 -0.2160  0.6889  0.5342
 8553SOL     OW37120   2.630   3.485   5.773  0.4994  0.4803  0.0522
 8553SOL    HW137121   2.679   3.431   5.711 -1.2386  1.4930 -2.1754
 8553SOL    HW237122   2.653   3.422   5.842  2.1743  0.9761 -0.0370
 8554SOL     OW37123   3.915   3.412   5.697  0.1355  0.0440 -0.4295
 8554SOL    HW137124   3.894   3.323   5.728  0.3390 -0.4926 -1.8067
 8554SOL    HW237125   3.837   3.464   5.715  0.0746  0.3766 -1.6615
 8555SOL     OW37126   3.319   3.755   7.014  0.3910 -0.1194  0.0498
 8555SOL    HW137127   3.226   3.730   7.013  0.6192 -0.9357 -0.6182
 8555SOL    HW237128   3.331   3.806   6.934 -0.7895  0.5151  0.2657
 8556SOL     OW37129   4.071   4.342   8.534  0.1277 -0.4448  0.0419
 8556SOL    HW137130   4.023   4.323   8.614  1.9857 -1.9650  0.7939
 8556SOL    HW237131   4.000   4.331   8.470  0.0760 -3.2841  0.6015
 8557SOL     OW37132   4.250   2.745   5.600  0.7092 -0.7466  0.0817
 8557SOL    HW137133   4.217   2.674   5.546  0.6481 -0.5476 -0.1429
 8557SOL    HW237134   4.183   2.808   5.576 -0.1209 -1.4357  0.5849
 8558SOL     OW37135   2.979   3.930   1.728  0.1255  0.0666 -0.4198
 8558SOL    HW137136   2.971   3.999   1.663  1.9984 -0.5266 -1.2725
 8558SOL    HW237137   3.074   3.914   1.728 -0.0719 -1.1111 -0.1104
 8559SOL     OW37138   2.053   1.061  10.414 -0.2016  0.2221  0.4910
 8559SOL    HW137139   2.084   1.031  10.329 -1.5725  1.9188 -0.6109
 8559SOL    HW237140   2.034   0.978  10.457  1.5463  0.3624  1.5135
 8560SOL     OW37141   2.574   1.289   8.412  0.2997  0.0395 -0.5104
 8560SOL    HW137142   2.484   1.305   8.386 -0.1275 -4.0173 -1.5978
 8560SOL    HW237143   2.560   1.218   8.475  0.8123  2.5914  2.4302
 8561SOL     OW37144   4.541   3.211   7.571  0.6079  0.4370 -0.0152
 8561SOL    HW137145   4.590   3.291   7.553  1.3959 -0.1324 -0.3524
 8561SOL    HW237146   4.453   3.237   7.601  0.7647  1.6661 -0.6261
 8562SOL     OW37147   2.268   3.262   1.942 -0.3447  0.6149 -0.1246
 8562SOL    HW137148   2.238   3.246   1.853  0.2206  2.0424 -0.5762
 8562SOL    HW237149   2.337   3.328   1.931 -1.5497  2.2417  1.9211
 8563SOL     OW37150   2.393   0.150  14.388  0.2330 -0.2928 -0.2368
 8563SOL    HW137151   2.327   0.083  14.406  0.2839 -0.2351  0.1684
 8563SOL    HW237152   2.456   0.105  14.331 -0.6591 -3.7236  1.5059
 8564SOL     OW37153   1.449   4.552  17.374  0.0366  0.4920 -0.8210
 8564SOL    HW137154   1.474   4.519  17.460 -0.9566 -0.5013 -0.9178
 8564SOL    HW237155   1.354   4.548  17.384  0.2821 -2.2720  0.3736
 8565SOL     OW37156   3.428   1.711   3.400  0.1973  0.0002 -0.2900
 8565SOL    HW137157   3.404   1.652   3.471  0.2037  0.5926  0.2025
 8565SOL    HW237158   3.513   1.679   3.372 -0.6302 -0.8629 -1.8619
 8566SOL     OW37159   4.551   2.912  13.517  0.5187  0.2666 -0.8793
 8566SOL    HW137160   4.537   2.997  13.476 -2.1510  0.3963  0.3209
 8566SOL    HW237161   4.612   2.932  13.588 -0.9179  0.7568  0.2211
 8567SOL     OW37162   2.125   0.779   2.872 -0.0461  0.8155  0.3111
 8567SOL    HW137163   2.207   0.809   2.912  0.0034  0.5195  0.4287
 8567SOL    HW237164   2.059   0.838   2.907  0.5232 -0.0120  2.8000
 8568SOL     OW37165   1.568   2.042  14.312  0.2539 -0.1082  0.6077
 8568SOL    HW137166   1.608   2.000  14.388  0.0871  2.0621  1.8868
 8568SOL    HW237167   1.474   2.030  14.320  0.5938 -3.8210 -0.7379
 8569SOL     OW37168   1.437   2.076   3.581  0.2344 -0.4419 -0.6695
 8569SOL    HW137169   1.497   2.047   3.512 -0.2972  0.4026 -1.4980
 8569SOL    HW237170   1.498   2.091   3.652  2.1589 -2.0409 -1.9849
 8570SOL     OW37171   0.153   3.360  13.174 -0.1915 -0.1122  0.6530
 8570SOL    HW137172   0.097   3.395  13.105 -0.5601 -0.0689  0.9738
 8570SOL    HW237173   0.204   3.303  13.116  1.2806  0.3501  1.4972
 8571SOL     OW37174   4.478   4.136   5.681  0.3136 -0.1392  0.4737
 8571SOL    HW137175   4.393   4.164   5.646  0.8432 -2.0146 -2.3164
 8571SOL    HW237176   4.445   4.052   5.714  1.0197 -0.8276 -0.5623
 8572SOL     OW37177   4.455   4.142   4.600 -0.0447 -0.2327  0.0943
 8572SOL    HW137178   4.528   4.204   4.612  1.5965 -2.0227 -0.6800
 8572SOL    HW237179   4.470   4.111   4.510  0.4240 -0.4699  0.2568
 8573SOL     OW37180   3.249   4.065   3.450  0.0963  0.3997  0.5197
 8573SOL    HW137181   3.185   4.106   3.508 -2.3515 -0.4646 -1.5872
 8573SOL    HW237182   3.316   4.134   3.450  1.0631 -0.5323  3.8660
 8574SOL     OW37183   1.409   0.204   7.728  0.2332  0.2857  0.0010
 8574SOL    HW137184   1.406   0.278   7.788  1.2911  0.3391 -0.0119
 8574SOL    HW237185   1.423   0.134   7.791 -1.8435 -1.2136 -1.1885
 8575SOL     OW37186   3.299   1.551   4.125 -0.0210 -0.5349  0.0561
 8575SOL    HW137187   3.323   1.573   4.215  0.5597  0.7410 -0.4038
 8575SOL    HW237188   3.346   1.613   4.070  1.8813 -0.4980  1.7190
 8576SOL     OW37189   0.782   0.942   3.024 -0.0700  0.4370 -0.2785
 8576SOL    HW137190   0.839   0.895   3.086  0.6260 -1.1691 -2.1335
 8576SOL    HW237191   0.743   0.874   2.969 -0.8639  0.4753  0.2416
 8577SOL     OW37192   1.390   0.054   0.266  0.4006 -0.1321  0.0895
 8577SOL    HW137193   1.389   0.109   0.187  0.3340  0.7532  0.7125
 8577SOL    HW237194   1.443   4.700   0.238 -0.4338 -1.6835  2.6164
 8578SOL     OW37195   4.126   1.402   2.895  0.4020  0.6505 -0.1521
 8578SOL    HW137196   4.111   1.487   2.852 -2.2967  0.4996  0.5306
 8578SOL    HW237197   4.111   1.417   2.988 -0.8147 -1.9199  0.0653
 8579SOL     OW37198   2.272   4.063  13.870 -0.2261  0.3291  0.2465
 8579SOL    HW137199   2.274   4.049  13.776 -1.1596  0.8285  0.1466
 8579SOL    HW237200   2.299   4.154  13.877  1.2659 -0.1782  1.0506
 8580SOL     OW37201   0.678   3.197   6.231 -0.1014  0.2342 -0.0523
 8580SOL    HW137202   0.661   3.109   6.263  1.4620 -0.6854 -1.7495
 8580SOL    HW237203   0.677   3.241   6.316 -2.3561  3.9158 -2.0014
 8581SOL     OW37204   4.253   1.981   7.460 -0.0879  0.4835  0.0964
 8581SOL    HW137205   4.249   2.052   7.524  2.9910 -1.2423  2.1803
 8581SOL    HW237206   4.222   1.906   7.510  1.1428 -0.2562 -0.2332
 8582SOL     OW37207   4.339   3.332  13.333 -0.1888 -0.0955  0.0215
 8582SOL    HW137208   4.263   3.370  13.377 -0.5828  0.8700 -1.4835
 8582SOL    HW237209   4.295   3.252  13.305  2.6405 -0.7500 -2.6738
 8583SOL     OW37210   1.292   2.663  14.604 -0.0568 -0.1689  0.8175
 8583SOL    HW137211   1.243   2.616  14.536 -1.3099  1.3474  0.6629
 8583SOL    HW237212   1.249   2.748  14.601 -0.7103 -0.5616 -0.7844
 8584SOL     OW37213   2.910   0.688   2.839  0.1494 -0.3563  0.4448
 8584SOL    HW137214   2.908   0.595   2.861  0.4961 -0.1694  1.2822
 8584SOL    HW237215   2.823   0.709   2.874  0.2970  0.4273  0.3512
 8585SOL     OW37216   4.096   3.315   7.356 -0.0594  0.0998  0.2967
 8585SOL    HW137217   4.118   3.358   7.274 -0.0537 -0.7301 -0.1349
 8585SOL    HW237218   4.004   3.290   7.343  0.2155 -0.4443 -0.5958
 8586SOL     OW37219   0.005   0.622   7.305  0.0032  0.3774 -0.0372
 8586SOL    HW137220   4.651   0.632   7.365  0.4022  0.5533  0.4211
 8586SOL    HW237221   0.078   0.669   7.345  1.2754 -1.6617  0.0572
 8587SOL     OW37222   4.558   3.570  14.781  0.0276  0.1984 -0.2402
 8587SOL    HW137223   4.501   3.493  14.775  0.2173 -0.0871  1.7929
 8587SOL    HW237224   4.641   3.525  14.798 -0.6649 -2.0072 -2.5196
 8588SOL     OW37225   0.947   1.525   2.894  0.0412 -0.8086 -0.8189
 8588SOL    HW137226   1.023   1.467   2.891  0.7384  0.0427  0.4126
 8588SOL    HW237227   0.984   1.612   2.879  2.9833 -2.3705 -2.4413
 8589SOL     OW37228   3.264   1.146   3.492  0.2101 -0.5301  0.0872
 8589SOL    HW137229   3.279   1.111   3.404  1.4067 -2.0932  0.9037
 8589SOL    HW237230   3.354   1.157   3.523 -0.1308 -1.6894  1.4721
 8590SOL     OW37231   3.165   2.671   1.898  0.1266  0.5711  0.1843
 8590SOL    HW137232   3.214   2.591   1.881 -1.4865 -0.3422 -0.2122
 8590SOL    HW237233   3.187   2.684   1.990  0.2717  1.4053  0.0369
 8591SOL     OW37234   2.894   4.481  10.063  1.1451  0.2751 -0.6437
 8591SOL    HW137235   2.908   4.576  10.065 -0.0573  0.4736 -2.2668
 8591SOL    HW237236   2.802   4.482  10.091  1.1677 -3.1854 -0.4864
 8592SOL     OW37237   0.399   4.147   6.636  0.3312 -0.4131  0.3959
 8592SOL    HW137238   0.454   4.128   6.560 -0.2657 -0.7901  0.0511
 8592SOL    HW237239   0.369   4.235   6.614 -1.4215 -1.8746 -3.0604
 8593SOL     OW37240   4.086   3.314   3.499 -0.7023  0.4264  0.3907
 8593SOL    HW137241   4.089   3.253   3.573 -0.8626  1.1935  1.0244
 8593SOL    HW237242   4.117   3.248   3.436 -2.8716  1.2808 -1.5837
 8594SOL     OW37243   1.232   2.758   9.715  0.2844  0.1798 -0.7736
 8594SOL    HW137244   1.163   2.805   9.762  0.4109  0.4697 -0.8829
 8594SOL    HW237245   1.283   2.720   9.786 -1.0834  0.1747  0.2195
 8595SOL     OW37246   0.458   2.708  12.644 -0.3825 -0.5914  0.4183
 8595SOL    HW137247   0.516   2.684  12.716  1.0863  0.5268 -0.4005
 8595SOL    HW237248   0.463   2.629  12.591 -0.1145 -0.0219 -0.4064
 8596SOL     OW37249   3.053   1.566  13.252  0.7699 -0.0657 -0.1732
 8596SOL    HW137250   3.066   1.565  13.157  0.3206  0.1179 -0.2361
 8596SOL    HW237251   3.013   1.652  13.267  1.3206  0.3483 -1.0700
 8597SOL     OW37252   1.392   0.843   5.932 -0.2157 -0.2385  0.1199
 8597SOL    HW137253   1.444   0.920   5.912 -1.6614  1.1050  1.5480
 8597SOL    HW237254   1.441   0.770   5.893 -0.9033 -0.2929 -0.6224
 8598SOL     OW37255   2.736   2.894  14.143 -0.2747  0.5607  0.0210
 8598SOL    HW137256   2.814   2.932  14.103  0.2124 -1.9646 -1.4352
 8598SOL    HW237257   2.684   2.972  14.126 -0.2535  0.7331  0.7248
 8599SOL     OW37258   0.812   4.327   1.786 -0.0484  0.5918 -0.1516
 8599SOL    HW137259   0.764   4.403   1.754  3.5014  1.7507 -2.6227
 8599SOL    HW237260   0.747   4.256   1.783 -0.2661  0.7740  0.1588
 8600SOL     OW37261   0.433   3.814   5.903  0.2364 -0.5077 -0.3671
 8600SOL    HW137262   0.493   3.873   5.856  0.3719  0.9679  1.6823
 8600SOL    HW237263   0.473   3.793   5.987 -0.7408 -0.8228  0.0143
 8601SOL     OW37264   0.408   0.999   0.623  0.0828 -0.1487 -0.2020
 8601SOL    HW137265   0.332   0.972   0.571 -0.1259 -2.5087  1.3434
 8601SOL    HW237266   0.378   1.080   0.665  0.3040 -0.1306 -0.0823
 8602SOL     OW37267   2.332   0.418   4.969 -0.0151 -0.1325 -0.4375
 8602SOL    HW137268   2.267   0.369   5.018  0.5805 -0.1789  0.3007
 8602SOL    HW237269   2.363   0.359   4.900 -0.2699 -0.7064 -0.0518
 8603SOL     OW37270   2.178   2.538   6.734  0.1380 -0.0428  0.7190
 8603SOL    HW137271   2.122   2.529   6.811 -1.1824  1.8310 -0.0145
 8603SOL    HW237272   2.116   2.575   6.670  1.1486 -0.4884 -0.5163
 8604SOL     OW37273   3.245   2.864   7.985  0.5937 -0.2605  0.2264
 8604SOL    HW137274   3.221   2.802   8.053 -1.8354  0.7114  0.2343
 8604SOL    HW237275   3.171   2.854   7.926  1.2021 -3.3587 -0.0191
 8605SOL     OW37276   0.102   3.868   8.102 -0.1454 -0.2949 -0.0147
 8605SOL    HW137277   0.047   3.802   8.146  2.2969 -2.1806  0.2157
 8605SOL    HW237278   0.082   3.949   8.148 -0.6642  0.3531 -1.3959
 8606SOL     OW37279   4.256   1.718   2.869 -0.3738  0.6054 -0.3769
 8606SOL    HW137280   4.269   1.666   2.790  1.9580  1.7587 -0.7562
 8606SOL    HW237281   4.327   1.783   2.867  0.2297 -0.0591 -0.3741
 8607SOL     OW37282   2.889   0.882   3.795 -0.3132  0.8547 -0.1708
 8607SOL    HW137283   2.907   0.796   3.757  1.1881  0.7523  0.7962
 8607SOL    HW237284   2.891   0.929   3.712  0.6923  2.0798  0.5650
 8608SOL     OW37285   0.719   2.224  16.991 -0.1281  0.2940  0.3783
 8608SOL    HW137286   0.666   2.265  17.059  0.0232  0.9851  0.0878
 8608SOL    HW237287   0.788   2.287  16.968  0.1702 -0.4437 -0.7543
 8609SOL     OW37288   1.658   4.318   9.640 -0.1628  0.5798 -0.6477
 8609SOL    HW137289   1.641   4.406   9.675  0.3793  0.8764 -1.1396
 8609SOL    HW237290   1.567   4.287   9.642  0.1629 -0.3874 -1.8168
 8610SOL     OW37291   2.396   2.542  13.737 -0.0641 -0.6198  0.7346
 8610SOL    HW137292   2.477   2.491  13.726  1.7683  2.7036 -1.4662
 8610SOL    HW237293   2.412   2.609  13.670 -1.5905 -2.9212 -1.9235
 8611SOL     OW37294   2.747   2.942   0.828  0.4296 -0.3399 -0.2192
 8611SOL    HW137295   2.685   2.900   0.888  0.0549  0.1745 -0.2523
 8611SOL    HW237296   2.695   2.939   0.748  1.3377 -0.3513 -0.8128
 8612SOL     OW37297   2.787   4.097  10.589 -0.0325  0.3336  0.1120
 8612SOL    HW137298   2.714   4.147  10.552  0.4315  0.0132 -1.2544
 8612SOL    HW237299   2.857   4.161  10.580 -1.2601  1.4280 -1.6736
 8613SOL     OW37300   3.359   1.861  16.015  0.1719 -0.5678 -0.6133
 8613SOL    HW137301   3.339   1.941  15.967 -0.8126 -0.4810 -0.0537
 8613SOL    HW237302   3.357   1.896  16.105 -1.1629 -0.9202 -0.5100
 8614SOL     OW37303   3.659   2.934  14.830 -0.9737  0.2395  0.2075
 8614SOL    HW137304   3.651   2.840  14.848 -1.3578 -0.1034 -1.7002
 8614SOL    HW237305   3.725   2.964  14.891 -0.6985  0.2397 -0.0917
 8615SOL     OW37306   0.836   4.283   4.318  0.1494 -0.0556  0.1179
 8615SOL    HW137307   0.831   4.189   4.337  2.1749 -0.3735 -0.8605
 8615SOL    HW237308   0.787   4.326   4.388  1.3094  2.0635 -0.3681
 8616SOL     OW37309   1.279   0.229   9.622  0.5070  0.0315  0.1720
 8616SOL    HW137310   1.275   0.294   9.552 -0.8271 -2.6482 -2.2046
 8616SOL    HW237311   1.195   0.187   9.602  0.6712  0.2361 -0.9679
 8617SOL     OW37312   1.699   0.570   1.564  0.2819 -0.2818 -0.5646
 8617SOL    HW137313   1.651   0.499   1.605 -0.8760  2.0963  2.2135
 8617SOL    HW237314   1.629   0.615   1.517  0.5497  1.1347  0.3807
 8618SOL     OW37315   3.733   0.692  12.110 -0.2982 -0.6776  0.7902
 8618SOL    HW137316   3.734   0.606  12.152  0.6607 -1.3189 -0.5484
 8618SOL    HW237317   3.817   0.726  12.139  1.1208 -2.3283 -1.4203
 8619SOL     OW37318   0.658   4.678   3.630  0.1528 -0.0204  0.4717
 8619SOL    HW137319   0.610   4.597   3.647 -0.7278  0.1104 -1.3627
 8619SOL    HW237320   0.650   4.717   3.717 -2.0980  2.4635 -0.8328
 8620SOL     OW37321   0.512   3.408   9.154  0.2127 -0.6342  0.4215
 8620SOL    HW137322   0.426   3.439   9.183  1.0439  1.0568  1.0705
 8620SOL    HW237323   0.576   3.472   9.184 -1.9931  1.0245  1.5235
 8621SOL     OW37324   3.605   4.304  13.653 -0.3326 -0.1739  0.8705
 8621SOL    HW137325   3.580   4.211  13.649 -0.9932  0.0353  0.1333
 8621SOL    HW237326   3.694   4.286  13.682  0.7005  2.3899 -0.7099
 8622SOL     OW37327   0.216   3.779   5.584  0.0775 -0.2148 -0.0965
 8622SOL    HW137328   0.182   3.803   5.671  1.7617  0.2220  0.4473
 8622SOL    HW237329   0.280   3.849   5.572  0.2097 -0.0477  1.4727
 8623SOL     OW37330   2.876   0.569  15.742  0.1039 -0.0728  0.1464
 8623SOL    HW137331   2.953   0.552  15.688  0.6130  0.8830  0.5692
 8623SOL    HW237332   2.878   0.502  15.810  2.3186 -0.6069 -0.4642
 8624SOL     OW37333   2.414   1.880  15.723 -0.0566  0.0644 -0.5325
 8624SOL    HW137334   2.471   1.807  15.698 -0.6112 -0.8865  0.9715
 8624SOL    HW237335   2.421   1.925  15.639  2.1109  0.5075 -0.1285
 8625SOL     OW37336   3.191   3.068   8.198  0.6408  0.2523  0.5716
 8625SOL    HW137337   3.197   2.984   8.152 -2.4249  0.9538 -1.0740
 8625SOL    HW237338   3.239   3.121   8.134 -0.8190  0.3204 -0.4531
 8626SOL     OW37339   0.410   0.690   4.547 -0.4352  0.1903 -1.1771
 8626SOL    HW137340   0.405   0.609   4.495 -0.0134  0.2981 -1.3905
 8626SOL    HW237341   0.320   0.718   4.559 -0.4764 -1.8868  3.5447
 8627SOL     OW37342   0.200   3.331   3.329 -0.0304  0.0840 -0.1310
 8627SOL    HW137343   0.173   3.407   3.380 -1.0959  0.5619 -1.3981
 8627SOL    HW237344   0.280   3.365   3.289  0.1224  1.7011  1.5403
 8628SOL     OW37345   4.077   2.659   4.423 -0.3513 -0.2005 -0.0610
 8628SOL    HW137346   3.997   2.629   4.380 -0.0267 -0.9666 -0.1271
 8628SOL    HW237347   4.066   2.636   4.515 -0.3140 -0.3824 -0.1018
 8629SOL     OW37348   4.149   3.521   6.634  0.0161  0.5202 -0.0135
 8629SOL    HW137349   4.100   3.560   6.561 -0.1445  0.9488  0.3246
 8629SOL    HW237350   4.124   3.429   6.621  1.7623  0.2006 -1.1292
 8630SOL     OW37351   1.979   3.713   4.743  0.1147  0.0062  0.2500
 8630SOL    HW137352   2.021   3.698   4.827  0.2438  0.5660  0.2886
 8630SOL    HW237353   2.052   3.687   4.687 -0.6541 -2.4247  0.3965
 8631SOL     OW37354   2.792   2.611   3.412 -0.1444 -0.4936 -0.0226
 8631SOL    HW137355   2.847   2.538   3.439 -0.3619 -1.5986 -2.4981
 8631SOL    HW237356   2.710   2.569   3.384  1.0419  0.0223 -4.3882
 8632SOL     OW37357   2.552   3.765  13.312  0.3888  0.0738  0.1527
 8632SOL    HW137358   2.636   3.742  13.352 -0.5988 -2.1852  0.9006
 8632SOL    HW237359   2.526   3.676  13.289  1.2613 -0.4698  1.2658
 8633SOL     OW37360   2.376   0.883   2.955  0.5217  0.3450 -0.2019
 8633SOL    HW137361   2.395   0.976   2.968 -2.5628  1.0498 -0.7074
 8633SOL    HW237362   2.410   0.837   3.032 -0.1836  2.1370  1.1693
 8634SOL     OW37363   3.054   0.619   6.289 -0.3800 -0.2328 -0.0960
 8634SOL    HW137364   2.966   0.591   6.315  0.3919 -3.3817 -0.8694
 8634SOL    HW237365   3.076   0.550   6.227  0.9991 -0.6352  0.8194
 8635SOL     OW37366   3.919   2.167  14.363 -0.4883  0.0342 -0.6604
 8635SOL    HW137367   3.973   2.145  14.439 -1.1247 -0.1688 -0.2621
 8635SOL    HW237368   3.908   2.262  14.371  0.4411  0.0131  0.9222
 8636SOL     OW37369   2.535   0.892   5.585 -0.1959 -0.1518  0.5040
 8636SOL    HW137370   2.531   0.804   5.623  0.3394 -0.6775 -0.6470
 8636SOL    HW237371   2.585   0.941   5.650  0.5683 -1.7349  1.1010
 8637SOL     OW37372   3.625   4.126  16.637 -0.4145  0.1577  0.4260
 8637SOL    HW137373   3.693   4.131  16.704 -0.1964  0.5700  0.1714
 8637SOL    HW237374   3.624   4.035  16.607  0.1335  0.3748 -0.2561
 8638SOL     OW37375   2.754   3.262   5.633 -0.5337 -0.3990 -0.1421
 8638SOL    HW137376   2.809   3.320   5.581  0.6843 -2.7921 -1.5551
 8638SOL    HW237377   2.773   3.174   5.599 -1.8042  0.2334 -2.5022
 8639SOL     OW37378   0.388   3.092   5.571 -0.6513  0.1075 -0.5707
 8639SOL    HW137379   0.345   3.019   5.527  1.6177 -2.7925  2.0184
 8639SOL    HW237380   0.478   3.090   5.538 -0.8261 -1.7734 -0.9655
 8640SOL     OW37381   2.118   2.856  16.448 -0.3928 -0.3464 -0.0919
 8640SOL    HW137382   2.127   2.886  16.358 -1.3637  2.3920  0.7139
 8640SOL    HW237383   2.104   2.937  16.498  3.2221 -0.6194  1.3786
 8641SOL     OW37384   0.814   0.552   4.414  0.2342 -0.5271  0.0408
 8641SOL    HW137385   0.851   0.612   4.477  0.2800  0.3150 -0.7879
 8641SOL    HW237386   0.822   0.464   4.453  0.2230 -0.0103  1.1977
 8642SOL     OW37387   3.363   2.727   3.016 -0.3394 -0.5828 -0.8014
 8642SOL    HW137388   3.406   2.754   2.934  0.2596 -1.7871 -0.8713
 8642SOL    HW237389   3.302   2.799   3.035  2.5164  1.2997  1.1164
 8643SOL     OW37390   3.218   1.624   7.832  0.5070  0.3395 -0.0043
 8643SOL    HW137391   3.291   1.682   7.813  1.5304 -0.1304  2.4674
 8643SOL    HW237392   3.276   1.566   7.882 -0.7042 -1.5354 -0.7886
 8644SOL     OW37393   4.522   2.479   3.058  0.4876 -0.0206 -0.1102
 8644SOL    HW137394   4.514   2.384   3.064  0.4710  0.0850  1.4641
 8644SOL    HW237395   4.490   2.506   3.144 -0.0522 -0.5477 -0.1426
 8645SOL     OW37396   0.533   1.144   8.711  0.5209 -0.2990  0.2974
 8645SOL    HW137397   0.456   1.095   8.738  0.7084 -0.1691  1.0601
 8645SOL    HW237398   0.544   1.086   8.635  2.0162  1.5957 -0.9412
 8646SOL     OW37399   3.120   3.841  12.714  0.1783  0.1362  0.7748
 8646SOL    HW137400   3.038   3.836  12.764 -0.4033 -2.5880 -0.4166
 8646SOL    HW237401   3.165   3.763  12.748 -0.1218  0.6916  2.4725
 8647SOL     OW37402   2.643   3.208   6.221 -1.0827  0.0435  0.5265
 8647SOL    HW137403   2.561   3.169   6.252 -1.1893 -1.1201 -1.2091
 8647SOL    HW237404   2.628   3.299   6.247  0.3604  0.5555 -0.4453
 8648SOL     OW37405   2.339   0.717  13.352  0.2671 -0.3623  0.7537
 8648SOL    HW137406   2.398   0.780  13.311  0.8261 -0.9251  0.6839
 8648SOL    HW237407   2.276   0.720  13.280  2.3009  2.1339 -0.9357
 8649SOL     OW37408   1.890   1.297   0.341  0.2132 -0.5386  0.4047
 8649SOL    HW137409   1.877   1.239   0.265  0.7114 -3.2833  2.4135
 8649SOL    HW237410   1.948   1.247   0.399  2.0570  0.1802 -0.8161
 8650SOL     OW37411   4.590   1.715   4.094  0.3931  0.7008  0.0570
 8650SOL    HW137412   4.567   1.685   4.182 -0.7965 -1.3763 -0.9636
 8650SOL    HW237413   4.593   1.809   4.114  3.3652  0.0003  2.9376
 8651SOL     OW37414   1.740   0.140   9.199 -0.5208 -0.2430 -0.5359
 8651SOL    HW137415   1.720   0.195   9.124 -0.7585  0.4774  0.0633
 8651SOL    HW237416   1.826   0.104   9.177 -0.1111  1.1891 -1.2608
 8652SOL     OW37417   2.355   1.813  16.814 -0.2306  0.3374 -0.2221
 8652SOL    HW137418   2.369   1.758  16.738  1.1630 -0.2877  0.4973
 8652SOL    HW237419   2.346   1.902  16.778  1.0670  0.5720  0.0626
 8653SOL     OW37420   4.009   2.786   3.152  0.4714  0.1401 -0.0332
 8653SOL    HW137421   4.087   2.829   3.116  1.5811 -0.6266  1.4707
 8653SOL    HW237422   3.953   2.813   3.080 -1.5139  3.3388  2.7446
 8654SOL     OW37423   3.166   1.904  11.324  0.4808  0.8982  0.1135
 8654SOL    HW137424   3.211   1.961  11.261 -0.3365 -1.2206 -2.4135
 8654SOL    HW237425   3.074   1.897  11.297  0.3711 -0.3392  0.7918
 8655SOL     OW37426   1.827   0.735  10.694  0.2005  0.3386 -0.1249
 8655SOL    HW137427   1.808   0.824  10.724 -2.0678  0.2213 -1.2521
 8655SOL    HW237428   1.829   0.695  10.781  1.8021 -0.8154 -0.6879
 8656SOL     OW37429   2.575   3.582   0.765 -0.6000  0.0328  0.0920
 8656SOL    HW137430   2.596   3.584   0.858 -1.3139 -2.2611  0.2845
 8656SOL    HW237431   2.486   3.615   0.778 -1.2179 -0.6296 -2.3684
 8657SOL     OW37432   4.151   0.152   4.981 -0.1455 -0.2787 -0.0080
 8657SOL    HW137433   4.096   0.078   5.009 -1.8637  1.2589  0.6390
 8657SOL    HW237434   4.100   0.177   4.904  0.0848 -1.7122 -0.6276
 8658SOL     OW37435   2.661   0.588  12.244  0.0641  0.1109  0.0080
 8658SOL    HW137436   2.669   0.580  12.149  0.1546  0.9549 -0.0525
 8658SOL    HW237437   2.630   0.678  12.257  2.3605  0.9821 -0.5357
 8659SOL     OW37438   3.975   2.887   5.767  0.1785 -0.1699  0.1806
 8659SOL    HW137439   3.916   2.915   5.837  1.1003  1.0350  0.4909
 8659SOL    HW237440   4.034   2.821   5.804 -1.9747 -1.6882  0.8949
 8660SOL     OW37441   4.580   0.936  17.666 -0.0433  0.4774 -0.3667
 8660SOL    HW137442   4.571   1.028   0.008 -1.1026  0.3264 -0.1802
 8660SOL    HW237443   4.545   0.887   0.059  1.8829  0.2684  0.4031
 8661SOL     OW37444   0.055   3.068   7.369 -0.1350  0.1887 -0.2184
 8661SOL    HW137445   0.064   2.974   7.359 -0.3817 -0.0065  1.4162
 8661SOL    HW237446   4.716   3.076   7.444  0.4019  1.2144  0.1034
 8662SOL     OW37447   4.222   3.165   3.292  0.0055  0.8373  0.0871
 8662SOL    HW137448   4.297   3.193   3.239  1.9140 -2.5443  0.9837
 8662SOL    HW237449   4.268   3.099   3.344 -0.0999  1.5367  1.0882
 8663SOL     OW37450   2.013   4.239   3.754 -0.5726 -0.2799 -0.2873
 8663SOL    HW137451   1.989   4.196   3.672 -1.8236  0.3639 -0.2427
 8663SOL    HW237452   1.930   4.250   3.799 -0.2952  0.8416 -0.0446
 8664SOL     OW37453   2.498   3.753   6.825  0.0422  0.2254 -0.7003
 8664SOL    HW137454   2.545   3.751   6.741 -0.2845 -3.1156 -0.7813
 8664SOL    HW237455   2.426   3.695   6.802 -0.4855  1.6129 -2.5621
 8665SOL     OW37456   2.862   4.080   6.850 -0.2226  1.0603  0.4150
 8665SOL    HW137457   2.773   4.100   6.823  0.3446  2.4927 -0.4179
 8665SOL    HW237458   2.905   4.081   6.764  0.8566 -1.9317  0.8947
 8666SOL     OW37459   3.123   4.449   6.328 -0.1319 -0.2608  0.0830
 8666SOL    HW137460   3.066   4.406   6.391  0.1231  1.4436  1.5088
 8666SOL    HW237461   3.188   4.492   6.385  0.4275 -0.6394 -0.2739
 8667SOL     OW37462   3.770   0.330   8.470  0.2837 -0.6829  0.3106
 8667SOL    HW137463   3.701   0.356   8.409  1.9326  4.1618  0.5351
 8667SOL    HW237464   3.712   0.334   8.546 -1.6651 -0.3968 -1.1763
 8668SOL     OW37465   2.544   3.590   7.989 -0.0822 -0.1424  0.5818
 8668SOL    HW137466   2.585   3.580   8.075 -1.7287 -2.3277  1.0900
 8668SOL    HW237467   2.508   3.503   7.971 -1.0524  0.4917 -0.5173
 8669SOL     OW37468   2.217   3.787  11.335 -0.0710  0.0731  0.4707
 8669SOL    HW137469   2.152   3.780  11.405  0.1338  0.5227  0.7090
 8669SOL    HW237470   2.255   3.700  11.333 -2.2669 -0.8423 -0.7627
 8670SOL     OW37471   1.601   3.915  11.310  1.0070  0.4923  0.2873
 8670SOL    HW137472   1.506   3.900  11.313  1.2279 -0.5859  1.8830
 8670SOL    HW237473   1.618   3.860  11.234 -1.6468  1.6529 -1.1479
 8671SOL     OW37474   3.884   3.970  12.515 -0.1621  0.1715 -0.4409
 8671SOL    HW137475   3.808   3.913  12.529  0.8327 -0.2352  3.3282
 8671SOL    HW237476   3.900   4.009  12.601  0.4518  0.2806 -0.6009
 8672SOL     OW37477   1.273   2.233  16.219  0.7211 -0.2798 -0.0343
 8672SOL    HW137478   1.243   2.143  16.225  0.7723 -0.4857 -2.5449
 8672SOL    HW237479   1.311   2.255  16.304  0.8547 -1.7844  0.2954
 8673SOL     OW37480   2.015   1.627   7.488 -0.1994 -0.4462 -0.5139
 8673SOL    HW137481   1.924   1.606   7.510 -0.2063 -0.7506 -0.8302
 8673SOL    HW237482   2.024   1.573   7.409  2.0195 -0.3114 -0.3517
 8674SOL     OW37483   2.607   4.178   8.888 -0.1176 -0.6016 -0.6816
 8674SOL    HW137484   2.605   4.093   8.932 -0.5214 -0.6604 -0.8129
 8674SOL    HW237485   2.572   4.144   8.806 -0.4339  0.9986 -1.2043
 8675SOL     OW37486   1.857   2.711   0.729  0.1026  0.5852 -0.2820
 8675SOL    HW137487   1.764   2.733   0.732  0.6873  2.8344  1.1897
 8675SOL    HW237488   1.854   2.631   0.676 -1.9780 -0.7681  1.8784
 8676SOL     OW37489   4.482   0.929   3.401  0.4889  0.2914 -0.0426
 8676SOL    HW137490   4.517   0.982   3.473  1.0222  1.0549 -0.8561
 8676SOL    HW237491   4.393   0.964   3.406 -0.5539 -2.0506 -2.1820
 8677SOL     OW37492   2.787   0.966   4.064 -0.4293  0.2442 -0.0366
 8677SOL    HW137493   2.714   1.027   4.048 -0.1639  0.9378  1.3996
 8677SOL    HW237494   2.789   0.908   3.988  1.4731  0.2149  0.0554
 8678SOL     OW37495   2.398   2.181   3.023 -0.0286  0.0880 -0.2702
 8678SOL    HW137496   2.405   2.163   3.117 -1.3053  2.1320  0.2189
 8678SOL    HW237497   2.406   2.091   2.990 -0.3492 -0.1248  0.2200
 8679SOL     OW37498   4.670   3.260  12.151 -0.0025  0.5158 -0.3570
 8679SOL    HW137499   0.012   3.280  12.221  0.8264  0.5989 -1.1178
 8679SOL    HW237500   4.597   3.224  12.201  0.2639  2.3069  1.3013
 8680SOL     OW37501   4.107   4.291   6.162  0.0116  0.2202 -0.0561
 8680SOL    HW137502   4.198   4.266   6.177  0.1572  1.4911  1.1647
 8680SOL    HW237503   4.115   4.385   6.143  2.1781  0.3471  1.4886
 8681SOL     OW37504   0.855   1.903   7.757 -0.7345  0.5295  0.4303
 8681SOL    HW137505   0.782   1.947   7.802 -1.9329  2.8489 -3.7993
 8681SOL    HW237506   0.854   1.962   7.682  1.5151 -0.0564 -0.0399
 8682SOL     OW37507   1.792   2.731   3.830 -0.4526  0.1841 -0.0322
 8682SOL    HW137508   1.778   2.815   3.786  0.2598  0.4416  0.2373
 8682SOL    HW237509   1.787   2.753   3.923  0.0626  0.1643 -0.0031
 8683SOL     OW37510   2.644   1.655   5.298  0.0185  0.3937  0.2962
 8683SOL    HW137511   2.575   1.613   5.349 -0.7575  1.1727 -0.1082
 8683SOL    HW237512   2.644   1.617   5.210 -0.1601  0.3771  0.3034
 8684SOL     OW37513   2.430   2.072   4.345  0.5453  0.3713 -0.2985
 8684SOL    HW137514   2.345   2.028   4.354  0.7857 -0.0533 -0.0994
 8684SOL    HW237515   2.416   2.101   4.255 -0.9569  1.0046  0.1389
 8685SOL     OW37516   4.320   1.265   7.157 -1.1690  0.2212  0.3113
 8685SOL    HW137517   4.262   1.215   7.215 -0.1119  2.8371  3.6078
 8685SOL    HW237518   4.256   1.281   7.087 -0.6580  2.0038  0.2407
 8686SOL     OW37519   3.612   4.055  12.909 -0.0130  0.4612 -0.0703
 8686SOL    HW137520   3.533   4.021  12.951 -0.3253 -0.4867 -1.4070
 8686SOL    HW237521   3.676   4.016  12.969  1.3874  1.6071 -0.8131
 8687SOL     OW37522   4.620   0.450   1.092  0.6354 -0.0003  0.0766
 8687SOL    HW137523   4.710   0.437   1.062  0.5617  0.7384 -0.4461
 8687SOL    HW237524   4.616   0.545   1.100  1.9263  0.0422  0.1834
 8688SOL     OW37525   3.815   0.236   0.470 -0.2973  0.0396 -0.1665
 8688SOL    HW137526   3.819   0.327   0.441 -0.4360  0.9823  2.7914
 8688SOL    HW237527   3.723   0.222   0.446 -0.6788  0.9953  0.7386
 8689SOL     OW37528   0.983   1.923  10.358  0.3189  0.6118  0.1156
 8689SOL    HW137529   1.054   1.974  10.396  0.1832 -0.6035  2.0382
 8689SOL    HW237530   0.924   1.993  10.329 -0.5420  0.1981  0.8558
 8690SOL     OW37531   0.500   3.570   4.813 -0.2600  0.2396 -0.7736
 8690SOL    HW137532   0.447   3.649   4.814 -0.2060  0.2564  1.1445
 8690SOL    HW237533   0.486   3.543   4.903 -1.0563  0.8364 -0.7261
 8691SOL     OW37534   3.961   2.876   8.291 -0.6795  0.3932  0.6869
 8691SOL    HW137535   3.933   2.832   8.372 -0.5983 -0.8283  0.0428
 8691SOL    HW237536   3.879   2.924   8.280  0.1451  2.1625  2.1961
 8692SOL     OW37537   2.886   2.283   4.882 -0.2734  0.0486 -0.2033
 8692SOL    HW137538   2.893   2.328   4.797  1.2666  0.7448  0.2957
 8692SOL    HW237539   2.837   2.354   4.922  2.8910  3.0231 -1.6041
 8693SOL     OW37540   0.256   2.301   5.024  0.1237 -0.2001 -0.1681
 8693SOL    HW137541   0.202   2.223   5.013 -2.6604  1.6490  0.3648
 8693SOL    HW237542   0.198   2.376   5.011 -0.3740 -0.8819 -1.8112
 8694SOL     OW37543   0.710   0.620   6.182  0.1101  0.9610  0.2320
 8694SOL    HW137544   0.779   0.683   6.204  1.0318 -0.5504  1.6267
 8694SOL    HW237545   0.731   0.556   6.249 -0.8109  1.1014  0.6601
 8695SOL     OW37546   1.735   1.855  14.423 -0.7925 -0.1262  0.3474
 8695SOL    HW137547   1.683   1.791  14.375 -0.9300  0.6419 -0.5553
 8695SOL    HW237548   1.724   1.836  14.516 -0.0047  1.7195  0.8218
 8696SOL     OW37549   1.080   4.157   5.922  0.0647  0.3664 -0.1932
 8696SOL    HW137550   1.025   4.235   5.912 -1.4558 -0.6072  0.7438
 8696SOL    HW237551   1.161   4.202   5.897  0.0172  0.2632 -0.5265
 8697SOL     OW37552   4.495   3.913   7.253  0.1671 -0.4200  0.7651
 8697SOL    HW137553   4.467   3.877   7.337  0.1988  0.6264  1.2207
 8697SOL    HW237554   4.483   3.840   7.192 -1.1272 -1.3458  2.1151
 8698SOL     OW37555   3.025   1.765   2.775  0.1108 -0.0949 -0.2702
 8698SOL    HW137556   3.028   1.860   2.787  2.1465 -0.0829 -0.8112
 8698SOL    HW237557   2.932   1.756   2.753  0.0842  0.3975 -0.3509
 8699SOL     OW37558   3.706   3.708   7.298  0.2475  0.1799  0.0379
 8699SOL    HW137559   3.768   3.678   7.231 -0.7083 -0.6426 -0.4810
 8699SOL    HW237560   3.659   3.626   7.314  1.8165 -0.8746 -0.7091
 8700SOL     OW37561   3.826   0.073   3.001  0.1627  0.4921 -0.0684
 8700SOL    HW137562   3.890   0.075   2.930 -0.7455  0.9031 -0.8614
 8700SOL    HW237563   3.743   0.065   2.954  0.4707 -1.5687 -0.2813
 8701SOL     OW37564   3.983   2.342   1.175 -0.3626 -0.7377 -0.0326
 8701SOL    HW137565   3.977   2.246   1.180  1.2400 -0.8605 -0.6346
 8701SOL    HW237566   3.898   2.352   1.132 -0.4791  2.4982  0.9970
 8702SOL     OW37567   0.138   3.753  14.758 -0.5092 -0.1302 -0.0864
 8702SOL    HW137568   0.202   3.801  14.704 -0.2300 -0.5262 -0.1098
 8702SOL    HW237569   0.057   3.802  14.748 -0.5889 -0.5737 -1.7945
 8703SOL     OW37570   4.587   3.861   2.907  0.0145  0.2494 -0.1967
 8703SOL    HW137571   4.628   3.789   2.956 -1.4494  0.4360  1.3055
 8703SOL    HW237572   4.645   3.932   2.935  1.5284 -1.6889  1.6016
 8704SOL     OW37573   2.644   0.958   8.332 -0.5188  0.2910  1.2232
 8704SOL    HW137574   2.647   1.011   8.253 -2.3425  0.2985  1.1617
 8704SOL    HW237575   2.578   1.005   8.384  1.8386  3.0747  1.7297
 8705SOL     OW37576   1.921   3.101   2.279  0.1149 -0.4858  0.0840
 8705SOL    HW137577   1.957   3.160   2.212 -1.0736  2.0996  1.6925
 8705SOL    HW237578   1.828   3.115   2.260  0.4252 -0.7155 -1.5880
 8706SOL     OW37579   0.932   0.228  10.420 -0.0639  0.1272 -0.2209
 8706SOL    HW137580   0.938   0.142  10.461 -0.0917  0.0534 -0.3705
 8706SOL    HW237581   0.974   0.279  10.489 -0.8734  2.8416 -1.7423
 8707SOL     OW37582   3.994   0.964   2.210  0.0865  0.5083  0.2445
 8707SOL    HW137583   3.990   1.021   2.133  2.7645  1.0011  0.4518
 8707SOL    HW237584   3.912   0.916   2.201  0.0452  0.2301  2.0567
 8708SOL     OW37585   0.653   2.279   1.204  0.3819  0.0363 -0.2924
 8708SOL    HW137586   0.720   2.211   1.214 -0.3441 -0.5031  0.9212
 8708SOL    HW237587   0.664   2.315   1.116 -0.0311 -0.9250 -0.7473
 8709SOL     OW37588   4.164   2.868  12.263  0.1535 -0.3499 -0.2036
 8709SOL    HW137589   4.176   2.775  12.283 -0.6371 -0.6723 -1.2423
 8709SOL    HW237590   4.116   2.906  12.337  2.1795 -0.5603  1.2350
 8710SOL     OW37591   4.039   4.378   4.323  0.3225 -0.5592  0.3788
 8710SOL    HW137592   4.011   4.453   4.271  1.3417 -0.1053  0.4745
 8710SOL    HW237593   4.127   4.365   4.288  0.1208  0.2875 -0.4452
 8711SOL     OW37594   3.293   4.691   8.120  0.1266 -0.2656 -0.0076
 8711SOL    HW137595   3.214   4.689   8.175  0.2450  1.4882  0.2163
 8711SOL    HW237596   3.308   4.597   8.112 -2.4354 -0.5209 -1.9474
 8712SOL     OW37597   2.075   2.625   4.198 -0.0123 -0.3758 -0.2302
 8712SOL    HW137598   2.109   2.711   4.172 -2.0803  0.9687  1.5197
 8712SOL    HW237599   2.153   2.575   4.222  0.1902 -0.1129 -0.3321
 8713SOL     OW37600   0.026   3.245   2.846 -0.2403  0.4900 -0.2848
 8713SOL    HW137601   0.096   3.188   2.814  0.3579 -0.5307  2.7420
 8713SOL    HW237602   0.040   3.231   2.940  1.3289 -0.6900 -0.6809
 8714SOL     OW37603   1.221   1.155   2.282 -0.0638  0.9592  1.1624
 8714SOL    HW137604   1.199   1.226   2.344 -1.1745  0.2740  1.5567
 8714SOL    HW237605   1.239   1.207   2.203 -0.7318  0.6629  0.8132
 8715SOL     OW37606   2.953   4.097   2.133 -0.2096  0.1725  0.2724
 8715SOL    HW137607   2.912   4.107   2.047  0.6609 -0.2779 -0.1992
 8715SOL    HW237608   2.977   4.189   2.148 -1.8199  0.8079 -1.0810
 8716SOL     OW37609   1.420   1.223   8.437  0.0018 -0.0966  0.2260
 8716SOL    HW137610   1.469   1.253   8.514 -0.5806  0.1116  0.5113
 8716SOL    HW237611   1.381   1.305   8.405 -2.2198 -1.3147 -0.1735
 8717SOL     OW37612   2.734   2.731   4.036  0.3597  0.1479 -0.0123
 8717SOL    HW137613   2.745   2.825   4.024 -0.1184  0.3595  1.1799
 8717SOL    HW237614   2.791   2.714   4.111 -0.1157 -0.3385  0.2430
 8718SOL     OW37615   0.751   0.864   9.619  0.0114 -0.0996 -0.0063
 8718SOL    HW137616   0.676   0.806   9.618  1.2144 -1.6681  0.6587
 8718SOL    HW237617   0.721   0.949   9.651  0.3023 -0.3355  0.9082
 8719SOL     OW37618   0.998   1.239   4.894 -0.1677  0.5257  0.8007
 8719SOL    HW137619   0.911   1.272   4.869  0.3652  0.4111 -1.2628
 8719SOL    HW237620   0.996   1.157   4.844 -1.0409 -0.3797  2.3304
 8720SOL     OW37621   3.975   0.732  17.115 -0.2714  0.0826  0.0940
 8720SOL    HW137622   3.949   0.797  17.050  0.8987  1.6465  1.1894
 8720SOL    HW237623   4.022   0.789  17.176  1.4372 -0.8823 -0.3220
 8721SOL     OW37624   1.813   1.949   7.463  0.2082  0.0921  0.4271
 8721SOL    HW137625   1.736   2.005   7.460  1.1881  1.3279 -1.7200
 8721SOL    HW237626   1.781   1.887   7.529  3.2908 -0.0650  1.8266
 8722SOL     OW37627   3.866   3.771   4.706 -0.0405 -0.7342 -0.1709
 8722SOL    HW137628   3.776   3.801   4.702  0.2441  0.3694  2.2818
 8722SOL    HW237629   3.869   3.743   4.797  2.6391 -0.7489 -0.2614
 8723SOL     OW37630   0.292   2.478   4.676  0.2859  0.4455  0.0660
 8723SOL    HW137631   0.294   2.482   4.772 -1.0858 -1.6000  0.1672
 8723SOL    HW237632   0.213   2.529   4.660 -0.0631 -0.0548  0.1801
 8724SOL     OW37633   3.684   0.187   1.167  0.0086  0.3494  0.0712
 8724SOL    HW137634   3.634   0.112   1.135  1.1936 -0.5107  0.2213
 8724SOL    HW237635   3.614   0.237   1.209  0.6630  1.1303  0.2213
 8725SOL     OW37636   2.687   0.871   7.879  0.3713 -0.6943  0.1221
 8725SOL    HW137637   2.692   0.776   7.875  0.8130 -0.7327  1.5748
 8725SOL    HW237638   2.594   0.892   7.893  0.8240  0.4574  1.5075
 8726SOL     OW37639   4.464   4.077   9.432 -0.0227  0.1032  0.4720
 8726SOL    HW137640   4.511   4.114   9.507  0.8678  2.5352 -1.2493
 8726SOL    HW237641   4.457   4.157   9.379  1.1931  0.4724  0.8618
 8727SOL     OW37642   3.083   3.545  17.043 -0.6041 -0.3545 -0.1192
 8727SOL    HW137643   3.052   3.454  17.043 -0.6997 -0.3270  0.9057
 8727SOL    HW237644   3.056   3.560  16.953 -0.8300 -0.0452  0.0006
 8728SOL     OW37645   2.801   2.054   7.539  0.3830  0.1768 -0.0579
 8728SOL    HW137646   2.802   2.135   7.489  0.5448  0.6090  0.6471
 8728SOL    HW237647   2.710   2.026   7.536  0.4162 -0.1374  1.8590
 8729SOL     OW37648   4.404   2.135   6.152  0.1912  0.3082 -0.5954
 8729SOL    HW137649   4.344   2.138   6.227 -0.7232  0.8405 -1.3504
 8729SOL    HW237650   4.480   2.096   6.195  1.2862  1.0173 -1.9254
 8730SOL     OW37651   0.231   4.714  16.206  0.1599  0.6833  0.0940
 8730SOL    HW137652   0.218   4.694  16.298 -1.2874  0.0960 -0.2355
 8730SOL    HW237653   0.142   0.008  16.175 -0.3270 -2.3541  0.1685
 8731SOL     OW37654   3.798   1.069   3.482 -0.0158 -0.0858  0.4998
 8731SOL    HW137655   3.835   0.988   3.446  1.7395  1.3840 -1.0495
 8731SOL    HW237656   3.810   1.061   3.576 -0.9645  1.5387  0.7574
 8732SOL     OW37657   1.692   2.996   1.723  0.3836  0.3048 -0.3861
 8732SOL    HW137658   1.610   3.038   1.746  2.3835  3.4624  1.0393
 8732SOL    HW237659   1.672   2.994   1.630 -2.0227 -0.6847  0.1559
 8733SOL     OW37660   4.507   3.308   5.947  0.2544  0.4400  0.3836
 8733SOL    HW137661   4.463   3.245   5.890 -1.6283  1.7942  0.3534
 8733SOL    HW237662   4.507   3.388   5.894  2.4775 -0.7806 -1.4813
 8734SOL     OW37663   2.325   1.169   6.036  0.4502 -0.5066  0.2486
 8734SOL    HW137664   2.414   1.134   6.029  0.5597 -0.3337  0.8209
 8734SOL    HW237665   2.317   1.141   6.127  1.6569 -0.2998  0.4243
 8735SOL     OW37666   3.752   2.333   1.681  0.4221 -0.1256 -0.0814
 8735SOL    HW137667   3.724   2.271   1.613 -1.1066 -0.4777  0.8626
 8735SOL    HW237668   3.828   2.369   1.635 -0.1718  1.6429  0.3561
 8736SOL     OW37669   4.030   4.079   4.804  0.1245 -0.0666 -0.1838
 8736SOL    HW137670   4.125   4.084   4.810  0.0597 -0.5243  1.1908
 8736SOL    HW237671   4.011   4.026   4.881  1.9620  2.0213  1.7107
 8737SOL     OW37672   4.021   3.749   1.157  0.4466  0.4806 -0.2788
 8737SOL    HW137673   3.979   3.664   1.164 -2.0087  1.6996 -0.1208
 8737SOL    HW237674   4.084   3.735   1.087  0.3237  0.6221 -0.4191
 8738SOL     OW37675   3.384   3.262   6.278  0.2040 -0.3248 -0.1718
 8738SOL    HW137676   3.460   3.225   6.322  0.7991  1.6740  0.4612
 8738SOL    HW237677   3.320   3.237   6.345  0.2778  1.6238  0.6406
 8739SOL     OW37678   3.316   3.853  16.370  0.3613  0.1103 -0.4257
 8739SOL    HW137679   3.321   3.864  16.465  0.6676 -1.4616 -0.2517
 8739SOL    HW237680   3.374   3.778  16.352  0.3786  0.3193 -1.2740
 8740SOL     OW37681   0.477   2.097  12.556 -0.0122 -0.4538  0.3680
 8740SOL    HW137682   0.482   2.176  12.610  1.1771  0.7634 -1.5414
 8740SOL    HW237683   0.441   2.041  12.626  0.4464  0.5315  1.3939
 8741SOL     OW37684   3.490   4.567   1.313  0.2494 -0.2868 -0.1673
 8741SOL    HW137685   3.432   4.505   1.268  0.0034  0.0083 -0.2635
 8741SOL    HW237686   3.472   4.638   1.251 -0.3368  1.6328  2.2124
 8742SOL     OW37687   3.386   0.535   7.304 -0.0055  0.2073  0.0052
 8742SOL    HW137688   3.359   0.477   7.375 -0.1339 -1.2736 -1.2479
 8742SOL    HW237689   3.305   0.568   7.267  0.8812 -0.3461 -2.4066
 8743SOL     OW37690   4.642   2.014  15.465  0.0828  0.0882  0.4102
 8743SOL    HW137691   4.694   1.934  15.470  0.4720  0.2578 -1.1104
 8743SOL    HW237692   4.706   2.084  15.458  0.1801 -0.1887 -1.4122
 8744SOL     OW37693   4.588   0.554   8.966  0.2051 -0.0348  0.5570
 8744SOL    HW137694   4.585   0.571   8.871 -1.2782 -1.6762  0.3026
 8744SOL    HW237695   4.496   0.554   8.992  0.6524  0.8407  2.0779
 8745SOL     OW37696   3.970   1.790   7.404 -0.2145  0.1040 -0.3163
 8745SOL    HW137697   3.898   1.841   7.368  1.1147  2.4756  0.3661
 8745SOL    HW237698   3.949   1.697   7.399  1.0580 -0.1825 -0.3099
 8746SOL     OW37699   1.969   2.874   7.340 -0.3092  0.4703 -0.0645
 8746SOL    HW137700   1.924   2.939   7.287  0.3896  0.9240 -0.1091
 8746SOL    HW237701   2.021   2.929   7.399 -2.0994  0.4360  1.5565
 8747SOL     OW37702   3.329   2.730  12.337  0.4160  0.3121 -0.4029
 8747SOL    HW137703   3.401   2.712  12.277  0.2228  0.8606 -0.7993
 8747SOL    HW237704   3.374   2.723  12.421 -2.6110 -1.0863  1.0908
 8748SOL     OW37705   1.040   2.407  10.387 -0.0444  0.1341 -0.0216
 8748SOL    HW137706   1.046   2.362  10.471  2.3737 -1.4811 -1.0494
 8748SOL    HW237707   0.955   2.377  10.355  0.1536 -2.3815  1.7886
 8749SOL     OW37708   2.108   3.658  10.392  0.0766 -0.0602  0.5112
 8749SOL    HW137709   2.040   3.723  10.382  0.5214  0.5938  1.8700
 8749SOL    HW237710   2.134   3.641  10.301  0.3694 -1.5508  0.8662
 8750SOL     OW37711   1.957   4.563   7.229 -0.5315  0.0678 -0.6696
 8750SOL    HW137712   1.985   4.473   7.211 -0.1769  0.2900 -1.2371
 8750SOL    HW237713   2.021   4.611   7.177 -0.3876 -1.6088 -2.0541
 8751SOL     OW37714   2.846   0.546   0.231 -0.1510  0.5751  0.2876
 8751SOL    HW137715   2.846   0.535   0.326 -2.3758  0.8659  0.3147
 8751SOL    HW237716   2.901   0.623   0.217  0.1513 -0.1340 -2.2475
 8752SOL     OW37717   1.022   2.102  10.039  0.0963  0.4957 -0.4428
 8752SOL    HW137718   0.959   2.112  10.110  0.3945  0.8886 -0.2282
 8752SOL    HW237719   1.093   2.114  10.102  1.0729 -0.8199 -1.2854
 8753SOL     OW37720   2.301   2.698  13.932  0.0074  0.2351 -0.4257
 8753SOL    HW137721   2.374   2.689  13.993  0.5487  1.1620 -0.9393
 8753SOL    HW237722   2.331   2.650  13.855 -1.2370 -0.7932 -0.2619
 8754SOL     OW37723   3.991   4.390   8.072 -0.8438  0.6889 -0.2255
 8754SOL    HW137724   3.904   4.425   8.054 -0.9470  0.4783 -0.1447
 8754SOL    HW237725   4.046   4.468   8.069 -0.7368  0.6768  1.4286
 8755SOL     OW37726   4.537   4.134   1.660 -0.3658  0.1171 -0.3037
 8755SOL    HW137727   4.564   4.122   1.751 -2.1893  2.1757  0.5247
 8755SOL    HW237728   4.443   4.148   1.673  0.2141  1.2955  2.7618
 8756SOL     OW37729   1.666   4.434   4.389  0.0101 -0.4285 -0.1357
 8756SOL    HW137730   1.661   4.414   4.296  0.1389  0.5876 -0.3686
 8756SOL    HW237731   1.754   4.416   4.422  0.4012  1.8399  0.0740
 8757SOL     OW37732   4.350   3.894   1.944  0.2015 -0.2035 -0.6782
 8757SOL    HW137733   4.388   3.952   2.010 -1.7403 -0.1767  0.4073
 8757SOL    HW237734   4.424   3.863   1.891  0.2393  0.4786 -1.0188
 8758SOL     OW37735   2.086   2.256   3.213 -0.1411 -0.2140 -0.1043
 8758SOL    HW137736   2.083   2.213   3.128 -0.5713  1.0540 -0.7320
 8758SOL    HW237737   2.161   2.315   3.203 -0.7001  0.8429  1.8344
 8759SOL     OW37738   3.874   4.361  13.727  0.1212 -0.0137 -0.5938
 8759SOL    HW137739   3.962   4.366  13.764 -0.5049  1.8704  0.6306
 8759SOL    HW237740   3.911   4.315  13.652 -0.3544 -0.8893 -0.2865
 8760SOL     OW37741   1.958   1.892  15.167 -0.0408 -0.8730 -0.1407
 8760SOL    HW137742   1.940   1.976  15.209  0.8352  0.1447 -1.7977
 8760SOL    HW237743   1.935   1.916  15.077 -1.1848 -1.7463 -0.0929
 8761SOL     OW37744   2.211   0.807  10.938  0.0395 -0.0365  0.3709
 8761SOL    HW137745   2.270   0.814  10.863  0.7843 -2.3996  0.7090
 8761SOL    HW237746   2.211   0.899  10.964  2.1459 -0.2701  1.1833
 8762SOL     OW37747   4.330   2.235   1.049  0.0478 -0.0207 -0.7323
 8762SOL    HW137748   4.296   2.242   1.139  0.6222 -1.0486 -0.4290
 8762SOL    HW237749   4.418   2.217   1.082  0.3827  0.1004 -1.5748
 8763SOL     OW37750   0.974   4.534  10.732  0.4756  0.2889  0.0802
 8763SOL    HW137751   0.929   4.556  10.814 -1.5670 -2.0837 -0.4135
 8763SOL    HW237752   1.007   4.446  10.750  0.2307 -0.0564 -1.1912
 8764SOL     OW37753   0.255   0.941   8.184 -0.0824  0.2199 -0.0129
 8764SOL    HW137754   0.302   1.015   8.222  0.0451  0.8745 -1.4468
 8764SOL    HW237755   0.193   0.975   8.119  1.7519  0.9690 -1.3828
 8765SOL     OW37756   0.089   4.695  14.858  0.1200 -0.1052  0.2254
 8765SOL    HW137757   0.135   0.057  14.875 -1.3952  1.1850 -1.9312
 8765SOL    HW237758   0.160   4.646  14.815 -0.5866  0.2039 -1.2862
 8766SOL     OW37759   1.259   0.468   2.753  0.4645  0.3924  0.1815
 8766SOL    HW137760   1.247   0.558   2.784  0.5660  0.1709  0.8834
 8766SOL    HW237761   1.193   0.458   2.685 -0.1628 -0.3256  0.8904
 8767SOL     OW37762   1.527   4.545  12.843 -0.0121 -0.0485  0.4467
 8767SOL    HW137763   1.457   4.590  12.891  2.0783  1.1468  2.3502
 8767SOL    HW237764   1.581   4.516  12.916 -0.8447 -0.3992  0.9295
 8768SOL     OW37765   0.800   4.167   6.122 -0.1331  0.4609  0.2195
 8768SOL    HW137766   0.856   4.109   6.173  0.2045  0.5813 -0.0136
 8768SOL    HW237767   0.761   4.223   6.189 -0.8043  1.5857 -1.0880
 8769SOL     OW37768   1.931   4.706   9.112  0.1396 -0.2022 -0.4098
 8769SOL    HW137769   2.022   0.011   9.094  1.1379 -2.1644  1.9514
 8769SOL    HW237770   1.917   4.624   9.064 -3.5738 -1.2175  2.4405
 8770SOL     OW37771   1.008   1.966   5.145 -0.4578 -0.0469  0.6493
 8770SOL    HW137772   1.067   2.004   5.080 -0.8973 -1.7307 -0.7516
 8770SOL    HW237773   0.926   1.965   5.096 -0.9246 -1.9367  1.4721
 8771SOL     OW37774   0.510   1.697   7.281  0.3724 -0.1816  0.3330
 8771SOL    HW137775   0.500   1.778   7.232 -0.2628 -0.1314  0.5475
 8771SOL    HW237776   0.452   1.638   7.232  0.2396 -0.9578  1.4241
 8772SOL     OW37777   0.245   0.097   7.995 -0.1255 -0.2555  0.0013
 8772SOL    HW137778   0.190   0.039   7.942  0.9604 -0.2155 -1.1828
 8772SOL    HW237779   0.243   0.176   7.941  2.4677  0.6955  1.3053
 8773SOL     OW37780   0.184   1.947   4.621  0.0226  0.5539 -0.5179
 8773SOL    HW137781   0.189   2.042   4.627  3.5695  0.3845 -0.6008
 8773SOL    HW237782   0.188   1.935   4.716  1.5072  0.0785 -0.6342
 8774SOL     OW37783   3.758   3.464  11.073  0.1885 -0.3956  0.3609
 8774SOL    HW137784   3.751   3.532  11.139 -1.3964  0.4449 -0.6795
 8774SOL    HW237785   3.850   3.460  11.047  0.3370  0.3005  0.7780
 8775SOL     OW37786   2.859   4.186   9.186 -0.2867  0.0581  0.0418
 8775SOL    HW137787   2.940   4.143   9.213 -0.5995 -0.4555  0.1669
 8775SOL    HW237788   2.788   4.156   9.242 -1.0759  1.7875 -0.0435
 8776SOL     OW37789   3.676   2.595  12.497  0.5191  0.3132  0.2684
 8776SOL    HW137790   3.704   2.660  12.433  1.0396 -1.4913 -1.3194
 8776SOL    HW237791   3.617   2.536  12.450 -0.1689  0.0955  1.4153
 8777SOL     OW37792   1.942   1.546  13.613  0.2578  0.7756 -0.1667
 8777SOL    HW137793   1.947   1.507  13.526 -1.0018 -1.4168  0.7638
 8777SOL    HW237794   1.895   1.630  13.604  2.3952  1.5778 -3.5965
 8778SOL     OW37795   0.169   0.088   1.652  0.2364  0.0395  0.4460
 8778SOL    HW137796   0.133   0.000   1.659 -1.1158  0.5172 -0.5697
 8778SOL    HW237797   0.141   0.131   1.732  0.8075 -0.2536  0.8031
 8779SOL     OW37798   2.272   2.186  15.669 -0.2111  0.2678  0.0908
 8779SOL    HW137799   2.330   2.206  15.743 -1.4152 -0.1221  1.1422
 8779SOL    HW237800   2.204   2.249  15.692  2.2389  1.9285  2.8605
 8780SOL     OW37801   0.247   0.978   6.282  0.3057  0.2034  0.1072
 8780SOL    HW137802   0.191   0.910   6.244  0.2885  0.1796  0.1767
 8780SOL    HW237803   0.334   0.937   6.276  0.0633 -0.3679  0.6108
 8781SOL     OW37804   1.140   0.807  10.016  0.3375  0.4206 -0.2835
 8781SOL    HW137805   1.225   0.811   9.971  0.9043  0.5432  0.8111
 8781SOL    HW237806   1.135   0.712  10.018 -0.3052  0.5130  2.4575
 8782SOL     OW37807   2.718   0.355   5.593 -0.0926 -0.1879  0.5161
 8782SOL    HW137808   2.660   0.284   5.564  0.6479 -0.8405  0.6337
 8782SOL    HW237809   2.716   0.408   5.514  3.1328  0.8134  1.1142
 8783SOL     OW37810   2.373   4.152   8.358  0.6188  0.1915 -0.5038
 8783SOL    HW137811   2.378   4.159   8.263 -1.1485  2.3561 -0.4495
 8783SOL    HW237812   2.324   4.071   8.371  3.3955 -1.4041 -0.0454
 8784SOL     OW37813   2.791   2.577   5.299  0.6959 -0.8773  0.2426
 8784SOL    HW137814   2.696   2.566   5.308  0.3675  1.4122 -0.2278
 8784SOL    HW237815   2.822   2.490   5.322 -0.7651 -1.5950 -0.4477
 8785SOL     OW37816   0.142   4.600   9.622 -0.2716 -0.0753 -0.5390
 8785SOL    HW137817   0.146   4.527   9.683 -1.8750 -1.4004 -2.0206
 8785SOL    HW237818   0.197   4.574   9.548  0.4305  0.1558 -0.1007
 8786SOL     OW37819   4.509   3.617   3.576  0.0916 -0.1881  0.5169
 8786SOL    HW137820   4.544   3.530   3.597 -1.7724 -1.0881 -0.1288
 8786SOL    HW237821   4.518   3.623   3.481 -1.6518 -1.1040  0.3015
 8787SOL     OW37822   4.474   1.240   3.066  0.2736  0.3537 -0.1520
 8787SOL    HW137823   4.485   1.145   3.071  3.8739  0.8309  1.1149
 8787SOL    HW237824   4.504   1.243   2.975 -0.2538 -0.4522 -0.3557
 8788SOL     OW37825   0.885   1.459   1.763 -0.1908 -0.0612 -0.2165
 8788SOL    HW137826   0.920   1.452   1.674 -0.4471 -0.6327 -0.2681
 8788SOL    HW237827   0.805   1.511   1.756 -0.5140 -0.2940  1.6931
 8789SOL     OW37828   2.265   0.703  11.293  0.0810  0.5892  0.5144
 8789SOL    HW137829   2.224   0.664  11.370  0.1081 -2.1852 -0.8963
 8789SOL    HW237830   2.192   0.746  11.247  1.5720  0.4323 -1.9972
 8790SOL     OW37831   3.768   3.701  11.879 -0.2343  0.2891  0.0080
 8790SOL    HW137832   3.677   3.719  11.854  0.0032  0.6398 -0.5827
 8790SOL    HW237833   3.779   3.694  11.974 -1.5813  0.5369  0.1805
 8791SOL     OW37834   3.407   0.056   9.185 -0.2617  0.2920 -0.0052
 8791SOL    HW137835   3.468   0.125   9.213 -0.2012 -0.3024  1.3261
 8791SOL    HW237836   3.446   4.697   9.223  0.4770  0.8367  0.3870
 8792SOL     OW37837   1.668   2.599  15.611  0.1444  0.6596 -0.1648
 8792SOL    HW137838   1.745   2.590  15.555  0.0304 -1.6944  0.0284
 8792SOL    HW237839   1.650   2.506  15.626 -0.3054  1.0607  1.8029
 8793SOL     OW37840   3.988   3.515   0.520 -0.4204  0.0590 -0.3623
 8793SOL    HW137841   4.045   3.591   0.505 -0.3740 -0.1406 -1.1968
 8793SOL    HW237842   4.023   3.473   0.599  0.3039 -1.5739 -1.5587
 8794SOL     OW37843   1.819   0.357   7.509 -0.8578 -0.5390 -0.0215
 8794SOL    HW137844   1.737   0.369   7.558 -0.0353 -0.3037  1.2983
 8794SOL    HW237845   1.815   0.263   7.492  1.0355 -0.4041 -1.1927
 8795SOL     OW37846   2.964   3.409   6.131  0.4178 -0.7737  0.0059
 8795SOL    HW137847   2.967   3.315   6.146 -3.8046 -0.8426  0.6211
 8795SOL    HW237848   3.051   3.419   6.093 -0.0224 -0.7352 -1.0137
 8796SOL     OW37849   3.683   3.771   9.375  0.3854 -0.2506 -0.4613
 8796SOL    HW137850   3.636   3.845   9.338  0.2939 -0.1908 -0.2230
 8796SOL    HW237851   3.765   3.802   9.414 -0.8653 -0.2850  2.1956
 8797SOL     OW37852   3.193   2.133   9.255 -0.1663 -0.1151  0.3381
 8797SOL    HW137853   3.221   2.186   9.330  1.1850  1.6880 -1.4608
 8797SOL    HW237854   3.232   2.049   9.283  1.0549  0.3892  0.1601
 8798SOL     OW37855   1.135   2.416   2.888 -0.1956  0.1469  0.1493
 8798SOL    HW137856   1.059   2.358   2.883 -0.1508  0.0468  0.5844
 8798SOL    HW237857   1.109   2.488   2.946 -0.8762  0.1922 -0.2163
 8799SOL     OW37858   3.158   0.702   1.801  0.2155 -0.4871 -0.2944
 8799SOL    HW137859   3.074   0.697   1.847  1.0382  0.0841  1.2639
 8799SOL    HW237860   3.199   0.622   1.833 -0.9300 -0.7824  0.4298
 8800SOL     OW37861   3.139   4.204   5.374  0.1796 -0.4545 -0.3284
 8800SOL    HW137862   3.170   4.150   5.301  0.9059  0.1713 -0.4821
 8800SOL    HW237863   3.070   4.259   5.335 -0.7275 -1.0157  0.5073
 8801SOL     OW37864   3.678   1.417   7.808  0.0549  0.0615 -0.5462
 8801SOL    HW137865   3.675   1.375   7.895 -0.9825  1.2793  0.0031
 8801SOL    HW237866   3.633   1.345   7.764  1.5805 -0.7317 -0.8104
 8802SOL     OW37867   0.322   4.441   8.583 -0.4216  0.1027 -0.1131
 8802SOL    HW137868   0.369   4.366   8.619  0.0657  0.2836 -0.3832
 8802SOL    HW237869   0.361   4.454   8.497  2.9555 -1.2634  1.2404
 8803SOL     OW37870   1.891   1.726   4.273  0.6743  0.1731 -0.6006
 8803SOL    HW137871   1.965   1.739   4.332 -0.0800  0.3933  0.2850
 8803SOL    HW237872   1.919   1.768   4.191 -0.8305  1.1892 -0.5900
 8804SOL     OW37873   1.430   2.931   3.815  0.3369 -0.0419  0.3002
 8804SOL    HW137874   1.476   2.851   3.789  1.3328  0.5479  0.2522
 8804SOL    HW237875   1.342   2.926   3.778 -0.4911  2.9166  1.8891
 8805SOL     OW37876   4.298   2.722   4.857 -0.3763  0.3231  0.1893
 8805SOL    HW137877   4.341   2.799   4.893  0.6945  0.2139 -0.8383
 8805SOL    HW237878   4.262   2.688   4.939 -1.4758  0.1299 -0.3742
 8806SOL     OW37879   1.718   2.540   3.351 -0.1870 -0.3570  0.0799
 8806SOL    HW137880   1.680   2.574   3.270  1.2846  1.5772  0.1997
 8806SOL    HW237881   1.745   2.449   3.346 -2.1433 -0.9932  1.0121
 8807SOL     OW37882   1.415   2.486  15.374  0.6855 -0.3010 -0.0367
 8807SOL    HW137883   1.342   2.429  15.352 -1.7346  2.7409  0.0863
 8807SOL    HW237884   1.401   2.496  15.468  3.4266 -0.2509  0.3677
 8808SOL     OW37885   2.571   4.428  13.573  0.3433  0.1872  0.0078
 8808SOL    HW137886   2.502   4.493  13.585 -2.6739 -2.9554 -0.4393
 8808SOL    HW237887   2.551   4.375  13.650  1.2657  0.2483  0.2885
 8809SOL     OW37888   1.464   4.209   6.088 -0.4456  0.0816  0.2806
 8809SOL    HW137889   1.465   4.133   6.030  1.7621 -0.0430  0.4922
 8809SOL    HW237890   1.489   4.164   6.168  0.3833 -0.9917 -0.5847
 8810SOL     OW37891   1.784   3.862   6.755 -0.1254 -0.5036  0.1595
 8810SOL    HW137892   1.835   3.857   6.835 -0.7565  1.0879  0.6627
 8810SOL    HW237893   1.724   3.789   6.773  0.9043 -1.3990 -0.0161
 8811SOL     OW37894   1.549   1.088   5.894  0.1175 -0.6521  0.1535
 8811SOL    HW137895   1.570   1.182   5.895  0.3075 -0.6922  0.0860
 8811SOL    HW237896   1.637   1.051   5.881  0.3367  0.6947 -2.1543
 8812SOL     OW37897   2.518   1.190   3.312  0.3038 -0.5713 -0.4351
 8812SOL    HW137898   2.526   1.236   3.396  1.6418 -0.7874 -0.4477
 8812SOL    HW237899   2.539   1.100   3.338 -1.4783 -0.8714 -0.0052
 8813SOL     OW37900   3.401   1.300  17.086 -0.3033  0.3771  0.0437
 8813SOL    HW137901   3.456   1.225  17.105 -0.0260  0.1924 -1.4985
 8813SOL    HW237902   3.347   1.267  17.014  0.2190  0.2780 -0.3029
 8814SOL     OW37903   3.162   0.586   3.042 -0.2736 -0.1955  0.5955
 8814SOL    HW137904   3.085   0.642   3.029  0.3897  0.2865 -1.3784
 8814SOL    HW237905   3.119   0.510   3.081 -1.9750  0.8505  0.7806
 8815SOL     OW37906   0.795   0.034  16.791 -0.3088 -0.0713 -0.2380
 8815SOL    HW137907   0.715   0.076  16.822  0.6147  2.0253 -0.7484
 8815SOL    HW237908   0.833   0.023  16.879 -1.4728  0.1297  0.2841
 8816SOL     OW37909   0.746   0.621   5.621 -0.0326 -0.0376  0.7327
 8816SOL    HW137910   0.762   0.713   5.640  0.9012 -0.2450  0.9646
 8816SOL    HW237911   0.796   0.594   5.698 -2.8063 -2.0397  1.8544
 8817SOL     OW37912   0.116   0.468   3.085  0.4359  0.4816  0.5194
 8817SOL    HW137913   0.193   0.525   3.072  0.6998 -0.0423 -0.2204
 8817SOL    HW237914   0.162   0.384   3.080 -0.6203 -0.0499 -0.2569
 8818SOL     OW37915   2.266   1.107   3.990  0.1867  0.7623  0.2205
 8818SOL    HW137916   2.212   1.142   4.062  0.8855 -0.6830  1.4525
 8818SOL    HW237917   2.208   1.038   3.957  2.7557 -0.9180 -0.7220
 8819SOL     OW37918   0.082   4.719   5.243 -0.0069 -0.7417  0.4544
 8819SOL    HW137919   4.709   0.005   5.265 -0.0187 -1.6968  0.6546
 8819SOL    HW237920   0.111   4.674   5.322 -1.8146 -0.9909  0.9632
 8820SOL     OW37921   2.119   2.709   7.549  0.0048 -0.3384 -0.0014
 8820SOL    HW137922   2.184   2.738   7.614  2.9254 -1.1755 -2.5515
 8820SOL    HW237923   2.136   2.759   7.469 -0.4574 -0.6125 -0.2703
 8821SOL     OW37924   2.225   2.910  14.070  0.1132  0.1921 -0.6378
 8821SOL    HW137925   2.215   2.824  14.029 -0.5587 -0.2584  0.4828
 8821SOL    HW237926   2.211   2.893  14.163 -0.3279  2.0103 -0.3806
 8822SOL     OW37927   1.514   2.469   2.387  0.1172 -0.3190  0.1746
 8822SOL    HW137928   1.462   2.416   2.328  1.9281 -0.9296 -0.8935
 8822SOL    HW237929   1.604   2.447   2.362 -0.4881  0.6186 -2.7912
 8823SOL     OW37930   1.075   1.319   8.469 -0.2043  0.3358 -0.2292
 8823SOL    HW137931   1.157   1.361   8.442 -1.6888  3.3886 -0.0073
 8823SOL    HW237932   1.015   1.383   8.429 -1.8277 -0.1164  1.4759
 8824SOL     OW37933   3.424   3.275   4.165 -0.7180 -0.2693 -0.0544
 8824SOL    HW137934   3.357   3.297   4.229 -0.0652  1.2299  0.1252
 8824SOL    HW237935   3.373   3.285   4.085 -0.8803 -1.9333 -0.1644
 8825SOL     OW37936   4.683   1.437   3.182 -0.2087  0.1618 -0.4844
 8825SOL    HW137937   0.049   1.479   3.181 -0.5551  0.8575 -0.5726
 8825SOL    HW237938   4.692   1.378   3.107 -0.4241  0.2582 -0.5849
 8826SOL     OW37939   3.178   2.592   4.165  0.1840  0.3301 -0.5201
 8826SOL    HW137940   3.129   2.674   4.168 -1.7897 -0.8370 -1.0059
 8826SOL    HW237941   3.119   2.537   4.112  0.8207 -0.5156 -0.3592
 8827SOL     OW37942   3.036   1.972   6.518  0.3007  0.1434  0.3433
 8827SOL    HW137943   2.972   2.007   6.457 -1.3363 -1.4261  1.1696
 8827SOL    HW237944   3.114   1.977   6.463 -0.2889 -1.1252 -0.6156
 8828SOL     OW37945   0.859   0.828   5.891  0.4262 -0.0240 -0.0611
 8828SOL    HW137946   0.833   0.845   5.982 -1.2271  0.1728 -0.5753
 8828SOL    HW237947   0.952   0.808   5.906  0.7155 -0.2702 -2.1692
 8829SOL     OW37948   2.070   2.675   4.817  0.0763  0.0193  0.0706
 8829SOL    HW137949   1.989   2.690   4.866  1.5387 -0.5098  2.6260
 8829SOL    HW237950   2.062   2.734   4.742  0.7625 -1.2732 -1.0280
 8830SOL     OW37951   3.919   4.366  16.078 -0.0079  0.2504  0.0692
 8830SOL    HW137952   3.970   4.286  16.070  1.4512  1.2367 -0.5959
 8830SOL    HW237953   3.888   4.384  15.989 -0.4384 -1.0483 -0.0489
 8831SOL     OW37954   3.384   3.033   5.480  0.0904  0.5183 -0.2326
 8831SOL    HW137955   3.386   2.937   5.478 -0.0488  0.4603  2.6425
 8831SOL    HW237956   3.454   3.048   5.544  0.2922 -1.1367 -0.0685
 8832SOL     OW37957   0.910   2.273   8.459 -0.0307 -0.4520  0.4051
 8832SOL    HW137958   0.961   2.193   8.453  0.1835 -0.1237 -2.1179
 8832SOL    HW237959   0.923   2.290   8.552 -0.4114 -1.0416  0.5617
 8833SOL     OW37960   0.137   1.849  12.952 -0.2054  0.7023  0.1108
 8833SOL    HW137961   0.175   1.918  12.898  1.4005 -0.1505  0.1367
 8833SOL    HW237962   0.166   1.767  12.912 -0.8392  0.3865  0.2905
 8834SOL     OW37963   0.288   1.196   5.080 -0.0965  0.3787 -0.9313
 8834SOL    HW137964   0.214   1.140   5.057 -0.0640  0.1585 -0.4881
 8834SOL    HW237965   0.322   1.213   4.992 -0.6646  0.2477 -1.1766
 8835SOL     OW37966   4.594   3.075  11.987 -0.2258 -0.3786  0.0515
 8835SOL    HW137967   4.633   3.151  12.031  1.1414 -0.3533 -1.1741
 8835SOL    HW237968   4.651   3.005  12.020 -0.0095 -0.3864 -0.3465
 8836SOL     OW37969   1.361   0.492   6.687 -0.3981  0.1672  0.2104
 8836SOL    HW137970   1.420   0.418   6.699 -0.8384 -0.3972 -1.1221
 8836SOL    HW237971   1.374   0.498   6.592  0.4647 -0.5866  0.2829
 8837SOL     OW37972   2.831   4.689   8.725  0.0513  0.5988  0.5095
 8837SOL    HW137973   2.848   0.044   8.781  0.7766  0.9848 -0.2351
 8837SOL    HW237974   2.740   4.670   8.748 -0.0888 -1.2556 -1.6348
 8838SOL     OW37975   0.819   4.331   7.434  0.5341  0.0984  0.3047
 8838SOL    HW137976   0.781   4.266   7.493  0.5134 -0.8721 -0.7823
 8838SOL    HW237977   0.778   4.407   7.476  0.7641 -0.7747  2.1058
 8839SOL     OW37978   4.122   2.046   0.398  0.0402  0.2069 -0.2666
 8839SOL    HW137979   4.074   2.105   0.339 -0.6821 -1.0703 -0.9490
 8839SOL    HW237980   4.146   1.970   0.345  0.2917  0.5024 -0.5833
 8840SOL     OW37981   0.335   0.150   7.625  0.3338  0.3733  0.0916
 8840SOL    HW137982   0.383   0.229   7.649 -0.3564  0.7568  0.2310
 8840SOL    HW237983   0.246   0.184   7.631 -0.0415 -0.7664  1.1589
 8841SOL     OW37984   1.998   3.892   8.070 -0.2690  1.3439  0.0084
 8841SOL    HW137985   2.002   3.797   8.060  1.1221  1.3079  0.8384
 8841SOL    HW237986   2.059   3.909   7.999  0.1641 -1.4738 -0.3208
 8842SOL     OW37987   0.522   4.405   3.567 -0.4530 -0.1643 -0.6621
 8842SOL    HW137988   0.541   4.377   3.477  3.5293 -1.0445  0.4616
 8842SOL    HW237989   0.536   4.325   3.618  0.5046 -0.1358 -0.8811
 8843SOL     OW37990   0.174   1.023   3.032 -0.0981  0.0173  0.2102
 8843SOL    HW137991   0.124   0.943   3.040 -0.4464  0.1442 -0.7725
 8843SOL    HW237992   0.258   1.004   3.075  0.6573  2.5986 -0.0685
 8844SOL     OW37993   4.479   0.799  16.719 -0.1855  0.2918  0.3144
 8844SOL    HW137994   4.475   0.856  16.797 -0.5147 -0.7253  1.0373
 8844SOL    HW237995   4.574   0.794  16.729  0.0429  0.9817 -1.4501
 8845SOL     OW37996   2.598   0.905   0.967 -0.1612  0.7003  0.3715
 8845SOL    HW137997   2.669   0.969   0.968 -1.3359  2.0081 -0.4656
 8845SOL    HW237998   2.520   0.957   0.945 -0.9667 -0.0798  1.3851
 8846SOL     OW37999   3.377   3.182  13.625  0.2525 -0.0626  0.0462
 8846SOL    HW138000   3.317   3.256  13.623 -0.2138 -0.4090  1.1920
 8846SOL    HW238001   3.443   3.211  13.688 -0.0424 -1.0192  0.7976
 8847SOL     OW38002   1.567   1.806   3.807  0.0916 -0.4478  0.0785
 8847SOL    HW138003   1.514   1.815   3.886 -3.6613 -0.6442 -2.4073
 8847SOL    HW238004   1.551   1.716   3.776 -1.4485 -0.6101  1.3709
 8848SOL     OW38005   3.518   4.195   2.911 -0.1587 -0.0834 -0.3007
 8848SOL    HW138006   3.541   4.277   2.867 -0.0399 -1.2725 -2.4491
 8848SOL    HW238007   3.551   4.130   2.850  1.0851 -0.0646  0.3598
 8849SOL     OW38008   0.874   0.346   9.077 -0.1792  0.0399 -0.2406
 8849SOL    HW138009   0.780   0.327   9.073 -0.1420 -0.3120  0.4854
 8849SOL    HW238010   0.904   0.306   9.159 -1.6575  2.9910  1.7223
 8850SOL     OW38011   0.362   0.758   6.623 -0.1355  0.4692 -0.2479
 8850SOL    HW138012   0.291   0.762   6.559 -1.3933  0.6004  1.1365
 8850SOL    HW238013   0.429   0.811   6.579 -1.1761  1.5912 -0.4710
 8851SOL     OW38014   0.478   1.921   3.128  0.0445  0.4420 -0.7289
 8851SOL    HW138015   0.503   1.828   3.135  1.2800  0.8571  0.4118
 8851SOL    HW238016   0.567   1.956   3.136 -0.4558  1.6867 -0.6375
 8852SOL     OW38017   1.688   4.290   3.478  0.2697 -0.2304  0.0888
 8852SOL    HW138018   1.777   4.320   3.495 -0.2197  0.4925  1.3613
 8852SOL    HW238019   1.695   4.258   3.388 -0.1198 -1.0618  0.3539
 8853SOL     OW38020   2.483   3.149   7.006 -0.4754  0.0274  0.1467
 8853SOL    HW138021   2.443   3.231   6.977  0.0851  0.9070  1.8439
 8853SOL    HW238022   2.445   3.142   7.093  0.5430 -0.6423  0.5456
 8854SOL     OW38023   3.514   0.993  11.253 -0.3248 -0.2568  0.0996
 8854SOL    HW138024   3.538   1.062  11.191  0.6157  0.6139  1.4325
 8854SOL    HW238025   3.473   1.052  11.316  0.4787 -0.1741  0.5392
 8855SOL     OW38026   3.228   4.187   6.644 -0.1582  0.7008 -0.3480
 8855SOL    HW138027   3.242   4.129   6.719 -0.3416  0.3430 -0.5889
 8855SOL    HW238028   3.312   4.233   6.637  0.4309 -0.3572 -0.2781
 8856SOL     OW38029   3.179   1.729  15.268 -0.1706  0.4405  0.0645
 8856SOL    HW138030   3.113   1.674  15.311 -0.2062 -0.7583 -1.5598
 8856SOL    HW238031   3.119   1.760  15.200 -0.2428  1.9360  0.7847
 8857SOL     OW38032   1.275   2.950   4.275 -0.1348  0.2516  0.8403
 8857SOL    HW138033   1.226   3.028   4.301  0.6769  0.3674  2.0469
 8857SOL    HW238034   1.202   2.899   4.240  0.5929 -0.4105  0.3080
 8858SOL     OW38035   3.070   2.611   4.903  0.3345 -0.0556 -0.1285
 8858SOL    HW138036   3.013   2.582   4.975  1.3336 -1.9440 -0.0993
 8858SOL    HW238037   3.041   2.702   4.895 -0.7539 -0.6465 -2.7221
 8859SOL     OW38038   4.495   2.436   6.168 -0.0112 -0.2416 -0.3343
 8859SOL    HW138039   4.531   2.349   6.184  2.2222  0.4886 -1.4613
 8859SOL    HW238040   4.537   2.482   6.240 -2.0688  0.2886  0.5244
 8860SOL     OW38041   3.925   1.843   9.358 -0.1763  0.3815  0.2220
 8860SOL    HW138042   3.994   1.901   9.326 -0.0886  0.9199  1.4063
 8860SOL    HW238043   3.891   1.899   9.427 -1.0998  0.5437 -0.3602
 8861SOL     OW38044   2.818   2.479   2.555  0.1901 -0.0465 -0.3770
 8861SOL    HW138045   2.911   2.468   2.575  0.4615  0.1344 -1.5235
 8861SOL    HW238046   2.816   2.575   2.550  1.4052  0.0049 -0.0494
 8862SOL     OW38047   2.850   1.909   6.283 -0.3285  0.1643 -0.3419
 8862SOL    HW138048   2.893   1.847   6.224 -1.1438 -0.4392 -0.3094
 8862SOL    HW238049   2.802   1.961   6.218 -0.4210 -0.0055 -0.4115
 8863SOL     OW38050   2.464   1.022  15.648 -0.3851 -0.1157 -0.0195
 8863SOL    HW138051   2.489   1.106  15.609  2.1671 -0.9929 -0.3048
 8863SOL    HW238052   2.377   1.053  15.674 -0.6207  1.4676 -2.6430
 8864SOL     OW38053   3.697   1.983  10.801 -0.5189  0.1429  0.0064
 8864SOL    HW138054   3.669   1.921  10.869  0.7350  1.7354  1.9454
 8864SOL    HW238055   3.726   2.052  10.860  0.2336  0.6839 -1.0009
 8865SOL     OW38056   3.981   1.729   5.493  0.2965  0.3862  0.0553
 8865SOL    HW138057   3.932   1.801   5.455  0.7172  1.1437  0.9588
 8865SOL    HW238058   4.047   1.708   5.428 -2.3813 -0.1845 -2.4830
 8866SOL     OW38059   4.106   2.564   4.711 -0.6024 -0.1018  0.1518
 8866SOL    HW138060   4.168   2.625   4.750  1.6832 -2.1283 -0.3651
 8866SOL    HW238061   4.056   2.532   4.786 -0.9454 -0.1989 -0.1168
 8867SOL     OW38062   2.890   2.937   7.014 -0.0476 -0.1766  0.1422
 8867SOL    HW138063   2.819   2.983   6.969 -0.8786 -0.2306  1.3700
 8867SOL    HW238064   2.893   2.977   7.101 -2.2244 -0.2840  0.2791
 8868SOL     OW38065   1.755   1.350   8.303 -0.3873  0.4944  0.1394
 8868SOL    HW138066   1.807   1.406   8.245  0.4078 -1.3302 -0.8865
 8868SOL    HW238067   1.703   1.405   8.362  0.3327  0.3405  0.9378
 8869SOL     OW38068   4.196   0.029   8.317 -0.0338  0.9278 -0.3289
 8869SOL    HW138069   4.157   0.033   8.229 -0.4296  2.5592 -0.0784
 8869SOL    HW238070   4.112   0.025   8.364  2.2823  1.1550  3.7729
 8870SOL     OW38071   2.257   1.597  10.957 -0.1757 -0.3002  0.1637
 8870SOL    HW138072   2.172   1.553  10.965 -1.0726  1.3511 -0.2042
 8870SOL    HW238073   2.313   1.529  10.920  1.7993  1.1607  0.4442
 8871SOL     OW38074   2.660   4.062   2.720  0.6250  0.0342 -0.7694
 8871SOL    HW138075   2.748   4.067   2.681  0.2553  1.7039 -1.3632
 8871SOL    HW238076   2.618   4.140   2.684 -1.2888 -0.4518  0.4769
 8872SOL     OW38077   2.090   4.055   2.955 -0.5630 -0.4012  0.7171
 8872SOL    HW138078   2.172   4.047   3.004  0.9678 -0.2675 -1.8351
 8872SOL    HW238079   2.114   4.048   2.862 -1.8450  0.9724  0.2893
 8873SOL     OW38080   0.248   0.009  14.541 -0.2940 -0.1818 -0.0177
 8873SOL    HW138081   0.259   4.662  14.608 -1.0607  1.4894  1.7419
 8873SOL    HW238082   0.336   0.048  14.541 -0.4405  0.1721 -3.0392
 8874SOL     OW38083   4.283   1.071  13.329  0.3390  0.8210 -0.3490
 8874SOL    HW138084   4.192   1.062  13.358  0.8943 -2.7155  0.2280
 8874SOL    HW238085   4.327   1.078  13.414 -0.4396  0.2696  0.1033
 8875SOL     OW38086   4.366   0.983   4.592 -0.0831 -0.0216 -0.1502
 8875SOL    HW138087   4.454   0.954   4.617 -0.2356 -1.1171 -0.8530
 8875SOL    HW238088   4.328   0.995   4.678 -0.7502  2.3799 -0.7967
 8876SOL     OW38089   4.472   2.535  10.766  0.1172  0.3448 -0.3572
 8876SOL    HW138090   4.432   2.593  10.830  2.5081  0.5072  0.9958
 8876SOL    HW238091   4.555   2.512  10.808  1.3756  2.6641 -1.6079
 8877SOL     OW38092   3.308   3.541  12.570  0.3794 -0.1267 -0.6542
 8877SOL    HW138093   3.324   3.633  12.594  0.7854 -0.9832  2.3963
 8877SOL    HW238094   3.261   3.501  12.644  1.1388  0.7849  0.3176
 8878SOL     OW38095   0.999   3.341  11.358  0.8620 -0.3718 -0.8619
 8878SOL    HW138096   1.026   3.410  11.297  2.6019 -0.9084 -0.6781
 8878SOL    HW238097   1.041   3.364  11.441  2.8873 -0.7939 -1.7684
 8879SOL     OW38098   3.452   4.533   2.127 -0.2650 -0.1936  0.3609
 8879SOL    HW138099   3.480   4.599   2.191 -0.8636  0.1686  0.2458
 8879SOL    HW238100   3.366   4.514   2.164 -0.7641 -0.5978 -1.0203
 8880SOL     OW38101   1.886   3.754   2.975  0.2591  0.3682  0.1981
 8880SOL    HW138102   1.875   3.838   2.931 -1.3679  0.8570  1.5249
 8880SOL    HW238103   1.936   3.716   2.903 -0.0460 -1.4249  0.9411
 8881SOL     OW38104   2.027   0.241  10.229  1.1109  0.3579 -0.1300
 8881SOL    HW138105   1.931   0.241  10.229  1.1226  2.0957 -2.8918
 8881SOL    HW238106   2.040   0.182  10.155 -0.5946 -1.2281  0.8111
 8882SOL     OW38107   4.600   1.855  14.625 -0.2456  0.3289  0.2507
 8882SOL    HW138108   4.650   1.876  14.704  3.2562 -1.4556 -1.4612
 8882SOL    HW238109   4.655   1.886  14.552 -0.2706 -1.2319 -0.4401
 8883SOL     OW38110   2.265   4.316  13.446 -0.3306 -0.5817  0.0034
 8883SOL    HW138111   2.189   4.341  13.499 -0.3375 -0.1960 -0.1854
 8883SOL    HW238112   2.263   4.220  13.451 -0.4189 -0.5260  1.1173
 8884SOL     OW38113   2.874   1.874   3.344 -0.1887  1.0437 -0.0543
 8884SOL    HW138114   2.802   1.815   3.321 -1.0738  2.1756 -0.1665
 8884SOL    HW238115   2.958   1.834   3.318 -1.3666 -0.9685 -0.7797
 8885SOL     OW38116   0.550   4.592   9.923  0.3883  0.3055 -0.6467
 8885SOL    HW138117   0.605   4.570   9.998 -0.6693  1.0510  0.3463
 8885SOL    HW238118   0.574   4.682   9.902 -1.3717  1.3138  1.6850
 8886SOL     OW38119   0.185   2.415  12.659  0.0882  0.3714 -0.4611
 8886SOL    HW138120   0.176   2.347  12.725  0.3786  0.6152 -0.1735
 8886SOL    HW238121   0.094   2.444  12.658  0.1796  0.7081  1.5027
 8887SOL     OW38122   2.084   3.562   6.178 -0.7533  0.0071  0.2454
 8887SOL    HW138123   2.072   3.653   6.151 -1.5409  0.1093  0.9548
 8887SOL    HW238124   2.074   3.526   6.090 -2.0490 -0.5836  0.6381
 8888SOL     OW38125   1.384   1.484  12.379 -0.1515  0.1361  0.4597
 8888SOL    HW138126   1.401   1.579  12.379  0.9304 -0.0493 -0.5762
 8888SOL    HW238127   1.471   1.446  12.391 -0.8844 -1.0144  2.0764
 8889SOL     OW38128   1.778   1.216   4.490  0.5785  0.0015  0.1621
 8889SOL    HW138129   1.717   1.287   4.514  0.7378  0.6099 -1.1964
 8889SOL    HW238130   1.713   1.150   4.469  0.9307  0.0487 -1.0675
 8890SOL     OW38131   3.886   4.120  10.020 -0.5134  0.2060  0.3280
 8890SOL    HW138132   3.838   4.060   9.963  0.1616  2.8294 -2.9284
 8890SOL    HW238133   3.813   4.177  10.044 -2.9735 -1.8600 -2.2626
 8891SOL     OW38134   1.405   4.346   3.282  0.0326  0.0557 -0.2570
 8891SOL    HW138135   1.358   4.307   3.355 -0.9305 -0.2500 -1.0377
 8891SOL    HW238136   1.492   4.306   3.281  0.7233  1.5345  1.1283
 8892SOL     OW38137   3.413   0.857  13.633 -0.2390 -0.3992  0.0494
 8892SOL    HW138138   3.385   0.787  13.692  1.2299 -1.4633 -0.5268
 8892SOL    HW238139   3.457   0.913  13.696  0.5496 -1.7036  0.6525
 8893SOL     OW38140   0.043   1.697  11.001  0.7278  0.3457  0.2670
 8893SOL    HW138141   0.012   1.775  10.955 -1.6573  0.7291  2.5215
 8893SOL    HW238142   4.710   1.627  10.964 -1.9592  1.5394  1.8059
 8894SOL     OW38143   4.465   1.809   2.671 -0.5721  0.5374  0.1522
 8894SOL    HW138144   4.540   1.789   2.616 -1.2349  1.1925 -0.9943
 8894SOL    HW238145   4.406   1.738   2.646  1.2539 -1.3004  1.1413
 8895SOL     OW38146   1.756   2.751   3.513 -0.6399  0.7129 -0.0134
 8895SOL    HW138147   1.723   2.688   3.449 -0.6660  2.3277 -1.5722
 8895SOL    HW238148   1.830   2.706   3.553  0.5160  0.9096 -1.9694
 8896SOL     OW38149   3.806   4.125   4.658 -0.2608 -0.5802  0.1338
 8896SOL    HW138150   3.870   4.086   4.718  0.2465  0.3858  0.2230
 8896SOL    HW238151   3.741   4.152   4.722 -0.3473  0.0259 -0.2105
 8897SOL     OW38152   4.661   4.069  17.468 -0.4163 -0.4589  0.5432
 8897SOL    HW138153   0.026   4.083  17.425 -0.0955  1.1535  1.7046
 8897SOL    HW238154   4.677   3.993  17.523 -0.1476 -1.6538 -1.1938
 8898SOL     OW38155   2.674   4.198   3.103 -0.5054  0.3778  0.1876
 8898SOL    HW138156   2.753   4.151   3.077 -1.4343 -1.0522 -0.0417
 8898SOL    HW238157   2.694   4.280   3.057  1.3094  0.6278  1.4010
 8899SOL     OW38158   2.967   3.755   6.166 -0.2266 -0.2471 -0.3872
 8899SOL    HW138159   2.931   3.668   6.183 -0.6323  0.4938  2.4615
 8899SOL    HW238160   3.056   3.748   6.201  0.3714  1.3389 -1.5851
 8900SOL     OW38161   1.554   0.997   3.743 -0.3351  0.2565  0.0228
 8900SOL    HW138162   1.562   0.919   3.687  1.2751  1.1751 -1.0438
 8900SOL    HW238163   1.635   1.046   3.728 -0.0495  0.3129  1.7956
 8901SOL     OW38164   3.333   2.732   9.312  0.0090  0.5437  0.0582
 8901SOL    HW138165   3.266   2.712   9.376  0.2976 -0.8160 -0.0550
 8901SOL    HW238166   3.364   2.819   9.339 -0.9998  0.6897  0.7519
 8902SOL     OW38167   4.144   2.069   8.580  0.2110 -0.0582  0.4533
 8902SOL    HW138168   4.133   1.980   8.613  0.3069 -0.1444  0.2539
 8902SOL    HW238169   4.236   2.071   8.552  0.2838 -1.1092  0.5939
 8903SOL     OW38170   3.878   1.270   3.840  0.3776 -0.9134 -0.7910
 8903SOL    HW138171   3.971   1.275   3.820  0.5639 -1.6703 -0.0855
 8903SOL    HW238172   3.850   1.188   3.801 -1.6313  0.1226 -1.5396
 8904SOL     OW38173   3.683   3.235   3.532  0.0340  0.1050 -0.4026
 8904SOL    HW138174   3.642   3.260   3.450  0.9817  1.5890 -0.4156
 8904SOL    HW238175   3.644   3.152   3.561  1.9330 -0.2845  1.1507
 8905SOL     OW38176   2.671   3.452   1.662 -0.1656 -0.0794  0.1448
 8905SOL    HW138177   2.744   3.482   1.608  1.4391  0.2884  2.5104
 8905SOL    HW238178   2.700   3.378   1.715  0.4548  0.2657  0.2836
 8906SOL     OW38179   1.976   4.275   3.099  0.2846  0.4414  0.3586
 8906SOL    HW138180   1.901   4.284   3.040  0.3284 -1.5560  0.0004
 8906SOL    HW238181   2.023   4.197   3.068  0.2079  0.8073 -0.6854
 8907SOL     OW38182   2.989   4.592   4.450 -0.3582  0.1387  0.4883
 8907SOL    HW138183   3.061   4.655   4.447  0.0444 -0.5049 -3.4449
 8907SOL    HW238184   2.911   4.639   4.481  1.4702  3.4459  0.0338
 8908SOL     OW38185   2.082   0.436   1.615  0.3297  0.2222  0.5746
 8908SOL    HW138186   2.004   0.380   1.622 -0.3753  1.1136 -0.0544
 8908SOL    HW238187   2.145   0.387   1.667 -0.1306 -0.4258  0.5233
 8909SOL     OW38188   1.319   0.743   4.978 -0.1628  0.4767 -0.3632
 8909SOL    HW138189   1.381   0.675   5.005 -2.2675 -0.7854  1.2281
 8909SOL    HW238190   1.259   0.753   5.052 -1.1669  0.6041 -1.1986
 8910SOL     OW38191   3.063   4.633  12.472 -0.2554 -0.4665 -0.1014
 8910SOL    HW138192   3.136   4.692  12.458 -0.3186 -0.5177 -0.6386
 8910SOL    HW238193   2.995   4.677  12.524 -1.2941 -1.2149 -0.8293
 8911SOL     OW38194   0.541   2.214  11.790  0.6443  0.2237  0.0919
 8911SOL    HW138195   0.593   2.283  11.830 -0.4688  0.8481  0.4616
 8911SOL    HW238196   0.580   2.181  11.710  2.8457  1.2315  0.7696
 8912SOL     OW38197   3.311   1.651   1.480 -0.0090  0.0261  0.2817
 8912SOL    HW138198   3.252   1.662   1.406  0.1572  0.7434  0.2545
 8912SOL    HW238199   3.343   1.565   1.453 -0.8055 -0.4847  0.9442
 8913SOL     OW38200   0.902   3.190  10.551  0.0699 -0.0061 -0.3716
 8913SOL    HW138201   0.880   3.191  10.645 -1.2273 -0.6945 -0.6663
 8913SOL    HW238202   0.833   3.136  10.512  0.0243 -0.7822  0.7695
 8914SOL     OW38203   0.588   1.484  15.319  0.7683  0.3031 -0.0210
 8914SOL    HW138204   0.618   1.472  15.229 -2.1563 -0.2531 -0.9025
 8914SOL    HW238205   0.515   1.545  15.319  1.2982  0.9237 -0.8362
 8915SOL     OW38206   0.672   0.796   2.489 -0.0834 -0.8307 -0.0592
 8915SOL    HW138207   0.670   0.839   2.404  2.8765  1.6212  1.1318
 8915SOL    HW238208   0.737   0.731   2.464  2.6774  1.3978  1.3621
 8916SOL     OW38209   1.979   3.522   9.913 -0.4117  0.1894 -0.4923
 8916SOL    HW138210   2.059   3.491   9.870 -0.1148 -0.2405  0.3740
 8916SOL    HW238211   1.981   3.471   9.994 -2.3940 -1.2945 -1.3784
 8917SOL     OW38212   3.742   0.237   4.257  0.4016  0.4500  0.1847
 8917SOL    HW138213   3.802   0.230   4.183  1.3134  0.7538  0.8978
 8917SOL    HW238214   3.806   0.251   4.327  0.0425  0.4967  0.5000
 8918SOL     OW38215   2.194   1.331   7.104 -0.0696 -0.1338 -0.2230
 8918SOL    HW138216   2.212   1.308   7.013 -1.3328  2.0042 -1.0038
 8918SOL    HW238217   2.244   1.259   7.143 -1.3496 -2.1386 -2.3142
 8919SOL     OW38218   2.647   2.887   2.297  0.0080  0.2955  0.0919
 8919SOL    HW138219   2.676   2.916   2.383  1.9224 -1.6410  0.0966
 8919SOL    HW238220   2.554   2.872   2.317  0.0503  1.1132  0.9069
 8920SOL     OW38221   3.264   3.653   7.843  0.1015 -0.1966  0.0591
 8920SOL    HW138222   3.284   3.746   7.850  1.4844 -0.5051  0.1527
 8920SOL    HW238223   3.216   3.660   7.760  0.2923 -0.8961 -0.1061
 8921SOL     OW38224   2.932   3.283  11.794  0.6923  0.2308 -0.3362
 8921SOL    HW138225   2.958   3.202  11.836 -1.2518 -1.0265 -1.5465
 8921SOL    HW238226   2.853   3.292  11.847 -0.1269 -1.0275 -1.3451
 8922SOL     OW38227   4.667   4.287   5.801 -0.1840  0.7459 -0.3336
 8922SOL    HW138228   4.601   4.224   5.774 -2.4405  2.0880  2.1223
 8922SOL    HW238229   4.616   4.368   5.806  1.0407  1.4317  0.8287
 8923SOL     OW38230   2.460   3.693   5.710 -0.2214  0.2668 -0.3181
 8923SOL    HW138231   2.500   3.609   5.736 -0.2514  0.5628  0.6979
 8923SOL    HW238232   2.513   3.755   5.759 -1.8020  1.5327 -0.2236
 8924SOL     OW38233   2.961   2.044   4.962  0.5325  0.6592 -0.0973
 8924SOL    HW138234   2.924   2.128   4.934 -2.9682 -1.2724 -1.2026
 8924SOL    HW238235   2.990   2.075   5.048 -1.4683  0.1729  0.7557
 8925SOL     OW38236   0.169   1.889  11.439  0.4071 -0.0080 -0.4192
 8925SOL    HW138237   0.136   1.829  11.371  1.0036 -2.3854  1.3841
 8925SOL    HW238238   0.088   1.934  11.461  0.1357  0.2469 -1.9008
 8926SOL     OW38239   3.446   1.145   6.492 -0.3127 -0.6409 -0.1510
 8926SOL    HW138240   3.445   1.165   6.585  0.0036 -0.2906 -0.2186
 8926SOL    HW238241   3.497   1.064   6.496  0.4865 -0.1892 -0.9082
 8927SOL     OW38242   3.893   3.225   7.206  0.6304  0.4016  0.0316
 8927SOL    HW138243   3.945   3.145   7.209 -1.3920 -1.0564 -3.4791
 8927SOL    HW238244   3.908   3.256   7.116 -0.6480 -1.3211 -0.7830
 8928SOL     OW38245   0.187   4.289   9.540  0.0395  0.2364 -0.2852
 8928SOL    HW138246   0.120   4.226   9.566 -0.3578  0.4770 -0.7361
 8928SOL    HW238247   0.169   4.287   9.446 -0.0231 -1.2302 -0.2397
 8929SOL     OW38248   0.074   1.298  10.846  0.2831  0.4406  0.2595
 8929SOL    HW138249   0.118   1.214  10.836  1.7718  1.1418  0.8584
 8929SOL    HW238250   0.116   1.337  10.923 -0.4206 -1.7754  1.7549
 8930SOL     OW38251   0.218   3.030   6.119 -0.6661  0.0476 -0.0649
 8930SOL    HW138252   0.157   3.100   6.096  0.2942  0.9515  0.1995
 8930SOL    HW238253   0.299   3.071   6.088 -0.9909  1.8540  1.4910
 8931SOL     OW38254   1.302   3.692  10.988 -0.2845  0.1993  0.2094
 8931SOL    HW138255   1.386   3.662  10.955 -0.6019 -0.2392 -0.2018
 8931SOL    HW238256   1.280   3.769  10.937 -0.2441 -0.4133 -0.7367
 8932SOL     OW38257   0.724   2.954   2.847 -0.0511  0.0087  0.1745
 8932SOL    HW138258   0.818   2.970   2.856  0.3548 -2.2850 -0.0621
 8932SOL    HW238259   0.694   2.959   2.938  0.8312  2.5617  0.3325
 8933SOL     OW38260   0.104   0.490   2.301 -0.0545  0.9025 -0.0675
 8933SOL    HW138261   0.084   0.407   2.257  0.0097  1.0251 -0.3322
 8933SOL    HW238262   0.061   0.479   2.385  1.5881  2.6957  1.0047
 8934SOL     OW38263   1.776   2.205   7.750  0.1544 -0.2323 -0.3980
 8934SOL    HW138264   1.698   2.152   7.741 -0.0388  0.2107 -1.4476
 8934SOL    HW238265   1.790   2.214   7.655 -0.1674 -1.3290 -0.5469
 8935SOL     OW38266   1.115   2.043   7.288 -0.6772 -0.5291  0.0607
 8935SOL    HW138267   1.164   2.126   7.289  1.0204 -1.5131 -0.5213
 8935SOL    HW238268   1.028   2.080   7.301 -1.3701 -2.6515  1.4253
 8936SOL     OW38269   0.395   3.936  15.881  0.0083  0.2340  0.2188
 8936SOL    HW138270   0.454   4.009  15.861 -0.4806  0.9621  1.4319
 8936SOL    HW238271   0.359   3.912  15.795 -3.6163  1.3347  1.4371
 8937SOL     OW38272   4.346   3.593   1.169  0.0147 -0.1121  0.3071
 8937SOL    HW138273   4.295   3.648   1.110  2.5384  2.1598  0.2281
 8937SOL    HW238274   4.348   3.635   1.255  1.8881 -2.2709  1.3514
 8938SOL     OW38275   2.587   2.541   3.931 -0.1682 -0.1459 -0.1414
 8938SOL    HW138276   2.550   2.506   4.012 -1.0324  2.1162  0.4393
 8938SOL    HW238277   2.646   2.607   3.967  2.7244 -1.1767 -2.9600
 8939SOL     OW38278   4.360   0.113  11.531 -0.4189  0.3745 -0.4940
 8939SOL    HW138279   4.265   0.105  11.528 -0.3256 -0.3492 -1.5971
 8939SOL    HW238280   4.380   0.060  11.609  0.6010  0.2490 -0.8393
 8940SOL     OW38281   3.162   2.323  10.690 -0.3348  0.4802 -1.0422
 8940SOL    HW138282   3.156   2.289  10.601  2.0729  1.4607 -1.5839
 8940SOL    HW238283   3.156   2.417  10.675 -2.7463  0.6419  0.8814
 8941SOL     OW38284   1.758   1.335   9.762 -0.0627 -0.4676  0.7792
 8941SOL    HW138285   1.725   1.339   9.672 -0.8476  0.5612  1.1042
 8941SOL    HW238286   1.712   1.263   9.804 -0.3645  0.2681  1.7056
 8942SOL     OW38287   3.720   2.758  16.983 -0.2355 -0.2732 -0.2859
 8942SOL    HW138288   3.695   2.703  16.908  1.0469  0.1269 -1.0005
 8942SOL    HW238289   3.681   2.842  16.960  0.4902  0.6897  2.0183
 8943SOL     OW38290   1.366   3.872   6.783 -0.1046 -0.0311  0.0704
 8943SOL    HW138291   1.344   3.898   6.693  0.4985 -0.2561 -0.1422
 8943SOL    HW238292   1.398   3.784   6.762  1.5621  0.1594  1.7635
 8944SOL     OW38293   0.095   0.823   2.533  0.2165 -0.4889 -0.4006
 8944SOL    HW138294   4.719   0.825   2.542  0.4489 -0.7094  2.0822
 8944SOL    HW238295   0.123   0.873   2.609  2.3000 -2.3890  0.0674
 8945SOL     OW38296   0.577   3.252   1.757 -0.7526  0.5167  0.2612
 8945SOL    HW138297   0.577   3.347   1.745  0.6090  0.2694 -1.6447
 8945SOL    HW238298   0.651   3.237   1.817 -1.1950 -4.3366 -0.4746
 8946SOL     OW38299   0.047   2.031   1.405 -0.2402 -0.4500 -0.4984
 8946SOL    HW138300   0.031   1.938   1.386  1.4631 -0.7570 -0.4239
 8946SOL    HW238301   0.118   2.046   1.342 -1.9188  1.8538 -1.8250
 8947SOL     OW38302   2.922   2.924   0.446  0.2622 -0.0692  0.0811
 8947SOL    HW138303   2.927   2.842   0.497  2.7001 -0.0642 -0.1257
 8947SOL    HW238304   2.928   2.986   0.519 -0.4431  1.0416 -0.8123
 8948SOL     OW38305   1.807   1.527  14.500  0.3503 -0.0831  0.3324
 8948SOL    HW138306   1.748   1.479  14.443  1.5886  0.1725 -1.1638
 8948SOL    HW238307   1.867   1.551  14.430  0.5470 -0.4370  0.3829
 8949SOL     OW38308   1.353   1.355   1.376 -0.3098 -0.3764 -0.1722
 8949SOL    HW138309   1.317   1.296   1.309 -0.1302 -1.1629  0.4274
 8949SOL    HW238310   1.353   1.299   1.453 -0.9595 -0.3773 -0.1706
 8950SOL     OW38311   0.367   1.892   7.696 -0.6162  0.0458 -0.5758
 8950SOL    HW138312   0.353   1.852   7.611 -1.7971 -1.4220  0.3086
 8950SOL    HW238313   0.297   1.844   7.741 -1.3274  0.5191 -1.1663
 8951SOL     OW38314   4.443   4.668   8.215 -0.1419  0.1144 -0.6766
 8951SOL    HW138315   4.352   4.687   8.241 -0.6736 -0.5102 -2.1049
 8951SOL    HW238316   4.478   4.652   8.303  0.6294 -0.2553 -1.0592
 8952SOL     OW38317   2.429   3.973   2.883  0.5951  0.2562 -0.0070
 8952SOL    HW138318   2.492   3.902   2.884 -2.4264 -2.3974  0.5176
 8952SOL    HW238319   2.447   4.023   2.802  0.6940  1.3097  0.6620
 8953SOL     OW38320   4.212   1.330   1.892 -0.0781  0.3279 -0.7137
 8953SOL    HW138321   4.117   1.326   1.901 -0.1755 -0.0412 -1.8571
 8953SOL    HW238322   4.234   1.239   1.908 -1.6096  0.1856  0.5184
 8954SOL     OW38323   1.305   1.547   3.945 -0.1307  0.5834  0.7147
 8954SOL    HW138324   1.232   1.486   3.958  0.4101 -0.0069  1.0266
 8954SOL    HW238325   1.326   1.530   3.853 -0.3682  0.5430  0.6681
 8955SOL     OW38326   2.989   2.499   9.807  0.5731 -0.2545 -0.6109
 8955SOL    HW138327   2.941   2.448   9.741  0.2548 -1.5815  0.6310
 8955SOL    HW238328   2.938   2.578   9.823  1.1344 -0.3506  1.5493
 8956SOL     OW38329   1.543   1.193   7.272 -0.6088 -0.0628 -0.7203
 8956SOL    HW138330   1.448   1.201   7.272 -0.6132 -0.0071  1.2316
 8956SOL    HW238331   1.566   1.202   7.180  2.0925 -0.2305 -0.0752
 8957SOL     OW38332   2.705   0.590   2.088  0.9889  0.2666 -0.2294
 8957SOL    HW138333   2.672   0.672   2.123  2.1892 -0.3303  2.3129
 8957SOL    HW238334   2.628   0.549   2.050  1.1894  0.5959 -0.9897
 8958SOL     OW38335   4.149   2.450   0.987  0.2067  0.3391  0.3185
 8958SOL    HW138336   4.221   2.387   0.987 -0.4954 -0.4779 -2.0035
 8958SOL    HW238337   4.092   2.422   1.058 -2.0002 -0.5454 -1.8000
 8959SOL     OW38338   0.779   3.249  10.793  0.0526 -0.2248  0.2170
 8959SOL    HW138339   0.848   3.300  10.836  3.0734 -1.0213 -3.6729
 8959SOL    HW238340   0.773   3.168  10.844 -2.5086 -0.1110  0.1355
 8960SOL     OW38341   2.302   2.816  11.873  0.3594 -0.6102 -0.1741
 8960SOL    HW138342   2.339   2.895  11.833 -1.7044 -0.9548 -2.7904
 8960SOL    HW238343   2.363   2.749  11.841 -1.1875 -1.4492 -1.3706
 8961SOL     OW38344   4.270   4.493   6.643 -0.2340 -0.0045 -0.7383
 8961SOL    HW138345   4.262   4.585   6.617 -1.5034 -0.8271 -3.3153
 8961SOL    HW238346   4.214   4.438   6.588 -0.6448 -0.1079 -0.2111
 8962SOL     OW38347   3.565   3.341   5.481  0.1592 -0.1175 -0.0019
 8962SOL    HW138348   3.652   3.311   5.508 -0.2000 -0.7933  0.3789
 8962SOL    HW238349   3.545   3.288   5.404  1.9161 -1.1107  0.2395
 8963SOL     OW38350   0.582   4.334   4.691 -0.1725 -0.1185 -0.0443
 8963SOL    HW138351   0.610   4.249   4.725  1.3887  0.5221  0.3014
 8963SOL    HW238352   0.592   4.380   4.775  1.9001 -0.5756 -0.0306
 8964SOL     OW38353   1.810   3.572   9.347  0.4561  0.2502  0.3305
 8964SOL    HW138354   1.794   3.488   9.390 -0.5622  0.3987  0.2392
 8964SOL    HW238355   1.729   3.616   9.372  0.7967  0.3925  1.1606
 8965SOL     OW38356   4.434   0.462   5.960  0.1796  0.6451 -0.4681
 8965SOL    HW138357   4.460   0.449   5.868 -0.8127 -0.3266 -0.6051
 8965SOL    HW238358   4.352   0.415   5.965  1.2806 -1.1042  0.7605
 8966SOL     OW38359   0.277   4.638  10.250  0.5542 -0.0799 -0.2514
 8966SOL    HW138360   0.303   0.001  10.211  1.6194 -0.4061 -0.2322
 8966SOL    HW238361   0.360   4.593  10.234 -0.7215 -2.5276 -0.0737
 8967SOL     OW38362   2.687   0.712   8.416 -0.0150  0.1509  0.2766
 8967SOL    HW138363   2.760   0.752   8.463  1.5639 -1.2689 -0.9705
 8967SOL    HW238364   2.654   0.797   8.386  1.0631  0.4137 -0.1412
 8968SOL     OW38365   1.280   3.973   8.064 -0.3463 -0.1421  0.2334
 8968SOL    HW138366   1.215   4.041   8.078 -0.9927 -0.3916 -1.5538
 8968SOL    HW238367   1.225   3.906   8.024  0.2992 -0.9662  0.7088
 8969SOL     OW38368   2.874   3.695   3.489  0.2215  0.3530 -0.4600
 8969SOL    HW138369   2.787   3.695   3.451  0.0875  0.6948 -0.1537
 8969SOL    HW238370   2.863   3.776   3.539 -0.0865  0.4067 -0.6137
 8970SOL     OW38371   2.675   0.187   8.134 -0.1971 -0.5237 -0.3903
 8970SOL    HW138372   2.664   0.228   8.220  2.9207 -1.2098  0.3268
 8970SOL    HW238373   2.598   0.211   8.083 -0.2511 -2.1240 -1.0519
 8971SOL     OW38374   1.078   3.430  16.340  0.0186  0.4291 -0.3356
 8971SOL    HW138375   1.086   3.342  16.376 -1.3743 -0.1607 -1.4455
 8971SOL    HW238376   1.052   3.409  16.250 -0.0316  1.0184 -0.4572
 8972SOL     OW38377   3.763   0.489   0.789  0.4583 -0.2825 -0.2977
 8972SOL    HW138378   3.700   0.482   0.861  1.5014  2.3271  0.8702
 8972SOL    HW238379   3.723   0.554   0.732 -0.9200 -2.0821 -1.3932
 8973SOL     OW38380   0.738   4.019   4.320  0.0555 -0.1108 -0.5176
 8973SOL    HW138381   0.810   3.970   4.279  0.9052 -1.3500  2.4464
 8973SOL    HW238382   0.688   4.053   4.245  1.6135 -0.3720 -1.6902
 8974SOL     OW38383   1.686   2.112   5.025  0.3458 -0.0270 -0.1335
 8974SOL    HW138384   1.635   2.129   5.105  0.5433 -1.2611  0.2556
 8974SOL    HW238385   1.673   2.197   4.983  0.5578 -0.0300 -0.2078
 8975SOL     OW38386   2.259   3.241   8.426  0.1324 -0.1682 -0.2145
 8975SOL    HW138387   2.186   3.297   8.399  0.1255 -0.4409 -0.7688
 8975SOL    HW238388   2.276   3.279   8.512 -1.4939 -0.6472  0.3153
 8976SOL     OW38389   1.132   3.383   8.310  0.4127  0.3451  0.1829
 8976SOL    HW138390   1.066   3.421   8.369 -0.6302  0.3473 -0.9893
 8976SOL    HW238391   1.193   3.355   8.379  1.1778  1.1931 -0.1608
 8977SOL     OW38392   3.879   0.383  11.955 -0.4917  0.4528  0.1628
 8977SOL    HW138393   3.825   0.367  12.033 -0.7490  2.0940  0.3368
 8977SOL    HW238394   3.811   0.393  11.888  0.0317 -2.3849 -0.7766
 8978SOL     OW38395   1.205   1.410   2.888  0.0145  0.3350 -0.7465
 8978SOL    HW138396   1.297   1.432   2.870  0.0125  0.9853  0.0105
 8978SOL    HW238397   1.198   1.319   2.862  0.7620  0.1104 -0.1849
 8979SOL     OW38398   4.351   2.239  15.910 -0.2509 -0.0212  0.1505
 8979SOL    HW138399   4.383   2.154  15.941 -2.2687 -1.2644 -1.1614
 8979SOL    HW238400   4.409   2.246  15.834  1.3441 -0.7408  1.3063
 8980SOL     OW38401   4.624   4.634   3.756 -1.1671  0.3218  0.0644
 8980SOL    HW138402   4.650   4.571   3.688 -0.0516  2.4603 -1.5152
 8980SOL    HW238403   4.627   4.588   3.839 -0.2216  1.0661  0.4455
 8981SOL     OW38404   0.244   3.892   7.334 -0.2815 -0.4841 -0.2440
 8981SOL    HW138405   0.295   3.964   7.372  1.1790 -1.2745 -0.6771
 8981SOL    HW238406   0.232   3.835   7.410 -1.7000  1.4459  0.9601
 8982SOL     OW38407   2.006   4.231   8.071  0.0808  0.4722 -0.1392
 8982SOL    HW138408   2.027   4.140   8.090  1.8032  1.0333  0.7047
 8982SOL    HW238409   1.936   4.244   8.135 -0.4537 -1.3364 -0.3702
 8983SOL     OW38410   1.413   0.627   6.942  0.3367  0.1029  0.1026
 8983SOL    HW138411   1.396   0.602   6.852 -0.0842 -0.2763  0.2887
 8983SOL    HW238412   1.484   0.572   6.976  0.1557 -0.0962  0.1541
 8984SOL     OW38413   2.215   0.777   3.385  0.5105  0.4468  0.5091
 8984SOL    HW138414   2.224   0.748   3.476  1.7823 -3.1936 -0.7887
 8984SOL    HW238415   2.123   0.798   3.375  0.1927 -0.2020  2.0574
 8985SOL     OW38416   3.981   4.625  11.140  0.2732 -0.3298 -0.3565
 8985SOL    HW138417   4.039   4.693  11.174 -0.7113  1.6833 -2.7937
 8985SOL    HW238418   4.041   4.550  11.148  0.8476  0.3274  1.7162
 8986SOL     OW38419   2.591   3.277   8.038  0.0922  0.4975  0.0106
 8986SOL    HW138420   2.502   3.289   8.071 -0.1534 -0.7502 -0.1894
 8986SOL    HW238421   2.604   3.184   8.057 -2.0065  0.0504 -0.7567
 8987SOL     OW38422   2.704   0.942   0.708  0.6615 -0.2305  0.0913
 8987SOL    HW138423   2.650   1.021   0.718 -2.7546 -2.9898  3.1535
 8987SOL    HW238424   2.679   0.901   0.791 -1.0633  1.4332  0.4012
 8988SOL     OW38425   3.603   1.210   5.718 -0.2528 -0.3179  0.1452
 8988SOL    HW138426   3.542   1.181   5.786 -0.7044 -2.1294 -1.0226
 8988SOL    HW238427   3.682   1.225   5.770 -1.7549  1.1745  2.0071
 8989SOL     OW38428   2.423   1.396   7.738 -0.8206  0.4161 -0.4678
 8989SOL    HW138429   2.469   1.479   7.752  1.6964 -1.2603  1.3762
 8989SOL    HW238430   2.332   1.416   7.758 -0.1933  2.6677  0.1928
 8990SOL     OW38431   3.050   1.085   5.169  0.5282  0.6965 -0.4462
 8990SOL    HW138432   3.036   1.164   5.116  1.0046 -0.7440 -2.7486
 8990SOL    HW238433   3.122   1.042   5.121 -0.6183 -0.5670 -1.0246
 8991SOL     OW38434   4.082   4.120   5.856 -0.1269  0.4918  0.7100
 8991SOL    HW138435   4.007   4.107   5.798  2.5003 -1.6695 -2.2494
 8991SOL    HW238436   4.127   4.202   5.833  0.1550  0.7606  2.2249
 8992SOL     OW38437   1.917   4.473   8.778  0.4454  0.1508  0.5972
 8992SOL    HW138438   1.960   4.427   8.850  0.5756 -0.3700  0.1843
 8992SOL    HW238439   1.841   4.513   8.821  0.9131  0.9670  0.6658
 8993SOL     OW38440   0.965   0.724   2.191 -0.2383  0.1116  0.3955
 8993SOL    HW138441   0.891   0.732   2.251 -1.2341  0.7102 -0.9191
 8993SOL    HW238442   1.017   0.654   2.231  0.1062  1.6146  2.6223
 8994SOL     OW38443   4.022   0.807  16.489 -0.0783  0.2058  0.0516
 8994SOL    HW138444   3.976   0.737  16.443 -0.2844  0.5964 -0.3392
 8994SOL    HW238445   3.959   0.879  16.493 -1.6199 -1.1012 -0.5482
 8995SOL     OW38446   1.118   4.504   9.074 -0.0528  0.3921 -0.1238
 8995SOL    HW138447   1.143   4.589   9.108  0.1811  0.2278  0.1124
 8995SOL    HW238448   1.023   4.497   9.084  0.0158  0.3305  0.4815
 8996SOL     OW38449   1.466   3.329   9.995  0.8243 -0.2580 -0.0360
 8996SOL    HW138450   1.430   3.416   9.975 -1.2661 -0.3992  3.2654
 8996SOL    HW238451   1.390   3.284  10.032 -0.3649  0.6703 -1.3526
 8997SOL     OW38452   4.540   4.413   5.519 -0.2213  0.0617 -0.0521
 8997SOL    HW138453   4.458   4.451   5.486  0.5742  0.0103 -2.1227
 8997SOL    HW238454   4.578   4.485   5.570  0.4333 -0.6085  0.4022
 8998SOL     OW38455   1.310   0.498  10.372  0.0853 -0.2054 -0.3295
 8998SOL    HW138456   1.356   0.492  10.456 -0.5900 -0.2607  0.0362
 8998SOL    HW238457   1.332   0.586  10.342 -0.9846 -0.2018 -1.0923
 8999SOL     OW38458   1.440   4.291   4.446  0.4199 -0.6596  0.4838
 8999SOL    HW138459   1.416   4.322   4.533  0.1196  1.0531 -0.2175
 8999SOL    HW238460   1.522   4.331   4.417  0.0932 -0.2369  0.1570
 9000SOL     OW38461   2.680   4.018  13.807  0.0791  0.0504 -0.0740
 9000SOL    HW138462   2.621   4.062  13.746 -1.2896 -2.9262 -0.9068
 9000SOL    HW238463   2.661   3.929  13.777  2.8845 -0.2796 -0.8801
 9001SOL     OW38464   1.524   4.688   4.342 -0.1249 -0.2378  0.1711
 9001SOL    HW138465   1.558   4.599   4.348 -1.4691 -0.5817  2.8710
 9001SOL    HW238466   1.520   4.700   4.248  0.3516  0.3650  0.2255
 9002SOL     OW38467   1.876   2.734   4.370 -0.7109  0.4437  0.3150
 9002SOL    HW138468   1.953   2.681   4.351  0.4852  1.8840  1.0800
 9002SOL    HW238469   1.803   2.677   4.346 -1.3006  0.5247  1.8577
 9003SOL     OW38470   3.644   1.055   2.302 -0.3071  0.5427 -0.0965
 9003SOL    HW138471   3.674   1.138   2.266  0.0840  0.4242 -0.0418
 9003SOL    HW238472   3.557   1.044   2.264  0.2447 -1.2843 -0.8320
 9004SOL     OW38473   1.967   2.216  14.235  0.7208 -0.3073 -0.1974
 9004SOL    HW138474   1.921   2.263  14.304  0.7853 -0.5673  0.0258
 9004SOL    HW238475   2.059   2.243  14.240  0.1607  1.5201  0.1197
 9005SOL     OW38476   3.495   2.665   9.581 -0.4363  0.3658  0.1015
 9005SOL    HW138477   3.467   2.742   9.631  0.4200  0.3446  0.6023
 9005SOL    HW238478   3.410   2.623   9.565 -1.3820  1.0617  3.3146
 9006SOL     OW38479   4.031   3.894   8.496  0.5617  0.0065  0.5284
 9006SOL    HW138480   3.985   3.974   8.523 -1.7279 -0.7913 -1.0629
 9006SOL    HW238481   4.084   3.929   8.424  0.6355  2.0519  1.5676
 9007SOL     OW38482   1.438   2.364  10.020 -0.4889  0.3941 -0.1185
 9007SOL    HW138483   1.408   2.394   9.934 -1.3173 -1.5075 -0.4934
 9007SOL    HW238484   1.524   2.325  10.004 -0.3288  0.7937 -0.2379
 9008SOL     OW38485   4.715   4.655   2.203 -0.0107  0.2077 -0.0949
 9008SOL    HW138486   4.714   4.581   2.142 -1.5735 -0.2625  0.5107
 9008SOL    HW238487   4.648   4.628   2.265 -1.2049 -0.4951 -1.6958
 9009SOL     OW38488   4.444   3.537   4.959  0.1605 -0.0920  0.0247
 9009SOL    HW138489   4.372   3.552   4.898  0.8713  1.8839 -0.3360
 9009SOL    HW238490   4.499   3.471   4.917  1.0302 -1.0622  2.6452
 9010SOL     OW38491   0.154   2.479   3.631  0.2392 -0.2134 -0.3519
 9010SOL    HW138492   0.164   2.397   3.584  3.1627  0.0695 -0.2573
 9010SOL    HW238493   0.116   2.541   3.569  0.9047  0.8135  0.2522
 9011SOL     OW38494   3.571   1.015   9.568 -0.0284  0.3840 -0.2268
 9011SOL    HW138495   3.534   1.103   9.560  0.1161  0.5704  1.1590
 9011SOL    HW238496   3.491   0.976   9.603  0.1337 -1.7979 -2.2798
 9012SOL     OW38497   4.330   2.656   3.785  0.0450 -0.4116  0.4491
 9012SOL    HW138498   4.266   2.725   3.801 -1.6175 -1.8238 -0.0423
 9012SOL    HW238499   4.290   2.598   3.719 -0.3504  2.1287 -1.5375
 9013SOL     OW38500   2.494   2.940   9.374  0.8229  0.1075 -0.1883
 9013SOL    HW138501   2.499   2.895   9.458 -0.3103  0.9224  0.3103
 9013SOL    HW238502   2.416   2.995   9.382  0.3553 -0.6981  0.8017
 9014SOL     OW38503   2.490   0.894   5.921 -0.1561 -0.2222  0.3119
 9014SOL    HW138504   2.566   0.851   5.881  0.1814  0.1001  0.6013
 9014SOL    HW238505   2.535   0.977   5.936 -1.0324  0.0979  1.1708
 9015SOL     OW38506   3.741   0.550   9.336  0.0886  0.1389 -0.0463
 9015SOL    HW138507   3.748   0.513   9.248 -1.6836  2.2868 -1.0875
 9015SOL    HW238508   3.646   0.552   9.329 -0.0576 -0.9694  1.6500
 9016SOL     OW38509   4.605   1.820   7.857  0.0917  0.3023 -0.2708
 9016SOL    HW138510   4.514   1.826   7.885 -0.7054  0.0886 -2.7961
 9016SOL    HW238511   4.620   1.915   7.856 -0.4371  0.3863  0.6650
 9017SOL     OW38512   2.387   4.621   3.656 -0.5131 -0.0969  0.4092
 9017SOL    HW138513   2.354   4.570   3.582 -1.0865  0.0796  0.5450
 9017SOL    HW238514   2.346   4.707   3.645  3.5488  1.5931 -1.4653
 9018SOL     OW38515   4.530   1.373  11.539 -0.3240 -0.1577  0.4183
 9018SOL    HW138516   4.570   1.287  11.524  2.8660  1.6202 -1.2801
 9018SOL    HW238517   4.568   1.392  11.625 -0.2489  0.3933  0.2629
 9019SOL     OW38518   0.377   1.801   8.163  0.3034 -0.4507  0.0923
 9019SOL    HW138519   0.281   1.809   8.166  0.2836 -0.9735  0.9220
 9019SOL    HW238520   0.401   1.894   8.166  0.5615 -0.4623 -1.5725
 9020SOL     OW38521   2.991   4.279   7.523 -0.0321 -0.4698 -0.3086
 9020SOL    HW138522   2.942   4.223   7.462 -0.3517 -0.8835  0.3310
 9020SOL    HW238523   3.052   4.211   7.551  2.8039  1.5718 -1.4784
 9021SOL     OW38524   2.176   2.824  14.320  0.0424 -0.1584 -0.4673
 9021SOL    HW138525   2.160   2.781  14.404 -1.7788 -1.0818 -1.2815
 9021SOL    HW238526   2.150   2.912  14.347 -1.7471 -1.2328  1.4063
 9022SOL     OW38527   0.125   4.520  11.636 -0.2429  0.1075 -0.7098
 9022SOL    HW138528   0.208   4.559  11.608  1.7220 -2.5945  1.3960
 9022SOL    HW238529   0.150   4.433  11.665  0.5941  0.3944 -0.5846
 9023SOL     OW38530   2.735   0.803   5.810  0.0602 -0.0800 -0.6129
 9023SOL    HW138531   2.790   0.796   5.888 -0.0708  2.0276 -0.3354
 9023SOL    HW238532   2.797   0.775   5.743  2.0221  1.0090  0.7579
 9024SOL     OW38533   0.522   3.851  10.197  0.1740 -0.2346  0.1435
 9024SOL    HW138534   0.592   3.878  10.257  0.1768  1.6620 -0.7183
 9024SOL    HW238535   0.475   3.790  10.254 -2.0055 -0.1334 -1.5222
 9025SOL     OW38536   4.621   2.305   6.444 -0.0839  0.2089  0.1966
 9025SOL    HW138537   4.663   2.226   6.476  0.5171  0.8498  1.0037
 9025SOL    HW238538   4.675   2.322   6.367 -1.1897 -0.6240 -0.7569
 9026SOL     OW38539   2.195   1.490   3.323  0.1233 -0.0679  0.4348
 9026SOL    HW138540   2.196   1.509   3.417  4.3813  1.3084  0.1074
 9026SOL    HW238541   2.108   1.517   3.295 -0.0849 -0.2829  0.8606
 9027SOL     OW38542   0.949   4.007  15.216  0.0307  0.1320  0.0006
 9027SOL    HW138543   0.884   4.047  15.157  0.3372  1.7250  0.7416
 9027SOL    HW238544   1.035   4.025  15.177  0.4710  0.8622  1.2918
 9028SOL     OW38545   3.540   2.334   1.097  0.6860  0.0608 -0.2277
 9028SOL    HW138546   3.625   2.300   1.071 -0.1308 -1.9216 -0.2599
 9028SOL    HW238547   3.569   2.390   1.169 -2.6674 -2.4053  3.0612
 9029SOL     OW38548   0.277   4.269  14.951 -0.8178 -0.0356 -0.1707
 9029SOL    HW138549   0.198   4.271  15.006  0.3863  0.0708  1.5578
 9029SOL    HW238550   0.253   4.233  14.866 -0.0270 -1.3315  0.1617
 9030SOL     OW38551   3.388   0.893   7.986  0.2268 -0.4148  0.6128
 9030SOL    HW138552   3.392   0.844   8.068  2.1205 -2.2164 -0.5511
 9030SOL    HW238553   3.299   0.928   7.986  0.8096  1.0834 -1.4389
 9031SOL     OW38554   2.966   1.269   8.662  0.0218 -0.4582 -0.3184
 9031SOL    HW138555   3.036   1.276   8.727  1.6760  0.6928 -2.2213
 9031SOL    HW238556   3.012   1.255   8.579  1.6458  3.2477 -0.0288
 9032SOL     OW38557   3.841   0.337   5.902 -0.2227  0.2404  0.8655
 9032SOL    HW138558   3.792   0.345   5.821  1.0977 -1.9186 -0.1519
 9032SOL    HW238559   3.785   0.397   5.952  0.9770  0.8932  1.4248
 9033SOL     OW38560   2.191   1.953  14.327  0.6529 -0.3847  0.0063
 9033SOL    HW138561   2.195   1.957  14.231  1.5859 -2.3901 -0.0184
 9033SOL    HW238562   2.103   1.916  14.325 -0.5518  2.5009 -1.0176
 9034SOL     OW38563   3.511   1.623   2.828 -0.1846  0.0794 -0.3061
 9034SOL    HW138564   3.512   1.630   2.924 -0.1996  1.0047 -0.3716
 9034SOL    HW238565   3.509   1.529   2.811  0.0462  0.0376 -0.0968
 9035SOL     OW38566   0.418   3.719   3.908 -0.3089 -0.2044 -0.0095
 9035SOL    HW138567   0.419   3.739   4.002  2.1651 -0.2848 -0.0268
 9035SOL    HW238568   0.437   3.805   3.872 -0.9560  0.0973  0.3859
 9036SOL     OW38569   1.274   1.555  10.450 -0.4311 -0.4565  0.0976
 9036SOL    HW138570   1.252   1.607  10.528  0.3145 -2.4429  1.6187
 9036SOL    HW238571   1.339   1.606  10.402 -1.2084 -0.0491 -0.5363
 9037SOL     OW38572   1.911   1.179   5.829 -0.8261  0.2271 -0.8331
 9037SOL    HW138573   1.998   1.187   5.791 -0.0606 -4.2522 -0.0058
 9037SOL    HW238574   1.923   1.203   5.921 -0.5443  0.4771 -0.9351
 9038SOL     OW38575   0.005   4.346   7.763 -0.0458  0.1371  0.1590
 9038SOL    HW138576   4.671   4.269   7.748 -1.9834  1.2590  1.2751
 9038SOL    HW238577   4.708   4.369   7.855  1.0107 -0.1681  0.4294
 9039SOL     OW38578   4.364   0.111   4.838 -0.3244  0.8744 -0.0337
 9039SOL    HW138579   4.324   0.153   4.762  0.2944  0.6283 -0.5021
 9039SOL    HW238580   4.285   0.112   4.892 -1.8914  0.1503 -2.3493
 9040SOL     OW38581   0.302   3.114   2.004 -0.2449  0.4400 -0.3977
 9040SOL    HW138582   0.376   3.171   1.984  0.9486 -0.4393  1.4971
 9040SOL    HW238583   0.247   3.106   1.927 -0.3846 -0.3743 -0.2190
 9041SOL     OW38584   1.693   1.143   7.875  0.3824 -0.4230 -0.0380
 9041SOL    HW138585   1.619   1.096   7.914  0.4201  0.5275  1.1940
 9041SOL    HW238586   1.739   1.069   7.837 -1.6600 -1.5359 -0.3419
 9042SOL     OW38587   3.519   1.967  16.860 -0.0529 -0.5342  0.1694
 9042SOL    HW138588   3.468   1.897  16.818  2.2839 -2.8310  1.1565
 9042SOL    HW238589   3.480   2.040  16.812 -0.8650 -1.3881 -0.4827
 9043SOL     OW38590   2.598   2.976   6.489  0.2830  0.0741  0.3505
 9043SOL    HW138591   2.592   3.063   6.529  1.7150  0.6307 -0.6565
 9043SOL    HW238592   2.530   2.918   6.524  0.3553 -0.7460 -0.8694
 9044SOL     OW38593   0.620   1.545   8.420  0.1230  0.0451  0.0387
 9044SOL    HW138594   0.538   1.540   8.372  0.8277  1.3228 -1.2758
 9044SOL    HW238595   0.598   1.532   8.512  2.4793  1.0003  0.7472
 9045SOL     OW38596   3.990   1.798  11.862 -0.1765  0.1282 -1.1636
 9045SOL    HW138597   3.896   1.807  11.880 -0.0647 -0.8612 -0.0489
 9045SOL    HW238598   4.026   1.886  11.855  0.6877 -0.0827  0.5941
 9046SOL     OW38599   0.561   2.365  15.085  0.5716 -0.7578  0.5313
 9046SOL    HW138600   0.474   2.393  15.055  1.7445  1.9887 -0.2851
 9046SOL    HW238601   0.622   2.432  15.053  1.1281 -0.9314  1.2246
 9047SOL     OW38602   4.666   2.675   2.933 -0.0030 -0.1233  0.3207
 9047SOL    HW138603   4.642   2.723   3.012  1.1041 -2.1370  1.8625
 9047SOL    HW238604   4.604   2.601   2.939 -1.9185  1.3865 -0.6214
 9048SOL     OW38605   3.211   2.101  14.723  0.5816  0.2459 -0.5374
 9048SOL    HW138606   3.203   2.015  14.680  0.7691  1.1399 -2.3536
 9048SOL    HW238607   3.174   2.154  14.652  0.2166  1.5422  0.6389
 9049SOL     OW38608   4.500   3.236  11.752 -0.9314  0.2206 -0.3831
 9049SOL    HW138609   4.428   3.292  11.780 -2.5702 -0.4531 -3.1814
 9049SOL    HW238610   4.524   3.195  11.835 -2.4939  1.7014  0.8121
 9050SOL     OW38611   2.482   1.412  14.999 -0.5353 -0.2693  0.1141
 9050SOL    HW138612   2.548   1.476  14.972 -0.5552 -1.5560 -2.9749
 9050SOL    HW238613   2.415   1.469  15.036 -1.3594 -1.6040  0.6819
 9051SOL     OW38614   1.080   0.239  16.927  0.6184  0.1540  0.4288
 9051SOL    HW138615   1.043   0.238  16.839 -0.2230  0.3844  0.7873
 9051SOL    HW238616   1.135   0.317  16.939 -0.1055  0.9049 -1.0630
 9052SOL     OW38617   1.890   3.191   6.963  0.2197  0.2027  0.4051
 9052SOL    HW138618   1.953   3.133   6.920  0.7315 -2.0352  4.1343
 9052SOL    HW238619   1.922   3.187   7.053  1.1239  0.9562  0.1237
 9053SOL     OW38620   4.499   1.048   7.052 -0.0797 -0.2911  0.3157
 9053SOL    HW138621   4.436   1.114   7.078  1.7557  1.3191  0.6516
 9053SOL    HW238622   4.454   0.997   6.985  1.4256 -0.1140 -0.8376
 9054SOL     OW38623   3.443   4.492   9.876  0.1216 -0.0583 -0.2135
 9054SOL    HW138624   3.348   4.498   9.870  0.3576  2.8704 -1.2432
 9054SOL    HW238625   3.471   4.581   9.899 -0.5177  0.0411  0.1613
 9055SOL     OW38626   3.149   2.970   6.334 -0.6083  0.5998 -0.4872
 9055SOL    HW138627   3.182   2.956   6.423 -2.9651  2.5600  0.7172
 9055SOL    HW238628   3.055   2.963   6.351 -0.5094 -2.3771 -1.1986
 9056SOL     OW38629   2.867   1.768   6.981  0.2515  0.2054 -0.3304
 9056SOL    HW138630   2.789   1.723   6.949 -0.8333  2.1062 -0.4047
 9056SOL    HW238631   2.892   1.820   6.904 -0.1044  2.9980  1.4403
 9057SOL     OW38632   0.886   3.008  14.370  0.4458 -0.3064  0.3057
 9057SOL    HW138633   0.888   2.921  14.330  2.2557 -0.3258  0.4442
 9057SOL    HW238634   0.939   2.991  14.448  0.5721  0.5078  0.4018
 9058SOL     OW38635   0.292   3.260   5.380  0.5213  0.2523 -0.4666
 9058SOL    HW138636   0.295   3.195   5.451  0.2646  0.7424 -0.0128
 9058SOL    HW238637   0.357   3.312   5.427 -0.5172  2.4916 -1.5093
 9059SOL     OW38638   4.673   1.026   4.712  0.2110  0.6023  0.1944
 9059SOL    HW138639   4.655   0.932   4.706  0.1826  0.6286 -0.1252
 9059SOL    HW238640   4.683   1.050   4.620 -0.7910 -0.1808 -0.1211
 9060SOL     OW38641   1.862   0.667   2.610  0.0009 -0.1072  0.0012
 9060SOL    HW138642   1.892   0.757   2.591  1.5335 -0.8597 -1.1819
 9060SOL    HW238643   1.931   0.652   2.675 -0.8148  0.7774  1.0845
 9061SOL     OW38644   3.868   0.889  16.771  0.0090 -0.1310  0.1636
 9061SOL    HW138645   3.812   0.942  16.715  1.3345 -0.6992 -1.7136
 9061SOL    HW238646   3.854   0.926  16.858  1.1779 -1.8915  1.1104
 9062SOL     OW38647   4.464   1.350   6.790  0.1835 -0.0109  0.7342
 9062SOL    HW138648   4.450   1.417   6.856  2.5750  0.6366  0.5746
 9062SOL    HW238649   4.503   1.393   6.714 -1.2965  1.5495  0.8513
 9063SOL     OW38650   0.819   2.266   4.588  0.2426 -0.1634  0.4575
 9063SOL    HW138651   0.867   2.259   4.505 -2.0170  0.1912 -0.8928
 9063SOL    HW238652   0.776   2.181   4.598 -0.9956  0.5341  1.0497
 9064SOL     OW38653   1.626   0.232   3.421 -0.1096 -0.9050 -0.8500
 9064SOL    HW138654   1.646   0.319   3.388  1.9382 -0.2455  2.0896
 9064SOL    HW238655   1.531   0.246   3.429 -0.3918 -2.6374 -1.1118
 9065SOL     OW38656   3.432   0.273  11.961 -0.1889  0.4735  0.1273
 9065SOL    HW138657   3.382   0.340  11.914 -2.6579 -0.4524  1.4464
 9065SOL    HW238658   3.481   0.334  12.016 -0.9171 -0.3844  1.7291
 9066SOL     OW38659   0.182   3.200   8.487  0.1043 -0.1188  0.2529
 9066SOL    HW138660   0.183   3.231   8.397  1.1690 -2.1074 -0.4212
 9066SOL    HW238661   0.107   3.141   8.495  1.2770 -2.0151 -2.8140
 9067SOL     OW38662   2.416   0.044   4.064 -0.0088  0.6057  0.6346
 9067SOL    HW138663   2.337   0.098   4.071 -1.0953 -0.6680 -1.7222
 9067SOL    HW238664   2.468   0.123   4.052  0.4776  0.2458  0.3637
 9068SOL     OW38665   4.511   3.974   0.414 -0.2310  0.3932  0.2906
 9068SOL    HW138666   4.505   3.946   0.505 -1.0156  0.3885  0.2427
 9068SOL    HW238667   4.482   4.065   0.426  2.0787  0.8602  2.1348
 9069SOL     OW38668   3.277   4.222  16.495  1.0179 -0.1829 -0.1148
 9069SOL    HW138669   3.363   4.261  16.475 -0.0659  2.7080  0.8040
 9069SOL    HW238670   3.273   4.233  16.590 -1.1660  2.7671 -0.5404
 9070SOL     OW38671   0.315   1.772   1.219 -0.6253 -0.1699 -0.0470
 9070SOL    HW138672   0.251   1.718   1.173 -2.0107  1.6151 -0.2433
 9070SOL    HW238673   0.292   1.860   1.188  1.9114  0.3672 -0.4246
 9071SOL     OW38674   3.227   2.374   4.881  0.2534 -0.1223 -0.4494
 9071SOL    HW138675   3.278   2.403   4.806 -0.7360  1.2886 -0.5751
 9071SOL    HW238676   3.154   2.435   4.868  0.1374 -0.3775 -0.9669
 9072SOL     OW38677   1.150   2.476   1.514  0.5891  0.2181  0.3359
 9072SOL    HW138678   1.100   2.480   1.433  2.1935  2.6119 -0.5340
 9072SOL    HW238679   1.202   2.398   1.494  1.8493  1.1707 -0.1314
 9073SOL     OW38680   2.377   2.691  14.770  0.6155 -0.1356  0.2111
 9073SOL    HW138681   2.393   2.716  14.861  1.0621 -2.3906  0.7518
 9073SOL    HW238682   2.468   2.689  14.739 -0.1766 -0.2717 -2.1197
 9074SOL     OW38683   0.355   2.766  17.013 -0.1091  0.3215  0.4721
 9074SOL    HW138684   0.361   2.852  17.054 -3.2582  1.1901 -0.8158
 9074SOL    HW238685   0.331   2.782  16.922  1.9117  0.1143 -0.0888
 9075SOL     OW38686   0.649   1.530  10.878  0.1476  0.2463  0.4885
 9075SOL    HW138687   0.566   1.500  10.914 -1.4338  1.0771 -2.4427
 9075SOL    HW238688   0.621   1.609  10.832  0.6630  0.9584  1.4106
 9076SOL     OW38689   3.383   1.121   5.343  0.0886 -0.4138 -0.1839
 9076SOL    HW138690   3.297   1.147   5.311  1.2000  3.0960 -0.2608
 9076SOL    HW238691   3.364   1.027   5.348 -2.6943  0.2605  1.9281
 9077SOL     OW38692   0.588   2.105   6.550 -0.1974 -0.5458  0.0214
 9077SOL    HW138693   0.572   2.047   6.625  0.6063  0.7534  1.2078
 9077SOL    HW238694   0.554   2.182   6.596 -1.7538 -1.8703  1.0918
 9078SOL     OW38695   1.977   3.568  17.371 -0.0169 -0.4491  0.5451
 9078SOL    HW138696   1.949   3.604  17.455 -0.5249 -0.2800  0.3067
 9078SOL    HW238697   1.893   3.579  17.325  1.5238  1.5640 -1.8051
 9079SOL     OW38698   2.056   2.511  13.766 -0.3040 -0.3594  0.1168
 9079SOL    HW138699   2.106   2.571  13.821  1.2995 -0.9578 -0.6831
 9079SOL    HW238700   2.020   2.453  13.834 -1.1431  1.8532  1.5412
 9080SOL     OW38701   1.634   2.167   3.758 -0.1348 -0.4315 -0.0480
 9080SOL    HW138702   1.693   2.242   3.767 -0.1242 -0.2034 -1.9616
 9080SOL    HW238703   1.666   2.114   3.830  0.4130 -0.6126 -0.4266
 9081SOL     OW38704   0.714   3.934   9.951  0.4883  0.4058  0.2651
 9081SOL    HW138705   0.647   3.871   9.977 -0.2829  0.3866 -1.7784
 9081SOL    HW238706   0.704   4.004  10.015  0.4511 -0.7021  1.4794
 9082SOL     OW38707   0.822   2.594   2.975 -0.3912  1.2679 -0.1861
 9082SOL    HW138708   0.908   2.628   3.001 -0.0532 -0.5785  1.0575
 9082SOL    HW238709   0.837   2.500   2.969 -0.0161  1.2662  0.7730
 9083SOL     OW38710   3.671   2.007   6.102 -0.2622 -0.3494 -0.7148
 9083SOL    HW138711   3.735   1.962   6.048 -1.3253 -1.9397 -0.6501
 9083SOL    HW238712   3.640   1.928   6.148 -0.8504  1.1852  1.5437
 9084SOL     OW38713   3.966   1.869   3.586 -0.1355  0.0385 -0.2960
 9084SOL    HW138714   3.877   1.850   3.558  0.9177 -2.7484 -1.7619
 9084SOL    HW238715   4.004   1.846   3.501 -0.6220  0.3072 -0.5820
 9085SOL     OW38716   1.223   2.216  12.082  0.1834  0.0121  0.2931
 9085SOL    HW138717   1.250   2.276  12.013 -1.8197  0.7245  0.1297
 9085SOL    HW238718   1.146   2.173  12.046 -0.8570  2.8434 -0.8471
 9086SOL     OW38719   4.055   2.863   6.756 -0.0865  0.0025  0.3973
 9086SOL    HW138720   4.135   2.876   6.807 -0.4369 -1.5028  1.3016
 9086SOL    HW238721   4.006   2.811   6.819 -1.6366  0.6196 -0.3009
 9087SOL     OW38722   1.575   2.223  16.770  0.6684 -0.2862  0.0652
 9087SOL    HW138723   1.484   2.195  16.762  0.0577  1.9487 -0.7299
 9087SOL    HW238724   1.560   2.285  16.842  1.9526  0.6009 -0.4306
 9088SOL     OW38725   3.496   0.789   6.763 -0.1402  0.2951  0.1018
 9088SOL    HW138726   3.490   0.699   6.795  0.0514  1.0585  2.2559
 9088SOL    HW238727   3.499   0.832   6.848  1.5725 -0.0977  0.2417
 9089SOL     OW38728   4.266   2.721  11.897 -0.4768  0.2709  0.3953
 9089SOL    HW138729   4.310   2.784  11.840  0.5901 -0.1425  0.7647
 9089SOL    HW238730   4.343   2.671  11.922 -1.0674 -1.0245 -0.3964
 9090SOL     OW38731   4.645   0.512  11.473 -1.2031 -0.2256 -0.4884
 9090SOL    HW138732   4.613   0.591  11.429 -0.0079  0.4917 -0.0691
 9090SOL    HW238733   0.004   0.549  11.512  0.5331 -3.3041 -1.0966
 9091SOL     OW38734   4.719   1.367   1.386 -0.2401  0.2017 -0.3403
 9091SOL    HW138735   4.699   1.275   1.402  0.1032  0.0625 -0.7029
 9091SOL    HW238736   4.685   1.388   1.300 -1.3603 -1.2290 -0.2411
 9092SOL     OW38737   3.262   2.608   8.965 -0.1524 -0.0714  0.1715
 9092SOL    HW138738   3.196   2.650   9.020 -1.2134  1.0450 -1.9529
 9092SOL    HW238739   3.268   2.518   8.998 -2.5067  0.9370  3.3381
 9093SOL     OW38740   4.582   0.237   8.035 -0.1204 -0.1516  0.1817
 9093SOL    HW138741   4.568   0.145   8.057  0.2736 -0.5728 -1.3495
 9093SOL    HW238742   4.645   0.269   8.099  1.1345  0.0141 -1.1539
 9094SOL     OW38743   0.253   0.416   1.713  0.0321  0.2918 -0.5169
 9094SOL    HW138744   0.165   0.392   1.685  0.1175 -0.4894 -0.1019
 9094SOL    HW238745   0.248   0.511   1.700 -0.2199  0.4347  0.6095
 9095SOL     OW38746   4.298   4.535   5.488  0.5726  0.1710 -0.1083
 9095SOL    HW138747   4.255   4.573   5.412 -0.2710 -1.8215 -0.6294
 9095SOL    HW238748   4.249   4.582   5.555 -0.6972  0.8720 -1.5440
 9096SOL     OW38749   1.250   2.961   7.494 -0.0959 -0.2909  0.4369
 9096SOL    HW138750   1.198   3.016   7.436  0.4860  1.2347  1.3490
 9096SOL    HW238751   1.192   2.935   7.566  0.8388  0.1883  1.3723
 9097SOL     OW38752   0.059   2.634   4.642 -0.2714  0.1571  0.2471
 9097SOL    HW138753   0.100   2.688   4.575 -1.1987 -2.4717 -2.4972
 9097SOL    HW238754   4.692   2.642   4.603 -0.4144 -1.4310  0.2403
 9098SOL     OW38755   3.005   3.120  11.992 -0.1453 -0.1861 -0.2848
 9098SOL    HW138756   3.064   3.169  12.048 -0.7139 -0.4858  0.5845
 9098SOL    HW238757   3.010   3.031  12.029  1.6060  1.0094  2.2781
 9099SOL     OW38758   3.399   3.006  15.097 -1.2046 -0.2553 -0.5498
 9099SOL    HW138759   3.395   3.060  15.176 -2.3018 -0.3477 -0.5378
 9099SOL    HW238760   3.321   2.954  15.118 -0.8390 -1.3307 -1.8335
 9100SOL     OW38761   2.959   2.118  16.790 -0.2826 -0.1635 -0.0752
 9100SOL    HW138762   2.913   2.166  16.858 -2.6315 -0.6513 -1.3202
 9100SOL    HW238763   3.010   2.054  16.839 -0.2531  0.2757  0.4645
 9101SOL     OW38764   3.204   3.164   6.851  0.1476 -0.4509 -0.5017
 9101SOL    HW138765   3.182   3.172   6.944  1.2516  0.3942 -0.3070
 9101SOL    HW238766   3.291   3.203   6.846 -0.7540  1.6763  0.4588
 9102SOL     OW38767   4.430   3.998   6.133  0.3330 -0.2179  0.3448
 9102SOL    HW138768   4.524   3.978   6.133  0.4206  0.1933  0.2259
 9102SOL    HW238769   4.417   4.059   6.206 -1.9136 -0.2868 -0.0247
 9103SOL     OW38770   1.614   1.823   1.270 -0.0674  0.5441  0.0228
 9103SOL    HW138771   1.701   1.826   1.310  0.8981  2.4933 -2.2831
 9103SOL    HW238772   1.595   1.729   1.279  0.5949  0.4221  0.1293
 9104SOL     OW38773   3.558   0.797   4.134 -0.1694  0.6357  0.2011
 9104SOL    HW138774   3.480   0.757   4.096 -0.1753  0.8071  0.0328
 9104SOL    HW238775   3.539   0.891   4.137  2.9006  1.2219  1.2425
 9105SOL     OW38776   1.705   3.072   8.283  0.6201 -0.1726  0.0000
 9105SOL    HW138777   1.783   3.096   8.333 -0.0575 -0.7180  1.2976
 9105SOL    HW238778   1.753   3.051   8.203  0.3071 -0.0601 -0.2183
 9106SOL     OW38779   4.415   4.278   6.956 -0.2188 -0.0551  0.7533
 9106SOL    HW138780   4.430   4.310   7.045  2.7708  1.5077 -0.3131
 9106SOL    HW238781   4.396   4.186   6.971 -0.9165 -0.1446 -0.7438
 9107SOL     OW38782   3.931   4.497   5.309 -0.0012 -0.5259  0.0573
 9107SOL    HW138783   3.943   4.404   5.288  0.5112  0.0164 -2.0518
 9107SOL    HW238784   3.948   4.521   5.218  0.6088  2.0496  0.8672
 9108SOL     OW38785   4.061   1.508  10.816  0.3440 -0.3078 -0.1183
 9108SOL    HW138786   3.998   1.567  10.855 -0.3746 -1.5557  0.6087
 9108SOL    HW238787   4.091   1.466  10.897 -2.2723  0.2083  1.1044
 9109SOL     OW38788   2.071   4.637  13.689 -0.0349  0.1133 -0.2716
 9109SOL    HW138789   2.012   4.598  13.624  0.1648  2.1785 -1.7096
 9109SOL    HW238790   2.027   0.002  13.693  0.2870  0.2962 -0.6581
 9110SOL     OW38791   4.573   4.049   8.243  0.0932 -0.4437 -0.3534
 9110SOL    HW138792   4.602   4.050   8.334 -1.3423 -0.3386  0.0977
 9110SOL    HW238793   4.643   4.092   8.195 -0.3224  0.8295  0.1929
 9111SOL     OW38794   4.113   4.070   4.091  0.1497  0.1823 -0.1382
 9111SOL    HW138795   4.141   4.161   4.094  1.6406 -0.2664 -0.5277
 9111SOL    HW238796   4.019   4.077   4.074 -0.3599  0.2585  2.7586
 9112SOL     OW38797   4.386   2.468   8.357 -0.3432  0.1414  0.0414
 9112SOL    HW138798   4.475   2.434   8.367  0.3790  0.5020 -5.1978
 9112SOL    HW238799   4.383   2.516   8.440  0.0767 -0.8706  0.6416
 9113SOL     OW38800   2.093   1.172   8.908 -0.4874  0.3744  0.3897
 9113SOL    HW138801   2.072   1.263   8.888  0.5948  0.0087 -2.3565
 9113SOL    HW238802   2.189   1.165   8.908 -0.6206 -1.4472  1.0249
 9114SOL     OW38803   3.810   3.209   2.136  0.0547  0.3165  0.3021
 9114SOL    HW138804   3.725   3.243   2.108  2.7378  3.8646 -3.4762
 9114SOL    HW238805   3.834   3.276   2.200  0.3939 -0.2414  0.7571
 9115SOL     OW38806   2.756   3.246   3.751  0.0013 -0.0700 -0.0572
 9115SOL    HW138807   2.696   3.269   3.679  1.5224  0.5156 -1.1510
 9115SOL    HW238808   2.841   3.276   3.717  0.3755  0.6811  1.5351
 9116SOL     OW38809   3.079   1.933  10.644  0.3614  0.6935 -0.5337
 9116SOL    HW138810   3.143   1.976  10.701 -0.2951  1.9667 -0.7747
 9116SOL    HW238811   3.125   1.855  10.611 -2.3793 -1.2270  0.2138
 9117SOL     OW38812   4.628   0.212  14.043 -0.0953  0.1544 -0.0249
 9117SOL    HW138813   4.628   0.116  14.050  1.2926 -0.0106 -2.2632
 9117SOL    HW238814   4.542   0.231  14.007 -0.0212 -0.1231 -0.3552
 9118SOL     OW38815   0.504   4.658  15.857 -0.0527 -0.4844  0.0357
 9118SOL    HW138816   0.489   4.643  15.950  1.4320 -1.2452  0.1666
 9118SOL    HW238817   0.596   4.631  15.867 -0.1228 -0.1788  1.5252
 9119SOL     OW38818   1.046   3.733  13.462 -0.1638  0.3335  0.2101
 9119SOL    HW138819   1.053   3.807  13.522 -0.7126 -0.0921  0.8084
 9119SOL    HW238820   0.998   3.755  13.383  0.0276  0.3316  0.0928
 9120SOL     OW38821   2.935   2.657   3.675  0.1756  0.8819 -0.2143
 9120SOL    HW138822   2.917   2.567   3.703  0.4913  0.8218 -0.2007
 9120SOL    HW238823   2.843   2.676   3.657 -0.7057 -0.7197  2.6007
 9121SOL     OW38824   2.215   0.697   7.197  0.3836  0.1492  0.4843
 9121SOL    HW138825   2.173   0.750   7.265 -0.6901  0.0369 -0.0986
 9121SOL    HW238826   2.143   0.688   7.134  0.9995  0.7379 -0.2866
 9122SOL     OW38827   3.838   3.807   2.416 -0.0018 -0.8202 -0.3020
 9122SOL    HW138828   3.818   3.817   2.323  1.4598 -0.0867 -0.5303
 9122SOL    HW238829   3.931   3.826   2.428 -0.1525  0.3130 -0.9344
 9123SOL     OW38830   1.208   0.527   3.369  0.1445 -0.5389  0.0836
 9123SOL    HW138831   1.127   0.531   3.420  2.0934 -0.3111  3.1803
 9123SOL    HW238832   1.249   0.609   3.399 -1.3685  0.0200  0.6377
 9124SOL     OW38833   2.610   3.477   6.288  0.3005  0.2757 -0.5111
 9124SOL    HW138834   2.645   3.504   6.373 -1.0277 -0.0930  0.1403
 9124SOL    HW238835   2.518   3.457   6.303  0.6344  0.0083  1.1748
 9125SOL     OW38836   3.110   0.635  16.399 -0.2737  0.3324 -0.0968
 9125SOL    HW138837   3.111   0.730  16.390  1.0624  0.3337  0.0825
 9125SOL    HW238838   3.059   0.609  16.322 -2.0852  0.8927  0.9244
 9126SOL     OW38839   0.089   2.274   7.076  0.4273  0.1437  0.3488
 9126SOL    HW138840   0.077   2.182   7.055 -4.3695  1.0299 -0.7212
 9126SOL    HW238841   0.028   2.280   7.150 -1.7406  0.0952 -1.4613
 9127SOL     OW38842   4.242   1.099   3.409  0.2029  0.2500 -0.4724
 9127SOL    HW138843   4.233   1.189   3.439  1.3313  0.6252 -1.2133
 9127SOL    HW238844   4.165   1.084   3.355  0.8445 -0.3805 -1.2132
 9128SOL     OW38845   2.611   1.869  15.036  0.3644  0.0257  0.0045
 9128SOL    HW138846   2.562   1.951  15.031 -0.7152 -0.5652  0.9845
 9128SOL    HW238847   2.697   1.912  15.034  0.2194  0.3423  0.5407
 9129SOL     OW38848   0.028   0.067   4.103  0.5567  0.2236  0.0298
 9129SOL    HW138849   0.095   0.046   4.039  1.3481 -0.9983  1.2594
 9129SOL    HW238850   4.710   4.703   4.128  1.7637 -0.3963 -0.2384
 9130SOL     OW38851   3.303   1.039   5.025 -0.7000  0.1272 -0.3989
 9130SOL    HW138852   3.301   1.117   4.969  3.2175  0.2468 -0.4006
 9130SOL    HW238853   3.370   1.071   5.086  0.3441 -2.3474 -0.2677
 9131SOL     OW38854   0.902   1.133   2.202 -0.1339 -0.0161  0.2724
 9131SOL    HW138855   0.969   1.125   2.134  0.0811 -1.3621  0.6555
 9131SOL    HW238856   0.867   1.209   2.155 -0.0021 -0.3135 -0.3180
 9132SOL     OW38857   1.763   2.285  13.844  0.1372  0.3225 -0.1685
 9132SOL    HW138858   1.749   2.203  13.892  1.8774 -0.1804 -0.5302
 9132SOL    HW238859   1.858   2.288  13.852  0.1067  0.8724  0.0062
 9133SOL     OW38860   0.583   1.667   2.587 -0.3660  0.2356  0.1245
 9133SOL    HW138861   0.590   1.709   2.673 -3.2686  1.5160 -0.2666
 9133SOL    HW238862   0.554   1.741   2.533  2.0723  0.6405 -0.6481
 9134SOL     OW38863   4.625   1.954   0.835  0.2849  0.1929 -0.3198
 9134SOL    HW138864   4.539   1.996   0.831  0.7040  1.1743  0.9935
 9134SOL    HW238865   4.597   1.865   0.812  1.0220 -0.2260  0.3733
 9135SOL     OW38866   3.907   2.502   2.670 -0.1561 -0.4813  0.1365
 9135SOL    HW138867   3.920   2.454   2.588  2.2554 -0.1774  0.3480
 9135SOL    HW238868   3.959   2.580   2.650 -0.7164 -0.3770 -0.9598
 9136SOL     OW38869   2.341   1.836  15.366  0.2356  0.2541 -0.2364
 9136SOL    HW138870   2.282   1.765  15.391  1.4451  0.5154  3.3778
 9136SOL    HW238871   2.319   1.843  15.273 -3.7745 -0.4685  0.6834
 9137SOL     OW38872   0.800   0.431  17.257 -0.1465 -0.5538 -0.1689
 9137SOL    HW138873   0.800   0.354  17.313  0.5793  0.1898  0.8556
 9137SOL    HW238874   0.851   0.408  17.179 -0.3100 -1.5702  0.0300
 9138SOL     OW38875   0.635   4.454   6.849 -0.2066 -0.3555  0.1013
 9138SOL    HW138876   0.656   4.379   6.793  0.3909  0.7217 -1.1120
 9138SOL    HW238877   0.692   4.520   6.810 -0.1000 -0.0854  0.7211
 9139SOL     OW38878   3.720   0.870   0.967  0.5459  0.4131  0.0924
 9139SOL    HW138879   3.743   0.877   1.059  0.3681  3.0504 -0.0669
 9139SOL    HW238880   3.691   0.958   0.943 -0.8338 -0.6056 -2.0935
 9140SOL     OW38881   2.387   4.141   2.057  0.1339 -0.3926  0.2500
 9140SOL    HW138882   2.382   4.055   2.015  1.3082 -0.4265  0.1608
 9140SOL    HW238883   2.372   4.111   2.146  0.9314 -4.2692 -0.9132
 9141SOL     OW38884   0.771   2.178  15.152  0.2563  0.0973  0.3248
 9141SOL    HW138885   0.760   2.180  15.247 -0.5547  0.2426  0.2270
 9141SOL    HW238886   0.717   2.253  15.129  1.2228  1.1611  1.4886
 9142SOL     OW38887   0.974   0.277   3.813  0.4319  0.0201 -0.9460
 9142SOL    HW138888   0.930   0.333   3.749 -0.4386 -0.8792 -1.1369
 9142SOL    HW238889   1.035   0.237   3.751  2.5679  0.3722  0.9467
 9143SOL     OW38890   2.179   1.250   8.607 -0.1062 -0.4970  0.1380
 9143SOL    HW138891   2.105   1.227   8.550 -1.2618 -0.5486  1.6407
 9143SOL    HW238892   2.236   1.174   8.598  0.3722  0.0103 -1.1490
 9144SOL     OW38893   0.831   1.346   8.676  0.4065  0.1219 -0.4177
 9144SOL    HW138894   0.746   1.388   8.683 -0.3340 -1.3840 -0.4474
 9144SOL    HW238895   0.876   1.404   8.614 -0.8234  2.1936  0.6014
 9145SOL     OW38896   4.083   3.425   3.068  0.1818 -0.1431  0.0219
 9145SOL    HW138897   4.061   3.424   2.974 -1.3131 -0.5353  0.3805
 9145SOL    HW238898   4.169   3.384   3.064  0.7453  0.9395  1.4103
 9146SOL     OW38899   3.753   0.427   7.727  0.3577  0.5882  0.0535
 9146SOL    HW138900   3.680   0.467   7.680 -0.6608  0.4742  1.5607
 9146SOL    HW238901   3.732   0.455   7.816 -1.3649 -0.1039 -0.1403
 9147SOL     OW38902   2.237   3.611   2.033  0.1444 -0.3803  0.1056
 9147SOL    HW138903   2.284   3.543   1.984  1.6006  0.6244  0.1079
 9147SOL    HW238904   2.145   3.584   2.035  0.2321 -0.6648  0.2944
 9148SOL     OW38905   3.192   2.242   4.595 -0.1608 -0.0571  0.0636
 9148SOL    HW138906   3.113   2.211   4.638  1.1049 -1.8122  1.1204
 9148SOL    HW238907   3.212   2.171   4.534  1.0549  0.6600 -0.3905
 9149SOL     OW38908   2.604   0.368   8.331  0.0816 -0.2111  0.3696
 9149SOL    HW138909   2.629   0.372   8.424  0.8369 -1.3835  0.2099
 9149SOL    HW238910   2.692   0.396   8.304 -0.1047 -0.4547 -0.4891
 9150SOL     OW38911   0.272   3.905   3.627  0.2406 -0.3374 -0.9738
 9150SOL    HW138912   0.330   3.962   3.676  0.6449 -2.5024  1.0775
 9150SOL    HW238913   0.246   3.844   3.696 -0.2005  0.1477 -0.7087
 9151SOL     OW38914   2.958   4.625   1.500 -0.0877 -0.1767  0.1793
 9151SOL    HW138915   2.935   4.699   1.556 -2.1152  0.3692 -1.3556
 9151SOL    HW238916   2.894   4.640   1.429 -0.6685  1.2068  1.0090
 9152SOL     OW38917   0.575   2.365  13.493 -0.1783 -0.5472 -0.1220
 9152SOL    HW138918   0.657   2.387  13.449  0.6931 -3.7248 -0.0849
 9152SOL    HW238919   0.578   2.422  13.570  1.7661 -0.7259 -0.0580
 9153SOL     OW38920   0.147   1.653   5.597 -0.7810  0.1160  0.1151
 9153SOL    HW138921   0.214   1.654   5.528  0.9441 -1.4633  1.7320
 9153SOL    HW238922   0.161   1.742   5.628 -0.4852 -0.1736  0.8211
 9154SOL     OW38923   1.460   1.544   3.666  0.3069 -0.6155 -0.3133
 9154SOL    HW138924   1.398   1.470   3.666 -0.3747 -0.0400  0.1292
 9154SOL    HW238925   1.422   1.588   3.589  1.3509  0.6730 -0.0772
 9155SOL     OW38926   1.895   1.150   4.051  0.2676 -0.5594  0.1753
 9155SOL    HW138927   1.808   1.163   4.090 -0.3060 -1.7139 -0.7440
 9155SOL    HW238928   1.910   1.241   4.024  1.6951 -1.3384 -1.6437
 9156SOL     OW38929   1.141   4.264  15.779 -0.3194 -0.8077  0.3192
 9156SOL    HW138930   1.201   4.334  15.753 -1.6414 -0.3588 -1.5427
 9156SOL    HW238931   1.186   4.220  15.851  0.0069 -0.3721  0.3802
 9157SOL     OW38932   0.701   0.776   7.464  0.2483 -0.2723  0.2836
 9157SOL    HW138933   0.720   0.719   7.389  0.0492  0.4102 -0.2827
 9157SOL    HW238934   0.763   0.846   7.443 -0.6693  0.5757  0.4517
 9158SOL     OW38935   0.336   4.218  15.959  0.0095 -0.3546 -0.8614
 9158SOL    HW138936   0.327   4.277  15.885  1.2471  1.3054  0.3051
 9158SOL    HW238937   0.245   4.206  15.987 -0.0603  0.4466 -0.7612
 9159SOL     OW38938   4.706   4.196   3.621 -0.0206  0.2719 -0.4526
 9159SOL    HW138939   0.067   4.239   3.648  1.0937 -2.8646  1.1743
 9159SOL    HW238940   4.663   4.275   3.587  0.9174  0.3899 -1.3977
 9160SOL     OW38941   0.947   3.060   8.166 -0.4036  0.7655  0.4281
 9160SOL    HW138942   1.005   3.058   8.242 -3.5237  0.2512  2.7732
 9160SOL    HW238943   0.875   3.107   8.207 -0.4994  0.9946  0.0037
 9161SOL     OW38944   3.763   1.023   5.464 -0.1191  0.7359  0.2442
 9161SOL    HW138945   3.726   1.075   5.535 -0.6852  1.3648 -0.5169
 9161SOL    HW238946   3.694   0.962   5.437  1.0555 -0.1551 -0.7766
 9162SOL     OW38947   0.442   0.492  12.278  0.0191  0.3417  0.4504
 9162SOL    HW138948   0.358   0.519  12.240  0.1195  1.5846  1.1221
 9162SOL    HW238949   0.502   0.485  12.204 -0.7655 -1.8140  0.0260
 9163SOL     OW38950   4.422   2.468   0.869 -0.4174  0.6794 -0.0438
 9163SOL    HW138951   4.363   2.418   0.812  0.3672  0.2881 -0.5072
 9163SOL    HW238952   4.462   2.388   0.902  1.1141  1.3850 -0.2204
 9164SOL     OW38953   3.886   4.341   8.323  0.0429 -0.1386 -0.0774
 9164SOL    HW138954   3.793   4.318   8.320  0.7167 -3.0508  1.3940
 9164SOL    HW238955   3.913   4.364   8.234  0.6299  3.0540  0.9013
 9165SOL     OW38956   3.272   2.184   9.529  0.1151  0.4099 -0.2217
 9165SOL    HW138957   3.187   2.148   9.552  1.7232 -3.2119  0.0423
 9165SOL    HW238958   3.332   2.112   9.511  1.4623  1.6135 -0.5542
 9166SOL     OW38959   1.189   2.631   5.446 -0.5837  0.2843 -0.0047
 9166SOL    HW138960   1.198   2.714   5.492  1.3394  0.4488 -0.6826
 9166SOL    HW238961   1.132   2.581   5.505  0.3829  1.4970  1.9558
 9167SOL     OW38962   0.943   1.828   6.879 -0.1070 -0.4138 -0.6595
 9167SOL    HW138963   0.979   1.754   6.927 -0.8063  0.8098  1.7321
 9167SOL    HW238964   0.970   1.902   6.933 -0.5853 -0.8632  0.1849
 9168SOL     OW38965   0.497   0.546   8.359 -0.3569  0.1764 -0.1268
 9168SOL    HW138966   0.452   0.467   8.391  0.2508 -0.0953  0.0440
 9168SOL    HW238967   0.424   0.592   8.318 -0.3146  1.3305  1.0775
 9169SOL     OW38968   0.738   0.628   3.784 -0.2771 -0.6952 -0.0764
 9169SOL    HW138969   0.710   0.553   3.732 -1.7320 -1.3867  1.6899
 9169SOL    HW238970   0.706   0.698   3.727 -2.0737 -1.6363 -0.2278
 9170SOL     OW38971   1.982   4.368   8.518 -0.0598  0.3705  0.2818
 9170SOL    HW138972   1.939   4.283   8.515 -1.2413  0.9588  0.7006
 9170SOL    HW238973   1.946   4.409   8.597 -0.3384 -0.3501  0.5220
 9171SOL     OW38974   0.721   2.089   3.133 -0.1711  0.1541  0.3308
 9171SOL    HW138975   0.692   2.130   3.214 -0.0981 -1.7688  1.3320
 9171SOL    HW238976   0.804   2.050   3.158 -0.4698 -0.0107  1.0454
 9172SOL     OW38977   1.096   0.635   5.492 -0.5047 -0.5353  0.0836
 9172SOL    HW138978   1.097   0.723   5.453 -0.1218 -1.7924 -2.7250
 9172SOL    HW238979   1.026   0.596   5.441  0.3964 -1.0641 -0.7522
 9173SOL     OW38980   4.228   2.154   1.313  0.3991  0.3216 -0.6372
 9173SOL    HW138981   4.134   2.159   1.327  0.3144  0.4894 -1.2688
 9173SOL    HW238982   4.269   2.162   1.400  0.4700  0.2646 -0.6650
 9174SOL     OW38983   0.629   0.244   2.548  0.4500  0.0546 -0.2887
 9174SOL    HW138984   0.647   0.152   2.570  0.0107  0.6494  2.6097
 9174SOL    HW238985   0.535   0.257   2.556  0.1169 -1.3825 -1.8003
 9175SOL     OW38986   3.504   2.198  15.095  0.5007 -0.3609  0.0350
 9175SOL    HW138987   3.410   2.209  15.083  0.7297  0.4697 -0.9138
 9175SOL    HW238988   3.511   2.117  15.045 -0.4409 -1.1823  1.2140
 9176SOL     OW38989   2.216   4.087  16.207 -0.5166  0.5247 -0.3239
 9176SOL    HW138990   2.250   4.015  16.260 -0.6830 -0.0715 -1.0309
 9176SOL    HW238991   2.270   4.165  16.217  1.9638 -0.9034 -2.6307
 9177SOL     OW38992   3.182   0.729   7.508  0.1844 -0.6112 -0.0667
 9177SOL    HW138993   3.178   0.722   7.603  0.3105  1.2379  0.0705
 9177SOL    HW238994   3.167   0.641   7.472 -1.3948 -0.2420 -0.3275
 9178SOL     OW38995   0.998   0.897   9.378  0.1983  0.0011 -0.1675
 9178SOL    HW138996   1.072   0.959   9.375  2.4077 -2.5467  1.6367
 9178SOL    HW238997   0.922   0.952   9.361 -0.0500  0.1197  1.3738
 9179SOL     OW38998   4.563   3.617   6.548  0.1408  0.2954 -0.5776
 9179SOL    HW138999   4.655   3.627   6.526  0.3781 -1.0402 -0.1946
 9179SOL    HW239000   4.523   3.619   6.461 -0.7324 -0.9774 -0.2080
 9180SOL     OW39001   4.508   1.507   3.462 -0.6933  0.3585  0.1004
 9180SOL    HW139002   4.573   1.577   3.458 -1.2995  0.9265  0.1730
 9180SOL    HW239003   4.481   1.506   3.371  0.7647 -1.5208 -0.3093
 9181SOL     OW39004   3.383   3.056   3.687 -0.1712 -0.4294 -0.6616
 9181SOL    HW139005   3.300   3.045   3.640 -0.2720  0.6167 -0.7438
 9181SOL    HW239006   3.459   3.017   3.644 -0.7986 -0.7188 -1.5026
 9182SOL     OW39007   3.494   1.772   8.278 -0.6668  0.4421 -0.0610
 9182SOL    HW139008   3.584   1.739   8.283 -1.1954 -1.3643 -2.7232
 9182SOL    HW239009   3.466   1.776   8.370  3.2943 -0.0709  1.1740
 9183SOL     OW39010   2.898   2.275  11.637  0.2750 -0.1117 -0.2435
 9183SOL    HW139011   2.917   2.368  11.624 -0.4573 -0.4877 -4.0601
 9183SOL    HW239012   2.871   2.259  11.546  0.1211  1.1361 -0.4265
 9184SOL     OW39013   2.350   0.827   4.711  0.1911 -0.1737 -0.6739
 9184SOL    HW139014   2.338   0.881   4.789  2.0883  2.1054 -1.9763
 9184SOL    HW239015   2.434   0.854   4.676 -0.3981  1.8208 -0.5334
 9185SOL     OW39016   2.841   2.420   7.421 -0.5360  0.2144 -0.8221
 9185SOL    HW139017   2.841   2.366   7.342 -1.3500  0.5593 -1.0553
 9185SOL    HW239018   2.754   2.457   7.408 -0.4696  1.2340  1.5976
 9186SOL     OW39019   0.835   0.432   7.803 -0.0655 -0.5645 -0.0357
 9186SOL    HW139020   0.827   0.461   7.894  1.4266  1.5718 -0.5949
 9186SOL    HW239021   0.927   0.404   7.805 -1.2984 -4.7773 -1.1290
 9187SOL     OW39022   0.275   2.420   0.998 -0.2746 -0.1976 -0.6076
 9187SOL    HW139023   0.276   2.378   1.084 -0.4721  0.7922 -0.1247
 9187SOL    HW239024   0.300   2.511   1.007 -1.8320  0.2024 -0.2152
 9188SOL     OW39025   0.531   1.864   6.450 -1.1071  0.1106 -0.2531
 9188SOL    HW139026   0.612   1.845   6.404 -0.8764  1.2934 -0.3424
 9188SOL    HW239027   0.548   1.957   6.466  3.8591 -0.9187  0.2252
 9189SOL     OW39028   1.097   0.957  10.257 -0.4391  0.2728 -0.4734
 9189SOL    HW139029   1.088   0.898  10.182 -0.4011 -0.6978  0.2995
 9189SOL    HW239030   1.135   1.032  10.212  3.4762 -1.1484  0.5160
 9190SOL     OW39031   2.313   0.408   3.299 -0.2236 -0.2775  0.1731
 9190SOL    HW139032   2.294   0.316   3.317 -0.7477  0.1762  2.0096
 9190SOL    HW239033   2.250   0.432   3.231 -0.5121 -0.6006  0.3249
 9191SOL     OW39034   1.375   1.022  12.938 -0.6120 -0.2422  0.8828
 9191SOL    HW139035   1.377   1.116  12.958  2.0099 -0.5195  2.0061
 9191SOL    HW239036   1.454   1.013  12.884 -0.3241 -1.3130  1.4923
 9192SOL     OW39037   3.219   2.851   2.371  0.1477 -0.2767  0.7128
 9192SOL    HW139038   3.308   2.817   2.382 -0.2023 -1.9409 -1.7550
 9192SOL    HW239039   3.234   2.943   2.394  1.9655 -0.5239  0.5603
 9193SOL     OW39040   4.582   1.703   9.828  0.0040 -0.2965  0.1273
 9193SOL    HW139041   4.624   1.681   9.745 -0.9196 -0.1360 -0.3839
 9193SOL    HW239042   4.658   1.715   9.885 -1.9497 -0.3431  2.7522
 9194SOL     OW39043   1.925   2.898   2.552  0.2816  0.2768 -0.4848
 9194SOL    HW139044   1.832   2.875   2.553  1.1103 -3.1844 -1.2688
 9194SOL    HW239045   1.942   2.920   2.460 -2.0389 -0.3807 -1.0923
 9195SOL     OW39046   2.938   2.830   3.402 -0.0309  0.4031  0.6305
 9195SOL    HW139047   2.924   2.746   3.446  1.4371 -0.2046 -0.0464
 9195SOL    HW239048   2.858   2.882   3.406 -1.3302 -1.7226  2.0096
 9196SOL     OW39049   1.240   0.787   9.118  0.3631 -0.4979  0.0505
 9196SOL    HW139050   1.186   0.711   9.142 -1.0785  0.1711 -1.0422
 9196SOL    HW239051   1.297   0.741   9.055 -0.1580 -0.6686 -0.2993
 9197SOL     OW39052   2.199   3.643   4.338 -0.2231  0.0082 -0.6485
 9197SOL    HW139053   2.270   3.673   4.282 -0.8511  0.5578 -1.1463
 9197SOL    HW239054   2.132   3.642   4.270 -0.7156 -2.5951 -0.1120
 9198SOL     OW39055   2.539   4.281   3.363 -0.3593 -0.1810 -0.4959
 9198SOL    HW139056   2.519   4.219   3.293  2.4770  0.9439 -2.3326
 9198SOL    HW239057   2.613   4.243   3.410  0.6014 -0.0305 -1.8807
 9199SOL     OW39058   4.010   2.494   6.861  0.0547 -0.5770 -0.1282
 9199SOL    HW139059   4.010   2.481   6.766  0.9367  1.8767 -0.4686
 9199SOL    HW239060   4.101   2.475   6.883  0.0912 -1.7822 -1.3429
 9200SOL     OW39061   4.453   3.789  12.486 -0.6198 -0.2912 -0.3949
 9200SOL    HW139062   4.481   3.766  12.574 -1.3004 -3.1170 -0.9376
 9200SOL    HW239063   4.532   3.768  12.436 -1.3176  0.3704 -1.7975
 9201SOL     OW39064   2.698   2.005   6.044  0.2840  0.5161  0.2361
 9201SOL    HW139065   2.719   2.084   6.094  1.3658 -0.7724  1.7830
 9201SOL    HW239066   2.676   2.054   5.964 -2.5835 -0.4646  0.4587
 9202SOL     OW39067   2.743   0.997  11.375  0.0948 -0.5407  0.4145
 9202SOL    HW139068   2.839   0.999  11.382  0.0895  1.1555 -0.0142
 9202SOL    HW239069   2.716   0.970  11.287  1.8811 -0.3599 -0.1858
 9203SOL     OW39070   3.146   0.344   2.813  0.2690  0.3952  0.1912
 9203SOL    HW139071   3.054   0.347   2.840  0.2366  1.3315 -0.0403
 9203SOL    HW239072   3.138   0.355   2.718 -0.1452 -1.2425  0.0225
 9204SOL     OW39073   4.118   2.075   4.933 -0.0195  0.5114  0.0474
 9204SOL    HW139074   4.052   2.025   4.886 -1.1654 -1.1612  3.3996
 9204SOL    HW239075   4.182   2.093   4.865  0.4141 -0.2141  0.2729
 9205SOL     OW39076   3.760   2.168   4.171  0.0207  0.1683  0.2731
 9205SOL    HW139077   3.709   2.183   4.091 -2.6960  1.2161  2.1895
 9205SOL    HW239078   3.841   2.145   4.126 -0.0368  0.4006  0.0481
 9206SOL     OW39079   0.140   3.453   6.167  0.1696 -0.7937 -0.3651
 9206SOL    HW139080   0.097   3.471   6.251  1.0301 -2.3758  0.4187
 9206SOL    HW239081   0.223   3.407   6.183  0.4812 -0.8315 -2.0850
 9207SOL     OW39082   3.825   3.967  15.656  0.5358 -0.1908  0.1290
 9207SOL    HW139083   3.794   3.967  15.565 -1.7099 -1.3503  0.8932
 9207SOL    HW239084   3.827   3.872  15.665  1.6218 -0.0908  0.8444
 9208SOL     OW39085   1.745   3.762   5.833 -0.4229 -0.2073  0.2981
 9208SOL    HW139086   1.810   3.782   5.901 -0.5079 -0.6349  0.5043
 9208SOL    HW239087   1.800   3.747   5.756 -0.5460  1.3992 -0.1082
 9209SOL     OW39088   3.873   4.442  16.818 -0.1853 -0.3456  0.7194
 9209SOL    HW139089   3.808   4.406  16.758  0.7041  1.6501 -1.4452
 9209SOL    HW239090   3.857   4.536  16.807  0.3705 -0.4527 -1.0630
 9210SOL     OW39091   3.448   3.752  12.761 -0.2320  0.0252  0.0847
 9210SOL    HW139092   3.453   3.838  12.803  1.5170  0.3173 -0.7348
 9210SOL    HW239093   3.370   3.712  12.800 -0.8155  1.5884  0.5532
 9211SOL     OW39094   4.194   3.103  12.823  0.2126  0.0729  0.3360
 9211SOL    HW139095   4.140   3.049  12.882  0.6212 -1.3531 -0.5936
 9211SOL    HW239096   4.149   3.186  12.837 -1.0341 -1.0618  3.2117
 9212SOL     OW39097   1.434   1.912   7.216  0.6999  0.0260  1.1329
 9212SOL    HW139098   1.349   1.884   7.250  1.1310  0.9659  2.9750
 9212SOL    HW239099   1.413   1.982   7.154  0.1033 -1.9194 -0.8594
 9213SOL     OW39100   1.581   0.340   1.612 -0.1556 -0.0067  0.2666
 9213SOL    HW139101   1.611   0.271   1.672 -0.2394 -0.2294  0.0526
 9213SOL    HW239102   1.572   0.290   1.531 -1.0360 -1.9368  1.5400
 9214SOL     OW39103   2.912   4.147   2.587  0.6781 -0.7321 -0.0238
 9214SOL    HW139104   2.930   4.236   2.557 -0.5796 -0.0050  1.4008
 9214SOL    HW239105   2.962   4.100   2.520  2.4066 -1.4678  1.7654
 9215SOL     OW39106   4.491   0.404   9.438  0.2288  0.3008 -0.1905
 9215SOL    HW139107   4.400   0.378   9.454 -0.1855  1.0639 -1.3712
 9215SOL    HW239108   4.500   0.473   9.504  0.1126  1.2539 -1.1797
 9216SOL     OW39109   0.956   3.851   8.537  0.3259  0.0265 -0.0117
 9216SOL    HW139110   0.913   3.776   8.578 -0.9833  0.9945  0.3521
 9216SOL    HW239111   0.873   3.895   8.520  1.1202  2.2227  1.8234
 9217SOL     OW39112   2.761   1.185   7.493 -0.0441  0.2191  0.3881
 9217SOL    HW139113   2.685   1.128   7.488  0.6528 -0.8917  2.3119
 9217SOL    HW239114   2.746   1.240   7.571  0.7886 -0.7014  1.2029
 9218SOL     OW39115   0.496   0.744   7.854  0.1468 -0.4148  0.6574
 9218SOL    HW139116   0.465   0.831   7.880  2.2601  0.3627  0.5808
 9218SOL    HW239117   0.571   0.773   7.802  0.1171 -2.5793 -0.5606
 9219SOL     OW39118   2.227   3.606  10.149 -0.3292 -0.3969  0.0804
 9219SOL    HW139119   2.196   3.554  10.075 -0.1257 -0.7074  0.2163
 9219SOL    HW239120   2.243   3.693  10.113  1.7847 -0.0508  1.8186
 9220SOL     OW39121   3.280   4.042  13.285  0.7413  0.5411 -0.0427
 9220SOL    HW139122   3.306   4.001  13.368 -1.6742 -1.4300 -0.2751
 9220SOL    HW239123   3.229   4.110  13.329  1.2839  1.0329 -0.1729
 9221SOL     OW39124   4.289   0.317   2.973 -0.2685 -0.2857 -0.1514
 9221SOL    HW139125   4.306   0.261   2.897 -3.2634  2.3953 -2.7576
 9221SOL    HW239126   4.245   0.249   3.024  0.0428  0.1524  0.7031
 9222SOL     OW39127   0.141   0.291   4.670  0.2230  0.0614 -0.0026
 9222SOL    HW139128   0.090   0.286   4.590  1.0063  2.1109 -0.6298
 9222SOL    HW239129   0.081   0.244   4.728  2.4027 -0.0199  2.2177
 9223SOL     OW39130   3.425   3.053  13.373  0.2110  0.2092 -0.1541
 9223SOL    HW139131   3.347   2.999  13.359 -0.5345  1.5713 -1.1726
 9223SOL    HW239132   3.404   3.077  13.463  0.2136  0.1093 -0.1262
 9224SOL     OW39133   0.537   2.452   2.704  0.0414 -0.0376  0.0827
 9224SOL    HW139134   0.568   2.527   2.756  0.4071  1.1246 -1.8332
 9224SOL    HW239135   0.513   2.399   2.781 -1.4771  0.1891 -0.2482
 9225SOL     OW39136   3.651   0.420   7.074  0.6650  0.0139 -0.3103
 9225SOL    HW139137   3.677   0.414   6.982  2.4965  2.4073  0.0643
 9225SOL    HW239138   3.686   0.505   7.099  1.7723 -0.6256  0.3589
 9226SOL     OW39139   4.110   2.198   3.078  0.3951 -0.0142  0.5790
 9226SOL    HW139140   4.148   2.170   2.994  1.0191 -0.3100  0.9551
 9226SOL    HW239141   4.101   2.117   3.129 -0.9915 -0.9572 -1.1591
 9227SOL     OW39142   0.217   1.145   1.592 -0.0361 -0.1754  0.2094
 9227SOL    HW139143   0.124   1.129   1.579 -0.6007  1.7018  1.8656
 9227SOL    HW239144   0.231   1.223   1.539  4.1224 -0.5380  0.7726
 9228SOL     OW39145   0.354   0.425  16.111 -0.3318  0.1587 -0.4039
 9228SOL    HW139146   0.395   0.344  16.143 -0.7084  0.1387  0.0305
 9228SOL    HW239147   0.421   0.457  16.050 -0.8782  1.5935 -0.2563
 9229SOL     OW39148   2.201   0.794   1.528 -0.7828  0.4534 -0.0051
 9229SOL    HW139149   2.246   0.719   1.489 -2.0977  0.7112 -2.0609
 9229SOL    HW239150   2.112   0.780   1.494 -0.5740  1.8711 -1.1278
 9230SOL     OW39151   2.627   3.532   8.237 -0.2270 -0.0082 -0.2064
 9230SOL    HW139152   2.679   3.452   8.243 -0.0008  0.1012 -0.7308
 9230SOL    HW239153   2.591   3.533   8.325  1.9990 -0.0291  0.6926
 9231SOL     OW39154   0.222   4.601   1.951 -0.6043  0.3788  0.3645
 9231SOL    HW139155   0.296   4.662   1.952 -1.0150  0.8762  0.2742
 9231SOL    HW239156   0.256   4.524   1.906 -1.0094 -0.8155  2.0955
 9232SOL     OW39157   3.480   4.185   7.462 -0.1061  0.3568  0.1721
 9232SOL    HW139158   3.546   4.121   7.487 -1.3712 -0.3002  1.8526
 9232SOL    HW239159   3.403   4.128   7.461  1.6176 -1.9240 -1.6796
 9233SOL     OW39160   4.426   2.626   5.932 -0.0286 -0.1175 -0.2985
 9233SOL    HW139161   4.465   2.711   5.951  0.5391  0.0185 -2.1374
 9233SOL    HW239162   4.489   2.561   5.962 -0.2182  0.5981  1.6729
 9234SOL     OW39163   4.479   2.149   8.103 -0.1564  0.0634  0.5075
 9234SOL    HW139164   4.447   2.075   8.154 -0.7271  1.2948  1.9229
 9234SOL    HW239165   4.405   2.196   8.141  0.7528  0.1022  2.2345
 9235SOL     OW39166   0.614   1.634   2.020  0.3322 -0.3446  0.1423
 9235SOL    HW139167   0.558   1.654   2.095 -0.2491 -0.7930 -0.1720
 9235SOL    HW239168   0.616   1.539   2.028 -0.6363 -0.4177 -0.5102
 9236SOL     OW39169   4.206   1.306   6.903 -0.5225  0.1594  0.0406
 9236SOL    HW139170   4.256   1.259   6.836  2.2804  1.4309  1.2334
 9236SOL    HW239171   4.206   1.396   6.868  2.3215  0.3632  0.5406
 9237SOL     OW39172   1.736   1.288   1.665 -0.0953  0.2935  0.3783
 9237SOL    HW139173   1.696   1.203   1.685  2.0852 -0.3695  1.8777
 9237SOL    HW239174   1.816   1.261   1.621 -1.0620  0.7121 -1.6436
 9238SOL     OW39175   2.590   0.075  16.200 -0.4610  0.0697 -0.4190
 9238SOL    HW139176   2.618   0.098  16.289 -1.3660  1.1885 -0.4213
 9238SOL    HW239177   2.599   4.701  16.188 -1.1659  0.0290 -0.6061
 9239SOL     OW39178   4.250   0.558   8.356 -0.7956 -0.2280  0.5286
 9239SOL    HW139179   4.259   0.463   8.363 -2.8493 -0.1985  3.2280
 9239SOL    HW239180   4.160   0.553   8.325 -0.2916  0.8263 -1.1294
 9240SOL     OW39181   0.754   2.948   9.803  0.4710  0.4318  0.2995
 9240SOL    HW139182   0.707   2.874   9.764  0.9199  0.5076 -0.3794
 9240SOL    HW239183   0.728   3.012   9.737 -2.3396 -0.1433  0.8209
 9241SOL     OW39184   3.445   4.155  15.799 -0.0523 -0.1583 -0.1051
 9241SOL    HW139185   3.416   4.074  15.840 -3.2614 -0.0529 -2.1131
 9241SOL    HW239186   3.493   4.194  15.871 -0.7738 -0.6266  0.6310
 9242SOL     OW39187   2.400   3.260  12.025  0.0590 -0.0661  0.8456
 9242SOL    HW139188   2.332   3.255  12.093 -0.8202  0.4090  0.0032
 9242SOL    HW239189   2.418   3.353  12.027  0.5651 -0.1324 -0.9173
 9243SOL     OW39190   1.229   1.191   2.711  0.2518  0.1179 -0.3246
 9243SOL    HW139191   1.170   1.130   2.755  1.9078 -1.3939 -0.1947
 9243SOL    HW239192   1.277   1.136   2.649 -0.6531 -0.2303 -0.7153
 9244SOL     OW39193   1.649   0.620  10.939  0.0048 -0.8123 -0.2696
 9244SOL    HW139194   1.627   0.550  11.000  1.4306 -0.4041  0.7117
 9244SOL    HW239195   1.670   0.690  11.001  0.9328 -0.0835 -1.4109
 9245SOL     OW39196   1.756   3.387   9.521  0.3428 -0.0517 -0.0394
 9245SOL    HW139197   1.739   3.293   9.511  0.9121 -0.2218  0.6153
 9245SOL    HW239198   1.740   3.396   9.615 -1.4384  0.9030 -0.4479
 9246SOL     OW39199   0.043   2.008  16.263  0.1193  0.3778  0.0067
 9246SOL    HW139200   4.697   2.076  16.274 -0.4744 -0.3398  0.9046
 9246SOL    HW239201   0.120   2.031  16.315 -0.1062  0.0382  0.4921
 9247SOL     OW39202   2.277   3.134   7.681  0.9931  0.9144 -0.5467
 9247SOL    HW139203   2.332   3.160   7.755 -1.4406  1.3179  1.1280
 9247SOL    HW239204   2.229   3.062   7.721  0.8204  0.9137 -0.7563
 9248SOL     OW39205   2.449   0.998   6.829  0.1043  0.3737  0.7283
 9248SOL    HW139206   2.467   0.939   6.902  0.5747 -0.4373 -0.0423
 9248SOL    HW239207   2.382   0.940   6.792  1.0114  0.4130 -0.9825
 9249SOL     OW39208   2.055   3.181  10.279  0.4765  0.2905  0.1803
 9249SOL    HW139209   2.117   3.158  10.349 -0.8669 -0.1702  1.2092
 9249SOL    HW239210   1.985   3.118  10.296  0.5189  0.0449 -0.5421
 9250SOL     OW39211   0.479   4.011  11.353  0.4092  0.3790  0.2301
 9250SOL    HW139212   0.461   3.921  11.323  1.8448  0.1419  0.0849
 9250SOL    HW239213   0.513   4.014  11.442 -0.4714  1.9694  0.5007
 9251SOL     OW39214   1.976   0.080   5.242  0.4456 -0.3346 -0.0584
 9251SOL    HW139215   1.882   0.094   5.240  0.4959 -0.0632 -0.5399
 9251SOL    HW239216   1.980   0.044   5.330  1.1647  0.3607  0.1946
 9252SOL     OW39217   1.088   3.130   5.658  0.9037 -0.0096 -0.1609
 9252SOL    HW139218   1.014   3.109   5.715 -0.4529  0.8406 -1.6000
 9252SOL    HW239219   1.049   3.168   5.579 -0.8868  0.7672  1.0932
 9253SOL     OW39220   2.067   2.791  11.727  0.0856  0.1023  0.2544
 9253SOL    HW139221   2.140   2.787  11.789  0.9979  1.7104 -0.7108
 9253SOL    HW239222   2.043   2.699  11.724  2.7753 -0.6734  2.5088
 9254SOL     OW39223   2.431   0.992  14.994  0.1373  0.2493 -0.3104
 9254SOL    HW139224   2.385   1.013  14.913 -2.9093 -1.8729  0.8845
 9254SOL    HW239225   2.489   0.918  14.977 -0.8157 -0.6051  0.1405
 9255SOL     OW39226   1.993   4.003   6.288  0.4536  0.2499 -0.2375
 9255SOL    HW139227   2.006   3.952   6.368  0.5164  0.6893  0.0323
 9255SOL    HW239228   2.069   4.061   6.297  0.7370  0.0097 -1.0898
 9256SOL     OW39229   4.473   2.559   5.557 -0.2701  0.3292  0.4191
 9256SOL    HW139230   4.395   2.613   5.549 -0.1343  0.6876  1.5160
 9256SOL    HW239231   4.449   2.487   5.615 -0.3137 -1.0019 -1.2525
 9257SOL     OW39232   4.064   0.394   5.454  0.2334 -0.1853 -0.2541
 9257SOL    HW139233   4.126   0.428   5.518  0.1891  0.2049 -0.4209
 9257SOL    HW239234   4.118   0.383   5.376 -1.6295 -0.8397 -1.4576
 9258SOL     OW39235   0.682   1.448   4.272  0.8127  0.2773 -0.3260
 9258SOL    HW139236   0.644   1.530   4.240 -2.8621 -1.1374  0.4308
 9258SOL    HW239237   0.688   1.462   4.367  2.4816  1.3661 -0.6023
 9259SOL     OW39238   3.769   2.344  13.328 -0.3647  0.1748 -0.7614
 9259SOL    HW139239   3.712   2.270  13.306 -1.9598  0.9888  0.7062
 9259SOL    HW239240   3.851   2.297  13.307 -0.8440 -0.3982 -1.3768
 9260SOL     OW39241   1.157   0.733  15.847  0.3955  0.3647  0.4240
 9260SOL    HW139242   1.151   0.707  15.939  0.6910 -1.4080 -0.0647
 9260SOL    HW239243   1.075   0.780  15.832  0.8231  0.8935 -0.2650
 9261SOL     OW39244   3.602   2.765   6.042  0.4683 -0.0403 -0.1789
 9261SOL    HW139245   3.512   2.734   6.031 -0.2509  1.2682  2.1042
 9261SOL    HW239246   3.590   2.859   6.025 -0.7250  0.0256  1.0065
 9262SOL     OW39247   2.319   3.701   7.651 -0.9258  0.2745  0.4660
 9262SOL    HW139248   2.322   3.607   7.635 -2.0873  0.0043  1.7985
 9262SOL    HW239249   2.402   3.712   7.698 -1.3070  0.0134  1.1974
 9263SOL     OW39250   0.905   3.146   2.637 -0.3818 -0.2063 -0.4591
 9263SOL    HW139251   0.909   3.053   2.660 -0.5211  0.4389  2.1619
 9263SOL    HW239252   1.000   3.162   2.639  0.2586 -3.8567 -1.4238
 9264SOL     OW39253   0.919   2.693   9.521  0.3488 -0.1075 -0.0968
 9264SOL    HW139254   0.827   2.677   9.498  0.2224  1.3095 -0.5429
 9264SOL    HW239255   0.942   2.607   9.557  0.4377 -1.0560 -2.4192
 9265SOL     OW39256   4.502   3.668  12.742 -0.3375 -0.4524 -0.4432
 9265SOL    HW139257   4.532   3.627  12.823 -1.3363 -0.4006 -0.0448
 9265SOL    HW239258   4.423   3.708  12.778  1.1170  3.5278 -1.7200
 9266SOL     OW39259   3.964   1.798  10.358 -0.2221 -0.1403  0.2105
 9266SOL    HW139260   3.986   1.837  10.443 -2.0796  1.7633 -0.1692
 9266SOL    HW239261   3.887   1.849  10.334  0.1011 -0.0602 -0.6696
 9267SOL     OW39262   1.705   0.253   5.816  0.5339 -0.1827 -0.5363
 9267SOL    HW139263   1.715   0.184   5.751 -0.0430 -1.1467  0.3960
 9267SOL    HW239264   1.628   0.299   5.784  0.2787 -0.1740  0.0984
 9268SOL     OW39265   3.024   4.302  12.848 -0.2109 -0.2219 -0.2702
 9268SOL    HW139266   3.033   4.396  12.864 -0.1274 -0.4795  1.1859
 9268SOL    HW239267   3.074   4.263  12.920  2.2884  1.7973 -0.8917
 9269SOL     OW39268   1.475   1.818   4.088  0.2698 -0.5473  0.6467
 9269SOL    HW139269   1.528   1.869   4.151 -1.1761  1.3605  0.3234
 9269SOL    HW239270   1.509   1.729   4.097  0.3178 -0.7807 -1.8235
 9270SOL     OW39271   4.215   3.642  17.055 -0.3136 -0.1815 -1.0407
 9270SOL    HW139272   4.277   3.684  16.996  0.0012  1.0880  0.1901
 9270SOL    HW239273   4.214   3.695  17.134 -0.0915  0.5687 -1.5450
 9271SOL     OW39274   2.974   2.853   4.909 -0.1636  0.5642 -0.0314
 9271SOL    HW139275   2.950   2.858   5.002 -1.7804 -1.0621 -0.3531
 9271SOL    HW239276   2.891   2.871   4.865 -0.7605  0.0318  0.8467
 9272SOL     OW39277   0.628   0.379   7.050 -0.0614  0.3919 -0.0752
 9272SOL    HW139278   0.560   0.380   6.982  0.9302 -0.2416 -1.0698
 9272SOL    HW239279   0.684   0.446   7.012 -1.1313  0.8509 -0.8573
 9273SOL     OW39280   1.246   1.595   5.160 -0.0054  0.0393  0.8042
 9273SOL    HW139281   1.267   1.506   5.187 -2.1086 -0.6057  0.2828
 9273SOL    HW239282   1.164   1.572   5.115  1.5471  0.4883 -2.2544
 9274SOL     OW39283   2.308   3.675   3.100  0.2672  0.6658  0.1029
 9274SOL    HW139284   2.355   3.594   3.122 -1.3248 -0.4294 -0.5515
 9274SOL    HW239285   2.368   3.732   3.052 -0.1206  1.8269  0.9855
 9275SOL     OW39286   3.419   2.530   8.518  0.2191 -0.2731 -0.2551
 9275SOL    HW139287   3.390   2.621   8.521 -1.6650 -0.8336 -1.4877
 9275SOL    HW239288   3.358   2.490   8.456  0.6376  0.4950 -1.1541
 9276SOL     OW39289   4.043   2.936  12.970 -0.0340 -0.0976 -0.0816
 9276SOL    HW139290   4.075   2.846  12.979  0.2429  0.0512  0.3827
 9276SOL    HW239291   3.976   2.939  13.038  1.5581 -0.5333  1.4853
 9277SOL     OW39292   1.139   3.267   7.860 -0.9886  0.2607  0.6639
 9277SOL    HW139293   1.063   3.268   7.918 -1.5784  1.6340 -0.1298
 9277SOL    HW239294   1.202   3.331   7.894 -0.7312  0.0042  0.6666
 9278SOL     OW39295   4.709   3.682  12.387 -0.5481 -0.0768  0.0305
 9278SOL    HW139296   0.069   3.722  12.355 -0.1218 -2.0409 -1.4126
 9278SOL    HW239297   0.022   3.599  12.423  1.1389  0.8544  0.5861
 9279SOL     OW39298   1.967   3.423  10.166 -0.2467 -0.1282  0.4545
 9279SOL    HW139299   1.931   3.481  10.233  0.2272 -1.3433  1.7534
 9279SOL    HW239300   2.022   3.357  10.207 -0.3669  1.0813  2.5829
 9280SOL     OW39301   0.533   3.188   2.254  0.5140  0.4583 -0.0331
 9280SOL    HW139302   0.607   3.155   2.305  0.3976 -0.4760 -0.4675
 9280SOL    HW239303   0.457   3.163   2.306 -0.9220 -0.7150 -2.6400
 9281SOL     OW39304   2.022   2.127   1.554 -0.0772 -0.5707  0.1623
 9281SOL    HW139305   2.009   2.081   1.471 -2.8910 -1.0514  0.8548
 9281SOL    HW239306   2.009   2.219   1.531  2.0391 -0.5534 -0.9425
 9282SOL     OW39307   2.603   4.512   7.488  0.2034  0.3322  0.2920
 9282SOL    HW139308   2.683   4.509   7.540  0.1600 -0.1433  0.3298
 9282SOL    HW239309   2.537   4.482   7.550 -0.4180  0.8392 -0.1307
 9283SOL     OW39310   4.678   1.099   1.504  0.5299 -0.1467 -0.5197
 9283SOL    HW139311   4.691   1.005   1.497 -1.4287 -0.5114  0.9053
 9283SOL    HW239312   4.587   1.111   1.532  0.1734 -2.1818 -0.8175
 9284SOL     OW39313   2.325   4.279   8.728  0.0741  0.2629  0.5992
 9284SOL    HW139314   2.263   4.210   8.752 -0.3925  0.0928 -1.0273
 9284SOL    HW239315   2.334   4.330   8.808  1.5198  1.0829 -0.0885
 9285SOL     OW39316   4.344   1.453   3.190  0.1595 -0.1726 -0.2054
 9285SOL    HW139317   4.411   1.395   3.154  0.2317 -1.2960  1.7319
 9285SOL    HW239318   4.261   1.409   3.176  0.4379 -1.6041  2.6494
 9286SOL     OW39319   2.555   3.367   3.580 -0.3064 -0.1066  0.0376
 9286SOL    HW139320   2.563   3.379   3.486  0.5319  0.6053  0.2032
 9286SOL    HW239321   2.471   3.321   3.582 -0.4641  0.2347  1.5077
 9287SOL     OW39322   0.709   2.832   1.699  0.8923 -0.3412  0.0508
 9287SOL    HW139323   0.796   2.824   1.737  1.6617  0.1094 -1.6359
 9287SOL    HW239324   0.656   2.860   1.774 -0.3203  0.7864 -1.2373
 9288SOL     OW39325   1.517   0.294   2.438  0.1785  0.2629 -1.0211
 9288SOL    HW139326   1.452   0.258   2.379  0.9621 -2.2154 -0.3509
 9288SOL    HW239327   1.584   0.227   2.426 -1.7893 -2.2002  1.6389
 9289SOL     OW39328   1.122   2.170   7.863 -0.7616  0.6190 -0.2485
 9289SOL    HW139329   1.092   2.245   7.915  0.5781  0.2247  1.1198
 9289SOL    HW239330   1.111   2.103   7.930  0.2240  0.6723 -0.0277
 9290SOL     OW39331   2.732   2.273  11.845 -0.1911  0.0108  0.4132
 9290SOL    HW139332   2.750   2.343  11.908 -0.7791 -0.3601  0.9863
 9290SOL    HW239333   2.786   2.299  11.770  1.6214  1.0377  2.0842
 9291SOL     OW39334   3.336   0.730   0.686 -0.1045 -0.4944 -0.1072
 9291SOL    HW139335   3.299   0.776   0.761 -1.2940  0.2623 -1.1630
 9291SOL    HW239336   3.263   0.718   0.624  0.6378 -0.1134 -1.0507
 9292SOL     OW39337   2.247   0.906  11.841  0.2853  0.0625 -0.5382
 9292SOL    HW139338   2.238   0.840  11.773  2.0418 -1.1408  0.4066
 9292SOL    HW239339   2.216   0.991  11.809 -0.6607  0.0674  0.4052
 9293SOL     OW39340   2.903   1.858  11.280  0.5095 -0.2045  0.1447
 9293SOL    HW139341   2.892   1.904  11.363 -2.0302 -1.4301  0.4546
 9293SOL    HW239342   2.811   1.862  11.255  0.4181 -0.4998  0.4400
 9294SOL     OW39343   3.944   0.988   8.583 -0.4702  0.7968  0.6832
 9294SOL    HW139344   3.922   0.927   8.513 -0.2273 -1.2422  2.3757
 9294SOL    HW239345   3.958   0.932   8.659  2.5853  0.4094 -0.1736
 9295SOL     OW39346   0.455   1.486  17.363 -0.0667  0.0123 -0.6776
 9295SOL    HW139347   0.490   1.549  17.299  2.5781 -0.4597  0.3075
 9295SOL    HW239348   0.421   1.423  17.300 -1.6284  1.0654 -0.8949
 9296SOL     OW39349   1.799   2.465   6.629 -0.7219  0.0973 -0.3079
 9296SOL    HW139350   1.805   2.559   6.647  0.5849 -0.2313  0.9208
 9296SOL    HW239351   1.873   2.447   6.572 -2.4241 -0.2404 -2.3931
 9297SOL     OW39352   0.872   0.093   5.488 -0.0309  0.1861  0.2922
 9297SOL    HW139353   0.930   0.169   5.481  2.0551 -1.2473  2.1047
 9297SOL    HW239354   0.794   0.144   5.463  0.2336  0.0893 -0.7048
 9298SOL     OW39355   3.943   0.207   4.766 -0.3874  0.4189 -0.5549
 9298SOL    HW139356   3.915   0.133   4.713 -0.2055 -0.5502  0.6986
 9298SOL    HW239357   3.858   0.233   4.800  0.2832  2.2574 -0.2946
 9299SOL     OW39358   0.213   3.445   0.685  0.2216  0.1147 -0.0706
 9299SOL    HW139359   0.264   3.523   0.708 -0.6609  0.7853 -0.4109
 9299SOL    HW239360   0.207   3.403   0.771 -2.1577 -0.6294 -0.5932
 9300SOL     OW39361   4.058   1.881  16.300  0.3718  0.2986 -0.0954
 9300SOL    HW139362   4.051   1.793  16.335  0.5155  0.4284  0.2572
 9300SOL    HW239363   4.152   1.893  16.316 -0.2055  1.9950  1.9798
 9301SOL     OW39364   1.025   2.227   1.831 -0.4127 -0.3124 -0.0346
 9301SOL    HW139365   0.959   2.169   1.868 -0.1672  0.7342  2.0151
 9301SOL    HW239366   0.991   2.244   1.742 -0.2317 -0.6817 -0.1741
 9302SOL     OW39367   3.246   3.713  15.489  0.1900  0.8445 -0.2043
 9302SOL    HW139368   3.225   3.723  15.396 -1.9831 -0.5922  0.1351
 9302SOL    HW239369   3.188   3.774  15.535 -1.3350 -1.2754  0.6426
 9303SOL     OW39370   1.421   0.907  14.800  0.0356 -0.2856  0.1003
 9303SOL    HW139371   1.390   0.901  14.710  1.5481  0.4678 -0.4736
 9303SOL    HW239372   1.452   0.998  14.806 -2.2947  0.4398  1.3128
 9304SOL     OW39373   1.259   1.588  14.281 -0.4455  0.2263 -0.6591
 9304SOL    HW139374   1.220   1.600  14.368 -0.6585 -2.1691 -0.3999
 9304SOL    HW239375   1.210   1.508  14.262 -0.3314 -0.0666  0.2837
 9305SOL     OW39376   1.818   2.020   2.203 -0.6722 -0.3868  0.5802
 9305SOL    HW139377   1.821   1.975   2.288 -1.0189  0.2299  0.9186
 9305SOL    HW239378   1.759   2.094   2.219  0.0318 -0.0094  1.4435
 9306SOL     OW39379   3.182   3.124   4.049  0.8282  0.8276 -0.2852
 9306SOL    HW139380   3.236   3.193   4.009  1.1124 -0.0594 -1.4371
 9306SOL    HW239381   3.214   3.052   3.993 -3.1932 -0.1298 -1.3399
 9307SOL     OW39382   2.559   4.057   8.613 -0.2512  0.4436  0.5150
 9307SOL    HW139383   2.523   3.969   8.625  1.1539 -0.5838 -2.8574
 9307SOL    HW239384   2.654   4.041   8.607 -0.7573 -2.0398 -1.2475
 9308SOL     OW39385   3.460   0.510   4.867 -0.6589  0.2645 -0.6119
 9308SOL    HW139386   3.545   0.472   4.842 -1.0313 -1.1773  0.2968
 9308SOL    HW239387   3.436   0.550   4.783 -0.1426  0.2966 -0.7494
 9309SOL     OW39388   2.018   1.060   8.257  0.1148 -0.4577 -0.1285
 9309SOL    HW139389   1.956   0.988   8.253 -0.9246  0.4074  0.3665
 9309SOL    HW239390   2.053   1.078   8.170  0.2802  0.3411  0.0972
 9310SOL     OW39391   2.940   3.532   8.185  0.3982  0.0759 -0.4705
 9310SOL    HW139392   3.019   3.550   8.236  0.5499  0.2082 -0.7527
 9310SOL    HW239393   2.979   3.503   8.102  0.5496  1.8134 -0.9982
 9311SOL     OW39394   3.077   0.245   4.965 -0.2367  0.0365 -0.1238
 9311SOL    HW139395   3.113   0.157   4.968  2.5707  1.1854  0.3292
 9311SOL    HW239396   3.116   0.286   4.888  0.4609 -0.1366  0.1389
 9312SOL     OW39397   2.238   0.870   5.792 -0.2690 -0.2459 -0.1788
 9312SOL    HW139398   2.317   0.920   5.812 -0.0558 -0.6256 -0.0769
 9312SOL    HW239399   2.193   0.899   5.871  0.5414 -0.1831  0.2616
 9313SOL     OW39400   2.792   3.697   3.162  0.0903 -0.7256 -0.0165
 9313SOL    HW139401   2.782   3.791   3.174  0.8286 -0.4202 -1.9380
 9313SOL    HW239402   2.882   3.683   3.191  1.6186  3.6491 -2.8033
 9314SOL     OW39403   1.846   3.332  13.794  0.0344  0.1787  0.2085
 9314SOL    HW139404   1.865   3.408  13.739 -0.5285 -1.8229 -2.7205
 9314SOL    HW239405   1.919   3.327  13.855  0.1422  3.2566  0.3343
 9315SOL     OW39406   4.003   1.661   6.992  0.5585 -0.3904 -0.3952
 9315SOL    HW139407   4.081   1.615   7.025  1.1994  0.5916 -0.5504
 9315SOL    HW239408   3.956   1.579   6.975  0.5273 -0.7105  1.3011
 9316SOL     OW39409   0.791   2.750   6.208 -0.3191 -0.1348 -0.9314
 9316SOL    HW139410   0.830   2.663   6.211 -0.6773 -0.2592  0.1092
 9316SOL    HW239411   0.854   2.794   6.150 -0.4623  0.8444 -0.3425
 9317SOL     OW39412   1.075   0.115   8.583 -0.0070 -0.0696 -0.0044
 9317SOL    HW139413   1.027   0.159   8.654 -1.1475  0.7151 -1.2403
 9317SOL    HW239414   1.041   0.026   8.572 -2.3785  0.7382  0.7656
 9318SOL     OW39415   0.826   0.140   6.759  0.4131 -0.6526  0.6681
 9318SOL    HW139416   0.786   0.219   6.723  1.0137 -0.5824  0.1631
 9318SOL    HW239417   0.913   0.164   6.789  1.5713 -1.1189 -2.3638
 9319SOL     OW39418   3.802   3.099   0.492 -0.6517 -0.2989 -0.6011
 9319SOL    HW139419   3.818   3.071   0.583 -0.1414 -0.0062 -0.6011
 9319SOL    HW239420   3.791   3.193   0.503 -0.3688 -0.1846 -1.3283
 9320SOL     OW39421   2.561   4.338   0.543  0.0157  0.2496  0.7248
 9320SOL    HW139422   2.561   4.421   0.496  1.5821 -0.6847 -0.9097
 9320SOL    HW239423   2.531   4.371   0.627 -0.5018  1.3909  0.0862
 9321SOL     OW39424   4.210   1.341   8.586  0.5851 -0.4409 -0.2925
 9321SOL    HW139425   4.284   1.295   8.547  2.2378 -0.5033  2.9301
 9321SOL    HW239426   4.210   1.286   8.665 -1.7226  0.0452  0.0536
 9322SOL     OW39427   0.085   2.688   8.957  0.4038  0.0563 -0.6945
 9322SOL    HW139428   0.115   2.759   9.012 -1.3659  0.2433  0.0439
 9322SOL    HW239429   0.018   2.728   8.902 -0.1115 -0.2239 -0.2693
 9323SOL     OW39430   3.916   2.737   6.971 -0.1532 -0.0160  0.1609
 9323SOL    HW139431   3.832   2.725   6.927  0.6621 -2.5490 -0.6696
 9323SOL    HW239432   3.945   2.647   6.985 -0.5854 -0.3207 -0.9615
 9324SOL     OW39433   4.364   4.313   6.306 -0.4587  0.1321 -0.2197
 9324SOL    HW139434   4.408   4.396   6.325  2.2485 -1.3208 -0.0612
 9324SOL    HW239435   4.285   4.306   6.360  0.2951 -1.6603  0.6803
 9325SOL     OW39436   3.778   1.385   2.391  0.1365  0.4462 -0.4212
 9325SOL    HW139437   3.873   1.386   2.380  0.1770 -0.0517 -0.0776
 9325SOL    HW239438   3.751   1.351   2.305 -2.0659  1.4974 -0.1407
 9326SOL     OW39439   0.647   2.384   4.742 -0.1497  1.0897 -0.5591
 9326SOL    HW139440   0.731   2.360   4.701 -0.6320 -3.5564  1.1736
 9326SOL    HW239441   0.675   2.458   4.795 -0.9233  0.5561  0.5807
 9327SOL     OW39442   3.011   1.278   4.816 -0.0336 -0.1620 -0.8060
 9327SOL    HW139443   3.026   1.197   4.767 -1.6891 -1.1618  0.3211
 9327SOL    HW239444   2.928   1.317   4.790 -0.7411 -0.9972  0.2092
 9328SOL     OW39445   3.601   4.708   3.480 -0.1261 -0.5935 -0.2106
 9328SOL    HW139446   3.647   4.679   3.401 -1.0927  2.0727 -1.7262
 9328SOL    HW239447   3.590   4.626   3.530  1.4656 -0.8782 -0.3288
 9329SOL     OW39448   3.057   4.035  12.180  0.3344  0.7551  0.2350
 9329SOL    HW139449   3.094   4.006  12.264  1.6265  0.0316 -0.5797
 9329SOL    HW239450   2.965   4.032  12.204  0.4859  2.9396  1.0420
 9330SOL     OW39451   2.309   1.256   5.229 -0.5340 -0.9997 -0.4562
 9330SOL    HW139452   2.227   1.281   5.272 -1.0691  1.8535 -3.1658
 9330SOL    HW239453   2.292   1.166   5.201 -0.0459 -1.4876  0.8546
 9331SOL     OW39454   4.480   0.400   7.384 -0.2173 -0.3858 -0.2866
 9331SOL    HW139455   4.407   0.351   7.423 -1.9688  3.0441  0.7353
 9331SOL    HW239456   4.460   0.488   7.416  1.5660 -0.1770  0.2781
 9332SOL     OW39457   3.438   0.216   2.565  0.0189 -0.0343  0.1086
 9332SOL    HW139458   3.364   0.223   2.505  0.5969 -0.2014 -0.6095
 9332SOL    HW239459   3.390   0.176   2.638  0.1526 -0.1549  0.1306
 9333SOL     OW39460   2.325   4.665   7.931 -0.4936 -0.4648  0.3339
 9333SOL    HW139461   2.314   4.716   8.011  4.2434 -1.8070  1.8290
 9333SOL    HW239462   2.307   4.580   7.971 -1.8762 -0.7173 -0.8233
 9334SOL     OW39463   1.220   1.913   4.846 -0.5906  0.1352  0.2553
 9334SOL    HW139464   1.273   1.938   4.771 -2.5529  2.5473 -0.3326
 9334SOL    HW239465   1.243   1.976   4.915  1.1513 -0.1410 -0.0967
 9335SOL     OW39466   2.908   1.820   8.250 -0.3704 -0.0650 -0.6133
 9335SOL    HW139467   2.869   1.768   8.321  1.0392 -1.5648 -0.9303
 9335SOL    HW239468   2.969   1.872   8.302  0.1326 -0.8269 -0.4376
 9336SOL     OW39469   0.634   0.628   1.911 -0.4096 -0.0338 -0.1761
 9336SOL    HW139470   0.595   0.568   1.848 -0.2547  0.5576 -0.8358
 9336SOL    HW239471   0.675   0.572   1.977  1.5281  1.2048 -0.3206
 9337SOL     OW39472   3.862   3.049   8.566 -0.6777  0.1571 -0.2617
 9337SOL    HW139473   3.903   2.969   8.598 -1.0786 -0.0584 -0.2925
 9337SOL    HW239474   3.775   3.021   8.538 -0.5317 -0.0908 -0.4651
 9338SOL     OW39475   1.804   3.960   2.805 -0.5743 -0.1613 -0.2191
 9338SOL    HW139476   1.821   4.000   2.720 -2.3259  0.7042 -0.1557
 9338SOL    HW239477   1.796   4.040   2.858  1.5027  1.2519 -2.0413
 9339SOL     OW39478   2.900   4.474  13.999  0.2316 -0.2659 -0.1491
 9339SOL    HW139479   2.863   4.400  13.952  1.2611 -0.6462 -0.3499
 9339SOL    HW239480   2.862   4.551  13.956  0.4846  0.0917  0.2578
 9340SOL     OW39481   3.308   1.035   7.128  0.2441  0.3567 -0.0789
 9340SOL    HW139482   3.268   1.009   7.211 -2.4849 -0.3718 -1.6318
 9340SOL    HW239483   3.256   1.112   7.106 -0.1124 -0.4688 -2.0787
 9341SOL     OW39484   1.399   1.712   5.721  0.2900  0.6149 -0.5872
 9341SOL    HW139485   1.312   1.672   5.720  0.5066  0.0937  0.8550
 9341SOL    HW239486   1.390   1.753   5.807  0.0951  1.7103 -1.1395
 9342SOL     OW39487   3.599   3.305   3.272 -0.2422 -0.4070  0.6076
 9342SOL    HW139488   3.625   3.360   3.199  1.0558 -1.2974  0.4013
 9342SOL    HW239489   3.586   3.224   3.221 -1.7386  0.1851  0.0386
 9343SOL     OW39490   4.296   0.446   2.229  0.1291 -0.1558  0.5205
 9343SOL    HW139491   4.350   0.513   2.270 -0.0895  0.0166  0.5262
 9343SOL    HW239492   4.343   0.452   2.146 -1.6811 -2.7072 -0.6906
 9344SOL     OW39493   4.108   4.575   1.698  0.0491  0.4106 -0.5404
 9344SOL    HW139494   4.024   4.620   1.691 -1.7068 -2.2666  2.9106
 9344SOL    HW239495   4.082   4.493   1.740 -0.1257 -0.7905 -2.9777
 9345SOL     OW39496   4.001   2.985   7.732 -0.5050  0.3371 -0.0901
 9345SOL    HW139497   3.936   3.052   7.749 -0.9046 -0.1703  0.3689
 9345SOL    HW239498   3.950   2.904   7.732 -0.3792  0.2561  0.1451
 9346SOL     OW39499   2.246   0.716   7.502 -0.4289 -0.2531  0.0827
 9346SOL    HW139500   2.328   0.718   7.552 -1.2180 -2.9081  1.4947
 9346SOL    HW239501   2.246   0.635   7.451 -0.2167 -0.0433 -0.2451
 9347SOL     OW39502   0.582   3.684   4.430 -0.0972 -0.0754 -0.8003
 9347SOL    HW139503   0.542   3.726   4.354  0.1647  2.9323  0.7486
 9347SOL    HW239504   0.523   3.609   4.438 -1.5965  1.4691  2.7682
 9348SOL     OW39505   4.285   3.626   8.331  0.6793  0.7636  0.2508
 9348SOL    HW139506   4.213   3.586   8.379  1.5492 -2.8239 -1.4674
 9348SOL    HW239507   4.244   3.702   8.289 -1.7400 -0.5513  0.2815
 9349SOL     OW39508   4.588   3.602   3.306 -0.2722  0.2072 -0.6581
 9349SOL    HW139509   4.514   3.543   3.290 -0.1666  0.0784 -0.6701
 9349SOL    HW239510   4.647   3.576   3.235  2.1521  2.4495  0.5199
 9350SOL     OW39511   1.598   0.721  15.917  0.2562  0.5690  0.2258
 9350SOL    HW139512   1.690   0.695  15.908 -0.6381 -2.8288  0.8841
 9350SOL    HW239513   1.557   0.658  15.857 -0.1220  0.4477  0.6141
 9351SOL     OW39514   3.913   0.112   3.272 -0.1873 -0.0315  0.5169
 9351SOL    HW139515   3.843   0.060   3.232  0.4253 -1.2216  0.9985
 9351SOL    HW239516   3.934   0.153   3.188  1.0570  0.1676  0.9275
 9352SOL     OW39517   2.426   1.425  10.851 -0.1005 -0.3657  0.6454
 9352SOL    HW139518   2.516   1.450  10.871 -0.2537  1.5099 -1.0081
 9352SOL    HW239519   2.444   1.331  10.861  2.9935  0.3418  1.8933
 9353SOL     OW39520   0.103   3.099   0.097  0.2411 -0.3115 -0.0865
 9353SOL    HW139521   0.175   3.037   0.102 -0.3786 -0.9117  1.4660
 9353SOL    HW239522   0.031   3.037   0.084  0.8198 -0.7191 -1.3219
 9354SOL     OW39523   0.871   2.999   7.556  0.3634  0.3765 -0.1038
 9354SOL    HW139524   0.863   2.913   7.515  1.3082 -0.9389  2.4505
 9354SOL    HW239525   0.948   2.985   7.611  0.8036  0.3370 -0.7324
 9355SOL     OW39526   3.054   0.176  12.829  0.6358  0.0325 -0.5011
 9355SOL    HW139527   3.064   0.271  12.822  0.3018  0.0652 -0.5453
 9355SOL    HW239528   3.090   0.155  12.915 -1.6712  0.4203  0.5599
 9356SOL     OW39529   0.882   2.525   1.714  0.5120 -0.5578  0.4737
 9356SOL    HW139530   0.907   2.579   1.640 -1.3696  1.2292  1.1186
 9356SOL    HW239531   0.897   2.438   1.677  1.6167  0.2276 -0.9198
 9357SOL     OW39532   4.382   0.881   2.050 -0.2622 -0.0690  0.0546
 9357SOL    HW139533   4.463   0.852   2.092 -0.1166 -0.4953 -0.5227
 9357SOL    HW239534   4.347   0.795   2.030 -1.9588  0.5324  0.4639
 9358SOL     OW39535   0.309   1.870   6.290  0.7703 -0.0819 -0.2826
 9358SOL    HW139536   0.401   1.873   6.315  0.6019  1.5520  0.1077
 9358SOL    HW239537   0.307   1.921   6.209 -2.6118 -0.3747 -0.3986
 9359SOL     OW39538   1.377   0.099   2.883 -0.4698  0.5215 -0.0571
 9359SOL    HW139539   1.428   0.021   2.861  0.8418  1.8998 -1.9631
 9359SOL    HW239540   1.429   0.172   2.848 -0.2017 -0.2162 -1.2132
 9360SOL     OW39541   1.624   0.710   4.852  0.5427 -0.5259  0.1595
 9360SOL    HW139542   1.617   0.615   4.862  0.5818 -0.6383 -0.8125
 9360SOL    HW239543   1.604   0.726   4.760 -1.1580  2.6485  1.0920
 9361SOL     OW39544   4.135   0.761   7.822 -0.7409  0.4661 -0.0995
 9361SOL    HW139545   4.209   0.736   7.878 -0.3352  3.7776  0.7990
 9361SOL    HW239546   4.174   0.832   7.772  1.3618 -0.4104  0.2904
 9362SOL     OW39547   1.202   2.227   3.562  0.3172 -0.2162 -0.6292
 9362SOL    HW139548   1.128   2.210   3.621 -1.9603 -0.1421 -3.4655
 9362SOL    HW239549   1.280   2.190   3.603  0.1259 -0.8314 -0.8266
 9363SOL     OW39550   3.691   2.185   1.447  0.2831  0.4924 -0.3864
 9363SOL    HW139551   3.642   2.133   1.383 -0.8124  0.4609  0.4882
 9363SOL    HW239552   3.684   2.269   1.401 -0.0038 -0.1076 -1.4382
 9364SOL     OW39553   1.306   4.179  14.201 -0.5719  0.3227  0.4720
 9364SOL    HW139554   1.258   4.130  14.134 -0.2105  0.5150  0.0643
 9364SOL    HW239555   1.233   4.205  14.257 -0.6611  0.3733  0.3318
 9365SOL     OW39556   3.532   4.345   9.678  0.1696 -0.7373  0.1714
 9365SOL    HW139557   3.461   4.321   9.617  1.5906 -1.9111 -1.0115
 9365SOL    HW239558   3.484   4.397   9.742  1.6167 -1.0678  1.5062
 9366SOL     OW39559   1.743   0.900   5.938 -1.1138 -0.1428  0.0940
 9366SOL    HW139560   1.708   0.825   5.986  2.4623 -1.1426  1.1890
 9366SOL    HW239561   1.778   0.938   6.019 -3.2014  2.1095 -0.0451
 9367SOL     OW39562   2.194   1.759  13.024 -0.1995 -0.6746 -0.0033
 9367SOL    HW139563   2.150   1.829  12.977 -0.5559  0.5246  2.1196
 9367SOL    HW239564   2.163   1.682  12.977  0.2042 -1.6778  1.3668
 9368SOL     OW39565   0.072   1.221   7.039 -0.4919  0.4082  0.2791
 9368SOL    HW139566   0.054   1.221   6.945  3.7748 -1.7528 -0.5207
 9368SOL    HW239567   4.714   1.174   7.071 -1.0092 -0.2976 -2.0351
 9369SOL     OW39568   2.902   4.707   6.818  0.5806  0.8642  0.1803
 9369SOL    HW139569   2.919   4.669   6.903 -0.4674  0.3307  0.1564
 9369SOL    HW239570   2.870   0.073   6.846 -0.3569  1.4723 -2.6662
 9370SOL     OW39571   0.490   2.827  12.388  0.4839  0.0353  0.0680
 9370SOL    HW139572   0.494   2.795  12.478  0.2721 -1.8796 -0.6019
 9370SOL    HW239573   0.503   2.921  12.400 -4.0753  0.6737  0.0392
 9371SOL     OW39574   3.537   1.468  16.886 -0.2995  0.1306 -0.2652
 9371SOL    HW139575   3.540   1.374  16.904 -1.9168 -0.1934 -1.6154
 9371SOL    HW239576   3.603   1.462  16.817  0.3393 -0.3110  0.3902
 9372SOL     OW39577   4.254   0.053   1.424 -0.7386  0.5403 -0.8486
 9372SOL    HW139578   4.205   0.106   1.361 -0.5178  2.1580  0.3181
 9372SOL    HW239579   4.328   0.042   1.365 -0.3068 -0.6226 -0.1004
 9373SOL     OW39580   2.875   3.607   0.423 -0.3946  0.3907  0.1587
 9373SOL    HW139581   2.889   3.525   0.471 -0.7596 -0.3359 -0.9689
 9373SOL    HW239582   2.786   3.626   0.452 -1.3345  0.8471 -3.1378
 9374SOL     OW39583   3.659   1.053   6.106 -0.2555 -0.3137  0.3235
 9374SOL    HW139584   3.596   1.000   6.156 -0.5469 -0.2888 -0.0157
 9374SOL    HW239585   3.700   1.106   6.175  0.4833  1.3364 -1.4056
 9375SOL     OW39586   1.335   1.217  13.816  0.1844 -0.7072  0.0732
 9375SOL    HW139587   1.429   1.228  13.822 -0.0032  0.2294  1.1659
 9375SOL    HW239588   1.335   1.122  13.827 -1.0587 -0.8469 -1.0185
 9376SOL     OW39589   0.775   3.137   1.132  0.2081  0.7376 -0.1422
 9376SOL    HW139590   0.834   3.168   1.201 -0.7036 -0.0590  0.9879
 9376SOL    HW239591   0.698   3.105   1.179  0.8508 -2.1618 -1.1128
 9377SOL     OW39592   4.358   4.349   8.483  0.1961  0.2702  0.9031
 9377SOL    HW139593   4.267   4.368   8.505 -0.6944 -2.9946  0.0838
 9377SOL    HW239594   4.339   4.331   8.391  2.2292  0.8198  0.3737
 9378SOL     OW39595   0.143   1.353   0.643  0.1792 -0.3899 -0.2740
 9378SOL    HW139596   0.131   1.352   0.548  1.2056  0.3716 -0.4096
 9378SOL    HW239597   0.085   1.423   0.673  1.6013  0.8257 -0.3418
 9379SOL     OW39598   2.146   4.418  14.504 -0.4308  0.8104 -0.3190
 9379SOL    HW139599   2.152   4.392  14.412 -1.4120  0.1736 -0.2074
 9379SOL    HW239600   2.055   4.394  14.522 -0.2043 -0.1242 -0.4396
 9380SOL     OW39601   3.990   0.452   8.332  0.9239 -0.2381 -0.3127
 9380SOL    HW139602   3.922   0.489   8.276 -0.5506 -1.9995  0.3393
 9380SOL    HW239603   3.940   0.388   8.381  2.7201  0.2126  2.1057
 9381SOL     OW39604   2.410   0.525  13.552 -0.2533  0.2390  0.2056
 9381SOL    HW139605   2.418   0.612  13.513 -1.4964  1.5828  2.8969
 9381SOL    HW239606   2.343   0.479  13.501  1.1483 -1.4837 -0.0837
 9382SOL     OW39607   3.453   2.900   3.276 -0.1638  0.0477 -0.0485
 9382SOL    HW139608   3.366   2.896   3.238 -0.8788  0.0214  1.6146
 9382SOL    HW239609   3.486   2.971   3.221  0.8274 -0.6934 -0.4136
 9383SOL     OW39610   2.533   4.290  12.977 -0.2657 -0.4202 -0.0143
 9383SOL    HW139611   2.581   4.361  12.934 -0.3181  1.0226  2.2827
 9383SOL    HW239612   2.439   4.306  12.969  0.3337  2.9574 -0.3621
 9384SOL     OW39613   3.870   1.574   4.110  0.0773  0.3905  0.8151
 9384SOL    HW139614   3.776   1.570   4.092 -0.1902 -1.1479  2.5266
 9384SOL    HW239615   3.909   1.561   4.023 -0.3182 -1.2924  0.8924
 9385SOL     OW39616   1.764   0.774  17.377  0.3827  0.3813  0.2728
 9385SOL    HW139617   1.689   0.733  17.333 -1.4634  2.9494  1.0425
 9385SOL    HW239618   1.773   0.721  17.457  0.6041  1.1780  0.7708
 9386SOL     OW39619   0.731   4.439  10.059  0.1718  0.2161 -0.3609
 9386SOL    HW139620   0.773   4.441   9.973 -0.6983  2.3931 -0.7290
 9386SOL    HW239621   0.809   4.418  10.111 -0.7317  1.6421  1.5660
 9387SOL     OW39622   4.063   3.259   1.998 -0.2311  0.1956 -0.4319
 9387SOL    HW139623   4.058   3.352   2.020 -1.6437 -0.3391  1.5281
 9387SOL    HW239624   3.979   3.236   2.036 -1.4841  0.7117 -2.9162
 9388SOL     OW39625   1.736   2.772   2.311  0.5572 -0.1682 -0.1906
 9388SOL    HW139626   1.700   2.714   2.244  0.6360  0.9373 -1.1898
 9388SOL    HW239627   1.826   2.780   2.281  0.0561  1.0012 -1.3887
 9389SOL     OW39628   0.134   0.226  14.446 -0.1776 -0.0032  0.1672
 9389SOL    HW139629   0.161   0.138  14.471  0.6357  0.2989  0.3527
 9389SOL    HW239630   0.200   0.260  14.387 -0.9111  1.6377  0.2814
 9390SOL     OW39631   3.711   4.115   7.227 -0.5742  0.1490  0.3204
 9390SOL    HW139632   3.717   4.112   7.322 -2.0056 -0.2551  0.4030
 9390SOL    HW239633   3.800   4.118   7.194 -0.3200 -2.7691  0.8100
 9391SOL     OW39634   1.232   2.422  16.902 -0.2620  0.4479 -0.7772
 9391SOL    HW139635   1.245   2.417  16.996  1.5997 -0.1229 -1.0787
 9391SOL    HW239636   1.286   2.352  16.864  1.3178  0.6487  1.1338
 9392SOL     OW39637   1.966   0.813   6.289  0.3118 -0.7404 -0.0904
 9392SOL    HW139638   2.024   0.787   6.218  0.7064  1.1675 -0.4833
 9392SOL    HW239639   1.881   0.821   6.248 -0.3055 -2.3684  0.8761
 9393SOL     OW39640   1.890   1.936  14.904 -0.2185 -0.6531 -0.4278
 9393SOL    HW139641   1.949   1.887  14.847 -1.5635 -1.5606 -1.0443
 9393SOL    HW239642   1.829   1.967  14.837  0.4019 -1.1502 -1.2166
 9394SOL     OW39643   2.023   3.750  16.042 -0.3251  0.0875  0.0356
 9394SOL    HW139644   2.060   3.836  16.023 -0.1543 -0.1689 -0.7949
 9394SOL    HW239645   1.983   3.765  16.128 -1.3185  1.1516 -0.6141
 9395SOL     OW39646   2.053   3.299  13.966 -0.4286  0.1216  0.2804
 9395SOL    HW139647   2.078   3.209  13.949  1.2201  0.5351  0.4631
 9395SOL    HW239648   2.135   3.342  13.992  1.3302 -3.9890  1.4290
 9396SOL     OW39649   0.920   3.056   4.653  0.1758 -0.2503  0.0054
 9396SOL    HW139650   0.936   3.012   4.570 -2.2987  0.7492 -0.9960
 9396SOL    HW239651   0.944   2.986   4.714 -0.3931  0.2459  0.7889
 9397SOL     OW39652   3.750   4.554   9.565 -0.0715  0.1825 -0.2381
 9397SOL    HW139653   3.657   4.575   9.566  0.1067  0.9631 -2.2106
 9397SOL    HW239654   3.732   4.462   9.545 -0.6259  0.0911  0.6568
 9398SOL     OW39655   1.108   0.735   5.898 -0.2836 -0.2670  0.3109
 9398SOL    HW139656   1.171   0.755   5.967 -1.5487  0.1628  1.3123
 9398SOL    HW239657   1.158   0.661   5.862 -0.0692 -0.2744  0.6260
 9399SOL     OW39658   1.542   1.550   1.294  0.2218 -0.4633  0.2469
 9399SOL    HW139659   1.472   1.486   1.310 -0.3491  0.4736  1.4405
 9399SOL    HW239660   1.561   1.564   1.387  1.0223 -1.5327  0.2476
 9400SOL     OW39661   0.685   0.969   4.326 -0.3869 -0.0757 -0.1282
 9400SOL    HW139662   0.645   1.010   4.249  1.8045  0.5079 -0.9289
 9400SOL    HW239663   0.620   0.998   4.390  0.9447  0.2269  1.0625
 9401SOL     OW39664   4.688   4.091   4.144  0.1017  0.7614 -0.0041
 9401SOL    HW139665   0.063   4.078   4.140 -0.4203 -2.7462 -0.8310
 9401SOL    HW239666   4.678   4.110   4.051  1.0389 -1.4142 -0.5309
 9402SOL     OW39667   3.886   3.105  14.424  0.4015  0.0322 -0.0301
 9402SOL    HW139668   3.873   3.199  14.430 -1.3681 -0.2794  1.2440
 9402SOL    HW239669   3.961   3.100  14.482  1.3999  1.4685 -1.2008
 9403SOL     OW39670   1.678   4.580   7.189  0.1195 -0.1286 -0.4163
 9403SOL    HW139671   1.685   4.562   7.095 -0.4709  2.3286 -0.9325
 9403SOL    HW239672   1.769   4.593   7.214 -0.2521  1.0180  0.3616
 9404SOL     OW39673   4.354   1.019   0.849 -0.6376 -0.4901 -0.1514
 9404SOL    HW139674   4.280   0.978   0.894 -0.2184 -0.2922  0.7258
 9404SOL    HW239675   4.305   1.088   0.804 -1.2815 -0.0029  1.2959
 9405SOL     OW39676   1.305   3.276  14.634 -0.2767 -0.3054 -0.3161
 9405SOL    HW139677   1.320   3.182  14.646 -0.7970 -0.2176  0.9766
 9405SOL    HW239678   1.369   3.293  14.565  1.5278  1.2102  1.7449
 9406SOL     OW39679   0.187   4.391   5.909 -0.1359 -0.2903  0.0283
 9406SOL    HW139680   0.106   4.356   5.871 -1.4218  0.8636  1.7171
 9406SOL    HW239681   0.189   4.322   5.975 -1.2340 -0.3800 -0.0344
 9407SOL     OW39682   0.337   0.407   4.848 -0.0142  0.3385 -1.2230
 9407SOL    HW139683   0.424   0.428   4.814  1.1171 -1.2708  0.6449
 9407SOL    HW239684   0.288   0.374   4.773  0.2864 -0.1585 -1.2038
 9408SOL     OW39685   3.759   3.500   3.993  0.3104  0.1164  0.1760
 9408SOL    HW139686   3.768   3.451   3.911 -0.6388  0.0394  0.1145
 9408SOL    HW239687   3.750   3.422   4.047  1.2115 -0.9153 -1.1761
 9409SOL     OW39688   1.258   1.860   2.063  0.1973  0.3350  0.4240
 9409SOL    HW139689   1.165   1.845   2.074  0.5517 -0.3423  2.3962
 9409SOL    HW239690   1.302   1.775   2.069 -0.9369 -0.3916 -1.6238
 9410SOL     OW39691   4.422   0.114   7.612  0.3728 -0.1758 -0.0047
 9410SOL    HW139692   4.499   0.062   7.589 -1.4645 -2.7582 -0.2745
 9410SOL    HW239693   4.408   0.151   7.525 -0.3827 -1.8101 -0.5687
 9411SOL     OW39694   3.799   4.476   2.203 -0.2613  0.3489 -0.2262
 9411SOL    HW139695   3.773   4.461   2.112 -1.9188 -0.9953  0.4547
 9411SOL    HW239696   3.866   4.542   2.188  1.5386 -1.1681  1.2072
 9412SOL     OW39697   3.625   1.890   7.237  0.0832 -0.2677 -0.4410
 9412SOL    HW139698   3.706   1.911   7.191  0.3980 -0.8462 -0.1635
 9412SOL    HW239699   3.559   1.951   7.205 -0.2098 -1.5445 -2.2305
 9413SOL     OW39700   4.338   3.216   8.039  0.6351  0.6940 -0.3016
 9413SOL    HW139701   4.405   3.149   8.035  0.1346  0.0084  2.3494
 9413SOL    HW239702   4.295   3.192   8.121  0.3927 -1.0725 -0.9599
 9414SOL     OW39703   1.170   3.412   6.613 -0.1030 -0.0910  0.5996
 9414SOL    HW139704   1.113   3.411   6.536  0.8364  2.7423 -0.1296
 9414SOL    HW239705   1.224   3.334   6.598 -1.3289 -1.4163  3.2930
 9415SOL     OW39706   2.135   1.466  12.951  0.0579  0.0347 -0.1292
 9415SOL    HW139707   2.054   1.444  12.998  1.9942 -1.7228  2.3751
 9415SOL    HW239708   2.103   1.465  12.861 -1.5040 -0.8541  0.4260
 9416SOL     OW39709   4.142   0.900   3.963 -0.6733  0.6828  0.2480
 9416SOL    HW139710   4.068   0.873   4.018 -0.1626 -1.3446 -0.0399
 9416SOL    HW239711   4.106   0.886   3.876  0.8016 -2.6579  0.1572
 9417SOL     OW39712   4.507   0.855   7.683  0.0776  0.0397  0.4071
 9417SOL    HW139713   4.415   0.852   7.658 -0.0936 -2.0145  1.3011
 9417SOL    HW239714   4.536   0.767   7.661  0.9386  0.2616  0.6394
 9418SOL     OW39715   0.798   2.446   5.837 -0.2728  0.2384 -0.4423
 9418SOL    HW139716   0.743   2.488   5.903  0.8754  0.6263  0.2550
 9418SOL    HW239717   0.727   2.399   5.792  0.7735 -0.0488 -1.7951
 9419SOL     OW39718   3.247   1.568   5.030 -0.0398 -0.0417  0.4701
 9419SOL    HW139719   3.342   1.579   5.032 -0.0300  0.0428 -0.6028
 9419SOL    HW239720   3.234   1.525   5.115  0.4666 -0.5374  0.2915
 9420SOL     OW39721   3.145   1.190   7.730 -0.3214 -0.3740 -0.4038
 9420SOL    HW139722   3.118   1.158   7.644 -2.8253 -1.7370  0.8881
 9420SOL    HW239723   3.139   1.285   7.718 -0.4760 -0.1594  1.3783
 9421SOL     OW39724   1.356   4.557   3.928 -0.0459  0.1422  0.2869
 9421SOL    HW139725   1.368   4.485   3.866  1.2330  2.0825 -1.7255
 9421SOL    HW239726   1.374   4.622   3.859  0.3935 -1.0933 -0.7493
 9422SOL     OW39727   4.496   4.580   6.801 -0.2899  0.0149 -0.0871
 9422SOL    HW139728   4.530   4.651   6.748  0.2018  0.3535  0.6848
 9422SOL    HW239729   4.529   4.613   6.885 -1.3593  0.9639 -0.0430
 9423SOL     OW39730   3.749   2.043  11.475  0.3832  0.4399  0.1708
 9423SOL    HW139731   3.711   2.122  11.437 -1.8326  0.0172  1.4881
 9423SOL    HW239732   3.691   2.030  11.550  0.9689 -0.1778  0.5174
 9424SOL     OW39733   4.691   4.327   0.744 -0.4144  0.0518 -0.8630
 9424SOL    HW139734   4.617   4.361   0.793 -1.7237  1.3682 -3.7715
 9424SOL    HW239735   4.646   4.268   0.684 -0.9904  0.1168 -0.4900
 9425SOL     OW39736   0.398   2.172  14.312 -0.0776 -0.6281  0.1667
 9425SOL    HW139737   0.370   2.098  14.365 -2.2702  0.3853  0.4186
 9425SOL    HW239738   0.491   2.161  14.331 -0.0578 -0.3975  0.2145
 9426SOL     OW39739   0.078   0.776   6.016 -0.3671 -0.5437 -0.5902
 9426SOL    HW139740   0.038   0.799   6.100  0.3127  0.6675 -0.6039
 9426SOL    HW239741   0.067   0.681   6.018 -1.4971 -0.3355  2.9256
 9427SOL     OW39742   1.984   4.133   3.484 -0.4476  0.4196  0.3955
 9427SOL    HW139743   1.915   4.071   3.509 -1.2899  0.1666 -2.5918
 9427SOL    HW239744   2.051   4.083   3.437 -0.5557  0.7145 -0.0638
 9428SOL     OW39745   4.158   3.733   3.878  0.4895  0.1702 -0.6474
 9428SOL    HW139746   4.118   3.651   3.906  2.2607 -0.3617  0.3096
 9428SOL    HW239747   4.099   3.802   3.909  0.7441  0.7835 -1.5320
 9429SOL     OW39748   3.213   4.464  13.169 -0.3329 -0.2172 -0.0827
 9429SOL    HW139749   3.241   4.418  13.247 -0.9319 -1.3794 -0.5563
 9429SOL    HW239750   3.191   4.396  13.105 -2.2289  0.2316  0.0837
 9430SOL     OW39751   2.919   1.888  10.439 -0.0429  0.1961 -0.3834
 9430SOL    HW139752   2.972   1.902  10.517 -0.4730 -0.4730  0.0286
 9430SOL    HW239753   2.869   1.810  10.461  1.8790 -0.2209  2.4112
 9431SOL     OW39754   1.420   4.312  10.531 -0.5659  0.0365 -0.2885
 9431SOL    HW139755   1.365   4.256  10.475  1.9729 -0.7393 -2.0192
 9431SOL    HW239756   1.406   4.272  10.617 -0.0256  1.5189  0.4928
 9432SOL     OW39757   3.424   1.903   9.057  0.8404  0.0098 -0.0191
 9432SOL    HW139758   3.501   1.911   9.113 -1.1477  1.6711  2.4558
 9432SOL    HW239759   3.432   1.811   9.033  3.0843  0.0331  0.6589
 9433SOL     OW39760   3.974   3.417   8.077  0.3872 -0.2243  0.2835
 9433SOL    HW139761   3.931   3.461   8.150  2.9532  1.5143  0.7278
 9433SOL    HW239762   3.987   3.482   8.008  0.2330 -0.1860  0.2910
 9434SOL     OW39763   4.563   3.825   4.715 -0.5205 -0.3935 -0.2159
 9434SOL    HW139764   4.533   3.765   4.647 -0.1099  1.3873 -1.9641
 9434SOL    HW239765   4.483   3.831   4.767 -0.2041  1.2708  0.0958
 9435SOL     OW39766   2.596   1.719   3.384 -0.0972  0.0538 -0.5800
 9435SOL    HW139767   2.516   1.673   3.408  0.1925  0.7936  1.7844
 9435SOL    HW239768   2.613   1.686   3.296 -0.0503 -0.5340 -0.3479
 9436SOL     OW39769   3.915   1.888   6.800 -0.1351  0.0272 -0.0300
 9436SOL    HW139770   3.959   1.809   6.830 -1.6151 -1.7727 -2.5354
 9436SOL    HW239771   3.834   1.862   6.757  1.1535  0.2841 -2.6644
 9437SOL     OW39772   2.794   1.116   4.566 -0.1923  0.1603 -0.1204
 9437SOL    HW139773   2.879   1.075   4.554  1.4481  3.4455  0.4502
 9437SOL    HW239774   2.812   1.206   4.590  0.1115 -0.4590  1.9878
 9438SOL     OW39775   2.600   3.940   1.967  0.2923  0.0626  1.0088
 9438SOL    HW139776   2.662   4.012   1.959  0.9289 -0.4739  1.1818
 9438SOL    HW239777   2.648   3.867   1.927  1.1888 -0.6221  3.3398
 9439SOL     OW39778   3.413   0.302   8.219 -0.2019  0.5002 -0.0194
 9439SOL    HW139779   3.495   0.335   8.257 -0.0643  2.3991 -1.9002
 9439SOL    HW239780   3.426   0.215   8.255  0.1422  0.9844  1.0125
 9440SOL     OW39781   3.376   0.615   4.378 -0.0064 -0.0422 -0.4778
 9440SOL    HW139782   3.310   0.621   4.309  1.5209  1.2826 -1.8085
 9440SOL    HW239783   3.449   0.563   4.344  1.3878  1.6096  0.0081
 9441SOL     OW39784   1.229   2.504   3.774  0.0782 -0.1608  0.3528
 9441SOL    HW139785   1.261   2.457   3.697  0.3464  1.0936 -0.3071
 9441SOL    HW239786   1.295   2.574   3.775 -1.4938  1.2974  1.1558
 9442SOL     OW39787   1.349   0.146  17.585  0.1046  0.0568  0.5266
 9442SOL    HW139788   1.346   0.207  17.659 -0.8176  2.0306 -1.1284
 9442SOL    HW239789   1.412   0.081  17.618 -0.2101 -0.7666 -0.5170
 9443SOL     OW39790   2.108   2.471   5.044  0.0201  0.2768 -0.4194
 9443SOL    HW139791   2.133   2.429   4.962  1.7520 -2.8037  1.6923
 9443SOL    HW239792   2.035   2.411   5.061 -1.2278  1.3472 -1.9960
 9444SOL     OW39793   1.001   0.857   9.767  0.0924  0.1127 -0.2112
 9444SOL    HW139794   1.039   0.850   9.854 -0.2655 -0.8663 -0.1295
 9444SOL    HW239795   1.012   0.950   9.748  0.1640  0.5545  1.9605
 9445SOL     OW39796   3.613   2.336   8.504 -0.3878  0.0566 -0.0288
 9445SOL    HW139797   3.574   2.288   8.430 -1.0107  3.1553 -1.7096
 9445SOL    HW239798   3.548   2.404   8.521  1.1908  1.2764  0.9926
 9446SOL     OW39799   4.379   3.719   7.916 -0.4063 -0.1067 -0.3895
 9446SOL    HW139800   4.358   3.627   7.904 -2.0684 -0.0432  1.9116
 9446SOL    HW239801   4.361   3.769   7.837 -0.5761 -0.4992 -0.5952
 9447SOL     OW39802   3.982   0.607   5.164 -0.0368  0.0562 -0.0859
 9447SOL    HW139803   3.996   0.534   5.103 -1.0493  2.4363 -3.1677
 9447SOL    HW239804   4.068   0.623   5.202  0.5340 -0.2943 -1.2258
 9448SOL     OW39805   2.788   1.350   6.723  0.4400  0.2851  0.7591
 9448SOL    HW139806   2.851   1.396   6.667  0.7658  1.8012  2.3423
 9448SOL    HW239807   2.848   1.305   6.783 -0.2395 -0.3637  0.9521
 9449SOL     OW39808   1.388   2.216   0.884 -0.0239 -0.0998  0.1617
 9449SOL    HW139809   1.471   2.232   0.840 -0.0968 -0.2043 -0.0140
 9449SOL    HW239810   1.390   2.125   0.913  1.8956 -0.0943  0.0500
 9450SOL     OW39811   2.401   0.015   0.059  0.6271 -0.2701  0.0057
 9450SOL    HW139812   2.377   4.645   0.035 -2.5827  0.4562  0.4942
 9450SOL    HW239813   2.413   0.050  17.654 -1.0272  0.5409  0.1119
 9451SOL     OW39814   1.565   3.493  16.839 -0.3817  0.2552 -0.4632
 9451SOL    HW139815   1.655   3.504  16.868 -0.1757  0.3361 -1.1249
 9451SOL    HW239816   1.560   3.398  16.839 -2.7524  0.3669 -3.3637
 9452SOL     OW39817   2.468   0.077   2.734  0.0346 -0.3049 -0.0701
 9452SOL    HW139818   2.505   4.711   2.753 -0.6289 -0.7067 -0.6135
 9452SOL    HW239819   2.377   0.058   2.711 -0.7084  3.4294 -0.1249
 9453SOL     OW39820   1.715   3.428   0.364  0.3968  0.0971  0.0709
 9453SOL    HW139821   1.702   3.419   0.459  0.0388  3.3475  0.3213
 9453SOL    HW239822   1.695   3.337   0.339 -0.2093 -0.0276  1.0279
 9454SOL     OW39823   4.592   4.578   5.830  0.3117  0.2137 -0.3330
 9454SOL    HW139824   4.527   4.571   5.900  0.4237  1.4675 -0.0996
 9454SOL    HW239825   4.669   4.604   5.881 -0.5273 -0.5887  1.3443
 9455SOL     OW39826   0.129   1.658   7.063 -0.1422  0.2110  0.7086
 9455SOL    HW139827   0.094   1.674   6.975 -1.3187  1.7976  1.4531
 9455SOL    HW239828   0.053   1.607   7.093 -2.1024  0.9795 -2.9005
 9456SOL     OW39829   0.464   3.741  13.822 -0.2500 -0.4844 -0.3734
 9456SOL    HW139830   0.374   3.726  13.850 -0.2665 -1.3528 -0.8714
 9456SOL    HW239831   0.491   3.653  13.796 -2.4733 -0.6899 -2.0171
 9457SOL     OW39832   4.695   1.148   0.226 -0.8440  0.2576 -0.3382
 9457SOL    HW139833   4.639   1.173   0.152  1.5611  1.8907 -1.6146
 9457SOL    HW239834   4.648   1.084   0.280 -2.6799  0.0874 -2.1380
 9458SOL     OW39835   4.364   4.601   3.509  0.2433  0.0788  1.1612
 9458SOL    HW139836   4.353   4.587   3.415  3.4785  0.7505  0.6699
 9458SOL    HW239837   4.294   4.550   3.550 -1.8422  1.7829 -0.2548
 9459SOL     OW39838   4.708   3.423   4.188 -0.1858  0.1423 -0.4660
 9459SOL    HW139839   4.619   3.427   4.153 -0.0056 -0.5398 -1.0027
 9459SOL    HW239840   4.686   3.374   4.267  1.2016 -0.0713 -0.2053
 9460SOL     OW39841   1.921   4.310   6.642 -0.2923  0.4600  0.3903
 9460SOL    HW139842   1.967   4.367   6.581 -0.4337  0.8535  0.6503
 9460SOL    HW239843   1.989   4.267   6.693 -0.6629 -0.8075 -0.1979
 9461SOL     OW39844   4.513   3.245   6.669  0.1978  0.0204  0.1232
 9461SOL    HW139845   4.482   3.286   6.588 -1.9136  0.6440  1.2362
 9461SOL    HW239846   4.607   3.234   6.654 -0.4977 -4.6257 -0.8880
 9462SOL     OW39847   1.288   0.114   5.816  0.2309 -0.4748 -0.1415
 9462SOL    HW139848   1.312   0.063   5.739 -0.6535 -0.9128 -0.1235
 9462SOL    HW239849   1.199   0.079   5.825 -0.5536  1.5626  0.1646
 9463SOL     OW39850   1.335   1.657  11.531  0.8090  0.1424  0.8711
 9463SOL    HW139851   1.267   1.601  11.569 -0.3452  0.9306 -0.0642
 9463SOL    HW239852   1.289   1.736  11.503  0.7064  0.3592  1.6587
 9464SOL     OW39853   0.447   1.868  12.247 -0.4492 -0.8342 -0.3485
 9464SOL    HW139854   0.475   1.956  12.271  0.6974 -1.4923  0.7539
 9464SOL    HW239855   0.419   1.837  12.333  2.5785 -0.6088  0.7313
 9465SOL     OW39856   3.228   3.807   1.684 -0.0589  0.1888  0.1744
 9465SOL    HW139857   3.195   3.759   1.607  0.2390 -0.1294  0.2470
 9465SOL    HW239858   3.319   3.783   1.665  0.5822  0.5429  2.9023
 9466SOL     OW39859   4.167   0.680   3.452  0.4624 -0.0433  0.5039
 9466SOL    HW139860   4.224   0.686   3.375  0.1634 -0.2341  0.2674
 9466SOL    HW239861   4.225   0.714   3.521 -0.8143  0.2086  1.4529
 9467SOL     OW39862   1.159   1.824   4.310 -0.2263 -0.6079  0.0452
 9467SOL    HW139863   1.174   1.779   4.393 -1.2120  2.0392  1.6245
 9467SOL    HW239864   1.084   1.878   4.334  0.9883  1.1438 -0.0867
 9468SOL     OW39865   0.310   3.169   7.439  0.6455 -0.0695 -0.6368
 9468SOL    HW139866   0.224   3.140   7.409  0.6605 -1.7140  0.8827
 9468SOL    HW239867   0.367   3.095   7.460  1.4616  0.7784  0.1535
 9469SOL     OW39868   0.283   2.659  14.037  0.2553 -0.4804  0.5096
 9469SOL    HW139869   0.190   2.674  14.053  0.2629  0.3740 -0.2032
 9469SOL    HW239870   0.314   2.750  14.033  0.4076 -0.4955  1.4106
 9470SOL     OW39871   1.528   3.853   2.776  0.4843 -0.0315  0.1843
 9470SOL    HW139872   1.508   3.935   2.732  2.6433 -0.5882 -1.8136
 9470SOL    HW239873   1.620   3.867   2.799  0.3682 -0.2939  0.8085
 9471SOL     OW39874   0.716   1.723   5.997  0.0355 -0.3834  0.2682
 9471SOL    HW139875   0.679   1.788   5.937 -0.8750 -0.7831  0.3897
 9471SOL    HW239876   0.696   1.638   5.957  0.0751 -0.0545 -0.4531
 9472SOL     OW39877   0.487   0.388  17.228  0.3292  0.0551 -0.0997
 9472SOL    HW139878   0.486   0.299  17.263  2.4205 -0.1318 -0.4679
 9472SOL    HW239879   0.557   0.426  17.282  0.4771 -1.1377  0.5540
 9473SOL     OW39880   3.740   3.413   2.550  0.1793 -0.1061  0.3891
 9473SOL    HW139881   3.760   3.435   2.641 -0.2012  0.3671  0.3556
 9473SOL    HW239882   3.734   3.501   2.513  0.1044  0.1187  0.9248
 9474SOL     OW39883   1.975   4.442   7.721  0.2568  0.9024  0.7994
 9474SOL    HW139884   2.055   4.494   7.709 -0.1322  2.0339  3.0576
 9474SOL    HW239885   1.914   4.504   7.759  3.2553  3.5047  1.3941
 9475SOL     OW39886   4.235   0.956  16.011 -0.1329 -0.6503  1.1278
 9475SOL    HW139887   4.147   0.984  16.032 -0.7586 -1.9893  0.3235
 9475SOL    HW239888   4.280   1.037  15.987 -1.3843 -1.1533 -2.9178
 9476SOL     OW39889   2.969   0.763   1.991 -0.2704 -0.0344  0.3431
 9476SOL    HW139890   2.892   0.817   2.009 -0.1549  0.8570 -1.7952
 9476SOL    HW239891   2.932   0.675   1.987  1.3189 -0.7174  0.5840
 9477SOL     OW39892   3.381   1.673  13.283 -0.6628  0.2488 -0.3192
 9477SOL    HW139893   3.351   1.684  13.193  1.8085  2.9010 -0.8083
 9477SOL    HW239894   3.441   1.747  13.286  0.1062 -0.2824 -2.8314
 9478SOL     OW39895   2.513   2.808   2.987 -0.3883  0.3285  0.6726
 9478SOL    HW139896   2.596   2.819   3.034 -0.9785 -1.2829  2.1186
 9478SOL    HW239897   2.540   2.748   2.917  1.3576  2.7911 -0.7436
 9479SOL     OW39898   2.151   2.856   8.247 -0.0226 -0.4471  0.1356
 9479SOL    HW139899   2.154   2.772   8.202 -0.5360 -0.0548 -0.6381
 9479SOL    HW239900   2.245   2.874   8.252 -0.1665  0.3619 -0.0201
 9480SOL     OW39901   4.271   3.981   7.657 -0.6220  0.2000 -0.2385
 9480SOL    HW139902   4.230   4.058   7.697  0.2056  0.6688 -0.2860
 9480SOL    HW239903   4.191   3.929   7.654 -1.6928  1.8174  0.2073
 9481SOL     OW39904   1.667   2.413   5.871 -0.7131 -0.8796 -0.3874
 9481SOL    HW139905   1.655   2.483   5.807  0.7201 -1.3177 -1.1215
 9481SOL    HW239906   1.599   2.350   5.845 -0.1805 -1.6786  0.1774
 9482SOL     OW39907   0.729   0.158   2.213 -0.8861 -0.7012 -0.4006
 9482SOL    HW139908   0.657   0.132   2.271  0.0967 -2.2934  0.0966
 9482SOL    HW239909   0.666   0.186   2.145 -1.3652  0.8106  0.6654
 9483SOL     OW39910   0.967   2.403   3.809 -0.1818 -0.0349  0.6401
 9483SOL    HW139911   1.051   2.444   3.831  1.3077 -2.0678 -1.3236
 9483SOL    HW239912   0.992   2.342   3.740 -0.6947  1.9358 -1.2903
 9484SOL     OW39913   1.762   2.176   1.070 -0.0524  1.0783 -0.1490
 9484SOL    HW139914   1.772   2.106   1.005  1.1236  0.2852  0.8710
 9484SOL    HW239915   1.741   2.239   1.001 -0.5885 -0.2498 -1.2096
 9485SOL     OW39916   2.739   3.277  11.960 -0.1783  0.1337 -0.2939
 9485SOL    HW139917   2.775   3.234  12.038 -4.4618 -1.1347  1.0200
 9485SOL    HW239918   2.653   3.308  11.989 -0.3274  0.0729 -0.6713
 9486SOL     OW39919   1.002   4.035   4.041  0.5029 -0.0220 -0.0876
 9486SOL    HW139920   1.080   4.057   3.989  0.1244  1.3803 -0.0595
 9486SOL    HW239921   0.978   4.126   4.055  2.4540  0.2999  1.1222
 9487SOL     OW39922   0.061   4.051   9.618 -0.5745  0.6270  0.2926
 9487SOL    HW139923   0.027   3.961   9.622 -1.6119  1.0727  1.4471
 9487SOL    HW239924   4.699   4.098   9.604  0.3180  1.8651 -0.6777
 9488SOL     OW39925   4.261   0.477   6.296 -0.6302  0.2358 -0.6237
 9488SOL    HW139926   4.259   0.447   6.387 -0.7853  0.2238 -0.6308
 9488SOL    HW239927   4.182   0.531   6.288 -0.9588 -0.1852 -0.2660
 9489SOL     OW39928   1.987   4.332   2.205 -0.3520  0.2195  0.5023
 9489SOL    HW139929   1.995   4.425   2.229 -0.5431  1.4748 -4.2877
 9489SOL    HW239930   2.053   4.331   2.136 -2.1576 -3.3967 -1.1718
 9490SOL     OW39931   1.104   1.544  15.092 -0.3613 -0.2117 -0.1713
 9490SOL    HW139932   1.055   1.594  15.026  0.4011  2.0341  0.9707
 9490SOL    HW239933   1.112   1.457  15.053 -2.3615 -0.8801  0.9419
 9491SOL     OW39934   2.399   1.785  12.349  0.0441  0.4713 -0.8766
 9491SOL    HW139935   2.418   1.868  12.393 -1.9178  0.0825  0.7284
 9491SOL    HW239936   2.306   1.769  12.367  0.3931  0.0641  0.5023
 9492SOL     OW39937   2.111   0.416   7.411  0.3698 -0.2818  0.9748
 9492SOL    HW139938   2.128   0.439   7.502 -4.1352 -0.8330  1.9996
 9492SOL    HW239939   2.016   0.400   7.411  0.4261 -0.6614  2.1679
 9493SOL     OW39940   3.790   0.891   7.979 -0.2038  0.2600  0.1756
 9493SOL    HW139941   3.838   0.815   8.014  0.4735  0.3633 -0.5248
 9493SOL    HW239942   3.737   0.916   8.055  0.5252  0.9047  0.4725
 9494SOL     OW39943   3.108   3.247  10.300  0.2036 -0.1763  0.3794
 9494SOL    HW139944   3.073   3.178  10.356 -3.4293  0.3548 -1.2026
 9494SOL    HW239945   3.068   3.316  10.352 -2.0110  0.0305 -1.6180
 9495SOL     OW39946   0.280   3.257  10.780  0.3905  0.2355  0.2646
 9495SOL    HW139947   0.345   3.316  10.818  0.6236 -0.1431  0.4520
 9495SOL    HW239948   0.232   3.241  10.862 -1.5930 -1.9113 -1.3095
 9496SOL     OW39949   4.579   1.053  12.576  0.2515 -0.2987  0.4354
 9496SOL    HW139950   4.543   1.140  12.566  1.1772 -0.0824 -0.9445
 9496SOL    HW239951   4.641   1.061  12.503  2.9037  3.0025  3.0522
 9497SOL     OW39952   0.040   4.604  13.119  0.2502  0.6600 -0.7416
 9497SOL    HW139953   4.668   4.618  13.098  0.3297  0.5408 -1.1590
 9497SOL    HW239954   0.065   4.581  13.030 -0.1457 -0.6748 -0.4993
 9498SOL     OW39955   2.644   1.435   6.938  0.6127 -0.3054  0.3266
 9498SOL    HW139956   2.680   1.353   6.973 -1.2882 -0.7834  1.1893
 9498SOL    HW239957   2.686   1.444   6.853 -0.8864  1.9558 -0.1690
 9499SOL     OW39958   4.051   1.145  12.770 -0.3606  0.1881  0.2740
 9499SOL    HW139959   4.126   1.091  12.745 -0.8082 -0.1024 -0.4465
 9499SOL    HW239960   4.100   1.226  12.785 -1.5422  0.9679  0.0137
 9500SOL     OW39961   1.091   4.395   7.683  0.0472  0.3596  0.4781
 9500SOL    HW139962   1.002   4.430   7.690 -1.1195 -2.8160  1.7758
 9500SOL    HW239963   1.127   4.422   7.768 -2.0204  1.6951  0.9271
 9501SOL     OW39964   3.279   3.656   4.296 -0.5396  0.5440 -0.0495
 9501SOL    HW139965   3.349   3.638   4.233 -2.0478 -1.6291 -1.1002
 9501SOL    HW239966   3.282   3.576   4.349 -1.0002  0.8410  0.4188
 9502SOL     OW39967   3.712   0.635   0.129  0.2787 -0.2681  0.3691
 9502SOL    HW139968   3.798   0.677   0.126  0.2283 -0.0988  1.4796
 9502SOL    HW239969   3.668   0.694   0.067  0.3032 -0.5838  0.0491
 9503SOL     OW39970   2.883   3.889  14.306  0.7626  0.2047 -0.0176
 9503SOL    HW139971   2.923   3.826  14.366 -0.2517  0.2910  0.7533
 9503SOL    HW239972   2.948   3.957  14.294 -1.1424  1.9278 -0.5348
 9504SOL     OW39973   0.459   0.879  10.465 -0.0204  0.3495  0.3347
 9504SOL    HW139974   0.441   0.893  10.372  1.5715 -0.5626 -0.1141
 9504SOL    HW239975   0.497   0.792  10.464  0.4145  0.5531 -1.2010
 9505SOL     OW39976   0.291   3.726   3.020  0.3906  0.3057  0.5516
 9505SOL    HW139977   0.267   3.766   2.937  0.9612 -1.2219 -0.3651
 9505SOL    HW239978   0.208   3.686   3.046  0.6501 -0.4341  0.2494
 9506SOL     OW39979   3.431   2.978  11.812  0.2334 -0.8212 -0.1694
 9506SOL    HW139980   3.507   3.021  11.852 -1.1703  1.2350  0.3554
 9506SOL    HW239981   3.372   2.967  11.887 -0.2299  1.7129 -0.1570
 9507SOL     OW39982   1.228   2.589  10.016 -0.2032  0.9258  0.5025
 9507SOL    HW139983   1.132   2.589  10.013 -0.1815  1.2386 -0.1580
 9507SOL    HW239984   1.251   2.535   9.941 -1.0383  0.5624  0.5041
 9508SOL     OW39985   1.168   2.448   4.223  0.9355  0.7852  0.2410
 9508SOL    HW139986   1.092   2.440   4.165  1.7611 -0.4632 -0.6571
 9508SOL    HW239987   1.241   2.415   4.171  0.0179 -0.5145 -0.2192
 9509SOL     OW39988   2.344   4.576  12.538 -0.6375  0.1213  0.5535
 9509SOL    HW139989   2.278   4.515  12.505 -0.4297  1.1682 -1.8279
 9509SOL    HW239990   2.342   4.641  12.468  0.2721  0.2654  0.6599
 9510SOL     OW39991   3.624   4.078   9.469 -0.0783  0.2308 -0.1793
 9510SOL    HW139992   3.693   4.141   9.489 -0.3543  0.7692 -0.9230
 9510SOL    HW239993   3.651   4.002   9.521  0.5975 -0.3501 -1.3601
 9511SOL     OW39994   1.457   2.640   3.983 -0.0842  0.0401  0.1647
 9511SOL    HW139995   1.395   2.713   3.985 -0.8882 -0.6607  1.1511
 9511SOL    HW239996   1.514   2.658   3.909 -0.1846  0.8463  0.2879
 9512SOL     OW39997   0.521   3.189   3.566 -0.3991  0.5679  0.8788
 9512SOL    HW139998   0.470   3.264   3.597 -1.4797  0.6334 -1.1049
 9512SOL    HW239999   0.463   3.114   3.572 -0.5200  0.6514  0.7489
 9513SOL     OW40000   3.472   2.238   7.864 -0.1371  0.1347 -0.2262
 9513SOL    HW140001   3.465   2.154   7.909 -0.8795 -0.6356 -1.7618
 9513SOL    HW240002   3.488   2.223   7.770 -0.0445 -0.4644 -0.1157
 9514SOL     OW40003   0.565   3.415   9.447 -0.1869 -0.2987  0.3208
 9514SOL    HW140004   0.506   3.406   9.522  1.1597  0.6553  1.5150
 9514SOL    HW240005   0.501   3.411   9.376  0.4435  1.0560 -0.3349
 9515SOL     OW40006   3.388   1.006   0.045  0.1111  0.3356  0.3064
 9515SOL    HW140007   3.411   0.929  17.676  0.1782  2.2744 -2.5433
 9515SOL    HW240008   3.463   1.062   0.022  0.8767 -0.4622  0.8621
 9516SOL     OW40009   1.945   0.962   2.058 -0.2600 -0.4242  0.4997
 9516SOL    HW140010   1.893   0.881   2.048  0.4752 -0.7564 -0.5780
 9516SOL    HW240011   1.914   1.007   2.137 -0.3730  1.6265 -0.7344
 9517SOL     OW40012   0.352   1.987  11.610  0.4801 -0.5086  0.1658
 9517SOL    HW140013   0.434   2.021  11.573  0.6573 -0.4811  0.5857
 9517SOL    HW240014   0.306   1.984  11.526  1.2180 -0.5114 -0.2420
 9518SOL     OW40015   1.368   0.550   6.435 -0.3996 -0.2029  0.0532
 9518SOL    HW140016   1.377   0.643   6.415  1.9253 -0.4847 -0.3087
 9518SOL    HW240017   1.444   0.507   6.395  0.4500  1.0424  0.3126
 9519SOL     OW40018   3.564   4.033   3.192 -0.1667 -0.1240 -0.7517
 9519SOL    HW140019   3.480   3.991   3.176  0.1935 -1.1046 -0.0936
 9519SOL    HW240020   3.564   4.001   3.282 -0.3158  0.6797 -0.4617
 9520SOL     OW40021   2.124   3.511  11.962  0.1883 -0.5441  0.3219
 9520SOL    HW140022   2.161   3.502  11.874 -1.6373 -1.7805 -0.3185
 9520SOL    HW240023   2.095   3.601  11.951  0.7830 -0.2621  1.0300
 9521SOL     OW40024   4.128   1.038   9.027  0.3585  0.3186 -0.0977
 9521SOL    HW140025   4.136   0.959   9.079 -0.3537  0.1579 -0.2309
 9521SOL    HW240026   4.108   1.106   9.091  1.0502  1.8943 -1.5407
 9522SOL     OW40027   2.320   4.718   6.298 -0.5479 -0.0857  0.5901
 9522SOL    HW140028   2.229   4.695   6.319 -0.9548  0.2588 -0.8165
 9522SOL    HW240029   2.339   0.029   6.387  1.4796  1.6226 -0.4584
 9523SOL     OW40030   0.544   0.912  10.188 -0.2559  0.3667  0.3180
 9523SOL    HW140031   0.518   1.003  10.177 -1.4877  0.3688  3.0973
 9523SOL    HW240032   0.564   0.883  10.100  0.0615 -2.1130  1.2047
 9524SOL     OW40033   1.449   2.511   6.644 -0.0093 -0.0585  0.9332
 9524SOL    HW140034   1.380   2.569   6.676  0.8468  0.2160  2.2982
 9524SOL    HW240035   1.516   2.576   6.628 -1.4064  1.4892  1.3331
 9525SOL     OW40036   3.727   2.961   4.015  0.1647  0.3766  0.7790
 9525SOL    HW140037   3.653   2.966   4.076 -0.3454 -1.6089  0.3085
 9525SOL    HW240038   3.728   2.866   4.012  0.7713  0.3719  1.2382
 9526SOL     OW40039   2.252   2.049   1.858  0.2788  0.6079 -0.0294
 9526SOL    HW140040   2.267   2.078   1.948  0.6015  0.9213 -0.1854
 9526SOL    HW240041   2.180   2.107   1.834 -2.4479 -2.9436 -0.3830
 9527SOL     OW40042   3.632   3.344   5.814  0.0402 -0.4206 -0.2663
 9527SOL    HW140043   3.606   3.252   5.810  0.8083 -0.6182 -0.7746
 9527SOL    HW240044   3.594   3.351   5.901 -0.9855 -0.8649 -0.6734
 9528SOL     OW40045   1.231   1.468  15.693  0.3656 -0.5858  0.4591
 9528SOL    HW140046   1.193   1.552  15.670  0.1737 -0.9556 -0.5919
 9528SOL    HW240047   1.302   1.466  15.629 -2.9227  0.3460 -3.2344
 9529SOL     OW40048   3.210   3.072  12.846  0.1381 -0.5762  0.0256
 9529SOL    HW140049   3.214   3.068  12.942 -2.2541  1.4737  0.2237
 9529SOL    HW240050   3.165   2.991  12.821 -0.4464 -0.2464 -0.0082
 9530SOL     OW40051   3.721   2.780  12.292  0.1168  0.6272  0.2727
 9530SOL    HW140052   3.779   2.725  12.240  0.0979  0.9065 -0.0420
 9530SOL    HW240053   3.678   2.834  12.225  0.7822  2.1405  1.0501
 9531SOL     OW40054   3.575   3.000   6.562  0.1293 -0.0831  0.4131
 9531SOL    HW140055   3.562   2.948   6.483 -2.1349  0.3960  0.4704
 9531SOL    HW240056   3.596   3.086   6.524 -0.7460 -0.9012 -1.9220
 9532SOL     OW40057   2.810   2.858   4.345 -0.2033 -0.2847 -0.6515
 9532SOL    HW140058   2.836   2.929   4.403  2.1051 -3.0203  1.6930
 9532SOL    HW240059   2.872   2.875   4.274  0.7836 -1.6242 -0.1220
 9533SOL     OW40060   3.825   3.346   2.827  0.0105  0.0383 -0.0678
 9533SOL    HW140061   3.890   3.275   2.826 -1.6497 -1.4883 -1.0854
 9533SOL    HW240062   3.751   3.286   2.816  0.8646 -1.0141 -0.1458
 9534SOL     OW40063   4.501   3.272   6.202 -0.5431  0.4161 -0.0637
 9534SOL    HW140064   4.544   3.188   6.187 -0.0803  1.0965 -2.5893
 9534SOL    HW240065   4.503   3.309   6.113  0.2653  3.0660  1.0531
 9535SOL     OW40066   3.612   2.527   5.413  0.1458 -0.2949 -0.1156
 9535SOL    HW140067   3.566   2.446   5.437  1.8033 -0.5945  2.0450
 9535SOL    HW240068   3.612   2.511   5.319 -0.2888  2.2699 -0.5336
 9536SOL     OW40069   1.577   2.366   1.816  0.1160 -0.5941 -0.0702
 9536SOL    HW140070   1.629   2.395   1.741  2.6688 -3.2329  0.6325
 9536SOL    HW240071   1.628   2.293   1.851  2.2234  1.2335  0.7089
 9537SOL     OW40072   2.006   3.644   6.690  0.3374 -0.0830 -0.4048
 9537SOL    HW140073   2.033   3.594   6.613 -0.0395 -0.5840 -0.2101
 9537SOL    HW240074   1.925   3.594   6.703 -1.0023  1.5477 -2.3551
 9538SOL     OW40075   0.296   3.758   4.797 -0.3917 -0.3261  0.2413
 9538SOL    HW140076   0.228   3.698   4.828 -0.9607  0.5092  0.6062
 9538SOL    HW240077   0.240   3.829   4.765 -0.1815  0.5968  1.9205
 9539SOL     OW40078   2.748   1.696   7.834  0.1951 -0.0083 -0.1001
 9539SOL    HW140079   2.719   1.647   7.757  1.9041 -1.3336  0.0925
 9539SOL    HW240080   2.843   1.697   7.825  0.2525  0.3696  0.5633
 9540SOL     OW40081   4.417   1.019   7.909 -0.0006  0.2594 -0.1571
 9540SOL    HW140082   4.474   0.990   7.837  1.5868 -1.1827  1.6737
 9540SOL    HW240083   4.439   0.968   7.987 -1.9997  1.8371  1.4305
 9541SOL     OW40084   3.669   2.674  16.728 -0.2952 -0.1665 -0.4773
 9541SOL    HW140085   3.691   2.681  16.636  0.5097 -0.3608 -0.3009
 9541SOL    HW240086   3.659   2.579  16.737 -0.7968 -0.3690 -3.1816
 9542SOL     OW40087   1.693   2.974  16.349  0.4258 -0.0389 -0.4361
 9542SOL    HW140088   1.624   3.024  16.305  1.2235  1.1601 -0.3007
 9542SOL    HW240089   1.761   3.039  16.365  0.6235 -0.3991  0.1990
 9543SOL     OW40090   4.631   4.225  16.576  0.0113 -0.2657  0.0863
 9543SOL    HW140091   4.586   4.190  16.499 -0.3901 -1.4617  0.8739
 9543SOL    HW240092   4.575   4.300  16.595 -0.8848 -0.4157 -1.9738
 9544SOL     OW40093   4.185   0.288   4.015  0.3170 -0.3789  0.6268
 9544SOL    HW140094   4.196   0.255   3.926 -0.9512  1.9275 -0.3905
 9544SOL    HW240095   4.268   0.253   4.046  1.1994  1.8133  0.7383
 9545SOL     OW40096   3.268   4.501   4.930 -0.1838 -0.1733 -0.1834
 9545SOL    HW140097   3.194   4.446   4.902  0.4840 -0.6839 -0.9244
 9545SOL    HW240098   3.219   4.583   4.935  0.2340  0.0505  0.1855
 9546SOL     OW40099   3.790   2.416   5.217 -0.0169 -0.4843 -0.8503
 9546SOL    HW140100   3.851   2.370   5.159 -0.2547 -0.6939 -0.9340
 9546SOL    HW240101   3.821   2.411   5.307 -3.0663 -1.5309  0.1367
 9547SOL     OW40102   4.094   2.305   1.622 -0.1417  0.8184 -0.1110
 9547SOL    HW140103   4.180   2.293   1.580 -0.0044 -0.3891  0.5254
 9547SOL    HW240104   4.107   2.305   1.717 -1.1158  0.3196  0.0120
 9548SOL     OW40105   1.979   0.002   8.682 -0.2000  0.0368 -0.7168
 9548SOL    HW140106   1.891   4.718   8.645 -0.1109  1.0476 -1.0418
 9548SOL    HW240107   1.982   4.643   8.736  1.8364  0.9589  0.5362
 9549SOL     OW40108   4.617   0.422   2.454  0.0907 -0.3162  0.0630
 9549SOL    HW140109   4.544   0.471   2.415  0.4096  0.4578  0.4480
 9549SOL    HW240110   4.570   0.357   2.506  0.3960  0.0598  0.8141
 9550SOL     OW40111   2.031   2.223  16.555  0.2485  0.2132  0.3074
 9550SOL    HW140112   1.959   2.242  16.615  0.3776 -0.8919  0.8120
 9550SOL    HW240113   2.024   2.127  16.558  0.7812  0.2071  1.1307
 9551SOL     OW40114   1.161   2.241  14.826 -0.0056 -0.0515  0.5163
 9551SOL    HW140115   1.191   2.287  14.905 -1.3571 -1.4686  1.8741
 9551SOL    HW240116   1.077   2.218  14.867 -0.8251 -0.9548 -1.7067
 9552SOL     OW40117   3.598   4.338   6.238 -0.4528 -0.2159 -0.5559
 9552SOL    HW140118   3.631   4.317   6.325 -1.9091 -0.5342 -0.0844
 9552SOL    HW240119   3.578   4.253   6.199 -0.4378  0.0319 -1.1046
 9553SOL     OW40120   2.104   0.082   2.886 -0.1513 -0.0826 -0.5913
 9553SOL    HW140121   2.129   0.158   2.833 -0.8155 -0.0290 -0.8239
 9553SOL    HW240122   2.013   0.098   2.911  0.0021 -0.2156  0.0636
 9554SOL     OW40123   0.667   1.608   3.586  0.7538  0.2375 -0.2473
 9554SOL    HW140124   0.690   1.599   3.678 -1.4420 -0.5552  0.2301
 9554SOL    HW240125   0.611   1.531   3.573  0.7428  0.0416  0.9559
 9555SOL     OW40126   1.391   3.720   7.059 -0.6792 -0.4244 -0.0256
 9555SOL    HW140127   1.443   3.643   7.041  0.8505  0.5138  0.4206
 9555SOL    HW240128   1.339   3.724   6.979  0.6722 -1.0852 -0.9162
 9556SOL     OW40129   3.768   2.820   3.372  0.3311  0.0632  0.3491
 9556SOL    HW140130   3.779   2.873   3.294  0.6095 -2.7104 -1.4768
 9556SOL    HW240131   3.832   2.868   3.425 -1.3075  2.2846  0.3044
 9557SOL     OW40132   1.002   2.140   3.127  0.2996 -0.4338  0.7454
 9557SOL    HW140133   1.068   2.155   3.059 -1.6350 -1.3166 -1.3409
 9557SOL    HW240134   1.049   2.177   3.202  1.4810  0.3707 -0.3969
 9558SOL     OW40135   3.187   2.361  11.636 -0.0075 -0.3328  0.2125
 9558SOL    HW140136   3.119   2.421  11.605 -0.4997 -0.4612  1.0212
 9558SOL    HW240137   3.154   2.332  11.722  2.0561 -1.0525  0.7515
 9559SOL     OW40138   2.624   1.188   0.525  0.0554 -0.3570 -0.2714
 9559SOL    HW140139   2.535   1.155   0.515 -0.4119  0.1459  2.2678
 9559SOL    HW240140   2.647   1.216   0.436  0.4916 -2.6782 -0.8794
 9560SOL     OW40141   1.901   3.508   3.072  0.5556  0.0592  0.3621
 9560SOL    HW140142   1.892   3.589   3.023 -0.0658 -1.1787 -1.5595
 9560SOL    HW240143   1.865   3.537   3.156 -0.2126 -0.0716  0.0689
 9561SOL     OW40144   1.751   4.663  14.838  0.2038 -0.1669  0.7373
 9561SOL    HW140145   1.753   4.571  14.863  0.6660  0.0240  1.4013
 9561SOL    HW240146   1.794   4.650  14.753 -0.0656  1.5685  0.3308
 9562SOL     OW40147   2.833   3.611  17.212 -0.5116  0.0619  0.5419
 9562SOL    HW140148   2.910   3.593  17.159  0.8544  5.0281  0.8521
 9562SOL    HW240149   2.860   3.681  17.271  2.9858 -2.2106  1.6277
 9563SOL     OW40150   1.539   3.648   4.199 -0.1205  0.3416  0.1643
 9563SOL    HW140151   1.624   3.636   4.240 -0.3432 -0.5897  0.3493
 9563SOL    HW240152   1.481   3.674   4.271  2.1212  1.6583  1.5040
 9564SOL     OW40153   0.158   0.527   1.019 -0.0731 -0.2066 -0.2754
 9564SOL    HW140154   0.163   0.557   0.928 -1.4678 -1.6213 -0.8132
 9564SOL    HW240155   0.225   0.586   1.055 -0.7279 -0.4397  1.3404
 9565SOL     OW40156   3.598   1.971   8.034 -0.0595  0.2089  0.3671
 9565SOL    HW140157   3.609   1.890   7.984  0.4046  0.0183  0.7843
 9565SOL    HW240158   3.687   1.986   8.063 -0.1942  2.3648 -0.3699
 9566SOL     OW40159   0.883   1.663   2.582  0.0112 -0.1310 -0.0061
 9566SOL    HW140160   0.932   1.732   2.536  0.5570 -1.8443 -2.0508
 9566SOL    HW240161   0.901   1.694   2.670  1.4111  0.4223 -0.4777
 9567SOL     OW40162   4.555   0.614  12.242  0.0789 -0.3945  0.5535
 9567SOL    HW140163   4.542   0.521  12.223  3.1516 -0.2826 -2.0089
 9567SOL    HW240164   4.590   0.635  12.155 -1.5018 -3.7665 -0.9109
 9568SOL     OW40165   2.521   1.632  15.575  0.0619 -0.4268 -0.5004
 9568SOL    HW140166   2.563   1.692  15.513  3.1222 -1.5665  0.4671
 9568SOL    HW240167   2.457   1.585  15.522  1.0233  0.3666 -2.3808
   4.71998   4.71998  17.68259
