Membrane in water
40167
    1TCq1    O1    1   0.242   2.353  11.071 -0.5703  0.9428  0.5071
    1TCq1    C1    2   0.233   2.218  11.046  0.2741 -0.4044 -0.1239
    1TCq1    O2    3   0.181   2.169  10.946 -0.6238  0.1661 -0.2477
    1TCq1    C2    4   0.238   2.150  11.175  0.3719  0.0123 -0.2902
    1TCq1    C3    5   0.324   2.190  11.277  0.3054  0.9031  0.5018
    1TCq1    C4    6   0.302   2.128  11.398 -0.2180 -0.1711  0.5721
    1TCq1    C5    7   0.215   2.033  11.422  0.4348 -0.5239 -0.6151
    1TCq1    C6    8   0.141   1.990  11.318 -0.1329  0.4492 -0.3172
    1TCq1    C7    9   0.148   2.045  11.193 -0.4569  0.4243 -0.1725
    1TCq1    C8   10   0.068   1.861  11.333  0.3690 -0.1823 -0.6509
    1TCq1    O4   11   0.029   1.830  11.445 -0.0932  0.2108  0.2230
    1TCq1    C9   12   0.382   2.167  11.508  0.5971  0.0574 -0.2137
    1TCq1    O5   13   0.350   2.109  11.613  0.6623  0.1936 -0.8533
    1TCq1    O6   14   0.438   2.278  11.512 -0.0186  0.1569  0.0184
    1TCq1    H1   15   0.295   2.393  11.143  2.1423 -1.3514 -0.2488
    1TCq1    H2   16   0.397   2.270  11.267  0.8963  0.3002 -0.0064
    1TCq1    H3   17   0.204   1.990  11.520  0.6637  2.0704  0.5564
    1TCq1    H4   18   0.090   2.012  11.108  0.5487  1.2925 -1.1915
    2MPD2     C   19   0.044   1.365  11.209 -0.7077  0.7582  0.2043
    2MPD2    C1   20   0.027   1.427  11.325 -0.3167  0.5715  0.1326
    2MPD2    C2   21   0.026   1.566  11.330 -0.1162 -0.7173 -0.0200
    2MPD2    C3   22   0.065   1.642  11.220 -0.0221  0.3677 -0.2476
    2MPD2    C4   23   0.088   1.575  11.103  0.6469  0.0190  0.4431
    2MPD2    C5   24   0.071   1.438  11.096 -0.2779 -0.1272  0.7734
    2MPD2     H   25   0.013   1.601  11.432  0.2823 -0.2177 -0.1423
    2MPD2    H1   26   0.099   1.631  11.011  0.7506  0.0886  0.4965
    2MPD2    H2   27   0.038   1.257  11.204 -0.6371  0.6961  1.2837
    2MPD2    H3   28   0.081   1.384  11.003  0.5574  0.9898  0.2161
    2MPD2     N   29   0.090   1.778  11.227 -0.1016  0.8295  0.1446
    2MPD2    H5   30   0.148   1.811  11.151 -0.1307  1.1456  0.2596
    2MPD2    N1   31   0.007   1.365  11.451 -0.0832  0.3870 -0.5855
    2MPD2    H7   32   4.692   1.421  11.527  1.7540 -1.5475  1.6862
    3TCq1    O1   33   4.616   1.782   9.986 -0.5628  0.6142 -0.0170
    3TCq1    C1   34   4.496   1.749   9.936  0.5128  0.4753 -0.1259
    3TCq1    O2   35   4.446   1.640   9.935 -0.5434 -0.5994 -0.2241
    3TCq1    C2   36   4.420   1.860   9.968  0.1760  0.0687 -0.5598
    3TCq1    C3   37   4.469   1.987   9.952  0.1656 -0.6961 -0.5675
    3TCq1    C4   38   4.382   2.089   9.949 -0.4775 -0.0256  0.1758
    3TCq1    C5   39   4.242   2.067   9.962  0.3667  0.5240 -0.9030
    3TCq1    C6   40   4.201   1.944  10.000  0.4138  0.1978  0.6920
    3TCq1    C7   41   4.290   1.841  10.011 -0.0525  0.4612 -0.4408
    3TCq1    C8   42   4.065   1.916  10.049  0.2290 -0.9273 -0.2683
    3TCq1    O4   43   4.028   1.799  10.051 -0.0296  0.0990 -0.0456
    3TCq1    C9   44   4.420   2.216   9.896 -0.8389 -0.0916  0.4370
    3TCq1    O5   45   4.493   2.221   9.792 -0.8712  0.2337 -0.0666
    3TCq1    O6   46   4.343   2.308   9.923  0.0539 -0.2311 -0.3028
    3TCq1    H1   47   4.619   1.875  10.016  1.4570  1.0239 -1.4685
    3TCq1    H2   48   4.569   2.007   9.914  1.0272 -2.0259  0.9858
    3TCq1    H3   49   4.166   2.145   9.961  2.1184  2.2253 -0.5794
    3TCq1    H4   50   4.255   1.744  10.043 -1.2927  1.2428  0.5686
    4MPD2     C   51   3.640   2.064  10.295 -0.4921 -0.2683 -0.2749
    4MPD2    C1   52   3.729   2.169  10.290 -0.2402 -0.2149  0.1289
    4MPD2    C2   53   3.847   2.160  10.215  0.7360 -0.6753  0.1122
    4MPD2    C3   54   3.874   2.040  10.154  0.4078  0.1225  0.0601
    4MPD2    C4   55   3.789   1.932  10.170 -0.5678  0.2367 -0.6930
    4MPD2    C5   56   3.673   1.947  10.240  0.0539  0.3653 -0.1987
    4MPD2     H   57   3.913   2.245  10.201  0.1454 -0.0868  0.9202
    4MPD2    H1   58   3.811   1.835  10.127  0.5613 -0.1911  0.8689
    4MPD2    H2   59   3.541   2.077  10.337 -0.3514 -1.0331  0.2999
    4MPD2    H3   60   3.608   1.860  10.244  0.0457  0.4819  2.1062
    4MPD2     N   61   4.001   2.024  10.091  0.0414 -0.0164  0.0183
    4MPD2    H5   62   4.041   2.118  10.090 -0.2537  0.1486  2.0288
    4MPD2    N1   63   3.692   2.298  10.334  0.0075  0.1276 -0.1359
    4MPD2    H7   64   3.741   2.380  10.299  0.3136  1.6401  3.8006
    5TCq1    O1   65   0.147   4.053  11.784  0.3147  0.4359  0.0505
    5TCq1    C1   66   0.162   3.984  11.669 -0.2445 -0.0793 -0.2090
    5TCq1    O2   67   0.266   3.935  11.634 -0.0571  0.1437 -0.2588
    5TCq1    C2   68   0.056   4.007  11.575  0.3428 -0.2335  0.2775
    5TCq1    C3   69   4.656   4.044  11.625  0.7707 -0.0563  0.7487
    5TCq1    C4   70   4.547   4.050  11.546 -0.0840 -0.1960 -1.2942
    5TCq1    C5   71   4.558   4.037  11.413  0.3431  0.8505  0.2551
    5TCq1    C6   72   4.684   4.004  11.364 -0.9059 -0.0090  0.3500
    5TCq1    C7   73   0.072   3.994  11.442 -0.1364  0.0529  0.3984
    5TCq1    C8   74   4.710   4.001  11.219 -0.5042  0.8052  0.0142
    5TCq1    O4   75   0.075   3.925  11.176  0.0661 -0.8440  0.3162
    5TCq1    C9   76   4.421   4.056  11.599  0.0462  0.2730  0.5751
    5TCq1    O5   77   4.406   4.036  11.723  0.3558  0.1323  0.2233
    5TCq1    O6   78   4.329   4.057  11.507  0.2233  0.2657 -0.1701
    5TCq1    H1   79   0.067   4.110  11.782 -0.4428 -0.5488  1.9601
    5TCq1    H2   80   4.635   4.030  11.730  2.4395  0.6369  1.1685
    5TCq1    H3   81   4.476   4.016  11.344 -2.7354  4.0668  2.9521
    5TCq1    H4   82   0.168   3.990  11.391 -0.2067  0.0590  0.2648
    6MPD2     C   83   4.496   4.203  11.000  0.6356  0.2511  0.5293
    6MPD2    C1   84   4.600   4.121  11.033  0.4472 -0.0219 -0.5688
    6MPD2    C2   85   4.669   4.053  10.934 -0.3205 -0.0011  0.7313
    6MPD2    C3   86   4.626   4.057  10.805  0.3908 -0.3577 -0.3483
    6MPD2    C4   87   4.533   4.152  10.775  0.3313  0.8469  0.0939
    6MPD2    C5   88   4.465   4.222  10.870 -0.1685 -0.2591  0.4394
    6MPD2     H   89   0.016   3.970  10.954 -0.2345 -0.0562  0.2223
    6MPD2    H1   90   4.497   4.180  10.676 -1.1291  2.0720  0.9852
    6MPD2    H2   91   4.446   4.271  11.068  0.1744  1.1557 -0.7266
    6MPD2    H3   92   4.390   4.294  10.840 -0.3980 -0.1115  1.3883
    6MPD2     N   93   4.688   3.966  10.715  0.2123  0.1060 -0.0760
    6MPD2    H5   94   0.043   3.909  10.753  0.5011  0.1960 -0.5223
    6MPD2    N1   95   4.629   4.100  11.167 -0.2502 -0.6306 -0.1361
    6MPD2    H7   96   4.577   4.156  11.234 -0.9812  0.2870 -1.4740
    7TCq1    O1   97   1.585   2.988  12.855 -0.4107  0.6345  0.1942
    7TCq1    C1   98   1.621   2.971  12.986 -0.3191  0.0766  0.9196
    7TCq1    O2   99   1.630   3.059  13.066 -0.1403  0.0848  0.1387
    7TCq1    C2  100   1.691   2.848  13.013 -0.5529  0.2101 -0.7698
    7TCq1    C3  101   1.628   2.736  12.960  0.1981  0.2715 -0.4286
    7TCq1    C4  102   1.674   2.609  12.993 -0.7654 -0.1482 -0.0094
    7TCq1    C5  103   1.785   2.599  13.069 -0.2048  0.2117  0.9866
    7TCq1    C6  104   1.848   2.716  13.119 -0.5522  0.2995  0.2278
    7TCq1    C7  105   1.800   2.841  13.098 -0.3468  0.3229 -0.6696
    7TCq1    C8  106   1.973   2.694  13.194  0.0597  0.3096  0.3512
    7TCq1    O4  107   2.006   2.577  13.210 -0.2961  0.8462  0.2568
    7TCq1    C9  108   1.616   2.493  12.935  0.3561 -0.4281 -1.1128
    7TCq1    O5  109   1.655   2.382  12.974 -0.2559  0.1742 -0.2740
    7TCq1    O6  110   1.541   2.501  12.833 -0.0242  0.2167 -0.2291
    7TCq1    H1  111   1.584   2.902  12.808  0.5730  0.2011  0.9776
    7TCq1    H2  112   1.542   2.756  12.896  0.3778  0.7362 -0.5244
    7TCq1    H3  113   1.820   2.497  13.078  1.1994  0.6122  0.0061
    7TCq1    H4  114   1.856   2.930  13.127 -2.9763  1.3322  1.2928
    8MPD2     C  115   2.439   2.823  13.349  0.5613  0.1836  0.5866
    8MPD2    C1  116   2.376   2.702  13.336  0.1139  0.5738 -0.2615
    8MPD2    C2  117   2.247   2.698  13.290  0.2175 -0.2769 -0.1593
    8MPD2    C3  118   2.183   2.807  13.241  0.0992 -0.3464 -0.5370
    8MPD2    C4  119   2.247   2.929  13.236 -0.6403  0.1266  0.4277
    8MPD2    C5  120   2.370   2.936  13.305 -0.0354 -0.3130  0.0463
    8MPD2     H  121   2.202   2.599  13.293  2.5675 -1.3898 -1.1527
    8MPD2    H1  122   2.208   3.027  13.210  0.1366  0.3050 -0.0707
    8MPD2    H2  123   2.537   2.831  13.394  0.9561  2.6425 -0.6979
    8MPD2    H3  124   2.420   3.031  13.320  0.0028 -0.5081  1.1750
    8MPD2     N  125   2.050   2.803  13.198 -0.1161 -0.7059 -0.7334
    8MPD2    H5  126   2.020   2.881  13.140  3.3049  0.0345 -1.4895
    8MPD2    N1  127   2.454   2.588  13.372  0.0912 -0.3877 -0.2283
    8MPD2    H7  128   2.541   2.604  13.422  0.5674 -1.4106 -0.7266
    9TCq1    O1  129   4.669   2.229  10.133 -0.2756  0.1080  0.0742
    9TCq1    C1  130   4.687   2.096  10.168 -0.4508 -0.1707 -0.4003
    9TCq1    O2  131   0.009   2.007  10.097 -0.1508  0.4614 -0.0716
    9TCq1    C2  132   4.701   2.102  10.308 -0.4202 -0.0489  0.9674
    9TCq1    C3  133   0.097   2.072  10.371 -0.4046 -0.1478 -0.2100
    9TCq1    C4  134   0.110   2.093  10.503  0.4954  0.0236 -0.5725
    9TCq1    C5  135   4.718   2.125  10.580 -0.2803 -0.1414  0.1167
    9TCq1    C6  136   4.604   2.149  10.511  0.6100  0.1315  0.5679
    9TCq1    C7  137   4.593   2.135  10.379  0.4698 -0.0246 -0.1447
    9TCq1    C8  138   4.484   2.196  10.585 -0.5732 -0.5909 -0.7760
    9TCq1    O4  139   4.400   2.255  10.516 -0.0618  0.2025 -0.4248
    9TCq1    C9  140   0.232   2.067  10.572 -0.6158  0.1262 -0.3864
    9TCq1    O5  141   0.238   2.096  10.692  0.0399 -0.1102  0.0672
    9TCq1    O6  142   0.333   2.029  10.508  0.1856 -0.1829  0.1373
    9TCq1    H1  143   4.657   2.286  10.213  0.5922  2.1443 -1.2257
    9TCq1    H2  144   0.183   2.043  10.312  1.0015 -3.0788  3.2639
    9TCq1    H3  145   0.000   2.139  10.687 -0.9832 -1.2229  0.2794
    9TCq1    H4  146   4.499   2.160  10.331  0.1003 -2.6098 -0.7826
   10MPD2     C  147   4.275   2.270  10.786 -0.8390 -0.4512  0.2223
   10MPD2    C1  148   4.384   2.191  10.808 -0.5557  0.0377  0.2272
   10MPD2    C2  149   4.396   2.130  10.928  0.3689  0.1745 -0.6378
   10MPD2    C3  150   4.316   2.161  11.033  0.5130  0.3966  1.0830
   10MPD2    C4  151   4.204   2.248  11.012 -0.3767  0.5119 -0.0971
   10MPD2    C5  152   4.186   2.306  10.889 -0.3117  0.1208 -0.0828
   10MPD2     H  153   4.480   2.063  10.943 -0.5037 -0.7466  0.1097
   10MPD2    H1  154   4.129   2.269  11.088 -0.0081  3.4683 -0.5313
   10MPD2    H2  155   4.277   2.330  10.695  1.3228 -1.4845 -0.4295
   10MPD2    H3  156   4.113   2.382  10.864  1.3674  1.2832 -1.4357
   10MPD2     N  157   4.334   2.118  11.165  1.0956  0.1980  0.3791
   10MPD2    H5  158   4.258   2.128  11.232  0.1432  0.3556 -0.7347
   10MPD2    N1  159   4.488   2.165  10.718  0.6089 -0.3441 -0.1604
   10MPD2    H7  160   4.561   2.105  10.755 -0.3118 -1.1976  0.2599
   11TCq1    O1  161   0.882   2.999  13.804  0.4677 -0.1003  0.0834
   11TCq1    C1  162   0.755   2.996  13.854 -0.8491  0.1433 -0.2335
   11TCq1    O2  163   0.657   3.065  13.824 -0.1793 -0.3565  0.5458
   11TCq1    C2  164   0.752   2.907  13.967  0.3719 -0.0762  0.1112
   11TCq1    C3  165   0.861   2.842  14.011  0.0361 -0.4372 -0.2489
   11TCq1    C4  166   0.842   2.734  14.092 -0.4705  0.3294  0.4633
   11TCq1    C5  167   0.721   2.686  14.116 -0.0292  0.6714 -0.2616
   11TCq1    C6  168   0.612   2.754  14.079  0.0449 -0.1016  0.1476
   11TCq1    C7  169   0.623   2.869  14.001  0.1545 -0.0753  0.1159
   11TCq1    C8  170   0.486   2.682  14.047 -0.7522 -0.5718  0.0323
   11TCq1    O4  171   0.380   2.734  14.041  0.5848  0.2007  0.0427
   11TCq1    C9  172   0.961   2.655  14.125 -0.3253  0.5737  0.5234
   11TCq1    O5  173   1.072   2.694  14.071 -0.1454  0.0596 -0.1329
   11TCq1    O6  174   0.930   2.539  14.177  0.5975  0.0588 -0.3452
   11TCq1    H1  175   0.943   2.926  13.828  0.7902  0.2805  0.4225
   11TCq1    H2  176   0.960   2.875  13.983  0.2056 -0.5100  0.2699
   11TCq1    H3  177   0.698   2.598  14.176 -0.8686  1.6111  0.7927
   11TCq1    H4  178   0.529   2.906  13.961 -0.9757 -2.2091  0.8364
   12MPD2     C  179   0.280   2.483  13.976 -0.5212 -0.3576  0.4188
   12MPD2    C1  180   0.417   2.455  13.973  0.3164  0.6002  0.2357
   12MPD2    C2  181   0.468   2.335  13.916  0.0935  0.1200  0.2335
   12MPD2    C3  182   0.373   2.246  13.862  0.4165 -0.5706  0.5053
   12MPD2    C4  183   0.232   2.271  13.873 -0.9661  0.1243 -0.5255
   12MPD2    C5  184   0.186   2.387  13.928  0.2575 -1.2989  0.3039
   12MPD2     H  185   0.573   2.319  13.896 -0.1864 -0.5849 -0.6654
   12MPD2    H1  186   0.165   2.192  13.842  1.0472 -1.6469 -0.3813
   12MPD2    H2  187   0.235   2.569  14.024  0.8600  0.1228  0.8541
   12MPD2    H3  188   0.080   2.398  13.947 -0.0271 -0.5330 -1.7657
   12MPD2     N  189   0.421   2.139  13.789 -0.6679 -0.1494  0.3065
   12MPD2    H5  190   0.521   2.135  13.770 -0.3828  2.7734  1.2781
   12MPD2    N1  191   0.513   2.548  14.017 -0.6824  0.3302  0.0604
   12MPD2    H7  192   0.611   2.519  14.016 -0.8493 -0.1261 -1.9408
   13TCq1    O1  193   0.482   2.035  10.815 -0.0713  0.1311  0.3871
   13TCq1    C1  194   0.546   1.915  10.803  0.3005 -0.6714  0.2268
   13TCq1    O2  195   0.661   1.901  10.842 -0.3341 -0.2113  0.4767
   13TCq1    C2  196   0.468   1.821  10.722 -0.6720 -0.1310  0.0474
   13TCq1    C3  197   0.536   1.748  10.632  0.4949  0.2722  0.3450
   13TCq1    C4  198   0.462   1.671  10.543  0.9610  0.0593 -0.0635
   13TCq1    C5  199   0.329   1.656  10.558 -0.1655 -0.5320 -0.7423
   13TCq1    C6  200   0.263   1.722  10.652 -0.1905 -0.9111  0.5958
   13TCq1    C7  201   0.328   1.810  10.738 -0.5828 -0.6455 -0.2302
   13TCq1    C8  202   0.120   1.734  10.651  0.8942 -0.1290  0.1040
   13TCq1    O4  203   0.061   1.760  10.749  0.4207 -0.3244  0.0274
   13TCq1    C9  204   0.527   1.596  10.435  0.0499 -0.1041 -0.4397
   13TCq1    O5  205   0.649   1.611  10.418  0.2766 -0.1190 -0.0014
   13TCq1    O6  206   0.449   1.544  10.353 -0.3165 -0.1308 -0.2104
   13TCq1    H1  207   0.397   2.038  10.765  0.3735 -2.1396 -0.5206
   13TCq1    H2  208   0.643   1.764  10.627  0.6946 -0.4178  2.5969
   13TCq1    H3  209   0.286   1.574  10.501 -0.0355 -2.0615  1.3388
   13TCq1    H4  210   0.277   1.860  10.820 -0.2753  0.0187 -0.4506
   14MPD2     C  211   4.621   1.722  10.349 -0.2166 -0.0010 -0.0112
   14MPD2    C1  212   4.649   1.746  10.480  0.5818 -0.1270 -0.8005
   14MPD2    C2  213   4.550   1.779  10.570  0.4365 -0.2474  0.4838
   14MPD2    C3  214   4.417   1.811  10.531 -0.6119 -0.3676 -0.7244
   14MPD2    C4  215   4.387   1.776  10.398 -0.1290  0.3140 -0.4328
   14MPD2    C5  216   4.491   1.721  10.318 -0.2838  0.1340 -0.0733
   14MPD2     H  217   4.573   1.803  10.674 -1.0548  1.4271  0.4236
   14MPD2    H1  218   4.292   1.788  10.349 -0.1599  0.8737 -0.2325
   14MPD2    H2  219   4.697   1.696  10.278  0.0326  0.3461  0.1252
   14MPD2    H3  220   4.474   1.697  10.214  0.0773 -0.2572 -0.0407
   14MPD2     N  221   4.325   1.859  10.632  0.5499  0.1640 -0.6458
   14MPD2    H5  222   4.357   1.890  10.723 -1.0321  0.2889 -0.1359
   14MPD2    N1  223   0.068   1.732  10.522  0.0473  0.0402  0.2161
   14MPD2    H7  224   0.137   1.725  10.448 -0.6787 -3.2867 -0.1696
   15TCq1    O1  225   2.197   1.114   2.036  0.6414  0.3739 -0.1342
   15TCq1    C1  226   2.228   1.239   2.067  0.6320  1.3144 -0.1326
   15TCq1    O2  227   2.179   1.322   2.138 -0.3983  0.2401 -0.0478
   15TCq1    C2  228   2.349   1.265   1.985 -0.2497 -0.2408 -0.7308
   15TCq1    C3  229   2.452   1.331   2.049 -0.1988  0.4854  0.2282
   15TCq1    C4  230   2.575   1.336   1.989 -0.5577  0.3671  0.3773
   15TCq1    C5  231   2.603   1.266   1.877  0.0864  0.3268 -0.0458
   15TCq1    C6  232   2.500   1.194   1.823 -0.2808 -0.6670 -0.1652
   15TCq1    C7  233   2.370   1.190   1.871  0.3714 -0.1147  0.2528
   15TCq1    C8  234   2.530   1.135   1.698  0.0789  0.7303 -0.1788
   15TCq1    O4  235   2.639   1.084   1.677  0.5757  0.0528  0.6719
   15TCq1    C9  236   2.675   1.427   2.042  0.3253 -0.5180  0.1687
   15TCq1    O5  237   2.767   1.459   1.961 -0.6537 -0.1603  0.1906
   15TCq1    O6  238   2.676   1.439   2.168  0.0881  1.2656  0.5973
   15TCq1    H1  239   2.271   1.059   2.004 -0.5313 -0.7655 -0.8576
   15TCq1    H2  240   2.459   1.385   2.142  0.4954 -1.2650  1.2010
   15TCq1    H3  241   2.700   1.273   1.829 -0.0465  2.6866  0.0318
   15TCq1    H4  242   2.305   1.120   1.821 -0.6392  0.2345  1.0692
   16MPD2     C  243   2.312   1.105   1.398 -0.0613 -0.9513 -0.1531
   16MPD2    C1  244   2.420   1.075   1.477 -0.0260  0.1395  0.2772
   16MPD2    C2  245   2.506   0.978   1.437 -0.0950  0.3637 -0.4061
   16MPD2    C3  246   2.493   0.911   1.315  0.5897 -0.4076  0.3922
   16MPD2    C4  247   2.386   0.944   1.239  0.5724 -0.0767  0.3456
   16MPD2    C5  248   2.298   1.041   1.277  0.4100  0.8785  0.4340
   16MPD2     H  249   2.590   0.938   1.492  0.5913 -1.0589 -2.5202
   16MPD2    H1  250   2.369   0.890   1.147 -0.2547 -0.1093  0.5171
   16MPD2    H2  251   2.235   1.176   1.425 -0.6271 -2.0010  0.9964
   16MPD2    H3  252   2.213   1.066   1.214 -0.1476  2.6495  1.8705
   16MPD2     N  253   2.586   0.806   1.281  0.5604 -0.0117 -0.0704
   16MPD2    H5  254   2.673   0.795   1.332  0.6057 -0.1918 -0.1831
   16MPD2    N1  255   2.432   1.145   1.601  0.1132 -0.4191 -0.0470
   16MPD2    H7  256   2.353   1.200   1.634 -0.6732 -0.5330 -1.7236
   17TCq1    O1  257   3.289   1.414  10.438  0.2348  0.2440 -0.2232
   17TCq1    C1  258   3.329   1.523  10.509 -0.0336 -1.0209  0.9742
   17TCq1    O2  259   3.290   1.550  10.623 -0.1960  0.5485  0.0927
   17TCq1    C2  260   3.454   1.583  10.458 -0.2831  0.3332  0.1734
   17TCq1    C3  261   3.494   1.569  10.328  0.6921  0.1171 -0.1747
   17TCq1    C4  262   3.620   1.608  10.302 -0.5243 -0.1487  0.6044
   17TCq1    C5  263   3.708   1.649  10.397 -0.4053 -0.1128 -0.4727
   17TCq1    C6  264   3.659   1.659  10.527 -0.3387 -0.1815  0.1894
   17TCq1    C7  265   3.528   1.640  10.559  0.3020  0.4770  0.9438
   17TCq1    C8  266   3.752   1.666  10.638 -0.5593 -0.5523  0.2036
   17TCq1    O4  267   3.710   1.700  10.748  0.0425  0.0826  0.2311
   17TCq1    C9  268   3.665   1.605  10.166  0.3849  0.2751  0.6027
   17TCq1    O5  269   3.579   1.593  10.081  0.2865  0.0691 -0.0017
   17TCq1    O6  270   3.787   1.585  10.154  0.2265  0.2445  0.2356
   17TCq1    H1  271   3.350   1.384  10.367 -1.9228  1.0198 -2.3726
   17TCq1    H2  272   3.435   1.524  10.249 -0.5831 -0.4495  1.0998
   17TCq1    H3  273   3.805   1.686  10.367 -0.8710  1.1855 -0.3698
   17TCq1    H4  274   3.497   1.631  10.663  0.7305  1.0557  1.1220
   18MPD2     C  275   3.993   1.620  10.834  0.7005 -0.4275  0.5547
   18MPD2    C1  276   3.986   1.591  10.696 -0.2634 -0.5975 -0.7946
   18MPD2    C2  277   4.091   1.538  10.636 -0.1102 -0.1039 -0.2125
   18MPD2    C3  278   4.209   1.514  10.700 -0.7246  0.0504 -0.5564
   18MPD2    C4  279   4.221   1.535  10.830 -0.2407  0.0400  0.4931
   18MPD2    C5  280   4.106   1.587  10.898  0.0546 -0.1578 -1.0776
   18MPD2     H  281   4.078   1.536  10.529 -3.1408 -0.9357  0.1703
   18MPD2    H1  282   4.317   1.527  10.880 -1.0561  2.4854  2.4487
   18MPD2    H2  283   3.912   1.657  10.895 -1.9685 -2.9464 -1.4675
   18MPD2    H3  284   4.117   1.604  11.004 -0.2307 -2.4674 -0.6836
   18MPD2     N  285   4.325   1.472  10.626 -0.0855 -0.1654  0.0371
   18MPD2    H5  286   4.413   1.450  10.672  1.3820 -1.3743 -3.2995
   18MPD2    N1  287   3.873   1.618  10.608  0.0437  0.2258 -0.1250
   18MPD2    H7  288   3.879   1.580  10.514 -2.3174  1.3339 -0.7208
   19TMC2    C1  289   1.551   2.430  13.962 -0.6424  0.6630 -0.4309
   19TMC2    C2  290   1.497   2.483  13.847  0.0657 -0.4011 -0.2598
   19TMC2    C3  291   1.420   2.400  13.764 -0.2135 -0.3241 -0.1694
   19TMC2    C4  292   1.543   2.296  14.003  0.8302 -1.0309 -0.2613
   19TMC2    C5  293   1.462   2.222  13.915  0.4917  0.6699 -0.0457
   19TMC2    C6  294   1.393   2.272  13.806  0.9278 -0.5832 -0.5889
   19TMC2     C  295   1.612   2.526  14.050  0.5804 -0.0600  0.6292
   19TMC2     O  296   1.599   2.640  14.017 -0.3936 -0.3199  0.3252
   19TMC2     H  297   1.502   2.589  13.826 -0.5945  0.1308  2.3567
   19TMC2    H1  298   1.565   2.265  14.104  0.8385 -2.3684 -0.6714
   19TMC2    H2  299   1.319   2.209  13.760 -0.5338  0.8529 -0.2019
   19TMC2    C7  300   1.468   2.079  13.925 -0.1239  0.5638  0.1356
   19TMC2    C8  301   1.334   2.460  13.672 -0.1896 -0.1080  0.4199
   19TMC2    O1  302   1.389   2.011  13.861 -0.0655 -0.2926  0.4562
   19TMC2    O2  303   1.261   2.554  13.698 -0.3667  0.4299  0.3629
   19TMC2    O5  304   1.292   2.367  13.578 -0.0757  0.0864  0.6625
   19TMC2    H5  305   1.347   2.287  13.593 -0.8275 -0.8734 -1.7573
   20MPD2     C  306   1.729   2.666  14.283  0.2535  0.0075  0.1733
   20MPD2    C1  307   1.734   2.525  14.273 -0.2270 -0.0607  0.1251
   20MPD2    C2  308   1.819   2.446  14.354  0.4056 -0.2802 -0.4140
   20MPD2    C3  309   1.896   2.508  14.451 -0.3585 -0.3004  0.2337
   20MPD2    C4  310   1.877   2.644  14.470  0.1788 -0.0111 -0.4351
   20MPD2    C5  311   1.807   2.721  14.381  0.3230  0.5694  0.8596
   20MPD2     H  312   1.830   2.340  14.335 -2.9123 -0.5107 -1.0928
   20MPD2    H1  313   1.944   2.694  14.539 -1.5589  1.0521  0.5001
   20MPD2    H2  314   1.676   2.741  14.225 -3.0423 -2.3636  0.0921
   20MPD2    H3  315   1.822   2.828  14.397  3.6207  0.1379  0.7796
   20MPD2     N  316   1.980   2.441  14.546  0.0202 -0.4658  0.1306
   20MPD2    H5  317   2.017   2.500  14.620  0.0822  0.6437 -0.7731
   20MPD2    N1  318   1.674   2.463  14.158 -0.0094  0.7957  0.2539
   20MPD2    H7  319   1.684   2.363  14.148  1.6908  0.8619  1.3059
   21MPD2     C  320   4.205   2.542  14.323  0.0801 -0.1147  0.1426
   21MPD2    C1  321   4.228   2.407  14.303  0.3784  0.6390  0.2786
   21MPD2    C2  322   4.119   2.323  14.293  0.9656 -0.8795 -0.1677
   21MPD2    C3  323   3.994   2.368  14.315  0.5265 -0.1310 -0.0504
   21MPD2    C4  324   3.970   2.501  14.328 -1.1711  0.2648 -0.1433
   21MPD2    C5  325   4.076   2.585  14.334 -0.6145  0.7265  0.3438
   21MPD2     H  326   4.132   2.216  14.277 -0.1483 -1.1963  0.9711
   21MPD2    H1  327   3.867   2.527  14.349 -0.9528  0.8907  0.1528
   21MPD2    H2  328   4.279   2.621  14.321 -0.0529 -0.0386 -2.1434
   21MPD2    H3  329   4.068   2.693  14.340 -2.5424  0.6406 -0.4769
   21MPD2     N  330   3.877   2.286  14.332 -0.2122 -1.0702 -0.0594
   21MPD2    H5  331   3.784   2.326  14.328  0.4081  0.3834  0.0399
   21MPD2    N1  332   4.362   2.354  14.294  0.8245 -0.0595 -0.0849
   21MPD2    H7  333   4.374   2.254  14.289 -1.5337 -0.3110 -0.7320
   22TCq2    C1  334   3.877   2.153  14.356 -0.1778 -0.4543 -0.1068
   22TCq2    O2  335   3.970   2.076  14.387  0.2824 -0.2660 -0.5384
   22TCq2    C2  336   3.747   2.110  14.394  0.0710 -0.1726 -0.3828
   22TCq2    C3  337   3.737   2.037  14.510  0.3621  0.6348 -0.9931
   22TCq2    C4  338   3.613   2.021  14.557  0.1911  0.4338 -0.9827
   22TCq2    C5  339   3.505   2.070  14.490 -0.3171 -0.1243  0.6372
   22TCq2    C6  340   3.513   2.144  14.377  0.3601 -0.7881 -0.6779
   22TCq2    C7  341   3.641   2.159  14.324 -0.4627  0.4229 -0.2390
   22TCq2    C8  342   3.393   2.162  14.300  0.6730 -0.2534  0.0458
   22TCq2    O4  343   3.305   2.077  14.319  0.2495  0.2557  0.4636
   22TCq2    C9  344   3.597   1.939  14.670  0.2831  0.0159 -0.0022
   22TCq2    O5  345   3.482   1.931  14.720  0.5565  0.4370 -0.8210
   22TCq2    O6  346   3.676   1.837  14.679 -0.5010 -0.1575  0.3372
   22TCq2    H2  347   3.826   2.011  14.567 -1.0143 -1.2831  0.2915
   22TCq2    H3  348   3.407   2.031  14.515  0.0249 -0.6101  1.1949
   22TCq2    H4  349   3.660   2.195  14.223 -0.0724  1.9881  0.3843
   23MPD2     C  350   0.773   3.443  14.362 -0.2372 -0.0656 -0.0670
   23MPD2    C1  351   0.661   3.390  14.432 -0.7520 -0.3445 -0.3198
   23MPD2    C2  352   0.533   3.415  14.388 -0.4425  0.2001 -0.1323
   23MPD2    C3  353   0.512   3.498  14.282  0.9787  0.0769  0.4751
   23MPD2    C4  354   0.619   3.559  14.220  0.0081  0.0932 -0.2133
   23MPD2    C5  355   0.748   3.535  14.260  0.6381 -0.0902 -0.0814
   23MPD2     H  356   0.453   3.369  14.445 -0.0414 -1.1672 -0.6601
   23MPD2    H1  357   0.602   3.622  14.133 -0.9315 -0.6615 -0.5822
   23MPD2    H2  358   0.878   3.423  14.383  0.3509  2.0720 -0.9349
   23MPD2    H3  359   0.829   3.594  14.220 -0.3442 -0.4413 -2.5858
   23MPD2     N  360   0.383   3.536  14.236  0.0791 -0.2769 -0.1711
   23MPD2    H5  361   0.385   3.619  14.178  0.5199  1.5533  2.5056
   23MPD2    N1  362   0.674   3.307  14.546  0.3574 -0.0768 -0.1920
   23MPD2    H7  363   0.599   3.255  14.590 -0.8965  0.0285 -2.2256
   24TCq2    C1  364   0.269   3.463  14.256 -0.0255 -0.1852  0.2366
   24TCq2    O2  365   0.272   3.351  14.299 -0.1772  0.3235  0.4950
   24TCq2    C2  366   0.140   3.512  14.215  0.0297 -0.0412  0.2113
   24TCq2    C3  367   0.126   3.646  14.208 -0.0038 -0.0837 -0.2788
   24TCq2    C4  368   4.719   3.684  14.165  0.1621 -0.0024  0.3775
   24TCq2    C5  369   4.616   3.601  14.134 -0.2072  0.4922  0.0679
   24TCq2    C6  370   4.642   3.468  14.151 -0.0262  0.2859 -0.0831
   24TCq2    C7  371   0.043   3.423  14.188 -0.8804  0.6273  0.0536
   24TCq2    C8  372   4.535   3.377  14.140 -0.0052 -0.9460 -0.1819
   24TCq2    O4  373   4.556   3.275  14.199 -0.6336  0.4196  0.5839
   24TCq2    C9  374   4.684   3.823  14.180  0.5207  0.4108 -0.1582
   24TCq2    O5  375   4.557   3.841  14.187 -0.7745  0.0166  0.2563
   24TCq2    O6  376   0.061   3.905  14.201  0.2625  0.6526  0.4603
   24TCq2    H2  377   0.209   3.707  14.244 -0.9204  0.4677  0.8798
   24TCq2    H3  378   4.513   3.633  14.122  0.4070  2.0365 -1.0219
   24TCq2    H4  379   0.065   3.317  14.194  0.0717  1.0451  3.5140
   25TMC2    C1  380   3.455   0.506  11.254 -0.3005 -0.1219  0.1979
   25TMC2    C2  381   3.505   0.533  11.128  0.3817 -0.5609 -0.6702
   25TMC2    C3  382   3.633   0.581  11.122 -0.1871  0.1230  0.2511
   25TMC2    C4  383   3.528   0.527  11.367 -0.0248  0.0358  0.0149
   25TMC2    C5  384   3.651   0.590  11.352 -0.4850 -0.7016 -0.3787
   25TMC2    C6  385   3.706   0.613  11.233 -0.0706 -0.5509  0.1120
   25TMC2     C  386   3.370   0.391  11.265 -0.5108 -0.3131  0.1511
   25TMC2     O  387   3.342   0.351  11.377  0.3978 -0.0243  0.4798
   25TMC2     H  388   3.448   0.523  11.036  0.7350  1.4495 -1.1188
   25TMC2    H1  389   3.483   0.505  11.463  1.4869 -2.3678  0.1711
   25TMC2    H2  390   3.813   0.623  11.223 -0.2456  0.6875 -0.4813
   25TMC2    C7  391   3.727   0.621  11.469  0.7398 -0.7551 -0.1721
   25TMC2    C8  392   3.694   0.587  10.986 -0.0335 -0.6148  0.8055
   25TMC2    O1  393   3.689   0.564  11.569  0.0003  0.1891 -0.0296
   25TMC2    O2  394   3.649   0.543  10.880  0.0918 -0.0140  0.5029
   25TMC2    O5  395   3.776   0.691  10.982  0.8820  0.6262  0.4754
   25TMC2    H5  396   3.775   0.748  11.062  3.3846  1.0343  0.2035
   26MPD2     C  397   3.146   4.686  11.100  0.2975  0.4282  0.3698
   26MPD2    C1  398   3.146   0.055  11.000 -0.3293  0.4320  0.1517
   26MPD2    C2  399   3.208   0.181  11.016  0.2624 -0.9510  0.1839
   26MPD2    C3  400   3.262   0.219  11.138  0.4555  0.3265  0.1194
   26MPD2    C4  401   3.264   0.119  11.236 -0.6239  0.5106 -0.0609
   26MPD2    C5  402   3.201   4.719  11.218 -0.2100  0.7307 -0.3057
   26MPD2     H  403   3.205   0.264  10.946  1.8504 -3.2065 -2.5229
   26MPD2    H1  404   3.307   0.132  11.335 -0.8429 -0.8625  0.2087
   26MPD2    H2  405   3.105   4.585  11.101 -1.0080  0.9722  2.6490
   26MPD2    H3  406   3.203   4.652  11.303 -0.1598  0.4820 -0.5018
   26MPD2     N  407   3.330   0.342  11.143  0.3287 -0.1144 -0.4920
   26MPD2    H5  408   3.361   0.381  11.055 -4.6980  1.0471 -1.7719
   26MPD2    N1  409   3.067   0.027  10.886  0.3364 -0.0267 -0.6954
   26MPD2    H7  410   3.036   4.651  10.874  1.1882 -0.5940  1.6565
   27TMC2    C1  411   2.966   2.424  11.718 -0.7966 -0.3774 -0.4604
   27TMC2    C2  412   2.878   2.519  11.667  0.3154  0.1676  0.5457
   27TMC2    C3  413   2.925   2.642  11.644  0.0586 -0.6144 -0.0438
   27TMC2    C4  414   3.098   2.459  11.745 -0.2557 -0.0237 -0.3327
   27TMC2    C5  415   3.128   2.587  11.741 -0.0817  0.2977 -1.0096
   27TMC2    C6  416   3.041   2.681  11.684  0.3296 -0.0817  0.6396
   27TMC2     C  417   2.921   2.330  11.811 -0.8196  0.3958  0.4744
   27TMC2     O  418   3.002   2.242  11.838 -0.3466  0.1726 -0.1804
   27TMC2     H  419   2.776   2.488  11.643  0.1424 -0.1902  1.7742
   27TMC2    H1  420   3.166   2.386  11.786  0.3139  1.5907  1.5800
   27TMC2    H2  421   3.072   2.785  11.680 -1.0304  0.3092  0.0423
   27TMC2    C7  422   3.266   2.619  11.765  0.1328  0.3757  0.1690
   27TMC2    C8  423   2.860   2.715  11.538 -0.1552 -0.3945  0.1353
   27TMC2    O1  424   3.341   2.531  11.725  0.6336 -0.0397  0.6054
   27TMC2    O2  425   2.792   2.658  11.454  0.1138  0.3239  0.4321
   27TMC2    O5  426   2.821   2.826  11.599  0.3128 -0.2568 -0.1858
   27TMC2    H5  427   2.852   2.839  11.691 -2.2195 -0.7810  0.7519
   28MPD2     C  428   2.636   2.164  12.197 -0.4847 -0.2675 -0.5428
   28MPD2    C1  429   2.603   2.296  12.178  0.2070 -0.0882 -0.3953
   28MPD2    C2  430   2.656   2.360  12.066 -0.4356 -0.1838  0.3284
   28MPD2    C3  431   2.744   2.299  11.974  0.7000  0.3091 -0.9013
   28MPD2    C4  432   2.768   2.165  11.994 -0.1299  0.1989  0.4749
   28MPD2    C5  433   2.718   2.102  12.106  0.4747  0.5825 -0.5757
   28MPD2     H  434   2.626   2.463  12.050  0.5360 -0.1248 -1.1043
   28MPD2    H1  435   2.828   2.110  11.923  0.2606 -1.6234  2.2272
   28MPD2    H2  436   2.594   2.105  12.278  0.0403 -0.0559 -0.1167
   28MPD2    H3  437   2.727   1.995  12.123 -4.4647  0.0028 -1.4893
   28MPD2     N  438   2.812   2.377  11.881 -0.2422 -0.0771  0.1060
   28MPD2    H5  439   2.788   2.476  11.874  0.0621 -0.1895 -2.3105
   28MPD2    N1  440   2.507   2.349  12.266  0.5724 -0.1372 -0.0052
   28MPD2    H7  441   2.459   2.283  12.326  0.0148  0.5199  0.2765
   29MPD2     C  442   2.606   0.145  13.885 -0.1180 -0.2805  0.3536
   29MPD2    C1  443   2.735   0.107  13.868  0.0202  0.3658 -0.3675
   29MPD2    C2  444   2.837   0.203  13.877 -0.0513 -0.8119 -0.6639
   29MPD2    C3  445   2.798   0.338  13.895  0.0605 -0.1302  0.0813
   29MPD2    C4  446   2.663   0.374  13.890  0.0951 -0.5287  0.3007
   29MPD2    C5  447   2.564   0.275  13.883  0.0357  0.2310 -0.0807
   29MPD2     H  448   2.941   0.172  13.881 -0.9323 -3.8462 -0.6790
   29MPD2    H1  449   2.637   0.479  13.880 -0.9493 -1.0512 -2.3910
   29MPD2    H2  450   2.531   0.067  13.890  1.3390 -1.7865 -1.2286
   29MPD2    H3  451   2.461   0.310  13.883 -0.2111 -0.4879  1.2637
   29MPD2     N  452   2.892   0.445  13.899  0.3860 -0.4300 -0.3521
   29MPD2    H5  453   2.862   0.541  13.911  0.1150 -0.7239  1.3886
   29MPD2    N1  454   2.778   4.696  13.881  0.5142 -0.2732 -0.1269
   29MPD2    H7  455   2.877   4.681  13.895 -0.2618 -2.6962  2.7950
   30TCq2    C1  456   3.026   0.418  13.894  0.6929 -0.2579 -0.1316
   30TCq2    O2  457   3.093   0.330  13.841 -0.2801 -0.1519 -0.0537
   30TCq2    C2  458   3.096   0.528  13.953  0.0766 -0.6626  0.8248
   30TCq2    C3  459   3.038   0.591  14.061  0.0214  0.8911 -0.0654
   30TCq2    C4  460   3.107   0.694  14.111  0.5139  0.2519 -0.2342
   30TCq2    C5  461   3.232   0.725  14.081  0.0892  0.5548 -0.3374
   30TCq2    C6  462   3.279   0.667  13.971 -0.0808  0.2470 -0.0419
   30TCq2    C7  463   3.220   0.568  13.904  0.2696  0.0907  0.2118
   30TCq2    C8  464   3.390   0.726  13.894 -0.3752 -0.1292  0.1261
   30TCq2    O4  465   3.435   0.664  13.803  0.1681  0.3783  0.3334
   30TCq2    C9  466   3.036   0.772  14.203 -0.3100  0.1231 -0.8621
   30TCq2    O5  467   3.115   0.843  14.278  0.4869 -0.3847 -0.2327
   30TCq2    O6  468   2.919   0.739  14.228 -0.0626  0.4113 -0.0092
   30TCq2    H2  469   2.945   0.558  14.106 -0.8144 -0.3202 -2.6733
   30TCq2    H3  470   3.280   0.800  14.142  0.7463  2.3288 -3.0683
   30TCq2    H4  471   3.251   0.531  13.807 -1.3253 -0.0605 -0.2419
   31MPD2     C  472   0.899   4.383  14.510 -0.3081  0.1874  0.0289
   31MPD2    C1  473   0.787   4.345  14.437  0.2755 -0.4881 -0.8781
   31MPD2    C2  474   0.686   4.275  14.495  0.0630  0.5951  0.2824
   31MPD2    C3  475   0.711   4.218  14.625  0.1163  0.5642  0.3986
   31MPD2    C4  476   0.834   4.238  14.688  0.7967 -0.4594 -0.1292
   31MPD2    C5  477   0.925   4.307  14.621 -0.7232 -0.4578 -0.9086
   31MPD2     H  478   0.599   4.237  14.442  2.0286 -0.3387 -2.2865
   31MPD2    H1  479   0.848   4.201  14.789 -1.0938  0.1387  0.3451
   31MPD2    H2  480   0.984   4.442  14.477 -0.1243  0.9010  1.7807
   31MPD2    H3  481   1.019   4.319  14.673 -2.5033 -0.6909  2.3560
   31MPD2     N  482   0.611   4.159  14.702 -0.9346 -0.6633  1.2035
   31MPD2    H5  483   0.640   4.121  14.791  2.3973 -4.2281 -1.4095
   31MPD2    N1  484   0.769   4.419  14.313 -0.6005 -0.5877 -0.1845
   31MPD2    H7  485   0.844   4.486  14.294 -0.5277 -0.1066  1.8086
   32TCq2    C1  486   0.480   4.148  14.676  0.3793  1.2538  0.3263
   32TCq2    O2  487   0.418   4.199  14.579 -0.7017 -0.1676 -0.6430
   32TCq2    C2  488   0.395   4.077  14.772  0.5641  1.0632  0.3762
   32TCq2    C3  489   0.265   4.060  14.746 -0.2769 -0.1667 -0.2314
   32TCq2    C4  490   0.182   3.990  14.834  0.1147 -0.9472 -0.2513
   32TCq2    C5  491   0.233   3.948  14.954 -0.9189 -0.0410  0.2383
   32TCq2    C6  492   0.365   3.972  14.984 -0.1861 -0.3183 -0.9061
   32TCq2    C7  493   0.448   4.024  14.894 -0.0094 -0.0188 -0.3461
   32TCq2    C8  494   0.412   3.917  15.118 -0.1192  0.4558  0.6734
   32TCq2    O4  495   0.530   3.884  15.127 -0.2598 -0.4729 -0.6467
   32TCq2    C9  496   0.042   3.970  14.807  0.5722 -0.1550  0.1216
   32TCq2    O5  497   4.690   3.918  14.899  0.6120  0.5575 -0.7599
   32TCq2    O6  498   0.009   4.043  14.708 -0.6542 -0.0697  0.4338
   32TCq2    H2  499   0.214   4.092  14.656  1.1982  0.8352 -0.7120
   32TCq2    H3  500   0.166   3.903  15.027 -0.4743 -0.7765  0.1950
   32TCq2    H4  501   0.553   4.042  14.914 -0.2382  0.6993  0.2242
   33MPD2     C  502   0.205   1.450   9.921  0.3963  0.2435  0.2678
   33MPD2    C1  503   0.075   1.422   9.942 -0.0475  0.8113  0.2113
   33MPD2    C2  504   4.712   1.389   9.834 -0.1209 -0.6913  0.4534
   33MPD2    C3  505   0.042   1.381   9.707  0.7284 -0.3496  0.0902
   33MPD2    C4  506   0.176   1.402   9.692  0.0979  0.3107  0.0057
   33MPD2    C5  507   0.260   1.425   9.799  0.3658  0.1697 -0.3411
   33MPD2     H  508   4.607   1.370   9.854 -0.3993  0.5009  0.1229
   33MPD2    H1  509   0.230   1.390   9.598  1.8197 -1.2684  1.1887
   33MPD2    H2  510   0.273   1.473  10.002 -0.9571  0.7996  1.2400
   33MPD2    H3  511   0.362   1.448   9.771  0.1303  1.3247 -0.2417
   33MPD2     N  512   4.684   1.351   9.592 -0.0557 -0.0141  0.5176
   33MPD2    H5  513   0.005   1.328   9.502 -1.6393 -1.1843  0.1057
   33MPD2    N1  514   0.027   1.415  10.073 -0.4613  0.1981  0.1043
   33MPD2    H7  515   0.089   1.456  10.142  1.1107 -2.4448  0.2442
   34TCq2    C1  516   4.548   1.357   9.593  0.4111 -0.1149 -0.4976
   34TCq2    O2  517   4.470   1.393   9.683 -0.0715 -0.1668  0.2326
   34TCq2    C2  518   4.494   1.352   9.465 -0.4790  0.0348 -0.3877
   34TCq2    C3  519   4.579   1.305   9.370 -0.2753  0.2988 -0.1196
   34TCq2    C4  520   4.561   1.341   9.243 -0.6076 -0.2178 -0.1778
   34TCq2    C5  521   4.463   1.427   9.203 -0.1340 -0.1140  0.3954
   34TCq2    C6  522   4.391   1.483   9.308  0.1865 -0.2972  0.1008
   34TCq2    C7  523   4.397   1.444   9.438  0.1925 -0.1940 -0.2926
   34TCq2    C8  524   4.311   1.591   9.269  0.1110  0.0933  0.1453
   34TCq2    O4  525   4.368   1.680   9.205 -0.8369 -1.0926  0.2937
   34TCq2    C9  526   4.639   1.280   9.139  0.9626  0.4108  0.3430
   34TCq2    O5  527   0.027   1.225   9.179  0.4612 -0.2844 -0.1533
   34TCq2    O6  528   4.607   1.313   9.019 -0.1880  0.2393  0.2224
   34TCq2    H2  529   4.667   1.244   9.382  0.5517  1.6226  0.4532
   34TCq2    H3  530   4.450   1.460   9.101 -0.0475 -0.6328  0.2142
   34TCq2    H4  531   4.348   1.499   9.517  0.7800 -1.4590  0.9492
   35MPD2     C  532   2.175   3.282  11.869 -0.4535  0.8815  0.0221
   35MPD2    C1  533   2.130   3.157  11.827  0.0711 -0.1227 -0.2178
   35MPD2    C2  534   2.034   3.139  11.730  0.7325  0.2587 -0.4588
   35MPD2    C3  535   1.978   3.245  11.671 -0.6038  0.5437  0.1672
   35MPD2    C4  536   2.019   3.367  11.707 -0.2669  0.4797  0.2194
   35MPD2    C5  537   2.119   3.393  11.798  0.0783  0.5224  0.1133
   35MPD2     H  538   2.004   3.040  11.698  1.7049 -0.5225  1.0505
   35MPD2    H1  539   1.980   3.456  11.660 -0.6775 -0.3800 -1.0539
   35MPD2    H2  540   2.251   3.298  11.946 -1.3654 -0.9092  1.2842
   35MPD2    H3  541   2.154   3.492  11.826 -0.6036  0.9465 -0.5434
   35MPD2     N  542   1.857   3.223  11.589  0.1642  0.5791  0.8633
   35MPD2    H5  543   1.824   3.128  11.573  0.3284  0.6286  0.2102
   35MPD2    N1  544   2.181   3.046  11.899  0.0698 -0.3486 -0.9062
   35MPD2    H7  545   2.242   3.066  11.978  0.9568 -1.0973 -1.4051
   36TCq2    C1  546   1.775   3.318  11.538 -0.2311 -0.8544 -0.7625
   36TCq2    O2  547   1.803   3.436  11.518 -0.2639  0.4338 -0.0210
   36TCq2    C2  548   1.646   3.270  11.487  0.6898 -0.6427  0.2751
   36TCq2    C3  549   1.589   3.338  11.386  0.2297  0.5889 -0.5427
   36TCq2    C4  550   1.469   3.297  11.340 -0.0434 -0.3724  0.2074
   36TCq2    C5  551   1.420   3.177  11.396 -0.1106  0.0087  0.0334
   36TCq2    C6  552   1.474   3.117  11.506  0.4121 -0.3037  0.6123
   36TCq2    C7  553   1.596   3.157  11.550  0.7151 -0.0719 -0.5688
   36TCq2    C8  554   1.434   2.981  11.501  0.2658 -0.2694  0.1556
   36TCq2    O4  555   1.317   2.953  11.479  0.4888 -0.0497  1.3152
   36TCq2    C9  556   1.394   3.370  11.240 -0.9798  1.0227  0.4633
   36TCq2    O5  557   1.443   3.485  11.217 -0.2273 -0.4281 -0.3768
   36TCq2    O6  558   1.298   3.312  11.184  0.1309 -0.1109 -0.6141
   36TCq2    H2  559   1.639   3.419  11.334 -0.6575  1.6728  0.2843
   36TCq2    H3  560   1.328   3.144  11.350  1.1684 -1.0354 -1.7747
   36TCq2    H4  561   1.640   3.120  11.642  0.1058  1.0779  0.1730
   37TMC2    C1  562   4.087   2.753  11.401 -0.2215  0.7902 -0.1872
   37TMC2    C2  563   4.028   2.717  11.276  0.1152 -0.4994  0.4046
   37TMC2    C3  564   4.108   2.713  11.162  0.3978 -0.4769 -0.5722
   37TMC2    C4  565   4.220   2.789  11.406  0.4206  0.2194 -0.3931
   37TMC2    C5  566   4.287   2.784  11.285 -0.2686  0.3917 -0.6229
   37TMC2    C6  567   4.237   2.758  11.157 -0.3185  0.0352 -0.0931
   37TMC2     C  568   3.994   2.769  11.518  0.2048 -0.4629  0.2873
   37TMC2     O  569   3.894   2.697  11.509 -0.0135 -0.2643  0.1644
   37TMC2     H  570   3.924   2.685  11.273  0.8525 -2.9177  0.4044
   37TMC2    H1  571   4.259   2.825  11.501  0.8149 -0.6514 -0.2260
   37TMC2    H2  572   4.301   2.766  11.071 -1.1475 -0.6113 -0.7723
   37TMC2    C7  573   4.420   2.843  11.285  0.4320  0.8618  0.4206
   37TMC2    C8  574   4.046   2.664  11.041 -0.3050  0.7577 -0.5842
   37TMC2    O1  575   4.428   2.911  11.382 -0.5119  0.0763  0.0277
   37TMC2    O2  576   3.925   2.655  11.031 -0.7982 -0.0190  0.1259
   37TMC2    O5  577   4.143   2.605  10.969 -0.4087 -0.1280 -0.4505
   37TMC2    H5  578   4.235   2.613  11.002 -0.5261 -1.2823  0.1311
   38MPD2     C  579   3.815   3.067  11.902 -0.4246 -0.0047 -0.5459
   38MPD2    C1  580   3.953   3.074  11.893  0.0868 -0.0544  0.1851
   38MPD2    C2  581   4.017   3.003  11.790 -0.2255 -0.2646 -0.0763
   38MPD2    C3  582   3.957   2.911  11.708  0.5759  0.2184 -0.6592
   38MPD2    C4  583   3.815   2.905  11.726  0.3137  0.3503 -0.1776
   38MPD2    C5  584   3.748   2.975  11.826 -0.5174  0.1362  0.4806
   38MPD2     H  585   4.124   3.021  11.783  0.3014 -3.3906  0.0400
   38MPD2    H1  586   3.753   2.850  11.656  1.2340 -0.1867 -0.5654
   38MPD2    H2  587   3.759   3.119  11.980 -1.4835  1.2251 -2.1406
   38MPD2    H3  588   3.641   2.967  11.839 -0.4597  0.2257  1.0279
   38MPD2     N  589   4.032   2.860  11.605 -0.0009 -0.1906  0.1327
   38MPD2    H5  590   4.122   2.902  11.582 -0.9168  1.9708  0.5175
   38MPD2    N1  591   4.033   3.152  11.984 -0.4170  0.5626 -0.2010
   38MPD2    H7  592   4.133   3.132  11.982 -0.6812 -0.6487 -2.1425
   39MPD2     C  593   3.394   4.560   1.428  0.3592  0.0962 -0.2551
   39MPD2    C1  594   3.318   4.605   1.530  0.4073 -0.2396  0.2219
   39MPD2    C2  595   3.195   4.668   1.506 -0.5614 -0.0681 -0.5923
   39MPD2    C3  596   3.162   4.690   1.373  0.0852  0.3972  0.5358
   39MPD2    C4  597   3.249   4.654   1.272 -0.2198 -0.0470 -0.3359
   39MPD2    C5  598   3.372   4.593   1.295 -0.1705 -0.7996 -0.1497
   39MPD2     H  599   3.125   4.696   1.584 -0.7132  2.1895 -1.5427
   39MPD2    H1  600   3.232   4.691   1.171 -0.5031 -1.4344 -0.7875
   39MPD2    H2  601   3.488   4.510   1.451 -0.2030  0.2917  2.3973
   39MPD2    H3  602   3.437   4.563   1.214 -0.2912 -0.7979 -0.2473
   39MPD2     N  603   3.050   0.043   1.336  0.2326  0.0997 -0.5946
   39MPD2    H5  604   3.029   0.064   1.239 -1.5353 -1.3729 -0.5174
   39MPD2    N1  605   3.353   4.568   1.660 -0.5654  0.4777 -0.1379
   39MPD2    H7  606   3.442   4.519   1.660 -1.2648 -0.8232 -1.8664
   40TCq2    C1  607   3.283   4.572   1.774  0.1889 -0.1465  0.1715
   40TCq2    O2  608   3.162   4.574   1.791  0.2224 -0.1127  0.3055
   40TCq2    C2  609   3.369   4.548   1.888 -0.4666  0.3131 -0.8744
   40TCq2    C3  610   3.326   4.485   1.998 -0.0904  0.3899  0.5716
   40TCq2    C4  611   3.411   4.476   2.103 -0.1652  0.0510 -0.1096
   40TCq2    C5  612   3.534   4.519   2.099 -0.5280 -0.5078  0.4812
   40TCq2    C6  613   3.582   4.575   1.987  0.5415  0.0257 -0.0550
   40TCq2    C7  614   3.496   4.588   1.878 -0.7050  0.5435  0.7825
   40TCq2    C8  615   3.722   4.612   1.984 -1.1375  0.9715 -0.0762
   40TCq2    O4  616   3.803   4.547   2.053 -0.8262 -1.1062  0.5021
   40TCq2    C9  617   3.365   4.407   2.223 -0.2711 -0.1047  1.0944
   40TCq2    O5  618   3.428   4.440   2.322 -0.1314 -0.8332 -0.4353
   40TCq2    O6  619   3.247   4.361   2.218 -0.2043  0.7906 -0.1882
   40TCq2    H2  620   3.223   4.450   2.006  0.7009 -1.2330  3.6066
   40TCq2    H3  621   3.593   4.517   2.190 -1.8715  0.1758  1.3715
   40TCq2    H4  622   3.535   4.645   1.794 -2.2849 -0.2770 -0.5144
   41TMC2    C1  623   1.142   3.563  14.164 -0.2577 -0.0085  0.0220
   41TMC2    C2  624   1.088   3.684  14.144 -0.3372 -0.5071  0.0157
   41TMC2    C3  625   1.036   3.707  14.023  0.0045 -0.1620  0.9406
   41TMC2    C4  626   1.148   3.468  14.070  0.2099  0.7191 -0.3926
   41TMC2    C5  627   1.107   3.503  13.945  0.4256 -0.1310  0.0274
   41TMC2    C6  628   1.033   3.618  13.926  0.5213 -0.1825  0.1451
   41TMC2     C  629   1.158   3.519  14.300 -0.6405 -0.3154  0.0960
   41TMC2     O  630   1.158   3.394  14.306 -0.1920 -0.7063  0.3804
   41TMC2     H  631   1.084   3.761  14.220  1.5392 -0.5246  0.1331
   41TMC2    H1  632   1.199   3.374  14.090 -0.9277  0.9060  3.3942
   41TMC2    H2  633   1.013   3.655  13.826  2.0197  0.6382  0.1388
   41TMC2    C7  634   1.117   3.403  13.841  0.4110 -0.5401 -0.1354
   41TMC2    C8  635   0.963   3.820  14.005 -0.1704  0.0117  0.6039
   41TMC2    O1  636   1.124   3.287  13.879  0.2240  0.5225  0.0672
   41TMC2    O2  637   0.986   3.911  14.086  0.2042  0.0300  0.1099
   41TMC2    O5  638   0.848   3.792  13.949 -0.0663  0.7139 -0.1928
   41TMC2    H5  639   0.835   3.706  13.904 -1.8396  0.1756  1.3354
   42MPD2     C  640   1.194   3.474  14.594  0.0381  0.2559  0.3180
   42MPD2    C1  641   1.214   3.598  14.530  0.4828  0.5784  0.0055
   42MPD2    C2  642   1.269   3.699  14.612 -0.1628  0.1813 -0.4133
   42MPD2    C3  643   1.297   3.682  14.748  0.7092  0.4457 -0.1504
   42MPD2    C4  644   1.286   3.563  14.800 -0.2068 -0.9095 -0.3222
   42MPD2    C5  645   1.240   3.455  14.720  0.2187  0.0506 -0.4475
   42MPD2     H  646   1.289   3.797  14.570 -1.7386  0.3719 -0.7320
   42MPD2    H1  647   1.313   3.542  14.903  4.0770 -0.5483 -1.3769
   42MPD2    H2  648   1.160   3.381  14.550 -1.5194 -0.4851  3.1247
   42MPD2    H3  649   1.236   3.355  14.762 -3.6646 -0.1050 -1.2233
   42MPD2     N  650   1.322   3.789  14.838 -0.3877 -0.1799 -0.4978
   42MPD2    H5  651   1.334   3.764  14.935  0.7762  1.6028 -0.1766
   42MPD2    N1  652   1.184   3.617  14.396 -0.2757 -0.0418  0.1841
   42MPD2    H7  653   1.179   3.717  14.375  0.1601 -0.2199 -0.7825
   43MPD2     C  654   3.418   1.226   0.628  0.2892  0.0568  0.0802
   43MPD2    C1  655   3.503   1.122   0.663  0.1601  0.1217 -0.7195
   43MPD2    C2  656   3.602   1.150   0.759 -0.0641  0.1789 -0.4630
   43MPD2    C3  657   3.622   1.283   0.796  0.2118  0.0155 -0.1179
   43MPD2    C4  658   3.521   1.374   0.774 -0.8504  0.2924  0.3202
   43MPD2    C5  659   3.420   1.346   0.688 -0.1580 -0.3030  0.1814
   43MPD2     H  660   3.664   1.064   0.781 -0.7002 -0.5496 -1.4736
   43MPD2    H1  661   3.527   1.472   0.819 -2.8331  0.8182 -0.5438
   43MPD2    H2  662   3.348   1.208   0.547 -0.1393 -1.1677  0.7116
   43MPD2    H3  663   3.341   1.418   0.668  1.1587  1.4206  1.2053
   43MPD2     N  664   3.733   1.329   0.871 -0.1410 -0.1618 -0.5071
   43MPD2    H5  665   3.718   1.422   0.908  1.2849  0.4709 -1.5078
   43MPD2    N1  666   3.516   1.001   0.594  0.3609  0.4838 -0.2604
   43MPD2    H7  667   3.589   0.934   0.614 -1.3219 -0.4357  2.8468
   44TCq2    C1  668   3.995   1.634   1.192  0.4787  0.2713  0.0726
   44TCq2    O2  669   4.097   1.697   1.214  0.1779 -0.1740 -0.6860
   44TCq2    C2  670   4.009   1.505   1.109 -0.0704 -0.3472 -0.1096
   44TCq2    C3  671   4.138   1.451   1.115  1.1805  0.0395  0.9546
   44TCq2    C4  672   4.152   1.324   1.077  0.2785  0.4902 -0.6705
   44TCq2    C5  673   4.047   1.251   1.026  0.3862  0.0364 -0.9692
   44TCq2    C6  674   3.927   1.312   1.011 -0.0722 -0.6736 -0.3345
   44TCq2    C7  675   3.908   1.436   1.058  0.1820 -0.0409 -0.3353
   44TCq2    C8  676   3.834   1.249   0.919  0.1243 -0.1067 -0.2840
   44TCq2    O4  677   3.866   1.131   0.891 -0.4460  0.0279 -1.0810
   44TCq2    C9  678   4.279   1.263   1.095 -0.5694  0.3396  0.2106
   44TCq2    O5  679   4.366   1.328   1.152  0.6566  0.1871 -0.2015
   44TCq2    O6  680   4.291   1.142   1.056 -0.0512  0.0373 -0.1699
   44TCq2    H2  681   4.227   1.502   1.151  1.0100 -1.6376  3.8305
   44TCq2    H3  682   4.069   1.165   0.964 -2.9333 -0.2495 -1.7200
   44TCq2    H4  683   3.814   1.490   1.063  1.0273  1.3894 -0.0076
   45TMC2    C1  684   3.069   3.301   9.397 -0.6104 -0.2851 -0.2905
   45TMC2    C2  685   2.937   3.347   9.374 -0.4953 -0.6070 -0.6431
   45TMC2    C3  686   2.909   3.471   9.418  0.9397 -0.3222  0.1230
   45TMC2    C4  687   3.167   3.377   9.453  0.1513 -0.2790 -0.3907
   45TMC2    C5  688   3.128   3.501   9.488 -0.4215 -0.5196  0.0441
   45TMC2    C6  689   3.002   3.552   9.473 -1.3224  0.1291  0.1570
   45TMC2     C  690   3.111   3.169   9.351  0.4409  0.1881  0.3165
   45TMC2     O  691   3.202   3.109   9.409  0.1378 -0.6386  0.2715
   45TMC2     H  692   2.851   3.292   9.339  0.7122 -2.5859 -0.5273
   45TMC2    H1  693   3.267   3.337   9.467  0.6754  2.3719  3.5541
   45TMC2    H2  694   2.972   3.655   9.493 -2.0161 -0.0647  0.0839
   45TMC2    C7  695   3.213   3.584   9.575 -0.2395  0.8549  0.2967
   45TMC2    C8  696   2.783   3.524   9.375 -0.0943 -0.3555 -0.3104
   45TMC2    O1  697   3.165   3.690   9.612 -0.2414  0.4194  0.1955
   45TMC2    O2  698   2.716   3.471   9.288  0.4527  0.2673  0.3137
   45TMC2    O5  699   2.732   3.580   9.485 -0.4288  1.4112 -0.7467
   45TMC2    H5  700   2.785   3.579   9.568 -1.6012  1.4403 -0.0050
   46MPD2     C  701   3.103   2.887   9.240 -0.1312  0.0259 -0.7306
   46MPD2    C1  702   3.010   2.991   9.215  0.6376 -0.3499  0.4876
   46MPD2    C2  703   2.907   2.960   9.134  0.1771 -0.6092  0.5156
   46MPD2    C3  704   2.882   2.824   9.087 -0.6969 -0.1622  0.0488
   46MPD2    C4  705   2.977   2.730   9.112  0.7737 -0.9039 -0.0854
   46MPD2    C5  706   3.086   2.760   9.188  0.1385  1.1296 -0.4040
   46MPD2     H  707   2.839   3.037   9.099 -0.0778 -1.4936 -0.9508
   46MPD2    H1  708   2.965   2.627   9.082  0.0919 -0.8142 -0.1218
   46MPD2    H2  709   3.192   2.914   9.295  0.2432  1.1434 -1.9056
   46MPD2    H3  710   3.162   2.683   9.199 -1.4421 -0.3018  0.6391
   46MPD2     N  711   2.758   2.797   9.026  0.2962  0.6379  0.0781
   46MPD2    H5  712   2.699   2.880   9.026 -1.6136 -0.7241  0.2598
   46MPD2    N1  713   3.024   3.125   9.257 -0.3822 -0.2022 -0.2604
   46MPD2    H7  714   2.959   3.197   9.228 -1.2062 -0.5079  0.8373
   47TMC2    C1  715   3.702   3.956   9.784  0.1719  0.5757  0.9418
   47TMC2    C2  716   3.761   4.068   9.831 -0.1961 -0.0600  0.0380
   47TMC2    C3  717   3.701   4.192   9.828 -0.0506  0.3645  0.7957
   47TMC2    C4  718   3.584   3.973   9.715  0.3466 -0.0686 -0.8767
   47TMC2    C5  719   3.534   4.101   9.695  0.2218  0.2517 -0.5429
   47TMC2    C6  720   3.584   4.207   9.766  0.1334 -0.5737 -0.3492
   47TMC2     C  721   3.791   3.844   9.752 -0.3691 -0.1922  0.6805
   47TMC2     O  722   3.885   3.830   9.826  0.3115 -0.4111 -0.1234
   47TMC2     H  723   3.861   4.059   9.872 -0.9115  1.1127  2.0317
   47TMC2    H1  724   3.527   3.891   9.673 -0.3450  0.2236 -0.5024
   47TMC2    H2  725   3.528   4.300   9.771 -1.0800 -1.2919 -0.4570
   47TMC2    C7  726   3.395   4.103   9.663 -0.4825 -0.3346 -0.1157
   47TMC2    C8  727   3.735   4.278   9.935 -0.1753 -0.5046  0.0624
   47TMC2    O1  728   3.317   4.017   9.694  0.0139 -0.2596  0.9007
   47TMC2    O2  729   3.697   4.260  10.047 -0.1515  0.0517  0.2576
   47TMC2    O5  730   3.863   4.320   9.912  0.3180  0.1575 -0.5050
   47TMC2    H5  731   3.884   4.311   9.817 -0.9922 -0.6608 -0.7141
   48MPD2     C  732   3.944   3.627   9.630  0.6280 -0.1526  0.2930
   48MPD2    C1  733   3.842   3.703   9.567 -0.1220 -0.2008 -0.1558
   48MPD2    C2  734   3.811   3.670   9.430 -1.3552 -0.5735 -0.1177
   48MPD2    C3  735   3.873   3.562   9.368  0.0830 -0.1673 -0.0010
   48MPD2    C4  736   3.978   3.494   9.429  0.1093 -0.3041 -0.4081
   48MPD2    C5  737   4.011   3.526   9.559  0.5220  0.1514  0.4034
   48MPD2     H  738   3.724   3.716   9.384  0.3382  0.8966 -1.8839
   48MPD2    H1  739   4.042   3.420   9.382 -0.6051 -1.5296  0.5270
   48MPD2    H2  740   3.978   3.644   9.731 -0.3865 -2.1920  0.9726
   48MPD2    H3  741   4.094   3.473   9.604  1.8248 -1.4133 -3.8820
   48MPD2     N  742   3.831   3.535   9.235  0.0996 -0.3797 -0.4860
   48MPD2    H5  743   3.752   3.588   9.200  0.2111 -0.5768 -1.0370
   48MPD2    N1  744   3.771   3.808   9.629 -0.6607  0.4236 -0.2877
   48MPD2    H7  745   3.705   3.859   9.570 -2.1142 -0.7415  0.3140
   49MPD2     C  746   3.654   1.233   9.445 -0.5075  0.7274 -0.0704
   49MPD2    C1  747   3.577   1.167   9.545  0.2238  0.3050 -0.1885
   49MPD2    C2  748   3.609   1.189   9.677 -0.3681 -0.7388  0.1267
   49MPD2    C3  749   3.709   1.281   9.710 -0.1369  0.6161 -0.2672
   49MPD2    C4  750   3.776   1.352   9.605 -0.6397  0.0390  0.6658
   49MPD2    C5  751   3.747   1.323   9.476  0.3667 -0.4071 -0.7030
   49MPD2     H  752   3.558   1.134   9.755  1.7124 -0.1582  1.8867
   49MPD2    H1  753   3.859   1.418   9.626 -0.9308  0.0969  1.6145
   49MPD2    H2  754   3.629   1.224   9.340  0.2578  0.2450 -0.2103
   49MPD2    H3  755   3.811   1.374   9.404 -2.5020  1.1348 -2.1794
   49MPD2     N  756   3.762   1.299   9.835 -0.4738 -0.7451 -0.2156
   49MPD2    H5  757   3.839   1.365   9.842 -0.1138 -1.2901  1.0773
   49MPD2    N1  758   3.454   1.096   9.517 -0.3040 -0.2913  0.5049
   49MPD2    H7  759   3.412   1.048   9.596  1.2773  0.4568  1.8207
   50TCq2    C1  760   3.396   1.085   9.395  0.0534  0.6997 -0.4616
   50TCq2    O2  761   3.440   1.130   9.289  0.3536 -0.4398  0.7361
   50TCq2    C2  762   3.280   0.995   9.386  0.0209 -0.4199 -0.7278
   50TCq2    C3  763   3.203   1.014   9.270  0.9793  0.3468 -0.6013
   50TCq2    C4  764   3.085   0.935   9.261 -0.3166  0.9167 -0.2192
   50TCq2    C5  765   3.053   0.847   9.359 -0.3530 -0.4031 -0.1278
   50TCq2    C6  766   3.137   0.832   9.465 -0.4711  0.8523 -0.4001
   50TCq2    C7  767   3.254   0.906   9.483  0.3300 -0.1617 -0.2339
   50TCq2    C8  768   3.100   0.726   9.561  0.3974  0.2320 -0.2863
   50TCq2    O4  769   2.989   0.675   9.547 -0.3946 -0.6189  0.2457
   50TCq2    C9  770   2.991   0.952   9.151  0.7879  0.1370  0.5433
   50TCq2    O5  771   3.039   0.992   9.038 -0.3864  0.5796 -0.2397
   50TCq2    O6  772   2.875   0.906   9.163 -0.7445  0.7380  0.2603
   50TCq2    H2  773   3.230   1.108   9.224 -0.7492 -0.1748 -2.6692
   50TCq2    H3  774   2.968   0.781   9.349 -0.2377 -0.6716  0.6631
   50TCq2    H4  775   3.327   0.886   9.561 -0.1319  0.6571  0.3968
   51MPD2     C  776   0.220   4.213   0.762  0.3268  0.0311 -0.4392
   51MPD2    C1  777   0.246   4.084   0.795 -0.0099 -0.4301  0.9141
   51MPD2    C2  778   0.301   4.051   0.912 -0.4704 -0.1328  0.0872
   51MPD2    C3  779   0.317   4.142   1.011  0.2687  0.1756  0.5466
   51MPD2    C4  780   0.282   4.270   0.980 -0.4068  0.0689  0.2861
   51MPD2    C5  781   0.236   4.308   0.858  0.4274  0.7177 -0.6073
   51MPD2     H  782   0.330   3.948   0.927 -0.4493 -0.1542 -0.0992
   51MPD2    H1  783   0.302   4.346   1.055  0.9326 -0.7880  0.7918
   51MPD2    H2  784   0.173   4.249   0.671 -0.2903 -1.8587 -0.8549
   51MPD2    H3  785   0.202   4.409   0.837  0.9443  0.6696 -1.7080
   51MPD2     N  786   0.374   4.114   1.137  0.4182  0.0057 -0.0866
   51MPD2    H5  787   0.377   4.194   1.199  0.5409 -0.3333  0.3480
   51MPD2    N1  788   0.245   3.973   0.701  0.0876  0.0604 -0.2771
   51MPD2    H7  789   0.279   3.883   0.734  0.3773 -0.1380 -1.1162
   52TCq2    C1  790   0.444   4.003   1.170  0.1452 -0.1441 -0.1879
   52TCq2    O2  791   0.463   3.903   1.105 -0.3990 -0.3669 -0.0330
   52TCq2    C2  792   0.518   4.014   1.298 -0.1216 -0.0262 -0.5047
   52TCq2    C3  793   0.563   3.891   1.352 -0.4742  0.2387 -0.0535
   52TCq2    C4  794   0.632   3.894   1.472 -0.6678  0.6657 -0.1091
   52TCq2    C5  795   0.647   4.002   1.545 -0.1246 -0.1570  0.6996
   52TCq2    C6  796   0.607   4.123   1.490 -0.3042 -0.5541  0.0402
   52TCq2    C7  797   0.547   4.133   1.364  0.7936  0.1671  0.6759
   52TCq2    C8  798   0.691   4.231   1.536  0.3619  0.0078  0.2120
   52TCq2    O4  799   0.648   4.343   1.510 -0.7160 -0.1955  0.8713
   52TCq2    C9  800   0.677   3.769   1.535 -0.2155  0.7074 -0.4184
   52TCq2    O5  801   0.773   3.777   1.618  0.3497  0.0094  0.2151
   52TCq2    O6  802   0.625   3.662   1.496 -0.2444  0.1036  0.4079
   52TCq2    H2  803   0.546   3.797   1.301  0.4355  0.7559 -1.3060
   52TCq2    H3  804   0.687   3.995   1.645  1.3707 -0.5862  0.0849
   52TCq2    H4  805   0.538   4.234   1.325  2.3662  1.2017  2.9469
   53TMC2    C1  806   0.260   3.137  11.600  0.1927  0.2556 -0.0189
   53TMC2    C2  807   0.380   3.156  11.666  0.5488  0.4788 -0.2643
   53TMC2    C3  808   0.382   3.222  11.783 -1.0990  0.3270  0.2999
   53TMC2    C4  809   0.134   3.169  11.662  0.1419  0.0142  0.0894
   53TMC2    C5  810   0.147   3.236  11.783  0.2505  0.1372 -0.3751
   53TMC2    C6  811   0.264   3.278  11.837  0.2385  0.0003  0.0452
   53TMC2     C  812   0.258   3.065  11.467  0.3605  0.1359  0.6020
   53TMC2     O  813   0.364   3.043  11.415 -0.3345  0.0523 -0.0265
   53TMC2     H  814   0.471   3.113  11.626  0.0006  0.0820 -1.0870
   53TMC2    H1  815   0.041   3.141  11.614  0.4329  0.0277 -0.4949
   53TMC2    H2  816   0.271   3.368  11.899  1.1774  0.1990 -0.3628
   53TMC2    C7  817   0.018   3.293  11.828  0.1577 -0.6986  0.8397
   53TMC2    C8  818   0.504   3.303  11.784  0.5524  0.1755 -0.0275
   53TMC2    O1  819   4.651   3.289  11.743 -0.5682  0.6483  0.3562
   53TMC2    O2  820   0.593   3.293  11.706 -0.1649 -0.2238  0.2067
   53TMC2    O5  821   0.500   3.365  11.898 -0.2247  0.3116 -0.2567
   53TMC2    H5  822   0.437   3.323  11.959  0.1404 -2.5117 -1.7947
   54MPD2     C  823   0.200   2.882  11.242 -0.1167  0.4451 -0.8196
   54MPD2    C1  824   0.105   2.948  11.310  0.6329  0.3573 -0.0819
   54MPD2    C2  825   4.697   2.927  11.285  0.3524  0.0521 -0.2132
   54MPD2    C3  826   4.648   2.825  11.211  0.8197  0.0840 -0.1468
   54MPD2    C4  827   0.022   2.754  11.139 -0.1090 -0.6008  0.2469
   54MPD2    C5  828   0.156   2.787  11.148  0.4718  0.0725  0.6769
   54MPD2     H  829   4.629   2.999  11.329  0.3005  0.1774 -0.4972
   54MPD2    H1  830   4.715   2.681  11.063  0.5813 -0.9186  0.3065
   54MPD2    H2  831   0.307   2.893  11.252 -0.2168 -0.1773  0.9554
   54MPD2    H3  832   0.227   2.725  11.094  0.4508 -0.5944  1.4199
   54MPD2     N  833   4.513   2.793  11.195  0.0202 -0.3685 -0.2853
   54MPD2    H5  834   4.489   2.718  11.132  0.7602 -2.0562  1.4242
   54MPD2    N1  835   0.130   3.038  11.416  0.4008 -1.0884  0.1219
   54MPD2    H7  836   0.048   3.082  11.457  1.3508 -0.0140  0.8822
   55MPD2     C  837   1.427   0.725   0.836 -0.4281 -0.0929  0.3869
   55MPD2    C1  838   1.416   0.840   0.769  0.9608  0.1741  0.1595
   55MPD2    C2  839   1.345   0.833   0.646  0.1587  0.1005 -0.4001
   55MPD2    C3  840   1.279   0.718   0.608 -0.8853 -0.1536  0.9002
   55MPD2    C4  841   1.288   0.607   0.692 -0.0477  0.0766 -0.2455
   55MPD2    C5  842   1.364   0.612   0.806 -0.0643 -0.1917  0.7056
   55MPD2     H  843   1.330   0.921   0.586 -1.0491 -0.0366 -0.2929
   55MPD2    H1  844   1.242   0.514   0.661 -2.1912  0.8136  0.8037
   55MPD2    H2  845   1.468   0.728   0.937  0.2053  0.6254  0.1134
   55MPD2    H3  846   1.371   0.532   0.879 -0.0465 -0.9729 -0.1487
   55MPD2     N  847   1.214   0.706   0.482 -0.0567  0.0948 -0.2511
   55MPD2    H5  848   1.165   0.618   0.471  0.5950 -0.3307  0.2221
   55MPD2    N1  849   1.482   0.958   0.818 -0.0790 -0.1547 -0.0360
   55MPD2    H7  850   1.515   0.957   0.914 -1.3516 -0.4990  0.4006
   56TCq2    C1  851   1.488   1.083   0.750  0.3678  0.6705  0.5801
   56TCq2    O2  852   1.434   1.125   0.649  0.4763  0.3568  0.4348
   56TCq2    C2  853   1.560   1.173   0.832  0.3481 -0.3537 -0.0434
   56TCq2    C3  854   1.647   1.127   0.929 -0.3900  0.1867 -0.6428
   56TCq2    C4  855   1.724   1.212   1.005  0.3842  0.3505  0.5582
   56TCq2    C5  856   1.714   1.347   0.990  0.0622 -0.4754  0.1530
   56TCq2    C6  857   1.638   1.394   0.877 -0.4613 -0.4276 -0.6644
   56TCq2    C7  858   1.558   1.308   0.801  0.0011 -1.2646 -0.1832
   56TCq2    C8  859   1.644   1.537   0.851  0.1685 -0.4718 -0.2459
   56TCq2    O4  860   1.696   1.612   0.929  0.4690  0.3211 -0.8783
   56TCq2    C9  861   1.788   1.160   1.122  0.0923  0.1579 -0.3444
   56TCq2    O5  862   1.835   1.245   1.205  0.4333  0.4398 -0.8225
   56TCq2    O6  863   1.802   1.035   1.135  0.2411  0.9646 -0.2168
   56TCq2    H2  864   1.662   1.021   0.940  1.7305  0.1680 -3.6534
   56TCq2    H3  865   1.769   1.415   1.054  1.0932  0.6177 -1.8933
   56TCq2    H4  866   1.485   1.346   0.732 -1.1679 -0.5707  1.4405
   57TMC2    C1  867   4.560   2.113  13.606 -0.2784 -0.2952 -0.4164
   57TMC2    C2  868   4.647   2.013  13.652  0.3409 -0.0813 -0.4076
   57TMC2    C3  869   4.698   1.938  13.549  0.1051  0.0818 -0.1608
   57TMC2    C4  870   4.548   2.142  13.469 -0.1128 -0.0076 -0.6184
   57TMC2    C5  871   4.617   2.067  13.378  0.7197 -0.3216 -0.2688
   57TMC2    C6  872   4.692   1.967  13.415  0.0394 -0.9992 -0.3039
   57TMC2     C  873   4.461   2.175  13.691  0.1182  0.3277 -0.2138
   57TMC2     O  874   4.371   2.242  13.642 -0.4049 -0.5560 -0.1098
   57TMC2     H  875   4.664   1.987  13.756 -0.9886  1.7516  0.2784
   57TMC2    H1  876   4.475   2.212  13.431  0.4722  0.2840 -1.2173
   57TMC2    H2  877   0.017   1.898  13.344 -1.1526 -1.5010 -0.5751
   57TMC2    C7  878   4.605   2.100  13.238  0.3676  0.0510 -0.2474
   57TMC2    C8  879   0.023   1.805  13.591 -0.2975 -0.1183  0.3858
   57TMC2    O1  880   4.536   2.201  13.217 -0.1750 -0.3356  0.8452
   57TMC2    O2  881   0.071   1.785  13.702 -0.4095  0.8413  0.1762
   57TMC2    O5  882   4.655   1.727  13.533  0.0876 -0.0474 -0.3225
   57TMC2    H5  883   4.606   1.775  13.463 -0.7251 -1.1584 -0.5331
   58MPD2     C  884   4.116   2.007  14.039 -0.3451  0.0385  0.2352
   58MPD2    C1  885   4.106   2.107  13.943 -0.2155 -0.4711 -0.2111
   58MPD2    C2  886   4.217   2.146  13.873  0.0701 -0.3725  0.0976
   58MPD2    C3  887   4.339   2.088  13.896 -0.5284  0.1714  0.2276
   58MPD2    C4  888   4.341   1.983  13.985  0.1578  0.4122  0.2773
   58MPD2    C5  889   4.237   1.945  14.057  0.0073 -0.0151 -0.3584
   58MPD2     H  890   4.202   2.226  13.802  1.5664  0.2849  0.5160
   58MPD2    H1  891   4.439   1.945  14.011 -1.2667 -3.5704 -0.2390
   58MPD2    H2  892   4.034   1.975  14.102  0.7828 -2.6507  0.3032
   58MPD2    H3  893   4.244   1.876  14.141  0.7543  0.3492 -0.1225
   58MPD2     N  894   4.453   2.110  13.814 -0.4242 -0.1764  0.3423
   58MPD2    H5  895   4.534   2.054  13.841  0.9738  0.9378 -1.5630
   58MPD2    N1  896   3.988   2.178  13.917  0.1363 -0.2209  0.2719
   58MPD2    H7  897   3.996   2.260  13.857 -1.6378 -1.1003 -1.1479
   59MPD2     C  898   2.116   2.242  12.902 -0.1556  0.1544  0.3449
   59MPD2    C1  899   2.224   2.167  12.858  0.4696 -0.1529 -0.2111
   59MPD2    C2  900   2.351   2.214  12.879 -0.7036  0.1541  0.3022
   59MPD2    C3  901   2.365   2.334  12.959  0.7068  0.0347  0.9164
   59MPD2    C4  902   2.252   2.405  13.006  0.4559  0.4216  0.3185
   59MPD2    C5  903   2.132   2.357  12.979  0.8473  0.4490  0.1723
   59MPD2     H  904   2.439   2.174  12.830 -0.6647 -0.3164  0.7559
   59MPD2    H1  905   2.265   2.492  13.070  1.0362 -0.5689  1.5499
   59MPD2    H2  906   2.016   2.202  12.888  0.8086 -2.1553  0.0220
   59MPD2    H3  907   2.044   2.406  13.018  1.3548  0.4635  1.3059
   59MPD2     N  908   2.485   2.397  12.989  0.2290  0.4157  0.4715
   59MPD2    H5  909   2.473   2.483  13.041 -1.7298 -0.3201  1.2365
   59MPD2    N1  910   2.207   2.055  12.772  0.1009  0.2394 -0.3498
   59MPD2    H7  911   2.287   2.025  12.717  0.4355  1.4418 -0.5238
   60TCq2    C1  912   2.095   1.974  12.767 -0.1110  0.0707 -0.3046
   60TCq2    O2  913   1.997   1.974  12.840 -0.6962 -0.3912 -0.4392
   60TCq2    C2  914   2.099   1.876  12.660 -0.3828 -0.5072 -0.2142
   60TCq2    C3  915   2.005   1.777  12.659  0.3505 -0.5218  0.6712
   60TCq2    C4  916   1.973   1.712  12.543 -0.1548 -0.0630  0.0092
   60TCq2    C5  917   2.037   1.744  12.426 -0.3822  0.3888 -0.5265
   60TCq2    C6  918   2.135   1.838  12.428 -0.7448 -0.5249 -0.4294
   60TCq2    C7  919   2.166   1.905  12.546 -0.2826  0.5436  0.1840
   60TCq2    C8  920   2.194   1.881  12.305 -0.4014  0.1327 -0.6182
   60TCq2    O4  921   2.253   1.799  12.239  0.3363  0.1570  0.3269
   60TCq2    C9  922   1.858   1.623  12.542  0.5012 -0.0168  0.2129
   60TCq2    O5  923   1.804   1.598  12.653  0.4112 -0.4706  0.4537
   60TCq2    O6  924   1.794   1.591  12.435 -0.7312  0.1734 -0.3631
   60TCq2    H2  925   1.951   1.750  12.749 -0.8006  1.1359  0.4911
   60TCq2    H3  926   2.008   1.695  12.334  0.8993  1.8714 -1.7032
   60TCq2    H4  927   2.245   1.979  12.541  0.4752 -0.2107  1.1594
   61MPD2     C  928   1.654   3.845  14.624 -0.1120 -0.2988 -0.1745
   61MPD2    C1  929   1.779   3.892  14.648 -0.1047  0.3447 -0.5693
   61MPD2    C2  930   1.825   3.994  14.572 -0.3695  0.7944 -0.3179
   61MPD2    C3  931   1.755   4.055  14.468 -0.3439 -0.4362 -0.0999
   61MPD2    C4  932   1.637   4.003  14.439  0.2262  0.1479 -0.1079
   61MPD2    C5  933   1.589   3.892  14.512 -0.1211 -0.2416  0.4986
   61MPD2     H  934   1.928   4.019  14.596  0.8216 -1.9574 -2.5587
   61MPD2    H1  935   1.578   4.035  14.354 -0.6178  1.0242  0.8125
   61MPD2    H2  936   1.608   3.764  14.678 -0.1444 -0.2485 -0.1272
   61MPD2    H3  937   1.490   3.849  14.501  0.5016 -1.6556  0.4732
   61MPD2     N  938   1.797   4.184  14.424 -0.3242  0.2596 -0.4909
   61MPD2    H5  939   1.885   4.210  14.468 -0.4540 -1.5913  0.8687
   61MPD2    N1  940   1.859   3.859  14.760 -0.2287 -0.2480 -0.0371
   61MPD2    H7  941   1.937   3.921  14.779  0.0848 -0.7902  0.4635
   62TCq2    C1  942   1.818   3.777  14.859  0.3049  0.1402  0.1364
   62TCq2    O2  943   1.783   3.661  14.840  0.6642  0.0443 -0.7067
   62TCq2    C2  944   1.840   3.841  14.985  0.1570 -0.3081  0.0394
   62TCq2    C3  945   1.848   3.769  15.097  0.0807 -0.2943 -0.5974
   62TCq2    C4  946   1.841   3.837  15.215  0.1870 -0.2314  0.0679
   62TCq2    C5  947   1.833   3.971  15.229  0.3832 -0.1301 -0.2718
   62TCq2    C6  948   1.830   4.039  15.105  1.1709 -0.5727  0.0132
   62TCq2    C7  949   1.827   3.979  14.986 -0.7020  0.0493  0.0156
   62TCq2    C8  950   1.843   4.183  15.110  0.0027  0.0355 -0.4840
   62TCq2    O4  951   1.855   4.230  14.998 -0.3245 -0.1635 -0.0032
   62TCq2    C9  952   1.833   3.758  15.331  0.4943  0.1679 -0.1172
   62TCq2    O5  953   1.792   3.802  15.439  0.1824 -0.2729 -0.3610
   62TCq2    O6  954   1.858   3.633  15.321 -0.2608 -0.3293 -0.1836
   62TCq2    H2  955   1.842   3.660  15.099 -2.7029 -0.1347 -0.2723
   62TCq2    H3  956   1.822   4.023  15.323  0.4388  4.2588 -2.6938
   62TCq2    H4  957   1.825   4.041  14.897 -0.2778  0.9983  0.6660
   63TMC2    C1  958   0.852   3.792   9.824 -0.2087  0.4873  0.6613
   63TMC2    C2  959   0.833   3.921   9.779  0.7161  1.1975 -0.6878
   63TMC2    C3  960   0.882   3.954   9.658 -0.1831  0.9345 -0.3577
   63TMC2    C4  961   0.909   3.699   9.740  0.1108 -0.0952  0.0399
   63TMC2    C5  962   0.950   3.726   9.616  0.0329 -0.6337 -0.0766
   63TMC2    C6  963   0.932   3.853   9.571 -0.4384  0.2262 -0.4570
   63TMC2     C  964   0.771   3.761   9.944  0.6433 -0.3332 -0.3376
   63TMC2     O  965   0.683   3.841   9.976 -0.4080 -0.0291 -0.2252
   63TMC2     H  966   0.768   3.991   9.832 -0.1925  0.3688 -0.7091
   63TMC2    H1  967   0.936   3.605   9.786  0.2383  0.0889  0.3408
   63TMC2    H2  968   0.986   3.884   9.482  0.5417 -0.5101 -0.1147
   63TMC2    C7  969   0.948   3.617   9.524  0.4220 -0.5847  0.3202
   63TMC2    C8  970   0.895   4.093   9.627 -0.2811 -0.4052  0.2334
   63TMC2    O1  971   0.924   3.516   9.585  0.7883 -0.5778  0.2407
   63TMC2    O2  972   0.926   4.122   9.512 -0.4727 -0.1310  0.0553
   63TMC2    O5  973   0.938   4.154   9.738 -0.2163 -0.0428  0.2340
   63TMC2    H5  974   0.915   4.113   9.824 -2.2203  2.0967  0.7334
   64MPD2     C  975   0.613   3.455  10.319 -0.1067 -0.2605 -0.8352
   64MPD2    C1  976   0.719   3.398  10.256  0.3843  0.9139 -0.1005
   64MPD2    C2  977   0.784   3.462  10.153 -0.1581  0.2138 -0.2637
   64MPD2    C3  978   0.740   3.585  10.117 -0.8561 -0.1794 -0.3659
   64MPD2    C4  979   0.635   3.643  10.183 -0.2221 -0.0670  0.5532
   64MPD2    C5  980   0.585   3.581  10.285 -0.5090 -0.0237 -0.4941
   64MPD2     H  981   0.860   3.403  10.104 -0.4580  0.2926 -0.8179
   64MPD2    H1  982   0.585   3.738  10.169 -1.4764 -0.8068  0.0103
   64MPD2    H2  983   0.556   3.411  10.400  0.1917 -2.0394 -1.5811
   64MPD2    H3  984   0.499   3.631  10.329  0.6683  0.7164  0.9645
   64MPD2     N  985   0.807   3.650  10.008  0.2947 -0.4074 -0.3335
   64MPD2    H5  986   0.897   3.609   9.982  1.6893  0.7222  2.7074
   64MPD2    N1  987   0.767   3.271  10.289  0.7322 -0.3504  0.2405
   64MPD2    H7  988   0.854   3.244  10.246  0.9216  0.8646 -0.1163
   65MPD2     C  989   2.162   3.202  15.483  0.2152 -0.4947 -0.1734
   65MPD2    C1  990   2.147   3.147  15.350 -0.2505  0.0044 -0.5071
   65MPD2    C2  991   2.129   3.011  15.339 -0.3242  0.4074  0.4242
   65MPD2    C3  992   2.105   2.937  15.459  0.3832 -0.0734 -0.0563
   65MPD2    C4  993   2.117   2.996  15.581  0.4169 -0.1077 -0.2275
   65MPD2    C5  994   2.160   3.125  15.594  0.3002 -0.4086  0.4703
   65MPD2     H  995   2.109   2.973  15.240  1.0546 -2.2052  1.1524
   65MPD2    H1  996   2.105   2.935  15.670 -0.1612  1.3184  0.6610
   65MPD2    H2  997   2.195   3.305  15.497  2.0777 -0.8979 -1.5617
   65MPD2    H3  998   2.177   3.173  15.689  0.3683  0.6602 -0.0819
   65MPD2     N  999   2.071   2.802  15.462  0.3862  0.0083  0.4510
   65MPD2    H5 1000   2.046   2.772  15.556 -0.9293 -0.7997 -0.1440
   65MPD2    N1 1001   2.145   3.234  15.234 -0.1785  0.0919 -0.4800
   65MPD2    H7 1002   2.150   3.194  15.140 -0.4381 -0.4298 -0.2733
   66TCq2    C1 1003   2.137   3.370  15.243 -0.4122  0.2162  0.2135
   66TCq2    O2 1004   2.129   3.433  15.346  0.0971  0.2016 -0.2066
   66TCq2    C2 1005   2.136   3.444  15.119  0.0580 -0.5457  0.2174
   66TCq2    C3 1006   2.185   3.391  15.001  0.5372 -0.1379 -0.2872
   66TCq2    C4 1007   2.225   3.474  14.899  0.1904  0.1012 -0.3916
   66TCq2    C5 1008   2.228   3.611  14.920  0.5423 -0.1351 -0.5482
   66TCq2    C6 1009   2.182   3.656  15.041  0.9062 -0.1810 -0.6551
   66TCq2    C7 1010   2.126   3.579  15.141 -0.0698  0.6283  0.0468
   66TCq2    C8 1011   2.199   3.799  15.071  0.2533  0.4023  0.7444
   66TCq2    O4 1012   2.213   3.871  14.969  0.6390  0.4387  0.5964
   66TCq2    C9 1013   2.263   3.416  14.775 -0.1796 -0.3267  0.4387
   66TCq2    O5 1014   2.277   3.502  14.689 -0.3785 -0.1528  0.0413
   66TCq2    O6 1015   2.332   3.311  14.791 -0.0847  0.0032 -0.4474
   66TCq2    H2 1016   2.189   3.284  14.988 -1.7882 -0.0585 -1.6877
   66TCq2    H3 1017   2.274   3.679  14.849  0.7096  0.1051 -0.2082
   66TCq2    H4 1018   2.081   3.627  15.227  1.5723  2.2724 -0.0221
   67MPD2     C 1019   2.204   3.140  13.696 -0.0392 -0.4423  0.3155
   67MPD2    C1 1020   2.263   3.051  13.787 -0.7301 -0.2591  0.1170
   67MPD2    C2 1021   2.241   2.915  13.757 -0.5148  0.7727 -0.1747
   67MPD2    C3 1022   2.149   2.875  13.658 -0.1042  0.3235  0.9088
   67MPD2    C4 1023   2.083   2.971  13.584  0.5836  0.7193 -0.2348
   67MPD2    C5 1024   2.109   3.103  13.607 -0.3878 -0.1813  0.0036
   67MPD2     H 1025   2.285   2.833  13.813 -0.0837  0.5594 -0.8274
   67MPD2    H1 1026   2.008   2.952  13.507 -0.7813 -0.7686  1.4547
   67MPD2    H2 1027   2.220   3.246  13.714 -2.6385  0.8348 -4.9684
   67MPD2    H3 1028   2.052   3.174  13.547 -2.6007 -1.6318  0.3854
   67MPD2     N 1029   2.118   2.742  13.625 -0.0808  0.2148 -0.1411
   67MPD2    H5 1030   2.039   2.733  13.563  0.2122  5.3492 -1.2844
   67MPD2    N1 1031   2.354   3.085  13.889  0.1305 -0.0838 -0.2975
   67MPD2    H7 1032   2.418   3.009  13.912 -0.5960 -0.4897  0.3857
   68TCq2    C1 1033   2.367   3.209  13.941  0.0409  0.3349  0.2383
   68TCq2    O2 1034   2.297   3.309  13.920 -0.7609 -0.1015  0.2695
   68TCq2    C2 1035   2.472   3.218  14.034 -0.1480 -0.4392  0.4064
   68TCq2    C3 1036   2.491   3.345  14.084  0.2160 -0.0695 -0.0736
   68TCq2    C4 1037   2.549   3.365  14.211  0.9361  0.2484 -0.1975
   68TCq2    C5 1038   2.587   3.261  14.293 -0.0744  0.5381 -0.0844
   68TCq2    C6 1039   2.570   3.132  14.240 -0.4980  0.0378 -0.4071
   68TCq2    C7 1040   2.513   3.107  14.114  0.1262 -0.2544 -0.1806
   68TCq2    C8 1041   2.595   3.015  14.319  0.2756 -0.5288  0.2877
   68TCq2    O4 1042   2.588   2.904  14.260 -0.2540  0.1580  0.3524
   68TCq2    C9 1043   2.567   3.497  14.272 -0.6646 -0.2684  1.0385
   68TCq2    O5 1044   2.637   3.506  14.379  0.0816 -0.5983 -0.3529
   68TCq2    O6 1045   2.492   3.587  14.226 -0.0770  0.2156  0.5661
   68TCq2    H2 1046   2.455   3.433  14.033 -1.8043  0.5737  2.4787
   68TCq2    H3 1047   2.627   3.284  14.390  0.9554 -0.9474 -0.1469
   68TCq2    H4 1048   2.490   3.008  14.076  0.2095  0.2770 -1.6247
   69TMC2    C1 1049   4.437   3.808  12.256  0.1298  0.4407 -0.6683
   69TMC2    C2 1050   4.346   3.904  12.223  0.2360  0.5607 -0.1888
   69TMC2    C3 1051   4.360   3.962  12.101  0.5661  0.1831 -0.0632
   69TMC2    C4 1052   4.539   3.774  12.165 -0.6213  0.5963  0.2953
   69TMC2    C5 1053   4.550   3.842  12.051  0.6556 -0.2654  0.3724
   69TMC2    C6 1054   4.461   3.941  12.014 -0.4004 -0.2250  0.3365
   69TMC2     C 1055   4.414   3.729  12.377  0.3397 -0.3743  0.0726
   69TMC2     O 1056   4.515   3.667  12.413  0.4882 -0.3985 -0.1082
   69TMC2     H 1057   4.260   3.930  12.284  0.3453  0.6213 -0.0618
   69TMC2    H1 1058   4.610   3.697  12.190 -0.7274  0.5353  0.4065
   69TMC2    H2 1059   4.484   4.025  11.949  2.2677 -0.8582  0.4908
   69TMC2    C7 1060   4.626   3.778  11.945 -0.0327  0.0436 -0.0815
   69TMC2    C8 1061   4.266   4.065  12.069 -0.0529 -0.0183  0.5564
   69TMC2    O1 1062   4.719   3.708  11.984 -0.5237 -0.3285  0.3014
   69TMC2    O2 1063   4.205   4.119  12.158  0.4935  0.2824 -0.2367
   69TMC2    O5 1064   4.274   4.127  11.949  0.0700 -0.2183  0.3177
   69TMC2    H5 1065   4.321   4.087  11.873  1.2118  0.7553  0.4979
   70MPD2     C 1066   4.093   3.634  12.531 -0.3304 -0.4734  0.4713
   70MPD2    C1 1067   4.223   3.631  12.504 -0.7042  0.1978  0.1600
   70MPD2    C2 1068   4.299   3.524  12.544  0.0479 -0.2754  0.0880
   70MPD2    C3 1069   4.243   3.424  12.622 -0.5724  0.4737 -0.1028
   70MPD2    C4 1070   4.110   3.437  12.656  0.1055 -0.0689 -0.4710
   70MPD2    C5 1071   4.035   3.547  12.609 -0.5277 -0.3547  0.8969
   70MPD2     H 1072   4.405   3.517  12.523  0.3097  0.8387  1.0621
   70MPD2    H1 1073   4.069   3.358  12.718 -1.6544 -0.5044 -2.1558
   70MPD2    H2 1074   4.030   3.715  12.495  0.3391  0.4813  1.4150
   70MPD2    H3 1075   3.928   3.552  12.625 -1.0606 -1.2541 -2.4307
   70MPD2     N 1076   4.311   3.303  12.663 -0.5247 -0.7393  0.2873
   70MPD2    H5 1077   4.254   3.237  12.715 -1.7594 -0.1246 -0.2960
   70MPD2    N1 1078   4.277   3.727  12.417 -0.0336  0.2534 -0.0380
   70MPD2    H7 1079   4.210   3.790  12.374  0.9179 -0.2383 -2.2140
   71TMC2    C1 1080   3.179   4.250   1.529  0.1858  0.4918  0.1088
   71TMC2    C2 1081   3.294   4.204   1.586 -0.0204 -0.5763 -0.0584
   71TMC2    C3 1082   3.300   4.188   1.716  0.6990  0.3071 -0.7354
   71TMC2    C4 1083   3.072   4.270   1.609  0.5232 -0.3659 -0.2474
   71TMC2    C5 1084   3.071   4.224   1.738 -0.1579  0.3348 -0.7758
   71TMC2    C6 1085   3.192   4.207   1.799 -0.0510 -0.4244  0.3624
   71TMC2     C 1086   3.181   4.266   1.385  0.5280  0.1122  0.2145
   71TMC2     O 1087   3.076   4.301   1.338  0.2368  0.0006  0.4457
   71TMC2     H 1088   3.381   4.162   1.536 -0.5553 -1.1282 -0.5272
   71TMC2    H1 1089   2.978   4.299   1.563  0.9073  0.0205 -0.7876
   71TMC2    H2 1090   3.203   4.180   1.903 -1.2371  0.4891  0.7143
   71TMC2    C7 1091   2.961   4.268   1.830  0.2092 -0.4144 -0.1052
   71TMC2    C8 1092   3.430   4.219   1.764 -0.1142  0.1472 -0.3315
   71TMC2    O1 1093   2.988   4.254   1.947  0.0046  0.0144 -0.1451
   71TMC2    O2 1094   3.501   4.296   1.702  0.1473  0.0358  0.3213
   71TMC2    O5 1095   3.453   4.177   1.889 -0.0309 -0.2526  0.3576
   71TMC2    H5 1096   3.390   4.111   1.925  0.2979 -2.1179 -2.4651
   72MPD2     C 1097   3.342   4.166   0.907 -0.2440  0.4982 -0.1896
   72MPD2    C1 1098   3.225   4.215   0.958 -0.2312  0.2163 -0.2385
   72MPD2    C2 1099   3.206   4.240   1.086 -0.5504 -0.4794  0.5366
   72MPD2    C3 1100   3.311   4.225   1.179  0.6361  0.0619  0.4179
   72MPD2    C4 1101   3.429   4.178   1.124 -0.6469 -0.7700  0.6782
   72MPD2    C5 1102   3.448   4.145   0.993  0.8675  0.1466 -0.2586
   72MPD2     H 1103   3.107   4.274   1.112  0.9016  3.1085  1.4268
   72MPD2    H1 1104   3.517   4.169   1.186 -0.5108 -0.0679  0.5849
   72MPD2    H2 1105   3.350   4.116   0.811 -1.4987 -1.1453  0.5609
   72MPD2    H3 1106   3.537   4.096   0.956  0.7980 -0.5544  0.5000
   72MPD2     N 1107   3.298   4.248   1.316  0.5988  0.0782 -0.0247
   72MPD2    H5 1108   3.379   4.222   1.371  0.7168  1.3341  0.3822
   72MPD2    N1 1109   3.112   4.245   0.870  0.2387  0.4335  0.8134
   72MPD2    H7 1110   3.034   4.289   0.918  0.2840 -1.1085  2.2670
   73TMC2    C1 1111   1.461   1.276  13.608  0.4687 -0.3232 -0.2926
   73TMC2    C2 1112   1.349   1.357  13.589 -0.3785 -0.0981 -0.2565
   73TMC2    C3 1113   1.377   1.495  13.579  0.4282  1.3452  0.7130
   73TMC2    C4 1114   1.578   1.327  13.638 -0.2514  0.5116  0.3790
   73TMC2    C5 1115   1.602   1.459  13.631 -0.5556  0.1951 -0.4824
   73TMC2    C6 1116   1.503   1.548  13.607  0.2689  0.0377  0.7641
   73TMC2     C 1117   1.487   1.165  13.512  0.0328  0.5657 -0.7222
   73TMC2     O 1118   1.598   1.131  13.489 -0.2266 -0.5870  1.2833
   73TMC2     H 1119   1.253   1.320  13.556 -1.8708  1.8819  1.8489
   73TMC2    H1 1120   1.656   1.254  13.655  0.6277  1.0341 -1.4722
   73TMC2    H2 1121   1.525   1.654  13.615 -0.3578  0.1921  0.4611
   73TMC2    C7 1122   1.723   1.490  13.555  0.3926 -0.2680 -0.1664
   73TMC2    C8 1123   1.257   1.577  13.553  0.1550 -0.4280 -0.3503
   73TMC2    O1 1124   1.776   1.601  13.569  0.7152  0.8554  0.5092
   73TMC2    O2 1125   1.149   1.531  13.592 -0.3103  0.5791  0.0461
   73TMC2    O5 1126   1.300   1.707  13.552  0.1809 -0.6414 -0.4263
   73TMC2    H5 1127   1.394   1.713  13.524 -0.5502  0.6437 -2.6339
   74MPD2     C 1128   1.342   0.825  13.153 -0.2640 -1.0827 -0.0187
   74MPD2    C1 1129   1.466   0.878  13.181  0.2746 -0.6985  0.0290
   74MPD2    C2 1130   1.485   0.971  13.283 -0.8122  0.4852  1.1288
   74MPD2    C3 1131   1.374   1.018  13.350 -0.4221  0.1891 -0.7559
   74MPD2    C4 1132   1.250   0.976  13.321  0.0822 -0.3391  0.3051
   74MPD2    C5 1133   1.235   0.871  13.234 -0.1491 -0.2002  0.8632
   74MPD2     H 1134   1.587   0.996  13.310 -0.8427  0.0657  1.6241
   74MPD2    H1 1135   1.173   1.021  13.382 -0.2319 -1.5892  0.8117
   74MPD2    H2 1136   1.320   0.769  13.062 -2.3114  0.5619 -0.5494
   74MPD2    H3 1137   1.134   0.847  13.203 -0.9306  1.3318  2.2281
   74MPD2     N 1138   1.375   1.120  13.451  0.4214  0.0359 -0.5651
   74MPD2    H5 1139   1.287   1.150  13.493  0.7477 -0.7280  0.6853
   74MPD2    N1 1140   1.568   0.850  13.087 -0.0083 -0.0697 -0.3236
   74MPD2    H7 1141   1.548   0.784  13.012 -2.4740 -1.0927  1.2281
   75TCq2    C1 1142   2.201   2.632  13.650 -1.0961 -0.2881  0.5703
   75TCq2    O2 1143   2.311   2.634  13.710  0.2742 -0.1906 -0.2993
   75TCq2    C2 1144   2.136   2.514  13.598 -0.1322 -0.2666 -0.3656
   75TCq2    C3 1145   2.183   2.395  13.662  0.4520  0.3702  0.1609
   75TCq2    C4 1146   2.101   2.288  13.678 -0.9680 -0.6056 -0.2939
   75TCq2    C5 1147   1.974   2.294  13.624  0.4392  0.0701 -0.5055
   75TCq2    C6 1148   1.931   2.408  13.565  0.3869  0.0219 -0.0534
   75TCq2    C7 1149   2.008   2.520  13.550 -0.1304  0.4657  0.2091
   75TCq2    C8 1150   1.810   2.395  13.502  0.4139  0.3529 -0.1890
   75TCq2    O4 1151   1.781   2.282  13.464 -0.3652  0.6667 -0.0019
   75TCq2    C9 1152   2.148   2.170  13.739 -0.5389  0.8182  0.5545
   75TCq2    O5 1153   2.082   2.065  13.711  0.3495  0.6405  0.2668
   75TCq2    O6 1154   2.251   2.179  13.811  0.8237  0.1298 -0.0552
   75TCq2    H2 1155   2.281   2.400  13.709  0.9925 -1.3219 -0.7526
   75TCq2    H3 1156   1.904   2.214  13.643 -0.2540  0.8937  0.3621
   75TCq2    H4 1157   1.977   2.604  13.489  0.8164  0.4373 -0.3130
   76MPD2     C 1158   1.007   3.549  11.858 -1.0564 -0.1395  0.0928
   76MPD2    C1 1159   0.890   3.470  11.845  0.8023 -0.4034  0.8656
   76MPD2    C2 1160   0.893   3.347  11.912 -0.0388  0.2547 -0.2937
   76MPD2    C3 1161   0.993   3.312  11.999 -0.5893  0.7543 -0.3645
   76MPD2    C4 1162   1.089   3.404  12.020  0.4676  0.3474 -0.0507
   76MPD2    C5 1163   1.106   3.517  11.949 -0.7377 -0.6328  0.7337
   76MPD2     H 1164   0.811   3.278  11.902  0.0185  0.1394  0.0192
   76MPD2    H1 1165   1.175   3.383  12.083  0.5123 -0.8518 -0.5007
   76MPD2    H2 1166   1.024   3.641  11.803 -1.0334  0.4569  1.0826
   76MPD2    H3 1167   1.195   3.578  11.961  0.2426 -1.9045 -0.0060
   76MPD2     N 1168   1.011   3.188  12.061  0.1416 -0.3916 -0.3653
   76MPD2    H5 1169   1.085   3.192  12.130  0.1600  0.9128 -0.4711
   76MPD2    N1 1170   0.783   3.503  11.754  0.0428 -0.0001  0.0722
   76MPD2    H7 1171   0.711   3.432  11.741 -0.7144  0.7946 -0.0395
   77TCq2    C1 1172   0.932   3.075  12.042  0.3429  0.3125  0.2732
   77TCq2    O2 1173   0.851   3.053  11.949  0.5936  0.1273  0.7797
   77TCq2    C2 1174   0.995   2.959  12.102 -0.6287  0.5118  0.4249
   77TCq2    C3 1175   0.998   2.848  12.024 -0.3102 -0.4672  0.0579
   77TCq2    C4 1176   1.095   2.756  12.055  0.1815 -0.1090  0.1454
   77TCq2    C5 1177   1.169   2.764  12.164  0.0973 -0.1685 -0.4243
   77TCq2    C6 1178   1.168   2.872  12.243  0.0162 -0.5731 -0.4214
   77TCq2    C7 1179   1.088   2.979  12.210  0.1448  0.3937 -0.8435
   77TCq2    C8 1180   1.233   2.857  12.373 -0.6464  0.0803  0.4054
   77TCq2    O4 1181   1.305   2.763  12.386  0.0972 -0.6575  0.2251
   77TCq2    C9 1182   1.099   2.635  11.970 -0.3795  0.0710  0.0700
   77TCq2    O5 1183   1.031   2.647  11.866  0.0494  0.6624 -0.0611
   77TCq2    O6 1184   1.186   2.545  11.993  0.4186 -0.0039  0.1496
   77TCq2    H2 1185   0.935   2.844  11.936 -1.3961  0.4050  0.7955
   77TCq2    H3 1186   1.236   2.683  12.188 -0.6771 -0.4574  0.7634
   77TCq2    H4 1187   1.066   3.061  12.277  0.7758  0.3977 -0.6409
   78MPD1     C 1188   4.021   3.259   2.981 -0.0261  0.0364 -0.3995
   78MPD1    C1 1189   3.882   3.238   2.977 -0.2272  0.2881 -0.0246
   78MPD1    C2 1190   3.810   3.347   2.945  0.4785 -0.2656  0.1534
   78MPD1    C3 1191   3.868   3.472   2.914  0.1153 -0.6071 -0.3026
   78MPD1    C4 1192   4.001   3.489   2.914 -0.2561 -0.1969  0.6155
   78MPD1    C5 1193   4.080   3.380   2.953 -0.8038 -0.5703 -0.8000
   78MPD1     H 1194   3.703   3.328   2.941  0.7979 -1.9132 -0.5335
   78MPD1    H1 1195   4.045   3.586   2.897 -0.6580  0.3758  2.8878
   78MPD1    H2 1196   4.087   3.174   2.997  0.5998  0.3850 -1.1214
   78MPD1    H3 1197   4.188   3.387   2.950 -1.0754  4.0699  0.9008
   78MPD1     N 1198   3.791   3.588   2.881  0.4998  0.6405  0.2892
   78MPD1    H5 1199   3.842   3.652   2.821  0.2735 -0.4197 -1.0291
   78MPD1    N1 1200   3.816   3.118   3.027 -0.2883  0.0951  0.0429
   78MPD1    H6 1201   3.722   3.101   2.991 -0.3743 -1.1908  0.8678
   78MPD1    H7 1202   3.870   3.034   3.009  1.3844  0.7208  2.2704
   79TCq2    C1 1203   3.654   3.605   2.895  0.5885 -0.6156  1.1159
   79TCq2    O2 1204   3.579   3.544   2.966  0.4690 -0.5648  0.2721
   79TCq2    C2 1205   3.602   3.700   2.810 -0.2590 -0.2291 -0.2565
   79TCq2    C3 1206   3.467   3.715   2.825 -0.4674 -0.3231 -0.2499
   79TCq2    C4 1207   3.404   3.774   2.720 -0.2644  0.2138  0.1227
   79TCq2    C5 1208   3.465   3.821   2.606  0.1531 -0.0776 -0.0871
   79TCq2    C6 1209   3.601   3.805   2.607 -0.4224  0.5368  0.1187
   79TCq2    C7 1210   3.670   3.741   2.700  0.8627 -0.0287  0.0110
   79TCq2    C8 1211   3.687   3.861   2.502 -0.5924 -0.1625 -0.0206
   79TCq2    O4 1212   3.798   3.814   2.484 -0.0048  0.4040 -0.3434
   79TCq2    C9 1213   3.259   3.792   2.724  0.1827 -0.2963 -0.2027
   79TCq2    O5 1214   3.199   3.763   2.831  0.3853 -0.5836  0.0052
   79TCq2    O6 1215   3.202   3.861   2.638 -0.5315  0.2836 -0.0587
   79TCq2    H2 1216   3.413   3.685   2.914 -0.0759 -1.4923 -0.4062
   79TCq2    H3 1217   3.401   3.862   2.529  0.9706 -0.7771 -1.1550
   79TCq2    H4 1218   3.778   3.740   2.693  0.9228  1.3220  0.8291
   80MPD2     C 1219   0.177   2.940  11.986  0.2082 -1.3251 -0.2403
   80MPD2    C1 1220   0.055   2.911  11.920 -0.3339  0.1806  0.8815
   80MPD2    C2 1221   4.660   2.960  11.977 -0.1767 -0.7302  0.0226
   80MPD2    C3 1222   4.661   3.024  12.096  0.1419 -1.3730  0.1375
   80MPD2    C4 1223   0.063   3.042  12.159  0.0931 -0.1883  0.0094
   80MPD2    C5 1224   0.180   2.998  12.106 -0.1948 -0.1940 -0.0306
   80MPD2     H 1225   4.564   2.933  11.937  1.0670 -0.8325 -2.8715
   80MPD2    H1 1226   0.074   3.095  12.252  0.0843  0.4197 -0.3354
   80MPD2    H2 1227   0.275   2.928  11.941  1.4638  1.5281  1.6775
   80MPD2    H3 1228   0.273   3.017  12.159 -1.0077  0.8950  0.9978
   80MPD2     N 1229   4.546   3.069  12.167 -0.1634  0.4791 -0.3324
   80MPD2    H5 1230   4.560   3.115  12.257  2.9333 -2.7011  0.7890
   80MPD2    N1 1231   0.049   2.842  11.798 -0.1115 -0.5650  0.7441
   80MPD2    H7 1232   4.676   2.831  11.760  1.0408 -2.1294 -1.6366
   81TCq2    C1 1233   0.159   2.811  11.726 -0.7199 -0.1866  1.0315
   81TCq2    O2 1234   0.272   2.855  11.743  0.6944  0.8110 -0.0396
   81TCq2    C2 1235   0.145   2.704  11.619  0.1377  0.1119 -1.2388
   81TCq2    C3 1236   0.251   2.687  11.537  0.6068 -0.0788 -0.0779
   81TCq2    C4 1237   0.238   2.610  11.428 -0.7284 -0.2375  0.1587
   81TCq2    C5 1238   0.116   2.554  11.395 -0.0898  0.5137 -0.5707
   81TCq2    C6 1239   0.012   2.575  11.480 -1.4906  0.0275 -0.9417
   81TCq2    C7 1240   0.018   2.657  11.587 -0.6615  1.0833  0.1133
   81TCq2    C8 1241   4.606   2.520  11.432 -0.1629 -0.5532  0.0194
   81TCq2    O4 1242   4.618   2.453  11.327 -0.8632  0.5264  0.0873
   81TCq2    C9 1243   0.356   2.584  11.346 -1.3060  0.6962 -0.8627
   81TCq2    O5 1244   0.467   2.616  11.400  0.2003 -0.0132 -0.0462
   81TCq2    O6 1245   0.353   2.512  11.243 -0.0053  0.0745  0.7236
   81TCq2    H2 1246   0.350   2.724  11.560  0.8308 -1.6345  1.4538
   81TCq2    H3 1247   0.097   2.498  11.304  0.5341 -1.6608  0.6669
   81TCq2    H4 1248   4.667   2.652  11.669 -0.5907 -0.6916  0.0536
   82MPD2     C 1249   2.378   2.248  10.934  0.3215  0.4485 -0.0397
   82MPD2    C1 1250   2.478   2.237  10.842 -0.6518  0.3198 -0.8283
   82MPD2    C2 1251   2.595   2.169  10.871 -0.2559 -0.0473 -0.4232
   82MPD2    C3 1252   2.607   2.104  10.994 -0.2055 -0.7748  0.6367
   82MPD2    C4 1253   2.501   2.121  11.086 -0.0886  0.8800 -0.2104
   82MPD2    C5 1254   2.388   2.181  11.051 -0.6363  0.0782  0.7402
   82MPD2     H 1255   2.675   2.156  10.799 -0.1962 -0.0199 -0.3615
   82MPD2    H1 1256   2.499   2.070  11.182 -1.7920 -1.3713 -1.4254
   82MPD2    H2 1257   2.284   2.294  10.907  0.5872  0.9089 -0.1896
   82MPD2    H3 1258   2.303   2.181  11.118 -0.4796  2.1280  0.9366
   82MPD2     N 1259   2.714   2.023  11.035  0.5334 -0.3044  0.0882
   82MPD2    H5 1260   2.700   1.984  11.127 -2.2409  1.2795  0.3325
   82MPD2    N1 1261   2.441   2.282  10.708 -0.1159  0.3386 -0.1606
   82MPD2    H7 1262   2.345   2.313  10.694 -0.6106 -0.8713  0.6247
   83TCq2    C1 1263   2.841   2.010  10.978  0.0764 -0.6558 -0.5493
   83TCq2    O2 1264   2.890   2.085  10.893  0.1102 -0.0624 -0.4033
   83TCq2    C2 1265   2.920   1.917  11.050 -0.2455  0.3400 -0.1381
   83TCq2    C3 1266   3.059   1.939  11.040 -0.5843  0.5725  0.3453
   83TCq2    C4 1267   3.139   1.844  11.097 -0.1067  0.3701 -0.3888
   83TCq2    C5 1268   3.090   1.724  11.134  0.3925 -0.5581  0.2064
   83TCq2    C6 1269   2.960   1.711  11.141  0.4036  0.3717  0.1345
   83TCq2    C7 1270   2.870   1.803  11.093 -0.5925 -0.5260 -0.4735
   83TCq2    C8 1271   2.911   1.579  11.159 -0.0136 -0.6392  0.3651
   83TCq2    O4 1272   2.916   1.528  11.269  0.3575 -0.2023  0.7488
   83TCq2    C9 1273   3.281   1.870  11.103  0.7341 -0.9574  1.1308
   83TCq2    O5 1274   3.315   1.972  11.043 -0.0192 -0.2070 -0.2979
   83TCq2    O6 1275   3.351   1.803  11.179 -0.6832 -0.8277  0.2440
   83TCq2    H2 1276   3.103   2.034  11.011 -2.2152  1.2255  0.0214
   83TCq2    H3 1277   3.154   1.646  11.175  0.2412 -0.8839 -0.1681
   83TCq2    H4 1278   2.763   1.788  11.104 -0.7826 -0.5956 -2.3579
   84TCq2    C1 1279   3.720   1.243   9.958  0.1056 -0.3468  0.0828
   84TCq2    O2 1280   3.613   1.194   9.983  0.1626 -0.5953  0.0683
   84TCq2    C2 1281   3.805   1.279  10.068 -0.3506  0.6510 -0.4454
   84TCq2    C3 1282   3.939   1.284  10.046  0.1777 -0.1044 -0.2460
   84TCq2    C4 1283   4.024   1.307  10.150 -0.4765 -0.2941 -0.4077
   84TCq2    C5 1284   3.974   1.322  10.282 -0.2540 -0.0804  0.4333
   84TCq2    C6 1285   3.846   1.287  10.303 -0.1514  0.2784  0.1974
   84TCq2    C7 1286   3.758   1.271  10.194  0.4095  0.3243  0.3591
   84TCq2    C8 1287   3.808   1.279  10.445  0.1074 -0.4801  0.3687
   84TCq2    O4 1288   3.886   1.318  10.528 -0.2735  0.6743  0.3407
   84TCq2    C9 1289   4.154   1.342  10.109 -0.0236  0.3335 -0.3010
   84TCq2    O5 1290   4.222   1.261  10.040 -0.0501  0.7382  0.6728
   84TCq2    O6 1291   4.186   1.464  10.103  0.5754  0.2546 -0.0787
   84TCq2    H2 1292   3.988   1.281   9.949  1.0300  0.7781  0.1521
   84TCq2    H3 1293   4.045   1.350  10.359 -0.2602  0.1370  0.3602
   84TCq2    H4 1294   3.653   1.247  10.208  0.0464  0.2153 -2.5795
   85MPD2     C 1295   0.162   3.976  16.230  0.3656 -0.0183  0.3538
   85MPD2    C1 1296   0.078   3.984  16.126 -0.5399 -0.7916 -0.1060
   85MPD2    C2 1297   0.107   4.070  16.016 -0.6771  0.1466  0.4737
   85MPD2    C3 1298   0.223   4.147  16.016 -0.1748  0.1434  0.5916
   85MPD2    C4 1299   0.314   4.134  16.120 -0.1139 -0.4424 -0.2015
   85MPD2    C5 1300   0.280   4.051  16.225 -0.1246 -0.3023  0.9705
   85MPD2     H 1301   0.036   4.077  15.934 -0.6620 -0.7397  0.3838
   85MPD2    H1 1302   0.403   4.196  16.112  0.2556 -0.8834  0.4830
   85MPD2    H2 1303   0.161   3.902  16.309 -1.0216 -0.3751 -0.0028
   85MPD2    H3 1304   0.360   4.027  16.294 -1.8275  0.7313  3.2823
   85MPD2     N 1305   0.238   4.227  15.903 -0.4876  0.0184  0.2544
   85MPD2    H5 1306   0.158   4.239  15.842 -0.8149 -2.7582  0.1533
   85MPD2    N1 1307   4.684   3.894  16.118  0.3076  0.0341  0.2357
   85MPD2    H7 1308   4.628   3.906  16.034 -0.9267 -1.0704  0.9104
   86TCq2    C1 1309   0.339   4.313  15.875 -0.1514 -0.2800 -0.4103
   86TCq2    O2 1310   0.445   4.331  15.934 -0.3663  0.6755  0.0370
   86TCq2    C2 1311   0.308   4.406  15.766 -0.0858 -0.7574 -0.0851
   86TCq2    C3 1312   0.177   4.452  15.762 -0.6118  0.2438 -0.1235
   86TCq2    C4 1313   0.152   4.568  15.697 -0.6509  0.1777 -0.0584
   86TCq2    C5 1314   0.249   4.636  15.633 -0.4820  0.1748  0.8918
   86TCq2    C6 1315   0.381   4.582  15.638 -0.4926 -0.4198  0.1011
   86TCq2    C7 1316   0.412   4.469  15.710 -0.6996 -0.2102  0.6974
   86TCq2    C8 1317   0.467   4.594  15.518  0.5958 -0.4047  0.2328
   86TCq2    O4 1318   0.549   4.506  15.511 -0.5990  0.4543  0.4270
   86TCq2    C9 1319   0.028   4.629  15.716 -0.7839 -0.3023  0.4389
   86TCq2    O5 1320   0.022   0.034  15.700 -0.2047  0.6294  0.1597
   86TCq2    O6 1321   4.659   4.555  15.764 -0.2543  0.4732 -0.4988
   86TCq2    H2 1322   0.107   4.422  15.839  0.7219  0.9471  1.3588
   86TCq2    H3 1323   0.229   0.014  15.589 -2.6158 -0.7505 -0.2041
   86TCq2    H4 1324   0.510   4.425  15.725 -0.1151  0.6321 -0.7526
   87MPD2     C 1325   3.192   3.666   1.992  0.1924  0.6110  0.7701
   87MPD2    C1 1326   3.256   3.655   1.871 -0.7510 -0.6126 -0.2555
   87MPD2    C2 1327   3.212   3.726   1.762 -0.4301  0.3212 -0.0683
   87MPD2    C3 1328   3.098   3.801   1.766 -0.1652  0.5952 -0.2808
   87MPD2    C4 1329   3.032   3.805   1.887  0.5635  0.3467 -0.4772
   87MPD2    C5 1330   3.085   3.753   2.000 -0.1053 -0.2265 -0.8966
   87MPD2     H 1331   3.263   3.722   1.666 -1.5680 -1.0851 -0.6155
   87MPD2    H1 1332   2.936   3.855   1.891  0.8148  0.8327 -0.4635
   87MPD2    H2 1333   3.223   3.604   2.075 -1.2005  0.4363  1.1587
   87MPD2    H3 1334   3.031   3.773   2.092 -0.6824  0.8029 -1.4675
   87MPD2     N 1335   3.039   3.865   1.651  0.2817 -0.2442  0.3369
   87MPD2    H5 1336   2.952   3.909   1.677  0.6325  0.5486  0.1702
   87MPD2    N1 1337   3.346   3.546   1.861 -0.1391  0.2924  0.8148
   87MPD2    H7 1338   3.362   3.500   1.950  0.2271  0.6512  0.9323
   88TCq2    C1 1339   3.394   3.496   1.745 -0.8361 -0.2845 -0.1957
   88TCq2    O2 1340   3.369   3.521   1.624  1.0514 -0.4368  0.2480
   88TCq2    C2 1341   3.452   3.362   1.755 -0.1017 -0.5002 -0.5026
   88TCq2    C3 1342   3.465   3.311   1.879 -0.0637  0.0198 -0.0788
   88TCq2    C4 1343   3.465   3.172   1.889  0.0708  0.4098  0.2294
   88TCq2    C5 1344   3.445   3.091   1.779 -0.2121 -0.2890  0.3207
   88TCq2    C6 1345   3.434   3.149   1.660 -0.4580 -0.0842 -0.3784
   88TCq2    C7 1346   3.435   3.283   1.643  0.7043 -0.2689  0.6835
   88TCq2    C8 1347   3.385   3.068   1.550  0.5097  0.3044 -0.3949
   88TCq2    O4 1348   3.421   3.102   1.438 -0.2949 -0.1257  0.5615
   88TCq2    C9 1349   3.494   3.117   2.019  0.1605 -0.5064  0.2628
   88TCq2    O5 1350   3.436   3.013   2.061  0.5996  0.3675  0.0515
   88TCq2    O6 1351   3.559   3.199   2.092 -0.0038 -0.8132 -0.1478
   88TCq2    H2 1352   3.495   3.377   1.959  3.0470 -1.9713  0.3840
   88TCq2    H3 1353   3.450   2.983   1.789  2.7084 -0.0147  1.9907
   88TCq2    H4 1354   3.422   3.331   1.547 -0.8174  0.1631  1.1039
   89MPD2     C 1355   3.975   4.684   1.822 -0.0827 -0.1821 -0.2501
   89MPD2    C1 1356   3.856   0.029   1.821 -0.2548 -0.1534 -0.1579
   89MPD2    C2 1357   3.836   0.132   1.732  0.1435  0.1061  0.1984
   89MPD2    C3 1358   3.937   0.176   1.651 -0.2616 -0.6075 -0.1241
   89MPD2    C4 1359   4.061   0.122   1.666 -0.5755 -0.2855 -0.2395
   89MPD2    C5 1360   4.079   0.014   1.751  0.0274  0.3177  0.5587
   89MPD2     H 1361   3.737   0.177   1.737  0.4727  1.0793 -2.2717
   89MPD2    H1 1362   4.142   0.153   1.600  1.4207 -3.1401  0.8479
   89MPD2    H2 1363   3.991   4.599   1.888  0.5938  0.1492  0.0168
   89MPD2    H3 1364   4.174   4.684   1.762  0.5829  0.5870 -3.0890
   89MPD2     N 1365   3.903   0.282   1.561 -0.3632  0.0933 -0.5831
   89MPD2    H5 1366   3.804   0.301   1.557 -0.4842 -0.5562 -0.6371
   89MPD2    N1 1367   3.741   4.709   1.894 -0.0004  0.2643 -0.0655
   89MPD2    H7 1368   3.657   0.031   1.855 -1.1594 -1.1416  0.9188
   90TCq2    C1 1369   3.987   0.334   1.466  0.6103 -0.6418 -0.8644
   90TCq2    O2 1370   4.105   0.313   1.437 -0.1030 -0.6065 -0.4410
   90TCq2    C2 1371   3.920   0.412   1.365  0.4470 -0.1476 -0.3602
   90TCq2    C3 1372   3.810   0.489   1.400 -0.4309 -0.5528 -0.4572
   90TCq2    C4 1373   3.746   0.551   1.304 -0.2989 -0.5100  0.1806
   90TCq2    C5 1374   3.795   0.565   1.181  0.4588  0.1311 -0.0333
   90TCq2    C6 1375   3.914   0.498   1.160 -0.0716  0.0637  0.6183
   90TCq2    C7 1376   3.990   0.430   1.251  0.3908  0.0072 -0.1780
   90TCq2    C8 1377   3.979   0.511   1.026 -0.2074 -0.8906 -0.7723
   90TCq2    O4 1378   4.048   0.421   0.981 -0.5060  0.2326  0.4098
   90TCq2    C9 1379   3.621   0.611   1.339  0.4239 -0.0019  0.7595
   90TCq2    O5 1380   3.558   0.663   1.240  0.1636 -0.8233 -0.2563
   90TCq2    O6 1381   3.581   0.607   1.453  0.0390 -0.2648 -0.3175
   90TCq2    H2 1382   3.759   0.478   1.495  1.6134 -1.1534  0.5764
   90TCq2    H3 1383   3.742   0.618   1.103  0.2132  0.4151  0.3272
   90TCq2    H4 1384   4.072   0.371   1.210  0.9104 -0.0884  1.0121
   91TMC2    C1 1385   0.418   0.523  16.519  0.2612 -0.2134 -0.1974
   91TMC2    C2 1386   0.492   0.615  16.599  0.1009  0.3700 -0.1624
   91TMC2    C3 1387   0.453   0.628  16.728 -0.4734 -0.5810 -0.2188
   91TMC2    C4 1388   0.310   0.459  16.566  0.2922 -0.0686 -0.1830
   91TMC2    C5 1389   0.283   0.469  16.706  0.2126 -0.2523  0.2161
   91TMC2    C6 1390   0.355   0.548  16.785 -0.4366 -0.9931  0.3698
   91TMC2     C 1391   0.470   0.483  16.394 -0.1891 -0.2631  0.1341
   91TMC2     O 1392   0.394   0.465  16.302 -0.1234  0.0303  0.5174
   91TMC2     H 1393   0.575   0.670  16.555  1.1480 -0.6055  0.6101
   91TMC2    H1 1394   0.265   0.389  16.497  1.2216 -0.1430 -0.7114
   91TMC2    H2 1395   0.337   0.556  16.891 -0.4754 -1.2273  0.3819
   91TMC2    C7 1396   0.151   0.436  16.756 -0.2108 -1.0307 -0.1299
   91TMC2    C8 1397   0.525   0.715  16.820  0.0233 -0.0173  0.5809
   91TMC2    O1 1398   0.127   0.435  16.876  0.1756  0.5382  0.1336
   91TMC2    O2 1399   0.576   0.683  16.927  0.1168  0.2012 -0.1972
   91TMC2    O5 1400   0.560   0.829  16.745 -0.2146 -0.1700  0.1968
   91TMC2    H5 1401   0.488   0.844  16.680  0.1832  0.8973 -0.0047
   92MPD2     C 1402   0.633   0.412  16.153 -0.2535 -0.5920  0.4995
   92MPD2    C1 1403   0.683   0.431  16.278  0.3189 -0.4808 -0.3391
   92MPD2    C2 1404   0.815   0.405  16.305 -0.7156  0.2357 -1.0839
   92MPD2    C3 1405   0.904   0.355  16.209  0.1182 -0.5860 -0.8300
   92MPD2    C4 1406   0.847   0.324  16.090  0.9545 -0.0433  0.2601
   92MPD2    C5 1407   0.715   0.354  16.060 -0.3684 -0.1608 -0.4079
   92MPD2     H 1408   0.866   0.433  16.396 -1.0792 -0.0870 -0.7818
   92MPD2    H1 1409   0.914   0.299  16.009 -0.7797 -1.6184 -0.6875
   92MPD2    H2 1410   0.535   0.452  16.127  0.0457 -0.2204 -0.0776
   92MPD2    H3 1411   0.677   0.358  15.958 -0.7433  0.6369 -0.2344
   92MPD2     N 1412   1.038   0.361  16.233  0.1160 -0.3819  1.1987
   92MPD2    H5 1413   1.062   0.392  16.327  1.0115  1.7562  0.2542
   92MPD2    N1 1414   0.605   0.483  16.388 -0.5179  0.1489  0.4276
   92MPD2    H7 1415   0.649   0.509  16.475 -1.1288 -1.2481  1.1505
   93MPD2     C 1416   1.773   0.532  13.369 -0.3666  0.3623  0.2731
   93MPD2    C1 1417   1.753   0.576  13.496  0.3371  0.3874 -0.2478
   93MPD2    C2 1418   1.629   0.629  13.524 -0.1999 -0.1608  0.2813
   93MPD2    C3 1419   1.532   0.629  13.429 -0.3969  0.6771  0.3303
   93MPD2    C4 1420   1.552   0.580  13.302 -0.0236  0.4318 -0.4362
   93MPD2    C5 1421   1.673   0.532  13.280 -0.3939 -0.9744 -0.4057
   93MPD2     H 1422   1.601   0.648  13.627  0.4957  0.2770  0.3892
   93MPD2    H1 1423   1.472   0.579  13.229 -0.3233  0.2792 -0.1102
   93MPD2    H2 1424   1.869   0.492  13.338 -1.0688 -1.2966  0.2395
   93MPD2    H3 1425   1.691   0.515  13.175 -0.4080  1.2905 -0.7768
   93MPD2     N 1426   1.404   0.670  13.452  0.1328 -0.2872 -0.6715
   93MPD2    H5 1427   1.333   0.652  13.382 -0.8331 -0.2898  0.3131
   93MPD2    N1 1428   1.856   0.587  13.598 -0.2825  0.4863  0.3549
   93MPD2    H7 1429   1.846   0.644  13.682  0.7946  0.8105  0.2695
   94TCq2    C1 1430   1.981   0.530  13.589  0.0965  0.1108 -0.0546
   94TCq2    O2 1431   2.015   0.438  13.520 -0.2751 -0.2061 -0.0136
   94TCq2    C2 1432   2.082   0.600  13.669  0.4560 -0.4155 -0.0257
   94TCq2    C3 1433   2.056   0.730  13.709 -0.5559 -0.3775 -0.2323
   94TCq2    C4 1434   2.156   0.796  13.772 -0.4049 -0.0875  0.8781
   94TCq2    C5 1435   2.287   0.756  13.760  0.1006  0.4213 -0.4533
   94TCq2    C6 1436   2.314   0.626  13.707 -0.3413 -0.2414  0.1900
   94TCq2    C7 1437   2.206   0.546  13.666 -0.4604  0.0102  0.1229
   94TCq2    C8 1438   2.451   0.604  13.666  0.5816 -0.0032 -0.2083
   94TCq2    O4 1439   2.479   0.485  13.641 -0.1139  0.1311  0.5619
   94TCq2    C9 1440   2.131   0.921  13.833  0.3643 -0.2646  0.0102
   94TCq2    O5 1441   2.009   0.946  13.858 -0.1780  0.1105 -0.0717
   94TCq2    O6 1442   2.227   0.998  13.848 -0.8112 -0.4498  0.1051
   94TCq2    H2 1443   1.958   0.776  13.707 -0.1837  0.3821 -0.8532
   94TCq2    H3 1444   2.366   0.810  13.812  0.6692  1.1984 -2.1088
   94TCq2    H4 1445   2.219   0.446  13.626  0.4839  0.3581 -0.4337
   95TMC2    C1 1446   2.047   2.029  16.318  0.3464 -0.3875 -0.2646
   95TMC2    C2 1447   2.004   1.903  16.292 -0.0584 -0.0929 -0.9213
   95TMC2    C3 1448   1.980   1.822  16.399  0.0354  0.2193  0.1778
   95TMC2    C4 1449   2.063   2.071  16.446 -0.0417  0.4083 -0.2995
   95TMC2    C5 1450   2.040   1.984  16.552 -0.5783  0.2101 -0.7440
   95TMC2    C6 1451   2.005   1.854  16.532  0.0447  0.4820 -0.8426
   95TMC2     C 1452   2.043   2.120  16.213  0.5706  1.9181 -1.0452
   95TMC2     O 1453   2.009   2.080  16.103  0.2761 -0.0348 -0.6123
   95TMC2     H 1454   2.001   1.873  16.188 -0.0523 -1.2683 -0.5869
   95TMC2    H1 1455   2.077   2.173  16.481  1.2230 -0.2634  1.1836
   95TMC2    H2 1456   2.004   1.776  16.608 -2.1571  0.0750 -1.3032
   95TMC2    C7 1457   2.067   2.031  16.686 -0.0248  0.3702  0.2719
   95TMC2    C8 1458   1.962   1.675  16.367 -0.2120 -1.0208  0.4224
   95TMC2    O1 1459   2.111   2.143  16.689 -0.4249  0.5611 -0.8273
   95TMC2    O2 1460   1.977   1.592  16.457 -0.8858  0.1820  0.0532
   95TMC2    O5 1461   1.972   1.649  16.232  0.0740 -0.2456 -0.6172
   95TMC2    H5 1462   1.916   1.714  16.185  0.5227  1.3968  1.1076
   96MPD2     C 1463   2.103   2.602  16.015  0.5798  0.6201  0.7161
   96MPD2    C1 1464   2.065   2.483  15.951  0.0928 -0.2600  0.1673
   96MPD2    C2 1465   2.054   2.366  16.024 -0.0984  0.3530 -0.0002
   96MPD2    C3 1466   2.077   2.364  16.163 -0.4428  0.0274 -0.4297
   96MPD2    C4 1467   2.101   2.485  16.220  0.4086  0.1329  1.0302
   96MPD2    C5 1468   2.110   2.603  16.149  0.4810 -0.6080  0.0616
   96MPD2     H 1469   2.003   2.282  15.977 -0.2704 -0.4217  1.5732
   96MPD2    H1 1470   2.115   2.480  16.327 -2.4445  1.8157  1.4896
   96MPD2    H2 1471   2.112   2.692  15.957  0.2666 -0.1534 -0.5355
   96MPD2    H3 1472   2.120   2.699  16.199  1.1943  0.4816 -2.2017
   96MPD2     N 1473   2.066   2.252  16.250  0.3770 -0.0513 -0.1586
   96MPD2    H5 1474   2.097   2.262  16.346 -1.0408  1.9027  0.0951
   96MPD2    N1 1475   2.009   2.494  15.821 -0.2472 -0.0418  0.4223
   96MPD2    H7 1476   2.013   2.588  15.783  0.2485  0.6637  2.2268
   97MPD2     C 1477   0.042   3.641   0.958  0.0469 -0.2736 -0.2314
   97MPD2    C1 1478   4.709   3.765   0.924  0.3318  0.1897  0.6764
   97MPD2    C2 1479   4.663   3.783   0.793 -0.2423  0.3635 -0.4383
   97MPD2    C3 1480   4.667   3.680   0.701 -0.4560 -0.7069  0.4123
   97MPD2    C4 1481   4.714   3.559   0.738  0.0034 -0.2181 -0.0514
   97MPD2    C5 1482   0.041   3.539   0.862  0.4743  0.0603 -0.3186
   97MPD2     H 1483   4.634   3.883   0.764  1.1698  1.1001  0.6505
   97MPD2    H1 1484   4.711   3.476   0.668 -0.1865 -0.7350  0.5686
   97MPD2    H2 1485   0.070   3.630   1.062  2.4301  1.3634 -0.6914
   97MPD2    H3 1486   0.084   3.443   0.888 -0.9744 -0.3914  0.3802
   97MPD2     N 1487   4.629   3.699   0.565  0.3079 -0.6826 -0.2413
   97MPD2    H5 1488   4.643   3.623   0.499  0.3068  0.2003 -1.2655
   97MPD2    N1 1489   4.706   3.865   1.024  0.2881 -0.6092  0.6667
   97MPD2    H7 1490   0.013   3.837   1.118 -1.8542 -1.1974  1.1129
   98TCq2    C1 1491   4.573   3.809   0.509  0.0262  0.1390 -0.2758
   98TCq2    O2 1492   4.558   3.927   0.553  0.0736  0.2917 -0.2001
   98TCq2    C2 1493   4.546   3.798   0.371  0.9076 -0.2002  0.2426
   98TCq2    C3 1494   4.507   3.680   0.315  0.2758 -0.4252 -0.0008
   98TCq2    C4 1495   4.526   3.658   0.183 -0.0154  0.2394 -0.1840
   98TCq2    C5 1496   4.574   3.758   0.098 -0.6621  0.0150 -0.6510
   98TCq2    C6 1497   4.594   3.882   0.152  0.6069 -0.3740 -0.2112
   98TCq2    C7 1498   4.584   3.901   0.292  0.3781  0.5259 -0.1175
   98TCq2    C8 1499   4.668   3.994   0.085  0.7285  0.1508  0.3137
   98TCq2    O4 1500   4.707   4.090   0.152  0.5470  0.3053 -0.2296
   98TCq2    C9 1501   4.515   3.522   0.128 -0.3672 -0.5927  0.9499
   98TCq2    O5 1502   4.578   3.429   0.187 -0.1653  0.2100  0.0749
   98TCq2    O6 1503   4.479   3.520   0.010  0.0882  0.5559 -0.0942
   98TCq2    H2 1504   4.468   3.597   0.374  0.0251 -1.4404 -1.5863
   98TCq2    H3 1505   4.573   3.748  17.672 -0.5265  0.9073 -0.7407
   98TCq2    H4 1506   4.600   4.000   0.333  1.4122 -0.3372  1.5431
   99MPD2     C 1507   3.744   1.994   1.467  0.4957 -0.0445 -0.2330
   99MPD2    C1 1508   3.655   1.897   1.429 -0.7940  0.5114  0.1852
   99MPD2    C2 1509   3.703   1.792   1.351 -0.3619  0.0757 -0.1888
   99MPD2    C3 1510   3.832   1.784   1.304 -0.0659  0.1880 -0.2972
   99MPD2    C4 1511   3.922   1.891   1.332  0.5040  0.1548 -0.3749
   99MPD2    C5 1512   3.877   1.986   1.419  0.0539 -0.4583 -0.0496
   99MPD2     H 1513   3.626   1.720   1.325  0.4761 -0.2795 -1.7102
   99MPD2    H1 1514   4.026   1.890   1.302  0.3273 -0.6235 -0.9726
   99MPD2    H2 1515   3.727   2.069   1.543 -0.4694  1.6897 -2.1574
   99MPD2    H3 1516   3.942   2.067   1.453 -0.2272  0.0773 -0.7854
   99MPD2     N 1517   3.866   1.662   1.234 -0.1119  0.2013  0.1616
   99MPD2    H5 1518   3.793   1.591   1.229 -1.0441  1.2388 -0.8548
   99MPD2    N1 1519   3.522   1.880   1.485 -0.9565 -0.5761 -0.8171
   99MPD2    H7 1520   3.466   1.797   1.467 -0.6578 -1.7759  3.7970
  100TCq2    C1 1521   3.463   1.967   1.571 -0.6986  0.1816 -0.2375
  100TCq2    O2 1522   3.508   2.078   1.601  0.3048 -0.4125 -0.0239
  100TCq2    C2 1523   3.346   1.912   1.638 -1.0735  0.3125  0.0615
  100TCq2    C3 1524   3.338   1.778   1.667 -0.8295  0.3782  0.1349
  100TCq2    C4 1525   3.224   1.726   1.728  0.0183 -0.3551 -0.6766
  100TCq2    C5 1526   3.133   1.819   1.769  0.2849  0.1140  0.4605
  100TCq2    C6 1527   3.143   1.951   1.748 -0.6346 -0.6168  0.7214
  100TCq2    C7 1528   3.247   2.000   1.674 -0.2884  0.4319 -0.0249
  100TCq2    C8 1529   3.041   2.044   1.789 -0.0498  0.4309  0.2992
  100TCq2    O4 1530   3.068   2.162   1.769 -0.0042 -0.3889  0.1395
  100TCq2    C9 1531   3.204   1.584   1.746  0.4546  0.4857  0.9724
  100TCq2    O5 1532   3.096   1.556   1.802 -0.1916 -0.1877  0.2868
  100TCq2    O6 1533   3.288   1.504   1.699  0.0219  0.8651 -0.3381
  100TCq2    H2 1534   3.413   1.704   1.641  1.7226  3.0110  0.0477
  100TCq2    H3 1535   3.061   1.792   1.846 -0.6169  0.1069 -0.3935
  100TCq2    H4 1536   3.255   2.103   1.640 -2.7189  1.4437  2.4833
  101MPD2     C 1537   3.217   2.824  12.425  0.6709 -0.8877 -0.3121
  101MPD2    C1 1538   3.122   2.912  12.467  0.1838 -0.2684  0.5473
  101MPD2    C2 1539   3.033   2.861  12.563 -0.0942 -0.0219 -0.3878
  101MPD2    C3 1540   3.050   2.733  12.609  0.2851  0.7009  0.0263
  101MPD2    C4 1541   3.135   2.650  12.547  0.4025  0.5137  0.2050
  101MPD2    C5 1542   3.217   2.695  12.459 -0.4424 -0.8650 -0.0894
  101MPD2     H 1543   2.969   2.928  12.618 -1.1684 -0.8492 -0.6257
  101MPD2    H1 1544   3.156   2.545  12.567 -1.7929 -0.5097 -2.9148
  101MPD2    H2 1545   3.287   2.847  12.346 -0.2860  0.4209 -0.7686
  101MPD2    H3 1546   3.294   2.630  12.419  0.9544 -0.9240  2.6973
  101MPD2     N 1547   2.970   2.696  12.720  0.2835  0.4485 -0.1649
  101MPD2    H5 1548   2.923   2.771  12.770  1.2569  0.9952 -0.0716
  101MPD2    N1 1549   3.123   3.044  12.412 -0.0892  0.1069  0.5300
  101MPD2    H7 1550   3.184   3.068  12.335  0.9696  1.3563  1.7524
  102TCq2    C1 1551   3.216   3.400  12.084  0.3615  0.1982  0.2080
  102TCq2    O2 1552   3.310   3.325  12.092 -0.0787  0.0442 -0.0295
  102TCq2    C2 1553   3.117   3.378  12.190  0.1814 -0.2011  0.9402
  102TCq2    C3 1554   3.028   3.483  12.214 -0.0272 -0.2377  0.0921
  102TCq2    C4 1555   2.946   3.467  12.319 -0.7616 -0.1181 -0.4500
  102TCq2    C5 1556   2.965   3.353  12.400 -0.7794  0.3977 -0.5862
  102TCq2    C6 1557   3.062   3.262  12.380 -0.3767  0.0569 -0.2456
  102TCq2    C7 1558   3.139   3.271  12.272  0.0134 -0.3042  0.2453
  102TCq2    C8 1559   3.031   3.133  12.432  0.2790 -0.1530 -0.2571
  102TCq2    O4 1560   2.939   3.132  12.510 -0.0985 -0.1931 -0.1842
  102TCq2    C9 1561   2.843   3.553  12.353 -0.0627 -0.5233  0.3992
  102TCq2    O5 1562   2.836   3.665  12.296 -0.3554  0.2075 -0.4495
  102TCq2    O6 1563   2.752   3.499  12.427  0.0661 -0.5016 -0.1185
  102TCq2    H2 1564   3.026   3.576  12.159 -1.1434  0.9780  2.2048
  102TCq2    H3 1565   2.914   3.352  12.496 -0.0492 -2.1681 -0.2308
  102TCq2    H4 1566   3.227   3.214  12.247 -0.8041 -1.6618  0.4882
  103TMC2    C1 1567   1.340   3.462  12.874 -0.0050  0.1333 -0.0199
  103TMC2    C2 1568   1.453   3.533  12.843  0.1270 -0.6687  0.4738
  103TMC2    C3 1569   1.497   3.629  12.934 -0.1434  0.1598 -0.0664
  103TMC2    C4 1570   1.282   3.471  12.994  0.5572 -0.3746  0.0806
  103TMC2    C5 1571   1.335   3.558  13.088  0.4934 -0.0890  0.3398
  103TMC2    C6 1572   1.443   3.633  13.066  0.2665 -0.2041  0.3717
  103TMC2     C 1573   1.303   3.365  12.777  0.7698  0.2962 -0.4441
  103TMC2     O 1574   1.333   3.380  12.660 -0.0588  0.0038  0.4552
  103TMC2     H 1575   1.496   3.520  12.744  0.1916 -1.4696  0.6044
  103TMC2    H1 1576   1.192   3.422  13.030 -0.0244  0.7797  0.1895
  103TMC2    H2 1577   1.486   3.702  13.138 -0.6279 -1.5734  2.2332
  103TMC2    C7 1578   1.283   3.547  13.223 -0.3037 -0.0387  0.2744
  103TMC2    C8 1579   1.641   3.652  12.937  0.2830 -0.2968  0.7517
  103TMC2    O1 1580   1.263   3.644  13.294 -0.1008 -0.3850 -0.2142
  103TMC2    O2 1581   1.701   3.742  12.996  0.9937  0.2631 -0.3340
  103TMC2    O5 1582   1.700   3.550  12.882 -0.7974  0.0184  0.1413
  103TMC2    H5 1583   1.638   3.476  12.864  2.0694 -2.5614  0.8166
  104MPD2     C 1584   1.275   3.016  12.872  0.1304  0.8172 -0.0454
  104MPD2    C1 1585   1.255   3.123  12.785 -0.2458 -0.0783 -0.2726
  104MPD2    C2 1586   1.228   3.099  12.649  0.6352 -0.4667  0.0731
  104MPD2    C3 1587   1.240   2.975  12.591  0.1354  0.2533  0.4292
  104MPD2    C4 1588   1.271   2.869  12.676 -0.1080 -0.4808  0.1738
  104MPD2    C5 1589   1.283   2.884  12.812  0.1593  0.1632  0.1651
  104MPD2     H 1590   1.221   3.180  12.578 -0.0828 -0.4655  0.1485
  104MPD2    H1 1591   1.296   2.770  12.639 -0.8322 -0.6715  0.1819
  104MPD2    H2 1592   1.297   3.028  12.977  0.8730  0.1821 -0.1297
  104MPD2    H3 1593   1.295   2.795  12.873 -3.6412  0.2099  1.0164
  104MPD2     N 1594   1.220   2.971  12.451  0.0418 -0.4130  0.1661
  104MPD2    H5 1595   1.191   3.058  12.406 -0.4008 -0.8358 -0.3576
  104MPD2    N1 1596   1.266   3.251  12.848 -0.7112  0.4584  0.6399
  104MPD2    H7 1597   1.271   3.254  12.949 -1.3221  0.5515  0.6661
  105MPD2     C 1598   3.481   2.160   0.266 -0.2385  0.1079  0.5925
  105MPD2    C1 1599   3.501   2.284   0.220 -0.1970  0.4557 -0.0302
  105MPD2    C2 1600   3.468   2.391   0.306 -0.1615 -0.5640  0.4142
  105MPD2    C3 1601   3.424   2.369   0.437  0.9742  0.5830  0.5606
  105MPD2    C4 1602   3.406   2.238   0.475 -0.2800 -0.1458  0.4671
  105MPD2    C5 1603   3.452   2.133   0.400  0.0110 -0.2267  0.0556
  105MPD2     H 1604   3.471   2.490   0.262 -0.9909 -0.8239 -0.2115
  105MPD2    H1 1605   3.369   2.221   0.576 -2.7918 -2.0632 -0.7778
  105MPD2    H2 1606   3.518   2.074   0.211 -0.4088  0.6251 -0.3293
  105MPD2    H3 1607   3.430   2.035   0.440 -2.7405 -0.7426 -2.6921
  105MPD2     N 1608   3.399   2.481   0.528 -0.0929  0.4011  0.2002
  105MPD2    H5 1609   3.454   2.566   0.520  0.8405 -0.0835  1.4350
  105MPD2    N1 1610   3.541   2.305   0.089  0.1941 -0.1058 -0.3962
  105MPD2    H7 1611   3.564   2.402   0.066 -0.0067  0.1474  0.4745
  106TCq2    C1 1612   3.321   2.472   0.639  0.4058 -0.3898  0.1503
  106TCq2    O2 1613   3.244   2.388   0.683 -0.0534  0.3895 -0.0100
  106TCq2    C2 1614   3.348   2.586   0.733 -0.4618  0.3660  0.1287
  106TCq2    C3 1615   3.446   2.675   0.714 -0.2722 -0.3432 -0.6435
  106TCq2    C4 1616   3.468   2.774   0.808 -0.0589  0.1858 -0.3032
  106TCq2    C5 1617   3.405   2.773   0.929  0.7953 -0.5243  0.2098
  106TCq2    C6 1618   3.310   2.677   0.946 -0.4525 -0.1595 -0.2132
  106TCq2    C7 1619   3.275   2.592   0.846  0.2398 -0.2356  0.1686
  106TCq2    C8 1620   3.237   2.661   1.068  0.4293 -0.5403  0.2928
  106TCq2    O4 1621   3.166   2.561   1.077 -0.0341 -0.1792  0.0774
  106TCq2    C9 1622   3.568   2.874   0.770  0.2948  0.1677 -0.3501
  106TCq2    O5 1623   3.598   2.902   0.649  0.1051  0.1177 -0.0636
  106TCq2    O6 1624   3.606   2.935   0.872 -0.5934  0.1313  0.5824
  106TCq2    H2 1625   3.507   2.679   0.624 -1.4332  1.5191 -1.3278
  106TCq2    H3 1626   3.434   2.850   0.999 -0.0892 -0.4119  0.4540
  106TCq2    H4 1627   3.202   2.514   0.863  0.4066  0.0597  2.2817
  107TMC2    C1 1628   3.543   1.576  11.336 -0.3859 -0.4740 -0.1821
  107TMC2    C2 1629   3.577   1.696  11.291  0.3126 -1.1795 -0.2556
  107TMC2    C3 1630   3.636   1.697  11.168  0.5768 -0.5071 -0.3539
  107TMC2    C4 1631   3.567   1.465  11.265 -0.4253 -0.1816  0.7126
  107TMC2    C5 1632   3.630   1.460  11.141 -0.1514  1.2969 -0.2330
  107TMC2    C6 1633   3.660   1.585  11.090 -0.6452  0.1997  0.2778
  107TMC2     C 1634   3.451   1.570  11.456 -0.2419 -0.1554  0.2519
  107TMC2     O 1635   3.453   1.482  11.538  0.4932 -0.3603 -0.0953
  107TMC2     H 1636   3.557   1.790  11.342 -0.0815 -1.5934  0.3412
  107TMC2    H1 1637   3.518   1.374  11.298 -1.3804  1.0914  2.8095
  107TMC2    H2 1638   3.707   1.599  10.993 -1.2755  0.6409  0.0351
  107TMC2    C7 1639   3.552   1.384  11.050 -0.1873  0.6242 -0.0823
  107TMC2    C8 1640   3.666   1.831  11.108 -0.2440 -0.2999  0.1757
  107TMC2    O1 1641   3.437   1.366  11.077 -0.2139  0.5077  0.1564
  107TMC2    O2 1642   3.747   1.855  11.022 -0.2088 -0.1821  0.2654
  107TMC2    O5 1643   3.583   1.916  11.166  0.0763  0.0537  0.0922
  107TMC2    H5 1644   3.500   1.868  11.182  0.8838 -1.0985  0.7729
  108MPD2     C 1645   3.164   1.787  11.471  0.3487 -0.5488 -0.6940
  108MPD2    C1 1646   3.261   1.705  11.524  0.5330  0.5750 -0.6835
  108MPD2    C2 1647   3.250   1.664  11.655 -0.6814 -0.0908 -0.1580
  108MPD2    C3 1648   3.144   1.714  11.730 -0.3973  0.3626  0.9946
  108MPD2    C4 1649   3.051   1.807  11.681  0.5612 -0.3210  0.2135
  108MPD2    C5 1650   3.063   1.848  11.549 -0.1512 -0.6919 -0.0830
  108MPD2     H 1651   3.322   1.595  11.696  0.3757  0.5760 -0.8604
  108MPD2    H1 1652   2.971   1.852  11.739 -1.4171 -1.8960 -1.3117
  108MPD2    H2 1653   3.173   1.827  11.371 -2.2577  1.6086 -0.0569
  108MPD2    H3 1654   2.991   1.918  11.509 -0.6076 -0.3852  1.2876
  108MPD2     N 1655   3.124   1.675  11.866  0.1444  0.0465  0.1083
  108MPD2    H5 1656   3.038   1.698  11.915  0.2815 -1.6687  1.1728
  108MPD2    N1 1657   3.356   1.668  11.431  0.8108 -0.3092  0.5331
  108MPD2    H7 1658   3.351   1.710  11.339 -0.9438  2.1593  1.7701
  109MPD2     C 1659   4.500   3.471   2.178  0.2092  0.4494 -0.5393
  109MPD2    C1 1660   4.513   3.541   2.065 -0.3046  0.2746  0.2838
  109MPD2    C2 1661   4.642   3.564   2.013  0.1962  0.1734  0.3755
  109MPD2    C3 1662   0.030   3.502   2.072  0.1672  0.2145  0.4557
  109MPD2    C4 1663   0.015   3.430   2.189 -0.1087  0.6868 -0.2964
  109MPD2    C5 1664   4.608   3.428   2.251  0.3225  0.6036 -0.2371
  109MPD2     H 1665   4.662   3.606   1.915  0.9844 -1.7904 -0.3061
  109MPD2    H1 1666   0.100   3.389   2.241  0.3677  1.6217 -0.3369
  109MPD2    H2 1667   4.406   3.455   2.229  0.2489  0.0589 -0.5905
  109MPD2    H3 1668   4.595   3.369   2.341  0.0472 -0.5720 -1.0416
  109MPD2     N 1669   0.157   3.510   2.006  0.2317  0.4166 -0.0426
  109MPD2    H5 1670   0.161   3.552   1.914 -2.4831  2.0632  0.5918
  109MPD2    N1 1671   4.394   3.586   2.004  0.2228 -0.1415 -0.5476
  109MPD2    H7 1672   4.304   3.568   2.048 -0.3547 -0.2552 -1.7728
  110TCq2    C1 1673   0.271   3.443   2.045 -0.0718  0.2088  0.7896
  110TCq2    O2 1674   0.302   3.366   2.137  0.2215 -0.2948 -0.3075
  110TCq2    C2 1675   0.382   3.486   1.971  0.7393  0.1494  0.9664
  110TCq2    C3 1676   0.490   3.404   1.989  0.2859 -0.6318 -0.1903
  110TCq2    C4 1677   0.605   3.452   1.932 -0.8808  0.2030  0.1461
  110TCq2    C5 1678   0.631   3.587   1.898  0.0988  0.4852  0.4730
  110TCq2    C6 1679   0.518   3.666   1.909  0.0430  0.5062 -0.1072
  110TCq2    C7 1680   0.392   3.620   1.941 -0.0132  0.5332 -0.0239
  110TCq2    C8 1681   0.537   3.800   1.861 -0.2341 -0.7260 -0.5798
  110TCq2    O4 1682   0.636   3.855   1.915  0.1897 -0.2202  0.1441
  110TCq2    C9 1683   0.711   3.359   1.913 -0.6459 -0.4306 -0.3941
  110TCq2    O5 1684   0.820   3.394   1.858 -0.2980  0.1413 -0.1879
  110TCq2    O6 1685   0.681   3.239   1.925  0.3976  0.4943 -0.8078
  110TCq2    H2 1686   0.480   3.299   2.014  2.8278 -1.5504 -2.9767
  110TCq2    H3 1687   0.721   3.624   1.849 -0.4825  2.1572  0.6687
  110TCq2    H4 1688   0.309   3.690   1.947  1.8959  2.8512 -0.5977
  111TMC2    C1 1689   3.301   2.995  11.076 -0.4494  0.2065  0.3943
  111TMC2    C2 1690   3.194   2.946  11.149 -0.9298 -0.3058 -0.2987
  111TMC2    C3 1691   3.232   2.853  11.247  0.3961  0.8970 -0.2103
  111TMC2    C4 1692   3.432   2.973  11.103  0.0564  0.3165  0.2700
  111TMC2    C5 1693   3.461   2.884  11.208  0.0082 -0.7515  0.0166
  111TMC2    C6 1694   3.361   2.819  11.276 -0.1900  0.6121  0.5621
  111TMC2     C 1695   3.271   3.117  11.006 -0.3942 -0.1907  0.1933
  111TMC2     O 1696   3.334   3.217  11.048  0.3281 -0.2314 -0.2406
  111TMC2     H 1697   3.093   2.980  11.132  0.2640  1.8121 -3.1048
  111TMC2    H1 1698   3.504   3.023  11.040 -0.2910  0.0602 -0.3382
  111TMC2    H2 1699   3.384   2.767  11.368  1.4414 -2.1691 -1.3935
  111TMC2    C7 1700   3.583   2.906  11.278 -0.0570 -0.0607  0.2465
  111TMC2    C8 1701   3.126   2.792  11.337  0.1925  0.4071 -0.7548
  111TMC2    O1 1702   3.599   2.871  11.396  0.0137 -0.1117 -0.1878
  111TMC2    O2 1703   3.164   2.700  11.410 -0.6173 -0.1231  0.2228
  111TMC2    O5 1704   3.031   2.879  11.367 -0.0296 -0.0292  0.2099
  111TMC2    H5 1705   3.010   2.955  11.309  1.3967  1.4937  1.7241
  112MPD2     C 1706   2.974   3.451  10.756  1.0626  0.7939  0.7243
  112MPD2    C1 1707   3.064   3.471  10.855 -0.0232  0.1009  0.3723
  112MPD2    C2 1708   3.126   3.361  10.901 -0.4734  0.4619  0.1827
  112MPD2    C3 1709   3.109   3.231  10.855  0.6183 -0.2907  0.3880
  112MPD2    C4 1710   3.020   3.213  10.760  0.3648 -0.2911 -0.6494
  112MPD2    C5 1711   2.959   3.325  10.707 -0.8963  0.1268  0.3462
  112MPD2     H 1712   3.208   3.393  10.965  0.7394 -1.6684 -0.2940
  112MPD2    H1 1713   2.992   3.116  10.720 -2.0705 -0.3524  1.2220
  112MPD2    H2 1714   2.917   3.528  10.706 -0.0672  0.7972  2.0350
  112MPD2    H3 1715   2.885   3.316  10.628  0.6086  0.7068 -1.1406
  112MPD2     N 1716   3.170   3.116  10.918  0.1794  0.4165 -0.6283
  112MPD2    H5 1717   3.140   3.021  10.902  1.6769 -0.3869  1.4530
  112MPD2    N1 1718   3.078   3.602  10.904  0.2534 -0.4457  0.1404
  112MPD2    H7 1719   3.012   3.675  10.878 -0.3327 -0.8433  0.5190
  113MPD2     C 1720   2.256   1.721   1.037 -0.5114 -0.6202 -0.0160
  113MPD2    C1 1721   2.237   1.683   1.169 -0.5812  0.2335  0.1067
  113MPD2    C2 1722   2.104   1.661   1.210 -0.7445 -0.3641  0.2004
  113MPD2    C3 1723   1.995   1.658   1.122  0.4963  0.5816 -0.0242
  113MPD2    C4 1724   2.023   1.686   0.998  0.7461 -0.5475 -0.5802
  113MPD2    C5 1725   2.144   1.723   0.955 -0.1573 -0.5108 -0.1498
  113MPD2     H 1726   2.091   1.653   1.317  0.6853  0.1097  0.4188
  113MPD2    H1 1727   1.945   1.682   0.922 -0.9821 -0.3652  1.1919
  113MPD2    H2 1728   2.350   1.747   0.991 -0.0255  1.0151  1.9127
  113MPD2    H3 1729   2.158   1.754   0.852  1.3980  1.4517  0.6549
  113MPD2     N 1730   1.860   1.623   1.153 -0.1215  0.0425 -0.0126
  113MPD2    H5 1731   1.798   1.620   1.072 -0.1475  0.0759  0.0061
  113MPD2    N1 1732   2.341   1.674   1.262  0.3030 -0.1613 -0.4017
  113MPD2    H7 1733   2.308   1.648   1.355 -1.2421 -0.4693 -1.0428
  114TCq2    C1 1734   1.816   1.595   1.285  0.4286 -0.6411  0.5104
  114TCq2    O2 1735   1.882   1.554   1.378 -0.4397  0.3115  0.4710
  114TCq2    C2 1736   1.665   1.582   1.295 -0.0201 -0.9389  0.1556
  114TCq2    C3 1737   1.590   1.649   1.206  0.9500 -0.4703 -0.6090
  114TCq2    C4 1738   1.457   1.618   1.221  0.5330  0.1870  0.2271
  114TCq2    C5 1739   1.409   1.544   1.327 -0.6563 -0.1301 -0.3363
  114TCq2    C6 1740   1.491   1.480   1.410  0.2290 -0.2245  0.9635
  114TCq2    C7 1741   1.623   1.499   1.397 -0.9488  0.4417 -0.2129
  114TCq2    C8 1742   1.427   1.382   1.502 -0.1019  0.5567  0.6051
  114TCq2    O4 1743   1.310   1.404   1.535  0.0698  0.0666  0.0518
  114TCq2    C9 1744   1.370   1.681   1.131 -0.1858 -0.5397  0.4362
  114TCq2    O5 1745   1.249   1.655   1.149 -0.1452  0.1780  0.1292
  114TCq2    O6 1746   1.410   1.785   1.071 -0.4244  0.3362 -0.6150
  114TCq2    H2 1747   1.632   1.707   1.125 -0.5676 -1.7556 -2.3104
  114TCq2    H3 1748   1.306   1.511   1.319 -0.5280 -0.6616  0.2273
  114TCq2    H4 1749   1.693   1.442   1.457  0.1315  0.8600 -1.0719
  115TMC2    C1 1750   3.172   4.553   0.010 -0.5489  0.8134 -0.1850
  115TMC2    C2 1751   3.283   4.501   0.065 -0.1118  0.0761  0.3709
  115TMC2    C3 1752   3.402   4.569   0.045 -0.2516 -0.3805  0.1483
  115TMC2    C4 1753   3.171   4.674  17.631 -0.2672  0.1667  0.2501
  115TMC2    C5 1754   3.289   0.019  17.619 -0.2653  0.8633  0.2481
  115TMC2    C6 1755   3.404   4.695  17.669  0.2371  0.0762 -0.2343
  115TMC2     C 1756   3.073   4.453  17.656 -0.4684 -0.1268  0.0828
  115TMC2     O 1757   3.108   4.336  17.676  0.3107  0.1952 -0.1575
  115TMC2     H 1758   3.282   4.407   0.119 -0.7426 -0.6155 -0.8620
  115TMC2    H1 1759   3.088   4.718  17.576 -1.7662 -0.9398  1.6212
  115TMC2    H2 1760   3.487   0.042  17.652 -1.0138  1.3430 -1.3544
  115TMC2    C7 1761   3.290   0.157  17.566  0.0115  0.1584 -0.0453
  115TMC2    C8 1762   3.520   4.532   0.127 -0.1499 -0.1104  0.4564
  115TMC2    O1 1763   3.389   0.188  17.496 -0.2611  0.4059 -0.8493
  115TMC2    O2 1764   3.494   4.478   0.235  0.6263 -0.3894  0.4702
  115TMC2    O5 1765   3.609   4.631   0.113 -0.5870 -0.4015 -0.1815
  115TMC2    H5 1766   3.625   4.652   0.019  0.5651 -0.1981  0.0617
  116MPD2     C 1767   2.668   4.323  17.366  0.1549  1.1372 -0.1641
  116MPD2    C1 1768   2.750   4.245  17.441 -0.9996  0.5645 -0.3977
  116MPD2    C2 1769   2.860   4.297  17.509  0.2430 -0.0562 -0.7071
  116MPD2    C3 1770   2.878   4.438  17.507  0.1840 -0.0913 -0.4970
  116MPD2    C4 1771   2.796   4.515  17.431 -1.0414 -0.0609 -0.6719
  116MPD2    C5 1772   2.697   4.456  17.365  0.0844 -0.4862  0.0873
  116MPD2     H 1773   2.927   4.229  17.561  0.8769  0.3047 -1.0553
  116MPD2    H1 1774   2.790   4.622  17.419  2.4486  0.2154  0.2321
  116MPD2    H2 1775   2.595   4.285  17.295 -1.6316  0.8053  1.8487
  116MPD2    H3 1776   2.642   4.520  17.297  2.7619  0.9346 -0.7554
  116MPD2     N 1777   2.982   4.507  17.576 -0.1901 -0.1767  0.0000
  116MPD2    H5 1778   2.979   4.608  17.578 -0.5836 -0.2119  1.4946
  116MPD2    N1 1779   2.723   4.113  17.440 -0.0567 -0.1856  0.5303
  116MPD2    H7 1780   2.628   4.096  17.410  0.7104 -2.6478 -0.5032
  117TMC2    C1 1781   1.150   1.255  13.950  0.4055 -0.5699 -0.1753
  117TMC2    C2 1782   1.244   1.151  13.955  0.0502 -0.0693 -0.6847
  117TMC2    C3 1783   1.377   1.164  13.949 -0.5664  0.5498  0.2337
  117TMC2    C4 1784   1.194   1.382  13.952  0.5358  0.3975  0.3649
  117TMC2    C5 1785   1.331   1.398  13.943  0.1663 -0.3944  0.5278
  117TMC2    C6 1786   1.428   1.293  13.948 -0.4643  0.2620  0.3504
  117TMC2     C 1787   1.009   1.214  13.939 -0.9934 -0.5621 -0.4010
  117TMC2     O 1788   0.975   1.099  13.954 -0.1241  0.0881  0.0354
  117TMC2     H 1789   1.204   1.050  13.955  0.0948 -0.0909 -1.1911
  117TMC2    H1 1790   1.127   1.464  13.972 -1.2936 -1.1401  0.5456
  117TMC2    H2 1791   1.534   1.297  13.928 -0.4781 -1.2646 -0.0427
  117TMC2    C7 1792   1.378   1.531  13.940 -0.1216  0.0762  0.2856
  117TMC2    C8 1793   1.469   1.050  13.949 -0.6649  0.2660  0.2071
  117TMC2    O1 1794   1.299   1.616  13.901 -0.0285  0.2385 -0.2960
  117TMC2    O2 1795   1.417   0.943  13.922 -0.3736 -0.2645 -0.0401
  117TMC2    O5 1796   1.551   1.064  14.058 -0.8670  0.0726  0.0305
  117TMC2    H5 1797   1.566   1.157  14.086 -0.7495  0.6227 -1.8841
  118MPD2     C 1798   1.679   1.649  14.121 -0.0403  0.0688 -0.4630
  118MPD2    C1 1799   1.571   1.663  14.035 -0.0897  0.5153  0.3144
  118MPD2    C2 1800   1.524   1.781  13.991  0.1771  0.1044  0.5729
  118MPD2    C3 1801   1.596   1.895  14.043  0.8699 -0.3710  0.0912
  118MPD2    C4 1802   1.703   1.889  14.127 -0.3023 -0.1547 -0.3159
  118MPD2    C5 1803   1.746   1.763  14.166 -0.5447 -0.1466  0.6558
  118MPD2     H 1804   1.427   1.794  13.945 -0.2597 -1.7999  0.9481
  118MPD2    H1 1805   1.756   1.980  14.151 -0.7810  0.4564 -1.5470
  118MPD2    H2 1806   1.716   1.555  14.159 -0.9994  0.1114  0.5877
  118MPD2    H3 1807   1.834   1.749  14.228  0.5497 -2.6891 -1.4672
  118MPD2     N 1808   1.568   2.028  14.003  0.0885 -0.1347  0.9932
  118MPD2    H5 1809   1.631   2.101  14.035 -0.2872  0.8047 -0.4136
  118MPD2    N1 1810   1.504   1.536  14.002 -0.4669 -0.3331  0.3845
  118MPD2    H7 1811   1.543   1.451  14.043 -0.4066 -1.0524 -1.1672
  119MPD2     C 1812   4.161   2.674  13.972  0.4254  0.0347  0.4389
  119MPD2    C1 1813   4.039   2.636  13.932  0.4095 -0.5859  0.0490
  119MPD2    C2 1814   4.028   2.562  13.810 -0.1208  0.0177  0.6424
  119MPD2    C3 1815   4.143   2.510  13.750 -0.2403  0.1489  0.5822
  119MPD2    C4 1816   4.264   2.547  13.799 -0.9086 -0.0841  0.6074
  119MPD2    C5 1817   4.276   2.628  13.909  0.1280 -0.8032  0.3484
  119MPD2     H 1818   3.935   2.535  13.762 -0.7202  1.0979  1.2029
  119MPD2    H1 1819   4.356   2.523  13.747 -0.7535  3.0785 -0.5637
  119MPD2    H2 1820   4.167   2.725  14.067 -1.3389  0.8543  0.1163
  119MPD2    H3 1821   4.374   2.664  13.940  0.4119 -1.0587 -0.2684
  119MPD2     N 1822   4.133   2.424  13.638 -0.6419 -0.3927  0.1918
  119MPD2    H5 1823   4.220   2.395  13.593  0.0617  1.5672  0.2881
  119MPD2    N1 1824   3.922   2.675  14.007 -0.1595  0.1470 -0.1288
  119MPD2    H7 1825   3.939   2.738  14.085  0.9565 -0.7958  0.3929
  120TCq2    C1 1826   4.017   2.351  13.607  0.5001 -1.4775 -0.5348
  120TCq2    O2 1827   3.902   2.361  13.654 -0.1015 -0.0930 -0.8440
  120TCq2    C2 1828   4.028   2.247  13.497 -0.7333 -0.3438  0.4401
  120TCq2    C3 1829   4.129   2.260  13.399  0.0198 -0.2487  0.6283
  120TCq2    C4 1830   4.106   2.189  13.279  0.0417  0.5504  0.1233
  120TCq2    C5 1831   3.991   2.126  13.247  0.2303 -0.5818  0.7598
  120TCq2    C6 1832   3.897   2.126  13.345 -0.4334 -0.2096 -0.1365
  120TCq2    C7 1833   3.916   2.185  13.464 -0.4615  0.5999 -0.7211
  120TCq2    C8 1834   3.771   2.080  13.301 -1.2611 -0.4426 -0.0569
  120TCq2    O4 1835   3.757   2.077  13.181  0.6656  0.0545  0.1433
  120TCq2    C9 1836   4.201   2.215  13.175  0.5131 -0.7488  0.8505
  120TCq2    O5 1837   4.259   2.324  13.178 -0.0148 -0.3450  0.0048
  120TCq2    O6 1838   4.171   2.152  13.073  0.1487  0.2278  0.2013
  120TCq2    H2 1839   4.219   2.320  13.408  0.5681 -1.2925  2.2672
  120TCq2    H3 1840   3.979   2.082  13.149  1.3343 -0.3983  0.5415
  120TCq2    H4 1841   3.833   2.175  13.533 -0.3665 -0.2311 -0.7267
  121TMC2    C1 1842   0.720   4.104  14.040 -0.2262  0.7407  0.6492
  121TMC2    C2 1843   0.753   4.087  14.172  0.0353 -0.6280 -0.2994
  121TMC2    C3 1844   0.686   3.997  14.247  0.1087 -0.9855  0.9719
  121TMC2    C4 1845   0.638   4.027  13.969 -0.1742  0.5931  0.5827
  121TMC2    C5 1846   0.573   3.930  14.050 -0.4440 -0.3468  0.0919
  121TMC2    C6 1847   0.598   3.915  14.183  0.2846 -0.0758  0.3483
  121TMC2     C 1848   0.822   4.188  13.968 -0.1225  0.3162 -0.0404
  121TMC2     O 1849   0.909   4.231  14.042  0.7735  0.5093  0.5547
  121TMC2     H 1850   0.821   4.150  14.229  0.7240  0.5588 -2.4210
  121TMC2    H1 1851   0.629   4.027  13.861 -0.0364  1.4475  0.5681
  121TMC2    H2 1852   0.533   3.860  14.250  1.5387 -2.1512 -0.1563
  121TMC2    C7 1853   0.454   3.858  14.002 -0.5057 -0.4367 -0.4655
  121TMC2    C8 1854   0.758   3.925  14.347  0.3950 -0.5565  0.0378
  121TMC2    O1 1855   0.392   3.789  14.083  0.0390  0.6388 -0.8486
  121TMC2    O2 1856   0.702   3.870  14.440 -0.1448  0.0205  0.2756
  121TMC2    O5 1857   0.891   3.957  14.329 -0.7871  0.1737  0.5246
  121TMC2    H5 1858   0.910   3.978  14.235 -2.0601  0.7055  0.3779
  122MPD2     C 1859   1.017   4.331  13.801 -0.4557  0.3478  0.0240
  122MPD2    C1 1860   0.896   4.293  13.746  0.5505 -0.1029 -0.0453
  122MPD2    C2 1861   0.864   4.324  13.615 -0.7386 -0.5001  0.3549
  122MPD2    C3 1862   0.961   4.384  13.538 -0.7969 -1.1579  0.4317
  122MPD2    C4 1863   1.077   4.420  13.592  0.2313 -0.0895  0.2236
  122MPD2    C5 1864   1.109   4.385  13.723  0.1294  0.1144 -0.1822
  122MPD2     H 1865   0.773   4.298  13.562  0.3004  0.6947 -2.0528
  122MPD2    H1 1866   1.156   4.465  13.532 -0.3037  1.3096  0.5792
  122MPD2    H2 1867   1.049   4.318  13.904 -0.4779 -0.1471 -0.0326
  122MPD2    H3 1868   1.205   4.414  13.765  1.3870 -3.9241 -0.3502
  122MPD2     N 1869   0.944   4.412  13.400 -0.3052 -1.0831 -0.3261
  122MPD2    H5 1870   1.027   4.451  13.357 -0.6539 -1.4708 -1.3656
  122MPD2    N1 1871   0.803   4.220  13.829 -0.0506 -0.7670 -0.0028
  122MPD2    H7 1872   0.715   4.192  13.789 -1.1814  1.3950  0.9600
  123MPD2     C 1873   2.375   2.688   8.472  1.1883  0.4272  0.1090
  123MPD2    C1 1874   2.270   2.694   8.558 -0.4088  0.5281 -0.0599
  123MPD2    C2 1875   2.231   2.578   8.619 -0.4571 -0.0507  0.5674
  123MPD2    C3 1876   2.300   2.456   8.602  0.8439  0.4302 -0.0676
  123MPD2    C4 1877   2.404   2.452   8.511  0.3971  0.0835  0.1327
  123MPD2    C5 1878   2.430   2.573   8.444  0.4559  0.0231 -0.3367
  123MPD2     H 1879   2.148   2.588   8.688 -0.2534  0.0378  0.8038
  123MPD2    H1 1880   2.465   2.367   8.485 -0.1510 -0.6040  1.1222
  123MPD2    H2 1881   2.401   2.782   8.424  0.1522  1.2243  1.1128
  123MPD2    H3 1882   2.508   2.560   8.369  0.7947  2.0344 -0.3185
  123MPD2     N 1883   2.260   2.343   8.674  0.1466 -0.4332  0.0040
  123MPD2    H5 1884   2.179   2.352   8.735 -0.4121  1.9799 -1.1015
  123MPD2    N1 1885   2.200   2.813   8.563  0.3159 -0.5200  0.1021
  123MPD2    H7 1886   2.247   2.886   8.510  0.1724 -0.9573 -0.6347
  124TCq2    C1 1887   2.331   2.227   8.686 -0.2992 -0.5502  0.1643
  124TCq2    O2 1888   2.440   2.194   8.645 -0.4924  0.5329 -0.2940
  124TCq2    C2 1889   2.281   2.131   8.786 -0.4261  0.8206 -0.1837
  124TCq2    C3 1890   2.162   2.158   8.844 -0.3346 -0.9428  0.1172
  124TCq2    C4 1891   2.125   2.090   8.955 -0.4105 -0.5915  0.6288
  124TCq2    C5 1892   2.201   1.988   9.003  0.3230  0.7406  0.1237
  124TCq2    C6 1893   2.322   1.960   8.931  0.2524  0.2390 -0.1158
  124TCq2    C7 1894   2.362   2.036   8.829  0.2753  0.8726 -0.3914
  124TCq2    C8 1895   2.399   1.838   8.961  0.4369  0.0651 -0.2407
  124TCq2    O4 1896   2.517   1.837   8.929  0.9076  0.7371  0.2155
  124TCq2    C9 1897   2.012   2.139   9.028 -0.0302 -0.0769 -0.0637
  124TCq2    O5 1898   1.948   2.232   8.972  0.3542 -0.0538  0.2727
  124TCq2    O6 1899   1.980   2.074   9.132 -0.0763  0.0290  0.5117
  124TCq2    H2 1900   2.094   2.225   8.793 -0.5500  0.4794  2.2622
  124TCq2    H3 1901   2.184   1.939   9.098 -2.2986 -0.6894 -1.0874
  124TCq2    H4 1902   2.453   2.018   8.774 -0.6820 -3.2713 -0.6170
  125TMC2    C1 1903   2.427   4.259   9.737 -0.1368  0.2202  0.0912
  125TMC2    C2 1904   2.437   4.122   9.760 -0.4521 -0.5314 -0.2533
  125TMC2    C3 1905   2.556   4.057   9.766  0.0985  0.2281 -0.0064
  125TMC2    C4 1906   2.544   4.329   9.715  0.0409 -0.6436 -0.6222
  125TMC2    C5 1907   2.664   4.258   9.721 -0.2302  0.6479 -0.0347
  125TMC2    C6 1908   2.675   4.118   9.743  0.1014  0.0477 -0.1170
  125TMC2     C 1909   2.323   4.320   9.814  0.4831  0.3673 -0.3760
  125TMC2     O 1910   2.214   4.264   9.803  0.2338  0.1070 -0.1701
  125TMC2     H 1911   2.352   4.062   9.790 -0.3304 -1.4020 -1.6790
  125TMC2    H1 1912   2.545   4.437   9.703  2.2011 -0.3414  2.2369
  125TMC2    H2 1913   2.764   4.059   9.725  0.6032  1.1956 -1.3934
  125TMC2    C7 1914   2.775   4.337   9.671 -0.0853  0.2712 -0.4570
  125TMC2    C8 1915   2.566   3.911   9.774  0.8758 -0.4592  0.1883
  125TMC2    O1 1916   2.744   4.441   9.618 -0.2105 -0.4155  0.6444
  125TMC2    O2 1917   2.643   3.859   9.852 -0.5589 -0.6675  0.4061
  125TMC2    O5 1918   2.539   3.860   9.652  0.5186 -0.0912 -0.0487
  125TMC2    H5 1919   2.490   3.922   9.594  1.7149  2.5221  1.7316
  126MPD1     C 1920   2.120   4.703  10.092 -0.5833  0.7058 -0.0424
  126MPD1    C1 1921   2.257   0.007  10.082  0.0728  0.3959  0.2388
  126MPD1    C2 1922   2.331   4.631  10.012  0.2488 -0.3225 -0.6130
  126MPD1    C3 1923   2.272   4.524   9.950  0.3736 -0.1579 -0.0768
  126MPD1    C4 1924   2.139   4.504   9.959  0.1371 -0.3376  0.5032
  126MPD1    C5 1925   2.064   4.596  10.024 -0.4218 -0.1748 -0.0451
  126MPD1     H 1926   2.438   4.644  10.012  0.1498  0.4887  0.0806
  126MPD1    H1 1927   2.086   4.429   9.902 -2.6435  1.5262  0.6335
  126MPD1    H2 1928   2.058   0.031  10.167 -2.0751 -2.0683  0.4998
  126MPD1    H3 1929   1.957   4.574  10.024 -0.4954  0.2112  2.5905
  126MPD1     N 1930   2.355   4.432   9.882  0.1148 -0.1318 -0.4871
  126MPD1    H5 1931   2.455   4.453   9.879 -0.1989  0.7879 -3.6185
  126MPD1    N1 1932   2.326   0.102  10.161  0.7138 -0.7706  0.6566
  126MPD1    H6 1933   2.423   0.117  10.135 -0.2357  2.4780 -0.9735
  126MPD1    H7 1934   2.270   0.184  10.182  1.3382 -0.4593  1.0943
  127MPD2     C 1935   3.746   2.609   8.903 -0.3746  0.0632 -0.0756
  127MPD2    C1 1936   3.838   2.676   8.976 -0.4498  0.2377  0.1541
  127MPD2    C2 1937   3.833   2.814   8.980  0.3195  0.5677  0.3776
  127MPD2    C3 1938   3.743   2.878   8.902 -0.1438  0.1675 -0.1795
  127MPD2    C4 1939   3.664   2.809   8.817  0.1149  0.4767  0.4599
  127MPD2    C5 1940   3.660   2.670   8.814  0.0359 -0.1004  0.4927
  127MPD2     H 1941   3.897   2.869   9.047  1.1887  0.6889 -0.5639
  127MPD2    H1 1942   3.603   2.863   8.745 -0.7636  2.1864  2.4904
  127MPD2    H2 1943   3.743   2.501   8.903 -1.3757  0.1036  2.5922
  127MPD2    H3 1944   3.600   2.615   8.742 -1.1917  1.5245  0.2726
  127MPD2     N 1945   3.739   3.020   8.920 -0.1381 -0.0646 -0.3487
  127MPD2    H5 1946   3.800   3.063   8.989 -0.2348 -0.6713  0.1211
  127MPD2    N1 1947   3.918   2.594   9.053  0.2658  1.0004 -0.4664
  127MPD2    H7 1948   3.909   2.494   9.039  0.9199  1.0385 -1.1452
  128TCq2    C1 1949   4.015   2.625   9.139 -0.3360 -0.3112  0.0727
  128TCq2    O2 1950   4.064   2.734   9.166  0.0524  0.1734 -0.0140
  128TCq2    C2 1951   4.071   2.501   9.203  0.1972 -0.9124  0.3740
  128TCq2    C3 1952   4.178   2.517   9.285  0.1233 -0.0458 -0.6275
  128TCq2    C4 1953   4.225   2.416   9.366  0.9323  0.3882  0.2737
  128TCq2    C5 1954   4.152   2.295   9.370  0.3772  0.1910  0.0312
  128TCq2    C6 1955   4.056   2.280   9.271 -0.4847 -0.3700  0.1816
  128TCq2    C7 1956   4.002   2.383   9.192 -0.0676  0.6719 -0.0069
  128TCq2    C8 1957   3.986   2.152   9.265 -0.1952 -0.2363  0.0364
  128TCq2    O4 1958   3.871   2.147   9.225  0.1550 -0.0962  0.6622
  128TCq2    C9 1959   4.327   2.445   9.463 -0.2374  0.0163 -0.3981
  128TCq2    O5 1960   4.373   2.567   9.454  0.0857  0.1253 -0.8326
  128TCq2    O6 1961   4.354   2.362   9.556  0.1909  0.2596  0.1459
  128TCq2    H2 1962   4.214   2.616   9.309 -1.8463  0.1942  1.2692
  128TCq2    H3 1963   4.181   2.205   9.423 -0.0325 -0.3267 -0.6339
  128TCq2    H4 1964   3.920   2.367   9.122  1.2638  1.1075 -1.6677
  129MPD2     C 1965   0.320   3.118   0.829 -0.2090 -0.3604 -0.8781
  129MPD2    C1 1966   0.327   3.239   0.889 -0.6441  0.3333 -0.5797
  129MPD2    C2 1967   0.325   3.358   0.811  0.0977  0.3564 -0.4560
  129MPD2    C3 1968   0.295   3.360   0.678  0.4557  0.2978 -0.0583
  129MPD2    C4 1969   0.275   3.235   0.621  0.7274 -0.2431 -0.8217
  129MPD2    C5 1970   0.295   3.121   0.695  0.1610  0.3110 -0.3799
  129MPD2     H 1971   0.333   3.452   0.865  1.0166 -0.1657  0.3158
  129MPD2    H1 1972   0.253   3.209   0.518  0.2644  0.6093 -0.9394
  129MPD2    H2 1973   0.329   3.022   0.879  2.0815 -0.7004 -1.9747
  129MPD2    H3 1974   0.288   3.027   0.642  2.7920 -1.1314  1.8091
  129MPD2     N 1975   0.283   3.479   0.616  0.9984 -0.1035  0.2267
  129MPD2    H5 1976   0.295   3.555   0.682  0.7845 -0.0876  0.2493
  129MPD2    N1 1977   0.316   3.239   1.028  0.1075  0.0878 -0.6593
  129MPD2    H7 1978   0.317   3.145   1.067  0.4647 -0.2057 -1.3702
  130TCq2    C1 1979   0.290   3.343   1.117 -0.5008 -0.3429  0.2442
  130TCq2    O2 1980   0.254   3.461   1.096  0.3685 -0.2146  0.2256
  130TCq2    C2 1981   0.315   3.308   1.255 -0.4555  0.3484  0.1771
  130TCq2    C3 1982   0.414   3.221   1.293  0.6385 -0.6530 -0.0742
  130TCq2    C4 1983   0.429   3.188   1.421  0.0468 -0.2624  0.0769
  130TCq2    C5 1984   0.352   3.246   1.518 -0.0710  0.4059  0.3125
  130TCq2    C6 1985   0.252   3.329   1.478  0.4936  0.4992 -0.2279
  130TCq2    C7 1986   0.233   3.362   1.347  0.1786 -0.4169  0.2225
  130TCq2    C8 1987   0.136   3.348   1.570  0.1760  0.0986 -0.3795
  130TCq2    O4 1988   0.030   3.394   1.521  0.0835 -1.1021 -0.1111
  130TCq2    C9 1989   0.544   3.097   1.456  0.1567  0.2338 -0.0740
  130TCq2    O5 1990   0.610   3.048   1.360 -0.2653  0.1362 -0.1910
  130TCq2    O6 1991   0.549   3.056   1.573 -0.4902 -0.2187 -0.0769
  130TCq2    H2 1992   0.476   3.168   1.222  1.7739  1.0209 -0.3105
  130TCq2    H3 1993   0.377   3.221   1.620  0.0437 -0.6932  0.0143
  130TCq2    H4 1994   0.149   3.424   1.318  1.0269  0.2857 -0.7143
  131MPD2     C 1995   2.676   3.445   8.659  0.4816 -0.3197  0.1403
  131MPD2    C1 1996   2.671   3.313   8.696 -0.0975  0.8956  0.1816
  131MPD2    C2 1997   2.545   3.248   8.702 -0.0278 -0.4738  0.1266
  131MPD2    C3 1998   2.433   3.320   8.690  0.8649  0.3728 -0.5196
  131MPD2    C4 1999   2.437   3.444   8.647  0.0926  0.2508 -0.0941
  131MPD2    C5 2000   2.555   3.514   8.640 -0.0080 -0.8311  0.3191
  131MPD2     H 2001   2.545   3.142   8.725 -1.2658 -0.8279 -1.4551
  131MPD2    H1 2002   2.350   3.509   8.649  1.7366  2.4399  0.3456
  131MPD2    H2 2003   2.769   3.501   8.667  1.0962 -1.1596 -1.1350
  131MPD2    H3 2004   2.542   3.615   8.602  0.6900 -0.9291 -0.1753
  131MPD2     N 2005   2.315   3.250   8.705 -0.0521  0.7170 -0.1404
  131MPD2    H5 2006   2.322   3.154   8.739  0.4257  0.5663 -0.6802
  131MPD2    N1 2007   2.788   3.257   8.751  0.3222  0.8784  0.6137
  131MPD2    H7 2008   2.866   3.322   8.758  0.4871  0.6547  0.8201
  132TCq2    C1 2009   3.238   3.235   8.951 -0.6643  0.0401  0.8386
  132TCq2    O2 2010   3.209   3.358   8.960 -0.0731 -0.3724 -0.1552
  132TCq2    C2 2011   3.164   3.151   8.859 -0.1296 -0.2612  0.4409
  132TCq2    C3 2012   3.206   3.021   8.828 -0.1538 -0.3671 -0.1024
  132TCq2    C4 2013   3.118   2.936   8.794  0.5939 -0.9335 -1.0761
  132TCq2    C5 2014   2.991   2.969   8.768 -0.1984 -0.6022 -0.0269
  132TCq2    C6 2015   2.951   3.096   8.796 -0.1174  0.4002 -0.2531
  132TCq2    C7 2016   3.042   3.193   8.836  0.3490  0.5589  0.0626
  132TCq2    C8 2017   2.814   3.124   8.753 -0.6366 -0.2833  0.2900
  132TCq2    O4 2018   2.748   3.036   8.708 -0.4234 -0.1774 -0.0033
  132TCq2    C9 2019   3.147   2.795   8.793  0.3270 -0.3201  0.3058
  132TCq2    O5 2020   3.258   2.762   8.836  0.0618 -0.4760 -0.3423
  132TCq2    O6 2021   3.054   2.719   8.751 -0.2475 -0.3405 -0.6909
  132TCq2    H2 2022   3.309   2.996   8.849 -0.9038 -1.0424  2.7982
  132TCq2    H3 2023   2.923   2.893   8.731 -0.7237  0.2349 -0.7737
  132TCq2    H4 2024   3.004   3.287   8.875  0.7322  0.1619  1.3996
  133MPD2     C 2025   1.906   3.211   9.045  0.0056  0.1208  0.6229
  133MPD2    C1 2026   2.038   3.249   9.035  1.5723 -0.3104  0.2277
  133MPD2    C2 2027   2.133   3.155   9.008 -0.6274  0.3764 -0.6053
  133MPD2    C3 2028   2.099   3.018   8.999 -0.4388  0.4763  0.5890
  133MPD2    C4 2029   1.964   2.978   9.009 -0.0456  0.0444  0.8129
  133MPD2    C5 2030   1.872   3.074   9.041  0.7317  0.0101 -1.2101
  133MPD2     H 2031   2.237   3.186   9.009  0.4484 -3.2581  0.0862
  133MPD2    H1 2032   1.930   2.876   8.998 -0.0332 -0.2285  3.4791
  133MPD2    H2 2033   1.820   3.274   9.063 -0.6066 -0.5784  0.1412
  133MPD2    H3 2034   1.771   3.035   9.047  1.7929 -2.7969 -1.5684
  133MPD2     N 2035   2.193   2.911   8.973 -0.6409  0.3817 -0.0036
  133MPD2    H5 2036   2.154   2.818   8.984  3.2829 -1.0573  1.8997
  133MPD2    N1 2037   2.061   3.387   9.042  0.6169  0.4410  0.7835
  133MPD2    H7 2038   1.982   3.449   9.059 -0.4231 -1.4918  3.0916
  134TCq2    C1 2039   2.185   3.441   9.036  1.1214  0.7247  0.6856
  134TCq2    O2 2040   2.292   3.388   9.048 -0.6506  0.0450 -0.0475
  134TCq2    C2 2041   2.187   3.587   9.026 -0.1230 -0.0474  0.1310
  134TCq2    C3 2042   2.297   3.653   8.979 -0.1979  0.1652  0.7307
  134TCq2    C4 2043   2.295   3.785   8.971 -0.7865  0.1199 -0.1210
  134TCq2    C5 2044   2.208   3.861   9.039  0.1410  0.3699  0.4028
  134TCq2    C6 2045   2.103   3.796   9.102 -0.1321  0.2349  0.6841
  134TCq2    C7 2046   2.090   3.661   9.086 -0.1328  0.0867 -0.5239
  134TCq2    C8 2047   2.005   3.887   9.160  0.8716 -0.1823 -0.2078
  134TCq2    O4 2048   2.021   4.007   9.152 -0.4429 -0.3443 -0.2024
  134TCq2    C9 2049   2.400   3.858   8.902  0.4397  0.7282  0.7574
  134TCq2    O5 2050   2.492   3.796   8.834  0.1625  0.0786 -0.5271
  134TCq2    O6 2051   2.396   3.985   8.912  0.0843 -0.7068  0.4476
  134TCq2    H2 2052   2.376   3.604   8.923  0.5808 -1.3932  3.1867
  134TCq2    H3 2053   2.213   3.969   9.045 -4.0919  0.4901  2.0576
  134TCq2    H4 2054   2.004   3.608   9.127 -0.4612  1.3963  0.4870
  135MPD2     C 2055   1.044   4.164   8.801 -0.3013 -0.3506  0.5022
  135MPD2    C1 2056   0.995   4.058   8.862  0.0061 -0.2600  0.3341
  135MPD2    C2 2057   1.078   3.967   8.924  0.4336  0.3223  0.4262
  135MPD2    C3 2058   1.212   3.984   8.909 -0.5609  0.8264  0.5839
  135MPD2    C4 2059   1.263   4.090   8.835  0.0495  0.3909  0.3868
  135MPD2    C5 2060   1.177   4.175   8.782  0.1703  0.3253  0.2089
  135MPD2     H 2061   1.030   3.877   8.959 -0.4976  0.7499  0.2527
  135MPD2    H1 2062   1.370   4.103   8.828 -0.2423  1.9182 -1.1926
  135MPD2    H2 2063   0.980   4.237   8.753 -0.7519 -0.8306  0.3694
  135MPD2    H3 2064   1.219   4.264   8.736 -1.4541  0.0026 -1.8735
  135MPD2     N 2065   1.303   3.892   8.961 -0.5198 -0.8120  0.2403
  135MPD2    H5 2066   1.399   3.918   8.940 -0.2277 -0.8277  1.5705
  135MPD2    N1 2067   0.850   4.052   8.866 -0.4435 -0.5331  0.1140
  135MPD2    H7 2068   0.800   4.132   8.827  1.9785  0.5877 -0.7295
  136TCq2    C1 2069   0.780   3.944   8.894  0.1258 -0.4051  0.7023
  136TCq2    O2 2070   0.820   3.829   8.900 -0.0529 -0.5373  0.1063
  136TCq2    C2 2071   0.637   3.967   8.901 -0.1995 -0.5574 -0.2288
  136TCq2    C3 2072   0.585   4.083   8.956 -0.2060  0.4409 -0.5826
  136TCq2    C4 2073   0.469   4.073   9.035  0.2952  0.7603  0.0717
  136TCq2    C5 2074   0.416   3.953   9.055 -0.1000 -0.0986  0.5120
  136TCq2    C6 2075   0.457   3.850   8.982 -0.0844 -0.2732  0.0305
  136TCq2    C7 2076   0.573   3.853   8.910 -0.3416  0.5511 -0.3929
  136TCq2    C8 2077   0.431   3.715   9.030  0.7147 -0.0927 -0.2463
  136TCq2    O4 2078   0.470   3.621   8.961 -0.4029  0.0689  0.7830
  136TCq2    C9 2079   0.403   4.190   9.096  0.2838  0.2082 -0.5040
  136TCq2    O5 2080   0.298   4.181   9.161 -0.1244  0.3431  0.0722
  136TCq2    O6 2081   0.447   4.298   9.052  0.3115 -0.0129 -0.3863
  136TCq2    H2 2082   0.625   4.183   8.943  0.6396  0.1234 -0.4121
  136TCq2    H3 2083   0.314   3.949   9.094  0.1409 -1.7444  0.9767
  136TCq2    H4 2084   0.607   3.765   8.858  0.7705  0.9703 -0.3737
  137MPD2     C 2085   4.674   1.712   9.652  0.0077 -0.4414  0.1561
  137MPD2    C1 2086   4.592   1.821   9.639 -0.2861  0.5147  0.7681
  137MPD2    C2 2087   4.635   1.946   9.678 -0.0918  0.0062 -0.7776
  137MPD2    C3 2088   0.041   1.964   9.728 -0.3151 -0.4275  0.1865
  137MPD2    C4 2089   0.127   1.863   9.734  0.0616  0.6550  0.4778
  137MPD2    C5 2090   0.083   1.738   9.695 -0.6204 -0.1846 -0.4470
  137MPD2     H 2091   4.569   2.033   9.672 -2.0060 -1.3502  0.6463
  137MPD2    H1 2092   0.231   1.864   9.766  0.0616  1.6833  0.4344
  137MPD2    H2 2093   4.635   1.613   9.631 -1.6248  0.0138  1.0823
  137MPD2    H3 2094   0.158   1.660   9.702  0.5757  1.2265  2.4511
  137MPD2     N 2095   0.073   2.094   9.775 -0.1518 -0.0178  0.0658
  137MPD2    H5 2096   4.713   2.156   9.766  0.0433  0.4257  1.4668
  137MPD2    N1 2097   4.459   1.797   9.610 -0.0147 -0.0038  0.2382
  137MPD2    H7 2098   4.436   1.698   9.619 -0.1682  0.0720  0.7093
  138TCq2    C1 2099   4.360   1.889   9.600 -0.5960  0.0680 -0.5221
  138TCq2    O2 2100   4.376   2.013   9.587  0.2918  0.5548  0.0025
  138TCq2    C2 2101   4.224   1.848   9.635  0.7622 -0.3156  0.2456
  138TCq2    C3 2102   4.197   1.721   9.685  0.1834 -0.0880  0.2993
  138TCq2    C4 2103   4.070   1.693   9.737  0.3544 -0.4414  0.4046
  138TCq2    C5 2104   3.967   1.784   9.748  0.5355 -0.1198 -0.9237
  138TCq2    C6 2105   3.994   1.904   9.683 -0.6635 -0.6287 -0.3980
  138TCq2    C7 2106   4.118   1.940   9.639 -0.1722  0.1650  0.1802
  138TCq2    C8 2107   3.879   1.998   9.675  0.3454  0.0059  0.8521
  138TCq2    O4 2108   3.767   1.949   9.688  0.1718 -0.4590 -0.3974
  138TCq2    C9 2109   4.060   1.566   9.802  0.7745  0.0849 -0.2909
  138TCq2    O5 2110   3.960   1.535   9.876 -0.4619  0.0367 -0.1300
  138TCq2    O6 2111   4.169   1.499   9.810  0.7204  0.1383  0.0291
  138TCq2    H2 2112   4.268   1.640   9.686  1.1949  0.7657 -1.2192
  138TCq2    H3 2113   3.877   1.756   9.800  0.0502  1.0342 -1.1483
  138TCq2    H4 2114   4.128   2.040   9.600 -3.9299  0.0238 -1.1326
  139TMC2    C1 2115   0.398   2.273  12.893  0.8136 -0.2751 -0.5000
  139TMC2    C2 2116   0.347   2.218  12.779 -0.1336 -0.0269 -0.1028
  139TMC2    C3 2117   0.213   2.219  12.748 -0.3878 -0.0292  0.0649
  139TMC2    C4 2118   0.315   2.334  12.983  0.0767  0.2941 -0.1893
  139TMC2    C5 2119   0.180   2.325  12.956 -0.0363 -0.9706  0.5022
  139TMC2    C6 2120   0.127   2.285  12.836 -0.1258  0.4447 -0.6609
  139TMC2     C 2121   0.533   2.249  12.938  0.2233  1.0424 -0.1932
  139TMC2     O 2122   0.588   2.145  12.900  0.0411 -0.3039  0.2680
  139TMC2     H 2123   0.421   2.193  12.703 -1.1933 -0.4931 -0.9769
  139TMC2    H1 2124   0.351   2.388  13.070  0.4582 -2.1086  1.1483
  139TMC2    H2 2125   0.019   2.281  12.826 -0.2711  2.6337  0.0240
  139TMC2    C7 2126   0.084   2.348  13.058  0.5509  0.4925  0.2579
  139TMC2    C8 2127   0.177   2.182  12.612  0.6679  0.5372 -0.8661
  139TMC2    O1 2128   4.690   2.391  13.043 -0.7010 -0.1021 -0.2239
  139TMC2    O2 2129   0.224   2.090  12.547 -0.1393 -0.2271  0.0664
  139TMC2    O5 2130   0.061   2.249  12.585 -0.1839 -0.5740 -0.3685
  139TMC2    H5 2131   0.076   2.342  12.613  0.4112 -0.6045 -0.5829
  140MPD2     C 2132   0.749   2.443  13.147  0.4442 -0.2247 -0.0045
  140MPD2    C1 2133   0.701   2.334  13.095 -1.0628  0.0629 -0.1908
  140MPD2    C2 2134   0.758   2.212  13.137  0.0455  0.1290  0.2282
  140MPD2    C3 2135   0.868   2.208  13.212  0.1470 -0.2184 -0.0010
  140MPD2    C4 2136   0.927   2.326  13.261 -0.1608 -0.4379  0.1239
  140MPD2    C5 2137   0.863   2.441  13.223  0.5440  0.3248 -0.3585
  140MPD2     H 2138   0.705   2.119  13.117  1.9624 -0.8954 -0.0990
  140MPD2    H1 2139   1.022   2.326  13.312  0.4291  1.5298 -0.9750
  140MPD2    H2 2140   0.701   2.538  13.124  0.5647  0.2267  1.6360
  140MPD2    H3 2141   0.906   2.536  13.251 -1.3041  1.0239  0.0917
  140MPD2     N 2142   0.920   2.084  13.250 -0.3258  0.2171  0.3107
  140MPD2    H5 2143   0.882   2.000  13.207  0.7570 -0.9510  1.6473
  140MPD2    N1 2144   0.579   2.344  13.029 -0.1913 -0.2776  0.6675
  140MPD2    H7 2145   0.536   2.436  13.031  1.5819  0.5297  1.5336
  141TCq2    C1 2146   1.340   3.922  14.809 -0.8913 -0.0975  0.1713
  141TCq2    O2 2147   1.319   3.978  14.700 -0.0595 -0.1920  0.3445
  141TCq2    C2 2148   1.381   3.987  14.932 -0.7917 -0.2980  0.0101
  141TCq2    C3 2149   1.430   3.919  15.041  0.8012  0.4750 -0.2107
  141TCq2    C4 2150   1.465   3.994  15.151  1.2618  0.0392  0.5780
  141TCq2    C5 2151   1.453   4.130  15.157 -0.2009  0.1392 -0.0892
  141TCq2    C6 2152   1.404   4.194  15.045 -0.2795 -0.1090 -0.1012
  141TCq2    C7 2153   1.365   4.124  14.931 -0.3374 -0.1065 -0.9101
  141TCq2    C8 2154   1.437   4.334  15.030  0.0075  0.7247 -0.4045
  141TCq2    O4 2155   1.455   4.390  15.136 -0.8975 -0.3047 -0.4925
  141TCq2    C9 2156   1.507   3.921  15.274 -0.2623 -0.3044 -0.0573
  141TCq2    O5 2157   1.552   3.993  15.369 -0.1626  0.4966 -0.2198
  141TCq2    O6 2158   1.495   3.793  15.280 -0.2713  0.0914  0.4209
  141TCq2    H2 2159   1.451   3.813  15.047  0.3341  0.3748 -0.4018
  141TCq2    H3 2160   1.472   4.178  15.252  0.6718  0.3998 -0.3979
  141TCq2    H4 2161   1.319   4.179  14.849 -1.8460 -1.1192 -0.7322
  142MPD2     C 2162   3.175   1.057   9.931 -0.1618  0.0714  0.5100
  142MPD2    C1 2163   3.078   1.015   9.842  0.3544 -0.2564 -0.3499
  142MPD2    C2 2164   3.066   1.085   9.721  0.6325  0.2025  0.7779
  142MPD2    C3 2165   3.152   1.192   9.688 -0.5185 -0.5640  0.2037
  142MPD2    C4 2166   3.242   1.236   9.779  0.1200 -0.4023  0.0278
  142MPD2    C5 2167   3.255   1.163   9.898 -0.7677 -0.3803 -0.0405
  142MPD2     H 2168   2.988   1.052   9.654 -1.0472  1.4418  2.1268
  142MPD2    H1 2169   3.311   1.318   9.757 -1.8088  1.4289  0.7952
  142MPD2    H2 2170   3.196   1.005  10.023 -2.9386 -0.7442  0.6873
  142MPD2    H3 2171   3.333   1.187   9.969  0.3315 -1.1541 -0.9972
  142MPD2     N 2172   3.142   1.264   9.566  0.0527 -0.2552 -0.2307
  142MPD2    H5 2173   3.207   1.340   9.548  0.3548  0.1704  2.7015
  142MPD2    N1 2174   3.003   0.900   9.875  0.2127  0.5224 -0.1394
  142MPD2    H7 2175   3.036   0.840   9.950 -0.2314 -0.6419 -0.8883
  143TCq2    C1 2176   3.048   1.242   9.465 -0.0874  0.0928 -0.1117
  143TCq2    O2 2177   2.951   1.170   9.469  0.1479  0.4612 -0.1446
  143TCq2    C2 2178   3.057   1.330   9.346 -0.7670  0.5534  0.3837
  143TCq2    C3 2179   3.169   1.392   9.303  0.2446 -0.2944  0.0336
  143TCq2    C4 2180   3.162   1.485   9.205  1.0237 -0.2604 -0.5759
  143TCq2    C5 2181   3.037   1.519   9.153  0.1306  0.5906  0.2336
  143TCq2    C6 2182   2.927   1.444   9.185  0.1416  0.0507 -0.1505
  143TCq2    C7 2183   2.930   1.360   9.291 -0.0293 -0.3732 -0.1657
  143TCq2    C8 2184   2.797   1.489   9.120  0.2848 -0.1925  0.3015
  143TCq2    O4 2185   2.805   1.596   9.064  0.9999  0.1543  0.0842
  143TCq2    C9 2186   3.284   1.553   9.160  0.4187 -0.1148  0.3883
  143TCq2    O5 2187   3.390   1.546   9.223 -0.2548 -0.1918 -0.5749
  143TCq2    O6 2188   3.269   1.626   9.062  0.7120 -0.6850  0.4126
  143TCq2    H2 2189   3.265   1.370   9.349  0.4753  0.7940  0.0960
  143TCq2    H3 2190   3.027   1.610   9.095  0.6043 -0.5248 -1.5941
  143TCq2    H4 2191   2.843   1.305   9.325  0.0404 -0.4056 -0.0393
  144MPD2     C 2192   1.934   1.224   0.701  0.0319  0.2094  0.3369
  144MPD2    C1 2193   1.989   1.098   0.713 -0.4237  1.0113  0.0910
  144MPD2    C2 2194   2.106   1.078   0.786 -0.7826  0.2614  0.0409
  144MPD2    C3 2195   2.178   1.182   0.845  0.8866 -0.6650 -0.4973
  144MPD2    C4 2196   2.120   1.308   0.834 -0.2309 -0.8539  0.8958
  144MPD2    C5 2197   2.002   1.326   0.764 -0.5030  0.1651 -0.3350
  144MPD2     H 2198   2.139   0.975   0.791  1.6502  1.0207 -0.2987
  144MPD2    H1 2199   2.176   1.393   0.870 -1.8623  0.2151  0.9274
  144MPD2    H2 2200   1.847   1.252   0.644  0.4554 -1.6089 -1.1848
  144MPD2    H3 2201   1.967   1.428   0.750 -1.3574 -0.1310 -0.3603
  144MPD2     N 2202   2.313   1.168   0.900 -0.1519  0.4137  0.1410
  144MPD2    H5 2203   2.351   1.253   0.940 -0.1337 -0.3664  1.8175
  144MPD2    N1 2204   1.929   0.988   0.646 -0.4357 -0.4756 -0.5427
  144MPD2    H7 2205   1.966   0.893   0.649  2.0527  0.4255 -2.7424
  145TCq2    C1 2206   2.385   1.052   0.901 -0.7336  0.3135  0.5224
  145TCq2    O2 2207   2.358   0.940   0.862  0.0782  0.3822 -0.3696
  145TCq2    C2 2208   2.521   1.072   0.948 -0.1789 -0.3106 -0.2345
  145TCq2    C3 2209   2.614   0.994   0.898 -0.1756  0.3617  0.8178
  145TCq2    C4 2210   2.742   0.992   0.955  0.1715  0.1773 -0.2400
  145TCq2    C5 2211   2.769   1.072   1.063 -0.3423  0.0944  1.0234
  145TCq2    C6 2212   2.663   1.144   1.116  0.0709  0.8621 -1.0281
  145TCq2    C7 2213   2.540   1.155   1.055 -0.3679 -0.7522 -0.3588
  145TCq2    C8 2214   2.711   1.249   1.211  0.3225  0.0901  1.1806
  145TCq2    O4 2215   2.834   1.257   1.227  0.1282 -0.2891  0.5491
  145TCq2    C9 2216   2.843   0.891   0.916  0.7111  0.3880 -0.1400
  145TCq2    O5 2217   2.827   0.863   0.797 -0.2964  0.4225 -0.3870
  145TCq2    O6 2218   2.953   0.892   0.972  0.1202  0.3591  0.3346
  145TCq2    H2 2219   2.590   0.929   0.815  2.4037 -0.8120  1.0012
  145TCq2    H3 2220   2.866   1.064   1.111 -0.4287 -2.5990  0.7274
  145TCq2    H4 2221   2.452   1.193   1.105  0.0123 -0.4747  0.0962
  146TMC2    C1 2222   2.784   4.052  12.080 -0.1861 -0.0713 -0.4734
  146TMC2    C2 2223   2.700   4.058  11.967 -0.2355 -0.4523  0.5939
  146TMC2    C3 2224   2.747   4.010  11.849  0.1630 -0.1451 -0.0584
  146TMC2    C4 2225   2.911   3.998  12.071  0.1406 -0.4871  0.1232
  146TMC2    C5 2226   2.951   3.942  11.955  1.1917 -0.7859 -0.3767
  146TMC2    C6 2227   2.874   3.952  11.848 -0.3584  0.7599 -0.0347
  146TMC2     C 2228   2.735   4.115  12.207  0.2438 -0.1055  0.4253
  146TMC2     O 2229   2.622   4.166  12.198  0.0294 -0.5559 -0.0424
  146TMC2     H 2230   2.603   4.107  11.976  0.5295  0.9989  0.9434
  146TMC2    H1 2231   2.983   4.013  12.151  0.3478 -2.2087  0.2553
  146TMC2    H2 2232   2.916   3.928  11.750  1.4458  2.6815  0.2590
  146TMC2    C7 2233   3.086   3.885  11.949  0.8309  0.1653 -0.5090
  146TMC2    C8 2234   2.696   4.062  11.729  0.7353 -0.2596 -0.4878
  146TMC2    O1 2235   3.139   3.893  11.840 -0.4828 -0.1460  0.3588
  146TMC2    O2 2236   2.750   4.017  11.628  0.1629 -0.0544 -0.0378
  146TMC2    O5 2237   2.702   4.195  11.753 -0.0379  0.3019  0.5765
  146TMC2    H5 2238   2.677   4.228  11.842 -1.1855  1.4743 -0.1833
  147MPD2     C 2239   3.518   3.739  12.154  0.2504 -0.2167 -0.1604
  147MPD2    C1 2240   3.425   3.739  12.251 -0.3495  0.6216 -0.2340
  147MPD2    C2 2241   3.297   3.771  12.220  0.1711 -0.0391  0.2667
  147MPD2    C3 2242   3.252   3.786  12.094  0.3321  0.0349  0.1293
  147MPD2    C4 2243   3.342   3.756  11.994 -0.5248  0.0628 -0.1623
  147MPD2    C5 2244   3.472   3.736  12.023 -0.6856 -0.3720 -0.2051
  147MPD2     H 2245   3.234   3.804  12.302  1.8364  2.9763  0.3354
  147MPD2    H1 2246   3.311   3.758  11.890 -0.7130  0.1726 -0.1041
  147MPD2    H2 2247   3.625   3.738  12.168  0.0805 -1.2760  0.9877
  147MPD2    H3 2248   3.543   3.718  11.944 -1.2551 -0.2523 -0.7409
  147MPD2     N 2249   3.123   3.829  12.069  0.4216 -0.2982  0.5647
  147MPD2    H5 2250   3.057   3.837  12.146  0.5242  0.1182  0.6083
  147MPD2    N1 2251   3.462   3.721  12.388 -0.1399  0.6103 -0.5481
  147MPD2    H7 2252   3.561   3.719  12.410  0.1123  3.0708 -1.4332
  148MPD2     C 2253   2.519   2.534   9.634  1.0035  0.2134 -0.2346
  148MPD2    C1 2254   2.607   2.556   9.737  0.0031  0.4375  0.6352
  148MPD2    C2 2255   2.680   2.453   9.795 -0.7164  0.0188  0.1648
  148MPD2    C3 2256   2.657   2.323   9.751 -0.1487 -0.4500 -0.4801
  148MPD2    C4 2257   2.576   2.297   9.641 -0.3908  0.1801 -0.2729
  148MPD2    C5 2258   2.516   2.406   9.586  0.0076 -0.4789  0.6415
  148MPD2     H 2259   2.744   2.474   9.879  2.0739 -0.2630 -1.8839
  148MPD2    H1 2260   2.560   2.200   9.595  1.2462  0.8472 -2.2322
  148MPD2    H2 2261   2.456   2.609   9.587  1.4543 -0.4352 -1.8991
  148MPD2    H3 2262   2.452   2.378   9.504 -0.3977 -1.4550  1.2865
  148MPD2     N 2263   2.718   2.210   9.811  0.6287 -0.1532  0.5088
  148MPD2    H5 2264   2.702   2.120   9.766 -1.0068  0.4473 -0.0826
  148MPD2    N1 2265   2.634   2.677   9.805 -0.6029 -0.5508  0.3988
  148MPD2    H7 2266   2.714   2.678   9.868  0.2990 -1.1606 -0.7295
  149TCq2    C1 2267   2.575   2.800   9.788 -0.2892  0.5056 -0.3270
  149TCq2    O2 2268   2.483   2.837   9.715  0.1220 -0.3759  0.0688
  149TCq2    C2 2269   2.647   2.896   9.871 -0.1094 -0.0012  0.0247
  149TCq2    C3 2270   2.569   2.984   9.939  0.3862  0.1226  0.3925
  149TCq2    C4 2271   2.631   3.037  10.056 -0.0673 -0.4865  0.0684
  149TCq2    C5 2272   2.737   2.969  10.122  0.2840 -0.0600  0.3776
  149TCq2    C6 2273   2.821   2.891  10.047  0.4164  0.2401  0.3995
  149TCq2    C7 2274   2.777   2.859   9.917 -0.3983  0.0085 -0.3693
  149TCq2    C8 2275   2.919   2.797  10.098  0.1692  0.3488  0.0483
  149TCq2    O4 2276   2.951   2.709  10.022 -0.6038  0.0114 -0.2367
  149TCq2    C9 2277   2.550   3.113  10.144  0.7386  0.0107  0.5841
  149TCq2    O5 2278   2.599   3.158  10.249  0.2372  0.3222  0.1572
  149TCq2    O6 2279   2.427   3.121  10.121 -0.0376 -0.4578 -0.1156
  149TCq2    H2 2280   2.471   3.010   9.902  0.7295 -2.6262 -2.4635
  149TCq2    H3 2281   2.762   2.996  10.224 -0.4101  0.6039  0.3714
  149TCq2    H4 2282   2.843   2.803   9.851 -0.1969 -0.2063  0.0133
  150MPD2     C 2283   4.487   2.444  11.912 -0.5321  0.2184  0.4176
  150MPD2    C1 2284   4.577   2.366  11.853  0.6893 -0.7105  0.3459
  150MPD2    C2 2285   4.713   2.388  11.867 -0.0264  0.6796 -0.2003
  150MPD2    C3 2286   0.039   2.495  11.954 -0.5200  0.3331 -0.3599
  150MPD2    C4 2287   4.667   2.576  12.016  0.4235  0.0319  0.5514
  150MPD2    C5 2288   4.533   2.546  11.989 -0.4124  0.4335  0.4157
  150MPD2     H 2289   0.058   2.325  11.807  0.8247  0.4180  0.9928
  150MPD2    H1 2290   4.684   2.654  12.089  2.1556 -0.0647  0.2446
  150MPD2    H2 2291   4.380   2.445  11.894 -0.2173  0.2191 -1.4587
  150MPD2    H3 2292   4.457   2.615  12.023  0.8429  2.1776 -0.3272
  150MPD2     N 2293   0.178   2.504  11.973  0.1047 -0.0530  0.6608
  150MPD2    H5 2294   0.241   2.462  11.905 -0.8470  0.9579 -0.8467
  150MPD2    N1 2295   4.516   2.278  11.758 -0.0368 -0.1657  0.2572
  150MPD2    H7 2296   4.415   2.286  11.753  0.1309  0.3361 -2.1409
  151TCq2    C1 2297   0.239   2.592  12.059  0.0236  0.8376 -0.6548
  151TCq2    O2 2298   0.192   2.664  12.147  0.2768  0.3473 -0.5881
  151TCq2    C2 2299   0.376   2.623  12.031 -0.9298  0.5048 -0.2916
  151TCq2    C3 2300   0.435   2.575  11.917  0.2443  0.0903  0.0544
  151TCq2    C4 2301   0.571   2.593  11.900  0.6205  0.0488  0.3342
  151TCq2    C5 2302   0.647   2.656  11.994 -0.7858  1.0594  0.0387
  151TCq2    C6 2303   0.579   2.695  12.110 -0.0003 -0.3626  0.2958
  151TCq2    C7 2304   0.445   2.685  12.126  0.0391 -0.8621  0.5045
  151TCq2    C8 2305   0.660   2.719  12.232  0.2635 -0.2757  0.1322
  151TCq2    O4 2306   0.611   2.785  12.322 -0.5316 -0.6690 -0.7537
  151TCq2    C9 2307   0.638   2.540  11.787  0.1939  0.0361  0.1891
  151TCq2    O5 2308   0.568   2.467  11.712  0.8685  0.0826 -0.1867
  151TCq2    O6 2309   0.758   2.567  11.761  0.1224 -0.5196  0.5012
  151TCq2    H2 2310   0.377   2.512  11.852  1.1413 -0.4504 -0.2181
  151TCq2    H3 2311   0.752   2.676  11.977 -0.4444 -0.4862  0.3264
  151TCq2    H4 2312   0.397   2.724  12.215 -0.8304 -0.3290 -0.1998
  152MPD2     C 2313   4.633   1.899  12.039 -0.3749 -0.7062 -0.7942
  152MPD2    C1 2314   4.634   2.033  12.076  0.3718 -0.5750  0.3079
  152MPD2    C2 2315   4.514   2.109  12.083 -0.2700  0.3206  0.0340
  152MPD2    C3 2316   4.391   2.054  12.046  0.2479 -0.2133  0.1036
  152MPD2    C4 2317   4.394   1.919  12.008 -0.6104 -0.0575  0.4112
  152MPD2    C5 2318   4.512   1.846  12.011 -0.1815  0.4072  0.6809
  152MPD2     H 2319   4.512   2.211  12.119  1.0955 -0.1765  1.5055
  152MPD2    H1 2320   4.306   1.875  11.963 -0.6967  0.0405  0.4852
  152MPD2    H2 2321   0.004   1.840  12.032 -0.1130 -0.1904 -1.9388
  152MPD2    H3 2322   4.512   1.741  11.985 -2.2669  0.7041 -0.5483
  152MPD2     N 2323   4.269   2.126  12.053  0.1430 -0.2172  0.2719
  152MPD2    H5 2324   4.280   2.224  12.077 -1.2475  0.4281 -1.7856
  152MPD2    N1 2325   0.039   2.096  12.104 -0.3127 -0.3686 -0.0158
  152MPD2    H7 2326   0.117   2.036  12.077 -1.7737 -1.5767 -1.5950
  153TCq2    C1 2327   0.059   2.213  12.180  0.6847  0.3855 -0.2139
  153TCq2    O2 2328   4.702   2.284  12.244 -0.0817 -0.3049  0.2766
  153TCq2    C2 2329   0.202   2.251  12.185 -0.1967 -0.8633  0.3817
  153TCq2    C3 2330   0.287   2.218  12.084  0.1438  0.0780 -0.2389
  153TCq2    C4 2331   0.425   2.245  12.108  0.2944  0.7971  0.0280
  153TCq2    C5 2332   0.468   2.304  12.224 -0.4606 -0.2538  0.0123
  153TCq2    C6 2333   0.379   2.330  12.318 -0.2550 -0.4378  0.8623
  153TCq2    C7 2334   0.247   2.318  12.296  0.1782 -0.4024  0.1292
  153TCq2    C8 2335   0.419   2.406  12.435 -0.0290  0.8434 -0.1695
  153TCq2    O4 2336   0.337   2.481  12.485 -0.3291  0.0959  0.3619
  153TCq2    C9 2337   0.513   2.207  12.003  0.6482  0.4891  0.3832
  153TCq2    O5 2338   0.630   2.258  12.015 -0.4718 -1.0553 -0.2161
  153TCq2    O6 2339   0.458   2.168  11.893 -0.5607  0.0970 -0.5245
  153TCq2    H2 2340   0.264   2.181  11.985 -0.1863 -1.1311  0.2888
  153TCq2    H3 2341   0.572   2.331  12.244 -0.2712 -0.1454 -1.1285
  153TCq2    H4 2342   0.176   2.348  12.372  2.0357  2.5228  0.6932
  154MPD2     C 2343   3.197   2.888   0.529 -0.4217 -0.3981 -0.1378
  154MPD2    C1 2344   3.115   2.777   0.549 -0.3939 -0.2292  0.3490
  154MPD2    C2 2345   3.046   2.771   0.677 -0.0716  0.3157 -0.3594
  154MPD2    C3 2346   3.067   2.864   0.778  0.4987  0.3981 -0.4415
  154MPD2    C4 2347   3.149   2.976   0.747 -0.1631 -0.1463  0.6378
  154MPD2    C5 2348   3.210   2.980   0.628  0.1014  0.5761  0.3744
  154MPD2     H 2349   2.983   2.685   0.694  0.6655 -0.1544 -0.0215
  154MPD2    H1 2350   3.160   3.065   0.808  0.4315 -0.8899  1.5998
  154MPD2    H2 2351   3.249   2.904   0.435 -0.6232 -0.4509 -0.2578
  154MPD2    H3 2352   3.282   3.060   0.620 -0.5686  1.0105 -1.1925
  154MPD2     N 2353   3.001   2.848   0.899  0.0082 -0.2616  0.0350
  154MPD2    H5 2354   2.947   2.764   0.917  0.1504 -0.7328 -1.7226
  154MPD2    N1 2355   3.111   2.680   0.450 -0.3769  0.5752 -0.3327
  154MPD2    H7 2356   3.184   2.680   0.379 -0.3038  0.4530 -0.2578
  155TCq2    C1 2357   3.028   2.568   0.458 -0.2744  0.1490  0.8451
  155TCq2    O2 2358   2.931   2.556   0.527 -0.4291 -0.7856  0.1624
  155TCq2    C2 2359   3.055   2.471   0.353 -0.1709 -0.1387 -0.0111
  155TCq2    C3 2360   3.030   2.337   0.373  0.6945 -0.7806 -0.7856
  155TCq2    C4 2361   3.087   2.244   0.289 -0.0605  0.1233 -0.9848
  155TCq2    C5 2362   3.167   2.282   0.178 -0.6844 -0.8607  0.2032
  155TCq2    C6 2363   3.190   2.419   0.163  0.1689  1.2314  0.4044
  155TCq2    C7 2364   3.122   2.509   0.242  1.0939  0.2367  0.5486
  155TCq2    C8 2365   3.244   2.469   0.037 -0.1392  0.2689  0.4011
  155TCq2    O4 2366   3.274   2.587   0.016 -0.1779 -0.5852 -0.2192
  155TCq2    C9 2367   3.079   2.104   0.335 -0.1934 -0.8546  0.9003
  155TCq2    O5 2368   3.060   2.089   0.456 -0.1597  0.0273 -0.7825
  155TCq2    O6 2369   3.082   2.011   0.257 -0.8783 -0.9141  0.2434
  155TCq2    H2 2370   2.973   2.298   0.456  0.4616 -3.0071 -1.9972
  155TCq2    H3 2371   3.229   2.209   0.127 -0.0268 -0.7039  0.7788
  155TCq2    H4 2372   3.141   2.615   0.226  2.4763  0.3079  2.6368
  156MPD2     C 2373   0.469   4.217  11.726 -0.8435  0.3667 -0.6063
  156MPD2    C1 2374   0.396   4.317  11.662  0.2243 -0.2305  0.1220
  156MPD2    C2 2375   0.387   4.443  11.725 -0.1095 -0.2527  1.0769
  156MPD2    C3 2376   0.467   4.470  11.837  0.0684 -0.6585 -0.0888
  156MPD2    C4 2377   0.546   4.375  11.890 -0.0670  0.8168 -0.4034
  156MPD2    C5 2378   0.541   4.252  11.831 -0.1633  0.7313 -0.4290
  156MPD2     H 2379   0.321   4.520  11.686  2.4521  2.9091  2.9748
  156MPD2    H1 2380   0.628   4.383  11.960  0.5422 -0.3118 -0.9960
  156MPD2    H2 2381   0.488   4.121  11.680 -0.0048 -0.4384  1.4430
  156MPD2    H3 2382   0.616   4.184  11.870  0.6040  2.0327  0.3856
  156MPD2     N 2383   0.472   4.610  11.876  0.3152  0.6421 -0.0710
  156MPD2    H5 2384   0.417   4.669  11.814  0.5762  2.3315  1.3221
  156MPD2    N1 2385   0.346   4.299  11.533  0.0166 -0.4146 -0.4525
  156MPD2    H7 2386   0.364   4.205  11.500 -1.2156 -1.4984  1.9291
  157TCq2    C1 2387   0.278   4.390  11.456 -0.2232 -0.3161  0.1953
  157TCq2    O2 2388   0.237   4.506  11.473  0.6833  0.0390  0.2789
  157TCq2    C2 2389   0.242   4.328  11.330 -1.2138 -0.2680 -0.1650
  157TCq2    C3 2390   0.322   4.231  11.279 -0.0321  0.5448 -0.2010
  157TCq2    C4 2391   0.298   4.190  11.150 -0.1227 -0.4466  0.4388
  157TCq2    C5 2392   0.222   4.266  11.064 -0.8989 -0.4312 -0.0996
  157TCq2    C6 2393   0.146   4.367  11.116  0.2865 -0.2869  0.1539
  157TCq2    C7 2394   0.154   4.396  11.247  0.1654 -0.1220 -0.5158
  157TCq2    C8 2395   0.047   4.430  11.033 -0.8329 -0.2164 -0.3699
  157TCq2    O4 2396   0.066   4.443  10.913  0.7406  0.1993 -0.2449
  157TCq2    C9 2397   0.389   4.091  11.097 -0.4050  0.2253  0.5743
  157TCq2    O5 2398   0.463   4.031  11.181  0.2541 -0.1086  0.3625
  157TCq2    O6 2399   0.400   4.084  10.974 -0.0717  0.0882  0.5541
  157TCq2    H2 2400   0.398   4.174  11.331 -0.6518  1.2976  1.5382
  157TCq2    H3 2401   0.213   4.234  10.961 -1.4525 -1.5332  0.2878
  157TCq2    H4 2402   0.087   4.463  11.300  0.1380 -0.5024 -0.0620
  158TMC2    C1 2403   0.443   3.666  13.030  0.2625 -0.3389  0.4561
  158TMC2    C2 2404   0.501   3.705  12.911 -0.0668 -0.4299 -0.8177
  158TMC2    C3 2405   0.442   3.670  12.798 -0.8154  0.7161  0.3798
  158TMC2    C4 2406   0.326   3.591  13.029  0.2818  0.2252 -0.1084
  158TMC2    C5 2407   0.260   3.571  12.908 -1.1954 -0.1276  0.1770
  158TMC2    C6 2408   0.318   3.609  12.788  0.6515 -0.0699 -0.0254
  158TMC2     C 2409   0.503   3.725  13.154  0.0373  0.5526 -0.4759
  158TMC2     O 2410   0.566   3.830  13.139  0.1903  0.0832 -0.4146
  158TMC2     H 2411   0.600   3.749  12.907 -0.2927  0.0786 -0.7393
  158TMC2    H1 2412   0.271   3.573  13.120  0.6736 -2.1882 -0.3250
  158TMC2    H2 2413   0.275   3.588  12.690  1.6953  3.4418 -1.2648
  158TMC2    C7 2414   0.133   3.500  12.903 -0.6232 -0.1596 -0.3393
  158TMC2    C8 2415   0.506   3.711  12.675  0.5347 -0.1617  0.4437
  158TMC2    O1 2416   0.072   3.501  12.795 -0.6413 -0.3261 -0.0278
  158TMC2    O2 2417   0.622   3.748  12.666 -0.9132  0.3371 -0.0786
  158TMC2    O5 2418   0.412   3.759  12.588 -0.0511 -0.1578  0.1660
  158TMC2    H5 2419   0.316   3.738  12.594 -0.4538  1.9471  0.9020
  159MPD2     C 2420   0.611   3.712  13.655 -0.3124 -0.4071  0.1080
  159MPD2    C1 2421   0.578   3.588  13.606 -0.0475  0.3080 -0.3889
  159MPD2    C2 2422   0.533   3.570  13.473 -0.8922 -0.6000  0.4533
  159MPD2    C3 2423   0.522   3.672  13.389 -0.9798  0.8533  0.7722
  159MPD2    C4 2424   0.566   3.795  13.439 -0.0532 -0.2813  0.2298
  159MPD2    C5 2425   0.604   3.813  13.566  0.1511 -0.3809  0.1286
  159MPD2     H 2426   0.503   3.474  13.432 -0.9642 -0.1565 -0.5507
  159MPD2    H1 2427   0.581   3.882  13.376  0.3025 -2.2130 -2.3253
  159MPD2    H2 2428   0.654   3.733  13.753  0.3096 -2.6464  0.3179
  159MPD2    H3 2429   0.637   3.914  13.586 -1.8106  0.4696 -0.8353
  159MPD2     N 2430   0.490   3.642  13.259 -0.2611  0.3784  1.4144
  159MPD2    H5 2431   0.465   3.546  13.238  0.9161  0.6213 -1.0525
  159MPD2    N1 2432   0.572   3.476  13.695 -0.8298  1.0274  0.0380
  159MPD2    H7 2433   0.515   3.399  13.661  0.2272  0.1326  0.2996
  160TMC2    C1 2434   0.868   1.624   0.687  0.0346 -0.3200  0.0180
  160TMC2    C2 2435   0.974   1.535   0.681 -0.3933  0.3648  0.3830
  160TMC2    C3 2436   1.098   1.584   0.671  0.3322 -0.0059  0.1725
  160TMC2    C4 2437   0.883   1.765   0.674 -0.4057  0.6559 -0.0523
  160TMC2    C5 2438   1.015   1.798   0.637 -0.5876 -0.5122  0.0559
  160TMC2    C6 2439   1.121   1.714   0.636 -0.3618  0.0823 -1.2105
  160TMC2     C 2440   0.739   1.564   0.685 -0.3679  0.0937 -0.0188
  160TMC2     O 2441   0.726   1.446   0.655  0.5514  1.1175 -0.0291
  160TMC2     H 2442   0.967   1.429   0.703  0.5456  0.1581 -0.3234
  160TMC2    H1 2443   0.794   1.826   0.665 -0.6993  0.0425 -1.3529
  160TMC2    H2 2444   1.212   1.738   0.582 -0.1175 -2.4277 -1.8920
  160TMC2    C7 2445   1.040   1.943   0.651  0.7418 -0.5547  0.6053
  160TMC2    C8 2446   1.194   1.501   0.602  0.1031 -0.2407  0.2178
  160TMC2    O1 2447   0.943   2.014   0.672  0.2217  0.1637  0.3537
  160TMC2    O2 2448   1.178   1.459   0.488 -0.6202 -0.2180  0.1316
  160TMC2    O5 2449   1.304   1.516   0.675  0.0450  0.2455  0.0345
  160TMC2    H5 2450   1.268   1.550   0.760  1.8927  1.7027  0.2390
  161MPD2     C 2451   0.437   1.514   0.696  0.4262  0.9582 -0.9794
  161MPD2    C1 2452   0.506   1.633   0.717 -0.1790 -0.1691 -0.5989
  161MPD2    C2 2453   0.435   1.742   0.764  0.1714 -0.4084 -0.6919
  161MPD2    C3 2454   0.298   1.750   0.773  0.0794  0.7868  0.2502
  161MPD2    C4 2455   0.231   1.627   0.750 -0.0763  0.1160 -0.0256
  161MPD2    C5 2456   0.298   1.511   0.711 -0.5427  0.5834  1.0505
  161MPD2     H 2457   0.495   1.831   0.780 -0.8442  0.0816  0.3863
  161MPD2    H1 2458   0.124   1.619   0.766 -0.1410  0.2049 -0.4123
  161MPD2    H2 2459   0.489   1.429   0.653  0.1807  1.0525 -1.4675
  161MPD2    H3 2460   0.244   1.422   0.680 -0.0479  0.3893  0.7382
  161MPD2     N 2461   0.222   1.864   0.808  0.3601 -0.0073  0.2089
  161MPD2    H5 2462   0.123   1.844   0.815  0.7274 -1.2814  1.7163
  161MPD2    N1 2463   0.645   1.660   0.715 -0.2961  0.6731 -0.3927
  161MPD2    H7 2464   0.683   1.748   0.746  0.9066  0.5318 -1.4751
  162TMC2    C1 2465   3.867   4.101   1.169 -0.3174 -0.2689 -0.5579
  162TMC2    C2 2466   3.854   4.238   1.161  0.1637  0.2999 -0.4307
  162TMC2    C3 2467   3.794   4.296   1.273  0.4140 -0.5456 -0.1654
  162TMC2    C4 2468   3.833   4.023   1.278  0.3356  0.7379 -0.0748
  162TMC2    C5 2469   3.785   4.094   1.383 -0.2646  0.6992 -0.3969
  162TMC2    C6 2470   3.763   4.230   1.390  0.4440  0.1572  0.0088
  162TMC2     C 2471   3.880   4.026   1.043  0.1505  0.5158 -0.0119
  162TMC2     O 2472   3.906   3.910   1.074  0.0200 -0.6133 -0.1351
  162TMC2     H 2473   3.913   4.303   1.098  0.6592 -0.2380 -0.5229
  162TMC2    H1 2474   3.826   3.915   1.278 -2.2859  0.8912  0.8886
  162TMC2    H2 2475   3.730   4.271   1.484 -1.7415  1.2736 -1.2423
  162TMC2    C7 2476   3.720   4.020   1.502  0.1928 -0.3462 -0.5691
  162TMC2    C8 2477   3.794   4.439   1.287 -0.4017  0.4219 -0.4397
  162TMC2    O1 2478   3.608   4.066   1.531 -0.5854  0.2132  0.3466
  162TMC2    O2 2479   3.759   4.499   1.392  0.0985  0.4240 -0.4116
  162TMC2    O5 2480   3.779   4.483   1.160 -0.3790  0.2466 -0.3443
  162TMC2    H5 2481   3.766   4.423   1.083  1.4788 -0.2993 -0.2188
  163MPD2     C 2482   3.690   3.920   0.589 -0.2027 -0.6966 -0.1394
  163MPD2    C1 2483   3.761   3.841   0.680 -0.9898  0.3825 -0.0061
  163MPD2    C2 2484   3.802   3.895   0.800 -0.1913 -0.1030  0.8262
  163MPD2    C3 2485   3.764   4.023   0.827 -0.2191  0.3578  0.0068
  163MPD2    C4 2486   3.704   4.100   0.738 -0.2639 -0.3793  0.1646
  163MPD2    C5 2487   3.659   4.052   0.622 -0.1490  1.5076 -0.1516
  163MPD2     H 2488   3.870   3.843   0.867  0.4185  1.7695  1.6439
  163MPD2    H1 2489   3.699   4.207   0.756  2.3984 -0.2788  0.4264
  163MPD2    H2 2490   3.684   3.894   0.484  1.5659  2.7117 -1.0705
  163MPD2    H3 2491   3.620   4.106   0.537  0.6394  1.8870 -0.2779
  163MPD2     N 2492   3.810   4.086   0.946 -0.1157 -0.4746 -0.1280
  163MPD2    H5 2493   3.780   4.182   0.962  2.0454 -0.0795  1.5866
  163MPD2    N1 2494   3.799   3.708   0.641 -0.3077  0.1976 -0.5952
  163MPD2    H7 2495   3.753   3.661   0.563 -2.2173  1.7167 -0.3832
  164TCq2    C1 2496   3.593   2.322  10.429  0.4132  0.3188 -0.0479
  164TCq2    O2 2497   3.536   2.246  10.507 -0.1471 -0.5830 -0.5810
  164TCq2    C2 2498   3.557   2.462  10.443  0.4140  0.3931  0.0021
  164TCq2    C3 2499   3.615   2.554  10.360  0.3342 -0.2565 -0.0518
  164TCq2    C4 2500   3.615   2.687  10.403  0.5170  1.1501 -0.5142
  164TCq2    C5 2501   3.549   2.726  10.512 -0.3780 -0.1379  0.1065
  164TCq2    C6 2502   3.504   2.628  10.603  0.3194  0.0040  0.0890
  164TCq2    C7 2503   3.508   2.500  10.570  0.2737  0.3947 -0.1565
  164TCq2    C8 2504   3.405   2.671  10.699 -0.6535 -0.3260  0.4439
  164TCq2    O4 2505   3.359   2.788  10.690  0.6777  0.5943  0.2645
  164TCq2    C9 2506   3.673   2.785  10.311 -0.0657 -0.1605  0.8097
  164TCq2    O5 2507   3.736   2.736  10.211 -0.3666  0.2468  0.3259
  164TCq2    O6 2508   3.626   2.900  10.306 -0.3263  0.2874  0.7095
  164TCq2    H2 2509   3.663   2.528  10.267 -0.7459  0.1801 -0.7375
  164TCq2    H3 2510   3.542   2.832  10.535 -1.6355 -0.4723  1.3235
  164TCq2    H4 2511   3.470   2.422  10.635  1.7535  0.2766  0.5743
  165MPD2     C 2512   1.009   4.183   1.688 -0.7461  0.1366 -0.3946
  165MPD2    C1 2513   0.908   4.260   1.641 -0.0825 -0.0321  0.2154
  165MPD2    C2 2514   0.904   4.398   1.662 -0.4376 -0.6023  0.1073
  165MPD2    C3 2515   1.007   4.454   1.726 -0.0889 -0.1217 -0.0784
  165MPD2    C4 2516   1.119   4.381   1.770 -0.2087 -0.0105 -0.4173
  165MPD2    C5 2517   1.115   4.246   1.751 -0.3636 -0.2553 -0.3225
  165MPD2     H 2518   0.824   4.461   1.625 -0.3066 -0.0310  0.7869
  165MPD2    H1 2519   1.207   4.427   1.814  0.6789  1.3579 -3.6100
  165MPD2    H2 2520   1.023   4.076   1.675  2.0142  0.6116 -1.2239
  165MPD2    H3 2521   1.193   4.179   1.786 -0.7260 -0.4919  0.0286
  165MPD2     N 2522   1.019   4.590   1.758 -0.4542 -0.5639 -0.3911
  165MPD2    H5 2523   1.106   4.611   1.806 -0.5803 -0.9544  0.0105
  165MPD2    N1 2524   0.809   4.185   1.571 -0.4545 -0.0159  0.0054
  165MPD2    H7 2525   0.829   4.087   1.555 -0.9676 -0.3513  1.4380
  166TCq2    C1 2526   0.921   4.682   1.760  0.3139 -0.4979  0.2666
  166TCq2    O2 2527   0.802   4.667   1.735 -0.3932 -0.1544  0.0335
  166TCq2    C2 2528   0.968   0.097   1.809  1.4090 -0.5463  1.2215
  166TCq2    C3 2529   0.873   0.185   1.849  0.6457 -0.0194  0.4580
  166TCq2    C4 2530   0.916   0.304   1.908 -0.0195 -0.3555  0.8683
  166TCq2    C5 2531   1.052   0.343   1.907  0.2905  0.0086  0.1921
  166TCq2    C6 2532   1.144   0.250   1.865 -0.6880 -0.2053 -0.0415
  166TCq2    C7 2533   1.106   0.129   1.811 -0.3373  0.3982  0.4943
  166TCq2    C8 2534   1.285   0.284   1.894  0.2561 -0.0260 -0.5703
  166TCq2    O4 2535   1.315   0.386   1.959 -0.3565  0.9641  0.7660
  166TCq2    C9 2536   0.816   0.398   1.959  0.0687  0.5289  0.0416
  166TCq2    O5 2537   0.853   0.488   2.038 -0.4775  0.9639  0.4063
  166TCq2    O6 2538   0.695   0.358   1.951  0.4029 -0.4039  0.1475
  166TCq2    H2 2539   0.767   0.165   1.846  0.3513  1.5584  0.3572
  166TCq2    H3 2540   1.077   0.435   1.959 -1.5934  0.1608  0.8190
  166TCq2    H4 2541   1.182   0.061   1.774 -0.3641  0.0352  1.1157
  167TMC2    C1 2542   2.799   2.744  12.296  0.0220  0.4025 -0.2047
  167TMC2    C2 2543   2.716   2.789  12.397 -0.4671  0.1779  0.0777
  167TMC2    C3 2544   2.674   2.698  12.501  0.2150  0.4323  0.3330
  167TMC2    C4 2545   2.835   2.611  12.289 -0.6755 -0.5752  0.3836
  167TMC2    C5 2546   2.801   2.526  12.397  0.2633 -0.1136  0.3598
  167TMC2    C6 2547   2.727   2.567  12.506 -1.0958 -0.0793 -0.0948
  167TMC2     C 2548   2.853   2.850  12.213 -0.0493 -0.1350 -0.2847
  167TMC2     O 2549   2.813   2.964  12.222  0.2030 -0.2255  0.4984
  167TMC2     H 2550   2.694   2.895  12.402 -1.0454  0.0788 -0.4190
  167TMC2    H1 2551   2.896   2.586  12.203 -1.5016 -0.2768 -0.2894
  167TMC2    H2 2552   2.710   2.502  12.591  0.2090 -2.6639 -1.8094
  167TMC2    C7 2553   2.843   2.389  12.399 -0.0838  0.7899 -0.6525
  167TMC2    C8 2554   2.623   2.753  12.630  0.6893 -0.8701 -0.4161
  167TMC2    O1 2555   2.820   2.341  12.507  0.3850  0.1640  0.0523
  167TMC2    O2 2556   2.616   2.877  12.646 -0.5743 -0.0800  0.2189
  167TMC2    O5 2557   2.602   2.665  12.725  0.3848 -0.7521 -1.4386
  167TMC2    H5 2558   2.574   2.581  12.683 -0.0115  0.4490 -3.5876
  168MPD2     C 2559   3.060   3.001  12.024  0.6785  0.2603 -0.0453
  168MPD2    C1 2560   3.054   2.863  12.048 -0.1776 -0.3035 -0.4696
  168MPD2    C2 2561   3.136   2.780  11.979 -0.4093  0.4747 -0.7237
  168MPD2    C3 2562   3.226   2.830  11.885  0.2193  0.6278 -0.3877
  168MPD2    C4 2563   3.240   2.962  11.866  0.1864 -0.2638 -0.4689
  168MPD2    C5 2564   3.164   3.049  11.942 -0.2653  0.3390 -0.4110
  168MPD2     H 2565   3.153   2.674  11.989 -3.8403 -0.1742 -1.8126
  168MPD2    H1 2566   3.315   2.997  11.797  2.3306 -0.3784  1.8297
  168MPD2    H2 2567   2.992   3.068  12.076  0.1693 -0.0305 -0.3409
  168MPD2    H3 2568   3.177   3.155  11.924 -0.8823  0.7900  1.8068
  168MPD2     N 2569   3.300   2.746  11.802 -0.2019  0.4657  0.1636
  168MPD2    H5 2570   3.374   2.791  11.749  1.0161  0.0884  1.5433
  168MPD2    N1 2571   2.960   2.804  12.138  0.1430  0.1793  0.3881
  168MPD2    H7 2572   2.975   2.704  12.148 -0.4294 -0.0532 -0.9736
  169MPD1     C 2573   0.475   0.668   9.254 -0.2071  0.2428 -0.4464
  169MPD1    C1 2574   0.538   0.688   9.379  0.7201  0.2267  0.1492
  169MPD1    C2 2575   0.646   0.771   9.381  0.4490  0.1796 -0.0804
  169MPD1    C3 2576   0.699   0.838   9.265  0.0322 -0.3637  0.2452
  169MPD1    C4 2577   0.626   0.820   9.145 -0.7104  1.3494 -0.1532
  169MPD1    C5 2578   0.514   0.733   9.142  0.0291 -0.6106 -0.5516
  169MPD1     H 2579   0.682   0.792   9.481  1.5320 -1.0879 -0.1973
  169MPD1    H1 2580   0.653   0.868   9.052 -1.8429 -0.7869 -1.5911
  169MPD1    H2 2581   0.386   0.607   9.245  0.5797 -1.0557  0.3650
  169MPD1    H3 2582   0.453   0.711   9.056 -1.9295 -0.4309  0.7877
  169MPD1     N 2583   0.802   0.929   9.278  0.2318  0.3040 -0.5337
  169MPD1    H5 2584   0.836   0.950   9.371  0.1000  1.3936 -0.7321
  169MPD1    N1 2585   0.489   0.622   9.491 -0.3191 -0.0619 -0.4200
  169MPD1    H6 2586   0.487   0.666   9.583  1.6944 -0.1367 -0.3374
  169MPD1    H7 2587   0.400   0.573   9.479 -0.3519 -0.5202  1.6910
  170MPD1     C 2588   3.827   0.124  12.719 -0.1490 -0.0923  0.2182
  170MPD1    C1 2589   3.847   0.250  12.663  0.2218 -0.5711 -0.3978
  170MPD1    C2 2590   3.887   0.344  12.755  0.1901 -0.0829  0.1329
  170MPD1    C3 2591   3.913   0.307  12.889  0.0662 -0.0169 -0.6316
  170MPD1    C4 2592   3.879   0.181  12.941  0.2258 -0.4537 -0.0851
  170MPD1    C5 2593   3.831   0.096  12.851 -0.3827  1.1495  0.8404
  170MPD1     H 2594   3.911   0.445  12.726  1.1043 -0.1906  0.4921
  170MPD1    H1 2595   3.882   0.149  13.044  1.1464 -0.7262 -0.1987
  170MPD1    H2 2596   3.811   0.040  12.652 -0.3321  1.7668 -2.1116
  170MPD1    H3 2597   3.801   4.716  12.882  0.7993  0.3415 -0.6405
  170MPD1     N 2598   3.978   0.404  12.970  0.1526  0.6498 -0.0258
  170MPD1    H5 2599   4.006   0.492  12.928  1.2380  0.5016  0.3852
  170MPD1    N1 2600   3.849   0.270  12.523  0.2641 -0.0087 -0.0474
  170MPD1    H6 2601   3.796   0.201  12.469  0.7493  0.4674 -1.1300
  170MPD1    H7 2602   3.838   0.364  12.486  2.4323 -0.0372 -0.7433
  171MPD1     C 2603   2.342   1.831  15.590  0.0848  0.2242  0.1656
  171MPD1    C1 2604   2.396   1.810  15.715  0.2992  0.1551 -0.5635
  171MPD1    C2 2605   2.507   1.728  15.714 -0.1018  0.0136 -1.0933
  171MPD1    C3 2606   2.560   1.669  15.596  0.1734  0.7632 -0.3352
  171MPD1    C4 2607   2.494   1.694  15.475 -0.0759 -0.3890  0.0529
  171MPD1    C5 2608   2.382   1.775  15.473  0.0219 -0.8266  0.1509
  171MPD1     H 2609   2.554   1.714  15.810 -5.2089  1.3429  1.6146
  171MPD1    H1 2610   2.524   1.656  15.378  2.0685  0.9327  0.1814
  171MPD1    H2 2611   2.254   1.893  15.582  1.0212  1.5836  0.3398
  171MPD1    H3 2612   2.330   1.798  15.380  0.9306  1.2806  0.1649
  171MPD1     N 2613   2.676   1.583  15.587  0.2950 -0.2587 -0.3419
  171MPD1    H5 2614   2.695   1.550  15.493 -0.7640 -0.3304 -0.5286
  171MPD1    N1 2615   2.353   1.876  15.834 -0.2106  0.4023  0.1032
  171MPD1    H6 2616   2.256   1.905  15.825  0.1355  0.6221 -3.0422
  171MPD1    H7 2617   2.374   1.811  15.910  1.3655 -0.3215 -0.9318
  172MPD1     C 2618   2.068   0.316   0.492 -0.4708  0.3141  0.4603
  172MPD1    C1 2619   2.046   0.428   0.574 -0.1156 -0.6822  0.0745
  172MPD1    C2 2620   2.116   0.543   0.551  0.7437  0.0475  0.4326
  172MPD1    C3 2621   2.206   0.559   0.442 -0.8427 -0.1980 -0.2417
  172MPD1    C4 2622   2.222   0.446   0.360 -0.1867  0.2962 -0.2824
  172MPD1    C5 2623   2.149   0.327   0.380 -0.5205 -0.2287  0.4194
  172MPD1     H 2624   2.109   0.625   0.621 -0.9911 -0.5802  0.9783
  172MPD1    H1 2625   2.277   0.448   0.267  1.9870 -1.7407  0.9734
  172MPD1    H2 2626   2.035   0.215   0.512  1.2164  0.0300  1.7547
  172MPD1    H3 2627   2.167   0.236   0.324  1.2833  1.3476 -1.5737
  172MPD1     N 2628   2.291   0.669   0.408 -0.1142 -0.1328  0.4572
  172MPD1    H5 2629   2.353   0.646   0.332 -0.2794  0.9137  0.0130
  172MPD1    N1 2630   1.958   0.412   0.682 -0.2648  0.0533  0.5237
  172MPD1    H6 2631   1.884   0.343   0.669 -2.1202  2.0124  0.7309
  172MPD1    H7 2632   1.923   0.495   0.730 -0.7355  0.1573  0.0033
  173MPD1     C 2633   4.042   0.827  13.699 -0.7532  0.5778 -0.0486
  173MPD1    C1 2634   3.934   0.744  13.691 -0.1017  0.2545  0.3746
  173MPD1    C2 2635   3.873   0.696  13.805 -0.2315  0.5346 -1.0418
  173MPD1    C3 2636   3.944   0.695  13.928 -0.5487 -0.2470 -0.4440
  173MPD1    C4 2637   4.062   0.772  13.936 -0.0090  0.4265 -0.2319
  173MPD1    C5 2638   4.107   0.830  13.819 -0.5739  0.7281  0.2403
  173MPD1     H 2639   3.775   0.650  13.799 -0.2389  0.1220  1.9051
  173MPD1    H1 2640   4.127   0.773  14.023 -0.4993 -0.8920  0.1500
  173MPD1    H2 2641   4.082   0.865  13.605 -2.5415  0.4508 -0.8674
  173MPD1    H3 2642   4.201   0.884  13.825 -0.4333  0.3825  1.2170
  173MPD1     N 2643   3.889   0.612  14.034  0.3262  0.3387 -0.2206
  173MPD1    H5 2644   3.789   0.597  14.024  0.5230 -0.4870 -0.9512
  173MPD1    N1 2645   3.879   0.738  13.560  0.1229  0.0716 -0.1046
  173MPD1    H6 2646   3.823   0.653  13.552  0.5145 -0.3226  1.2476
  173MPD1    H7 2647   3.953   0.746  13.490  1.6446  2.2458  1.7424
  174MPD1     C 2648   4.226   0.093  14.836 -0.1450 -1.2261 -0.0868
  174MPD1    C1 2649   4.088   0.093  14.846  0.8113 -1.3966  0.3697
  174MPD1    C2 2650   4.018   0.193  14.780 -0.2464 -0.3485  0.0357
  174MPD1    C3 2651   4.083   0.283  14.692  0.0854  0.3076  0.1861
  174MPD1    C4 2652   4.222   0.280  14.681 -0.0170  0.5577 -0.2824
  174MPD1    C5 2653   4.287   0.185  14.753 -0.8527 -0.5967  0.6163
  174MPD1     H 2654   3.913   0.200  14.804  0.1296  0.2963  1.4606
  174MPD1    H1 2655   4.280   0.332  14.606  0.7955 -0.2082 -0.1900
  174MPD1    H2 2656   4.293   0.027  14.889 -0.8731 -0.7027  1.5009
  174MPD1    H3 2657   4.395   0.178  14.740 -0.9047  0.8009 -0.5305
  174MPD1     N 2658   4.013   0.376  14.611 -0.5693  0.5044 -0.4997
  174MPD1    H5 2659   4.068   0.449  14.568  1.0224 -1.0819 -1.1677
  174MPD1    N1 2660   4.028   0.002  14.933  0.3525  0.1414  0.1541
  174MPD1    H6 2661   4.087   4.639  14.940 -0.4094 -0.5856 -1.9275
  174MPD1    H7 2662   3.929   4.704  14.918 -0.0952  0.5158  2.6964
  175MPD1     C 2663   2.122   1.553  15.611  0.0422  0.8818 -0.2151
  175MPD1    C1 2664   1.988   1.527  15.633  0.3632  0.2823 -0.0716
  175MPD1    C2 2665   1.957   1.458  15.751 -0.6388  0.7681  0.0481
  175MPD1    C3 2666   2.054   1.398  15.826 -0.4053  0.2683  0.3954
  175MPD1    C4 2667   2.187   1.425  15.797  0.4758  0.0998 -0.7018
  175MPD1    C5 2668   2.225   1.490  15.684  0.3701 -0.3415  0.3456
  175MPD1     H 2669   1.854   1.444  15.780 -0.1108  0.0615  1.5728
  175MPD1    H1 2670   2.263   1.388  15.865  0.8608  1.6106 -0.3037
  175MPD1    H2 2671   2.145   1.620  15.529 -0.9686  1.4049 -0.0624
  175MPD1    H3 2672   2.329   1.509  15.660  0.8310 -0.8298  1.9710
  175MPD1     N 2673   2.036   1.336  15.956  0.1648  0.8923  0.4731
  175MPD1    H5 2674   2.120   1.329  16.013  3.0385  1.0461 -3.7765
  175MPD1    N1 2675   1.892   1.601  15.561 -0.3237 -0.0468 -0.1605
  175MPD1    H6 2676   1.799   1.559  15.564  0.1656 -1.0854  0.3610
  175MPD1    H7 2677   1.932   1.617  15.469  0.7509 -0.5555  0.2225
  176MPD1     C 2678   3.404   3.578  16.973 -0.4559 -0.5635 -0.2027
  176MPD1    C1 2679   3.434   3.715  16.943  0.2777 -0.4471 -0.0272
  176MPD1    C2 2680   3.519   3.786  17.025  0.4323  0.5254  0.2262
  176MPD1    C3 2681   3.572   3.726  17.140  0.4405  0.1414 -0.2970
  176MPD1    C4 2682   3.542   3.595  17.161  0.5453  0.0768 -0.0185
  176MPD1    C5 2683   3.473   3.515  17.075 -0.4894  0.8143  0.1115
  176MPD1     H 2684   3.549   3.884  16.989 -0.9255  0.9482  0.2085
  176MPD1    H1 2685   3.584   3.545  17.247 -2.0291 -0.4223  0.9509
  176MPD1    H2 2686   3.355   3.522  16.894 -1.6750  0.0525  0.1109
  176MPD1    H3 2687   3.471   3.409  17.096 -0.3885  0.6125 -0.9063
  176MPD1     N 2688   3.666   3.795  17.223  0.5447 -0.0544 -0.3560
  176MPD1    H5 2689   3.698   3.886  17.193  0.2202 -0.1848 -1.1045
  176MPD1    N1 2690   3.393   3.760  16.816  0.2934  0.5410 -0.0656
  176MPD1    H6 2691   3.403   3.861  16.816  1.2410  0.4453 -0.3429
  176MPD1    H7 2692   3.297   3.737  16.792  0.3394  0.3911 -0.1087
  177MPD1     C 2693   3.236   3.764   8.480 -0.8765  0.4953  0.3716
  177MPD1    C1 2694   3.297   3.659   8.423  0.0895 -0.0813  0.0207
  177MPD1    C2 2695   3.396   3.598   8.498 -0.2902  0.3165 -0.1632
  177MPD1    C3 2696   3.424   3.637   8.629 -0.2917  0.4269  0.4898
  177MPD1    C4 2697   3.357   3.743   8.678  0.0346 -0.1175 -0.4659
  177MPD1    C5 2698   3.255   3.801   8.604  0.2917  0.5292 -0.0396
  177MPD1     H 2699   3.448   3.510   8.460 -1.2026 -0.7594  1.1003
  177MPD1    H1 2700   3.380   3.789   8.773 -0.1428 -0.6885 -0.1527
  177MPD1    H2 2701   3.167   3.824   8.422 -1.2083  2.7113  3.0600
  177MPD1    H3 2702   3.212   3.889   8.650  0.9606  0.8021  0.0583
  177MPD1     N 2703   3.510   3.556   8.704  0.2202  0.3563 -0.2322
  177MPD1    H5 2704   3.558   3.481   8.655 -0.6700 -0.1432 -0.3212
  177MPD1    N1 2705   3.298   3.643   8.282  0.0041 -0.0110 -0.5224
  177MPD1    H6 2706   3.206   3.663   8.242  0.0075  1.7503  0.3481
  177MPD1    H7 2707   3.326   3.550   8.253 -0.9386 -0.2737 -0.5951
  178MPD1     C 2708   4.291   4.072   0.305  0.1048 -0.3362  0.1614
  178MPD1    C1 2709   4.362   4.178   0.266  0.0554 -0.1548  0.2009
  178MPD1    C2 2710   4.368   4.199   0.127  0.3179 -0.1711  0.1186
  178MPD1    C3 2711   4.330   4.105   0.034  0.1518 -1.0456 -0.2289
  178MPD1    C4 2712   4.263   3.990   0.087 -0.4885  0.2326 -0.0444
  178MPD1    C5 2713   4.233   3.979   0.222 -0.6264  0.4739 -0.1724
  178MPD1     H 2714   4.419   4.292   0.103  1.5378 -0.6048  1.0744
  178MPD1    H1 2715   4.224   3.906   0.031 -1.1318  1.3487 -1.2558
  178MPD1    H2 2716   4.277   4.053   0.411  0.5811 -1.3926  0.0230
  178MPD1    H3 2717   4.181   3.896   0.268  0.3570 -0.7453 -1.2501
  178MPD1     N 2718   4.360   4.106  17.577 -0.0612 -0.1172  0.3116
  178MPD1    H5 2719   4.337   4.019  17.530 -3.3962  0.7593  0.3118
  178MPD1    N1 2720   4.419   4.262   0.362  0.4207  0.2593  0.5486
  178MPD1    H6 2721   4.427   4.213   0.451  1.1554 -0.2769  0.1843
  178MPD1    H7 2722   4.519   4.281   0.348  0.1125  1.1108 -0.5669
  179MPD1     C 2723   4.482   2.368  15.136 -0.2286  0.3013  0.6286
  179MPD1    C1 2724   4.549   2.266  15.196 -0.3576 -0.6976 -0.1989
  179MPD1    C2 2725   4.494   2.198  15.303 -0.7049 -0.0572  0.1049
  179MPD1    C3 2726   4.362   2.230  15.343  0.7620  0.4581 -0.4575
  179MPD1    C4 2727   4.300   2.336  15.282  0.0849 -0.4796 -1.0710
  179MPD1    C5 2728   4.358   2.400  15.184 -0.3339 -0.5044  0.5009
  179MPD1     H 2729   4.551   2.119  15.351 -0.5361 -1.3565 -2.2129
  179MPD1    H1 2730   4.205   2.371  15.320 -0.7275 -1.7457 -1.9560
  179MPD1    H2 2731   4.526   2.421  15.052  1.3407 -0.5141  0.9323
  179MPD1    H3 2732   4.307   2.491  15.153  0.0504  0.0139  1.4005
  179MPD1     N 2733   4.291   2.158  15.440 -0.1450  0.3063  0.0887
  179MPD1    H5 2734   4.200   2.198  15.459 -0.6724 -0.2522 -1.3080
  179MPD1    N1 2735   4.662   2.205  15.143  0.0929  0.8686 -0.4419
  179MPD1    H6 2736   0.005   2.167  15.214 -1.2335  0.8376  0.7057
  179MPD1    H7 2737   4.710   2.271  15.081  2.2785  0.1134  0.4364
  180MPD1     C 2738   4.510   4.633  14.161  0.5792  0.7292 -0.4020
  180MPD1    C1 2739   4.424   4.646  14.046 -0.4765  0.4152  0.2350
  180MPD1    C2 2740   4.358   4.532  14.009 -0.2349  0.4993 -0.3191
  180MPD1    C3 2741   4.343   4.426  14.099  0.3177  0.0868 -0.1007
  180MPD1    C4 2742   4.408   4.428  14.224  0.0961 -0.0668  0.4096
  180MPD1    C5 2743   4.489   4.532  14.252 -0.2939  0.6546 -0.2634
  180MPD1     H 2744   4.302   4.538  13.916  0.3860 -0.9145 -0.7888
  180MPD1    H1 2745   4.396   4.354  14.302 -2.3221 -0.6465 -0.5230
  180MPD1    H2 2746   4.574   4.716  14.186  0.5269  1.2027 -1.8196
  180MPD1    H3 2747   4.539   4.541  14.348 -1.5520 -1.6762  0.6042
  180MPD1     N 2748   4.240   4.336  14.070 -0.0234 -0.9775  0.0415
  180MPD1    H5 2749   4.168   4.364  14.005 -0.0204  0.6888  0.7484
  180MPD1    N1 2750   4.438   0.030  13.962  0.3457  0.8571 -0.1759
  180MPD1    H6 2751   4.460   0.110  14.021 -0.6984 -0.8510  2.5407
  180MPD1    H7 2752   4.355   0.050  13.908  0.4766 -1.6354 -1.3101
  181MPD1     C 2753   0.369   0.369  10.885  0.2236  0.7947  0.0723
  181MPD1    C1 2754   0.351   0.458  10.771 -0.1835 -1.2130  0.2963
  181MPD1    C2 2755   0.355   0.401  10.643  0.2036 -0.0215 -0.3590
  181MPD1    C3 2756   0.369   0.265  10.620  0.0579 -0.9844  0.1558
  181MPD1    C4 2757   0.388   0.190  10.732  0.2912  0.0416 -1.1808
  181MPD1    C5 2758   0.386   0.235  10.858  0.1793 -0.0545 -0.5059
  181MPD1     H 2759   0.355   0.466  10.556  1.5439 -0.3332 -0.5905
  181MPD1    H1 2760   0.403   0.083  10.724  1.5723  0.1363 -0.0176
  181MPD1    H2 2761   0.360   0.398  10.989  0.3045 -0.9819  0.5592
  181MPD1    H3 2762   0.394   0.162  10.938  1.3466 -0.3778 -0.9253
  181MPD1     N 2763   0.355   0.202  10.493  0.0163 -0.4184  0.0437
  181MPD1    H5 2764   0.341   0.101  10.494  0.6918 -0.5747 -3.4056
  181MPD1    N1 2765   0.350   0.599  10.794 -0.6218  0.0442  0.1990
  181MPD1    H6 2766   0.291   0.646  10.726 -0.6569 -0.6890 -0.2712
  181MPD1    H7 2767   0.318   0.634  10.884  1.7792 -0.7044  1.3478
  182MPD1     C 2768   2.754   4.624   1.604 -0.0422  0.2885  0.3230
  182MPD1    C1 2769   2.737   4.559   1.481 -0.0317  0.1315 -0.0701
  182MPD1    C2 2770   2.623   4.585   1.408 -0.1022  0.7430 -0.0123
  182MPD1    C3 2771   2.527   4.673   1.455 -0.6393  0.1616 -0.3346
  182MPD1    C4 2772   2.545   0.017   1.574  0.0298 -0.5037  0.1186
  182MPD1    C5 2773   2.656   4.710   1.650  0.1807  0.8982 -0.4059
  182MPD1     H 2774   2.620   4.537   1.311 -0.9739  1.6366 -0.4265
  182MPD1    H1 2775   2.468   0.074   1.624  0.8075 -0.4707  1.2869
  182MPD1    H2 2776   2.831   4.594   1.674  1.2300  0.7296 -0.9002
  182MPD1    H3 2777   2.675   0.042   1.743 -0.8950 -0.5143  0.6107
  182MPD1     N 2778   2.403   4.702   1.383  0.7287  0.1783 -0.0991
  182MPD1    H5 2779   2.347   0.059   1.419  0.3954 -0.8086  1.4656
  182MPD1    N1 2780   2.835   4.471   1.436  0.3348 -0.6191  0.0285
  182MPD1    H6 2781   2.924   4.497   1.477  0.4079 -0.3392 -0.3062
  182MPD1    H7 2782   2.853   4.477   1.336 -0.1567  0.3347 -0.0031
  183MPD1     C 2783   2.414   4.428   9.382  0.0755 -0.8842  0.0584
  183MPD1    C1 2784   2.278   4.400   9.388  0.3748  0.7736 -1.0016
  183MPD1    C2 2785   2.194   4.477   9.466  0.3477  0.7694 -0.0310
  183MPD1    C3 2786   2.243   4.586   9.537 -0.0632  0.1871 -0.0506
  183MPD1    C4 2787   2.382   4.620   9.521  0.1844  0.2427 -0.6515
  183MPD1    C5 2788   2.461   4.538   9.448  0.7913  0.1685  1.3058
  183MPD1     H 2789   2.088   4.458   9.455  0.6052 -0.9573  0.6496
  183MPD1    H1 2790   2.432   4.700   9.575 -1.9396  2.3178 -1.7520
  183MPD1    H2 2791   2.494   4.371   9.336 -0.2409 -0.5955 -0.8453
  183MPD1    H3 2792   2.569   4.548   9.452  0.6766  1.4279  1.3795
  183MPD1     N 2793   2.142   4.669   9.607  0.4199  0.2640  0.0600
  183MPD1    H5 2794   2.049   4.631   9.615 -0.4454  2.2924 -0.3330
  183MPD1    N1 2795   2.217   4.307   9.301  0.4389 -0.4307 -0.2086
  183MPD1    H6 2796   2.147   4.249   9.345  0.9490 -0.3918  0.6581
  183MPD1    H7 2797   2.278   4.240   9.254  1.6939  1.6688 -1.6103
  184MPD1     C 2798   1.067   2.453  10.028 -0.9199 -0.5260 -0.3510
  184MPD1    C1 2799   1.141   2.555  10.084  0.1095  0.1812  0.0153
  184MPD1    C2 2800   1.154   2.671  10.021  0.2638 -0.2921 -0.8113
  184MPD1    C3 2801   1.080   2.692   9.902  0.1152 -0.7031  0.0177
  184MPD1    C4 2802   1.003   2.591   9.847  0.0231 -0.7284 -0.3529
  184MPD1    C5 2803   1.007   2.471   9.910  0.2460  0.2038  0.5356
  184MPD1     H 2804   1.220   2.750  10.054 -0.5612 -0.5842  1.5871
  184MPD1    H1 2805   0.957   2.595   9.750  0.2867  1.4274 -0.3908
  184MPD1    H2 2806   1.059   2.357  10.078 -2.0527  0.1041  0.7133
  184MPD1    H3 2807   0.950   2.385   9.876 -1.1046  1.0836  0.5998
  184MPD1     N 2808   1.090   2.813   9.812 -0.1827  0.0177 -0.1884
  184MPD1    H5 2809   1.026   2.818   9.732 -1.0538  1.2185  0.5750
  184MPD1    N1 2810   1.223   2.529  10.201  0.2806 -0.1958 -0.0084
  184MPD1    H6 2811   1.237   2.605  10.268  0.1550 -2.4320  2.5613
  184MPD1    H7 2812   1.177   2.461  10.261 -1.7073  1.5920  0.4834
  185MPD1     C 2813   1.060   3.319   8.936 -0.1994 -0.0043  0.4042
  185MPD1    C1 2814   1.045   3.186   8.978 -0.2363 -0.1393  0.4236
  185MPD1    C2 2815   1.052   3.169   9.113  0.8117  0.3511  0.0433
  185MPD1    C3 2816   1.111   3.262   9.203  0.0463 -0.9372  0.6843
  185MPD1    C4 2817   1.140   3.391   9.156  0.1135  0.4056  0.7407
  185MPD1    C5 2818   1.105   3.413   9.025 -0.4569 -0.2858  0.3248
  185MPD1     H 2819   1.013   3.077   9.155  3.7416 -1.7376 -1.8361
  185MPD1    H1 2820   1.159   3.476   9.220 -1.5660 -0.3726  2.2562
  185MPD1    H2 2821   1.045   3.348   8.833  0.5042  0.7542  0.5110
  185MPD1    H3 2822   1.124   3.513   8.987  0.0989 -0.6202 -0.2924
  185MPD1     N 2823   1.133   3.238   9.341 -0.2970 -0.4348  0.3371
  185MPD1    H5 2824   1.175   3.315   9.391 -2.2660  1.1815 -0.4902
  185MPD1    N1 2825   0.984   3.088   8.898 -0.1245  0.7109 -0.4416
  185MPD1    H6 2826   0.998   3.090   8.797  1.1527 -1.3111 -0.3093
  185MPD1    H7 2827   1.028   2.997   8.912 -1.6085 -0.3684 -2.8016
  186MPD1     C 2828   4.432   2.437  15.599 -0.1115 -0.1252 -0.4254
  186MPD1    C1 2829   4.437   2.370  15.726 -0.1020 -0.0654 -1.3066
  186MPD1    C2 2830   4.445   2.449  15.842 -0.8798  0.3456  0.0893
  186MPD1    C3 2831   4.430   2.586  15.829 -0.0829 -0.4597  0.1677
  186MPD1    C4 2832   4.431   2.647  15.700 -0.0904  0.2284 -0.1242
  186MPD1    C5 2833   4.428   2.571  15.588  0.7664 -0.1466  0.3188
  186MPD1     H 2834   4.456   2.405  15.940  0.2239 -1.5686 -0.8824
  186MPD1    H1 2835   4.420   2.754  15.683 -1.3692 -0.1770 -1.8254
  186MPD1    H2 2836   4.420   2.386  15.504  1.7631 -0.9163 -0.2457
  186MPD1    H3 2837   4.424   2.622  15.493 -0.7551 -0.7295  0.0647
  186MPD1     N 2838   4.411   2.669  15.941  0.3456  0.2687  0.4339
  186MPD1    H5 2839   4.397   2.765  15.912  0.3210  0.5457  1.3665
  186MPD1    N1 2840   4.423   2.231  15.746  0.3164 -0.0805  0.2688
  186MPD1    H6 2841   4.463   2.195  15.832 -2.4284  0.9681  1.9781
  186MPD1    H7 2842   4.465   2.187  15.665  2.3289  2.9662 -0.3580
  187MPD1     C 2843   4.191   4.596   0.028  0.1234 -0.1786 -0.0221
  187MPD1    C1 2844   4.062   4.540   0.029 -0.3102  0.4059  0.4637
  187MPD1    C2 2845   3.967   4.602  17.633  0.2168 -0.1161 -0.3775
  187MPD1    C3 2846   3.989   4.720  17.566 -0.4022 -0.0650 -1.2150
  187MPD1    C4 2847   4.112   0.053  17.570  0.6912 -0.3964  0.7425
  187MPD1    C5 2848   4.210   4.714  17.644 -0.0341 -0.1148  0.4610
  187MPD1     H 2849   3.882   4.540  17.608  1.3680 -1.0755 -1.9387
  187MPD1    H1 2850   4.137   0.143  17.516 -0.8389 -0.3903  0.0436
  187MPD1    H2 2851   4.267   4.549   0.090  0.2773  0.5549  0.3464
  187MPD1    H3 2852   4.306   0.044  17.656 -2.0700  3.3942  2.1266
  187MPD1     N 2853   3.892   0.056  17.482  0.0445  0.4489 -0.7234
  187MPD1    H5 2854   3.914   0.137  17.424 -2.3922  0.4276 -1.6524
  187MPD1    N1 2855   4.045   4.408   0.073  0.1863 -0.0017  0.0762
  187MPD1    H6 2856   4.096   4.385   0.158 -0.2537 -1.6930 -0.1044
  187MPD1    H7 2857   3.946   4.391   0.089 -0.1973  0.6913 -1.5592
  188MPD1     C 2858   2.291   4.188  10.264  0.4739 -0.6805 -0.4856
  188MPD1    C1 2859   2.200   4.166  10.164 -0.0274  0.5060  0.1836
  188MPD1    C2 2860   2.213   4.046  10.093  0.7124 -0.1270 -0.4342
  188MPD1    C3 2861   2.318   3.963  10.113 -0.9331 -0.4437 -0.6649
  188MPD1    C4 2862   2.423   4.008  10.189 -0.0728  0.1756 -0.6476
  188MPD1    C5 2863   2.406   4.114  10.269 -0.8486  0.0487 -0.3047
  188MPD1     H 2864   2.124   4.014  10.040  1.2227  0.7159 -1.8145
  188MPD1    H1 2865   2.516   3.954  10.202 -0.3194 -0.3323 -1.0063
  188MPD1    H2 2866   2.299   4.272  10.332 -1.0001 -1.5697  0.7756
  188MPD1    H3 2867   2.487   4.126  10.340 -0.9831 -0.5212 -0.0481
  188MPD1     N 2868   2.329   3.838  10.049 -0.4737  0.1306  0.4607
  188MPD1    H5 2869   2.413   3.787  10.075 -0.3801 -0.2674 -0.6008
  188MPD1    N1 2870   2.076   4.232  10.183  0.2797 -0.5703 -0.0880
  188MPD1    H6 2871   2.027   4.231  10.094 -0.5164 -0.6126  0.3485
  188MPD1    H7 2872   2.081   4.321  10.232 -2.6754  0.8215 -2.3187
  189MPD1     C 2873   1.236   4.560   0.136  1.5013 -0.3215  0.2952
  189MPD1    C1 2874   1.177   4.682   0.103  0.1928 -0.0233 -1.2022
  189MPD1    C2 2875   1.037   4.687   0.095 -0.0378  0.0457  0.1470
  189MPD1    C3 2876   0.964   4.578   0.096 -0.0409 -0.4018 -0.6247
  189MPD1    C4 2877   1.018   4.460   0.147  0.5541 -0.9962  0.1845
  189MPD1    C5 2878   1.152   4.453   0.162  0.2676  0.2546 -0.1421
  189MPD1     H 2879   0.983   0.060   0.077 -0.1468  0.1784  1.1677
  189MPD1    H1 2880   0.961   4.370   0.164  0.8168 -1.6107 -2.1934
  189MPD1    H2 2881   1.339   4.551   0.169  0.8110 -1.1820  2.2445
  189MPD1    H3 2882   1.191   4.356   0.190  0.7399  0.6192  0.4701
  189MPD1     N 2883   0.823   4.590   0.073  0.3222 -0.0331 -0.6767
  189MPD1    H5 2884   0.795   4.685   0.052  1.9296  1.1635  2.6509
  189MPD1    N1 2885   1.250   0.075   0.125 -0.0967 -0.1086 -0.4812
  189MPD1    H6 2886   1.224   0.156   0.069  0.8597  2.0374  2.1726
  189MPD1    H7 2887   1.348   0.058   0.103 -0.3536 -2.4879  0.2603
  190MPD1     C 2888   3.382   3.809  15.161  0.2560 -0.6428  0.2771
  190MPD1    C1 2889   3.490   3.755  15.107 -0.5330  0.6761  0.3489
  190MPD1    C2 2890   3.609   3.736  15.188 -0.1919 -0.2969 -0.3317
  190MPD1    C3 2891   3.616   3.800  15.310  0.1682 -0.5180  0.2852
  190MPD1    C4 2892   3.504   3.874  15.359  0.4811 -0.0588  0.8496
  190MPD1    C5 2893   3.391   3.869  15.284  0.2299  0.9351  0.2149
  190MPD1     H 2894   3.693   3.688  15.139 -1.3433 -2.2129 -0.4153
  190MPD1    H1 2895   3.498   3.924  15.455  2.4792 -2.2272  2.1243
  190MPD1    H2 2896   3.287   3.818  15.110  0.2597 -1.6876  0.0866
  190MPD1    H3 2897   3.301   3.912  15.327 -0.7883 -1.1920  0.2019
  190MPD1     N 2898   3.736   3.781  15.395 -0.0845  0.0786  0.1341
  190MPD1    H5 2899   3.821   3.741  15.356  0.6275  1.0878  0.6509
  190MPD1    N1 2900   3.490   3.685  14.986  0.4310 -0.4370 -0.0100
  190MPD1    H6 2901   3.425   3.718  14.915 -1.9437 -4.1682  0.4223
  190MPD1    H7 2902   3.580   3.691  14.939  0.6646 -2.0616  0.2388
  191MPD1     C 2903   2.974   0.179  12.686 -0.1311 -0.1844  0.2979
  191MPD1    C1 2904   2.854   0.252  12.676 -0.3020  0.1214 -0.3185
  191MPD1    C2 2905   2.826   0.329  12.565 -0.1692 -0.6119  0.1429
  191MPD1    C3 2906   2.926   0.354  12.468  0.0337  0.3809 -0.3984
  191MPD1    C4 2907   3.054   0.307  12.490  0.7072  0.0302 -0.3709
  191MPD1    C5 2908   3.074   0.209  12.589  0.7974  0.2812 -0.3238
  191MPD1     H 2909   2.726   0.361  12.537 -0.0059 -0.6260 -0.4654
  191MPD1    H1 2910   3.134   0.326  12.421  0.7990  0.5925 -0.1099
  191MPD1    H2 2911   2.991   0.104  12.763  0.4548  1.6735  1.9795
  191MPD1    H3 2912   3.171   0.161  12.590 -1.2376 -3.7963  0.2464
  191MPD1     N 2913   2.900   0.445  12.363 -0.2198  0.1753 -0.2708
  191MPD1    H5 2914   2.801   0.468  12.363  0.1889  1.9348 -0.9770
  191MPD1    N1 2915   2.757   0.215  12.763  0.8151  0.3294  0.3740
  191MPD1    H6 2916   2.699   0.147  12.713  3.7693 -0.7003 -1.6059
  191MPD1    H7 2917   2.794   0.165  12.844 -1.0872  0.2374  1.1950
  192MPD1     C 2918   2.537   1.161  12.740  0.2155 -0.5739  0.0602
  192MPD1    C1 2919   2.490   1.043  12.705 -0.0513 -0.7987 -0.9780
  192MPD1    C2 2920   2.543   0.977  12.592  0.2561  0.4199  0.2928
  192MPD1    C3 2921   2.641   1.039  12.511  0.2377  0.1525  0.4982
  192MPD1    C4 2922   2.682   1.167  12.547 -0.3763  0.2104 -0.2471
  192MPD1    C5 2923   2.634   1.224  12.659  0.2511  0.6787 -0.0051
  192MPD1     H 2924   2.510   0.878  12.564  1.2664  0.1146  0.1939
  192MPD1    H1 2925   2.751   1.224  12.486  1.3192 -1.1796  0.3695
  192MPD1    H2 2926   2.493   1.217  12.823  1.6803 -0.6772  0.9009
  192MPD1    H3 2927   2.670   1.319  12.695 -0.1997  1.7865 -2.4520
  192MPD1     N 2928   2.691   0.980  12.390 -0.3976  0.0797 -0.6806
  192MPD1    H5 2929   2.772   1.031  12.355 -0.5101  0.8578  0.1941
  192MPD1    N1 2930   2.404   0.976  12.794 -0.0919  0.1572  0.3285
  192MPD1    H6 2931   2.341   1.034  12.848 -0.5579  1.1765 -1.3163
  192MPD1    H7 2932   2.357   0.898  12.748  0.3566  0.0995 -0.0408
  193MPD1     C 2933   2.621   1.120  15.709 -0.2817 -0.2181  0.6864
  193MPD1    C1 2934   2.606   1.242  15.773  0.5036 -1.0045  0.1689
  193MPD1    C2 2935   2.684   1.274  15.879  0.2500  0.0501  0.1927
  193MPD1    C3 2936   2.786   1.184  15.920  0.5795 -0.6598 -1.0111
  193MPD1    C4 2937   2.807   1.062  15.853 -0.0617  0.4198 -0.4609
  193MPD1    C5 2938   2.715   1.024  15.756  0.7934  0.5397 -0.6768
  193MPD1     H 2939   2.656   1.360  15.938 -1.5134 -0.0360 -0.5161
  193MPD1    H1 2940   2.877   0.987  15.888 -1.1649 -0.4131 -0.0372
  193MPD1    H2 2941   2.545   1.095  15.637 -0.5660 -0.2808  1.0077
  193MPD1    H3 2942   2.721   0.930  15.702  0.8749  0.0235  0.2296
  193MPD1     N 2943   2.881   1.217  16.018  0.2668 -0.2233  0.6847
  193MPD1    H5 2944   2.956   1.150  16.034  2.1608  1.6632 -0.2964
  193MPD1    N1 2945   2.502   1.325  15.732 -0.1643 -0.9389 -0.0858
  193MPD1    H6 2946   2.488   1.308  15.632 -0.3623 -2.7852  0.2453
  193MPD1    H7 2947   2.519   1.423  15.751 -1.4490 -0.7620  0.1327
  194MPD1     C 2948   2.331   3.717  16.199 -0.0818 -0.2282  0.0215
  194MPD1    C1 2949   2.318   3.581  16.151 -0.4193  0.6817  0.6290
  194MPD1    C2 2950   2.286   3.488  16.248 -0.7059 -0.0457 -0.0955
  194MPD1    C3 2951   2.290   3.512  16.382 -0.2956  0.6959 -0.3124
  194MPD1    C4 2952   2.325   3.636  16.424 -0.7126  0.1940  0.0909
  194MPD1    C5 2953   2.338   3.738  16.336 -0.2926  0.1993 -0.1258
  194MPD1     H 2954   2.271   3.386  16.215  0.2577 -1.6452  4.3148
  194MPD1    H1 2955   2.355   3.661  16.525 -0.7229  2.0103 -0.3547
  194MPD1    H2 2956   2.346   3.803  16.135 -0.2844 -0.0628  0.1992
  194MPD1    H3 2957   2.378   3.831  16.376 -3.3181  1.6736 -0.5001
  194MPD1     N 2958   2.278   3.415  16.488  0.0050  0.4570 -0.5812
  194MPD1    H5 2959   2.277   3.450  16.583 -2.8748 -0.3357 -0.3164
  194MPD1    N1 2960   2.300   3.551  16.010 -0.9384 -0.5463 -0.0301
  194MPD1    H6 2961   2.337   3.614  15.939  1.3600 -1.4776  0.3391
  194MPD1    H7 2962   2.345   3.462  15.992 -0.3190 -0.1858 -0.2670
  195MPD1     C 2963   3.735   0.424  17.599 -0.3077 -0.6357 -1.1663
  195MPD1    C1 2964   3.606   0.431  17.645  0.1635 -0.2517  0.2417
  195MPD1    C2 2965   3.560   0.340   0.058 -0.5172  0.3550  0.4898
  195MPD1    C3 2966   3.658   0.267   0.135  0.2813  0.9428  0.3019
  195MPD1    C4 2967   3.788   0.277   0.095  0.3623 -0.2995 -0.4958
  195MPD1    C5 2968   3.824   0.347  17.666 -0.3604 -0.0080 -0.7667
  195MPD1     H 2969   3.462   0.309   0.092 -0.9176 -1.1300 -2.0220
  195MPD1    H1 2970   3.861   0.206   0.133 -0.2054  1.5129  3.9958
  195MPD1    H2 2971   3.768   0.477  17.511 -0.6344 -0.6598 -1.3055
  195MPD1    H3 2972   3.930   0.345  17.644 -0.2914  0.9521 -0.4965
  195MPD1     N 2973   3.624   0.183   0.246 -0.0096 -0.5907 -0.5919
  195MPD1    H5 2974   3.696   0.116   0.271 -0.0917 -0.6796 -0.5949
  195MPD1    N1 2975   3.513   0.515  17.579  0.1105 -0.4571  0.0855
  195MPD1    H6 2976   3.429   0.529  17.635 -0.4743 -1.5493 -0.4915
  195MPD1    H7 2977   3.552   0.602  17.544  0.3044 -1.2132 -1.6046
  196MPD1     C 2978   2.398   3.794   0.356 -0.6349 -0.5968 -0.4547
  196MPD1    C1 2979   2.434   3.900   0.274 -0.2015 -0.3684  0.2686
  196MPD1    C2 2980   2.529   3.987   0.330 -0.0319 -0.0325  0.0262
  196MPD1    C3 2981   2.581   3.973   0.463  0.3164  0.3339 -0.7885
  196MPD1    C4 2982   2.527   3.873   0.539 -0.3547 -0.2495 -0.1482
  196MPD1    C5 2983   2.436   3.795   0.482 -0.6769  0.1108 -0.6825
  196MPD1     H 2984   2.569   4.070   0.273 -0.7978  1.4352  1.6319
  196MPD1    H1 2985   2.542   3.873   0.646 -1.6866  0.5895  0.0258
  196MPD1    H2 2986   2.332   3.717   0.320 -1.4571 -1.0087  1.9573
  196MPD1    H3 2987   2.394   3.718   0.546  1.3604  0.0360  0.5713
  196MPD1     N 2988   2.670   4.069   0.521  0.2563 -0.6496  0.6471
  196MPD1    H5 2989   2.721   4.034   0.602  0.1312 -0.1138  0.9524
  196MPD1    N1 2990   2.399   3.909   0.139 -0.1606 -0.0265 -0.3961
  196MPD1    H6 2991   2.363   4.002   0.119  0.6404  0.7144  1.6949
  196MPD1    H7 2992   2.338   3.833   0.109  1.6039 -0.6462 -2.4201
  197MPD1     C 2993   2.128   1.536   0.116 -0.2112  0.3091 -0.0049
  197MPD1    C1 2994   2.263   1.576   0.112  0.4677  0.1446 -0.3461
  197MPD1    C2 2995   2.319   1.625  17.678 -0.3184  0.1801 -0.0764
  197MPD1    C3 2996   2.242   1.625  17.565  0.2339 -0.0401  0.2355
  197MPD1    C4 2997   2.117   1.557  17.560 -0.2691 -0.5710  0.0225
  197MPD1    C5 2998   2.062   1.517   0.000  0.1537 -0.0089  0.1353
  197MPD1     H 2999   2.424   1.653   0.002 -0.5594  0.6276  1.8362
  197MPD1    H1 3000   2.078   1.525  17.464 -0.3806 -1.2709  0.2986
  197MPD1    H2 3001   2.076   1.503   0.205 -0.9658  1.0924 -0.1492
  197MPD1    H3 3002   1.970   1.460   0.009  0.5816 -1.1978 -3.2650
  197MPD1     N 3003   2.298   1.684  17.450  0.0810  0.0959 -0.4616
  197MPD1    H5 3004   2.250   1.656  17.365  0.4555  0.5769 -0.8324
  197MPD1    N1 3005   2.327   1.600   0.241 -0.0557  0.0723  0.0530
  197MPD1    H6 3006   2.293   1.532   0.308  1.4255 -0.8565 -0.1349
  197MPD1    H7 3007   2.428   1.584   0.237 -0.4399 -2.4220  0.4274
  198MPD1     C 3008   3.698   4.706  15.604  0.0281  0.5720 -0.0575
  198MPD1    C1 3009   3.827   4.684  15.572  0.1879 -0.2116  1.0587
  198MPD1    C2 3010   3.926   4.704  15.661  0.3393 -0.2989  0.2758
  198MPD1    C3 3011   3.889   0.038  15.787  0.2135  0.5262  0.4484
  198MPD1    C4 3012   3.764   0.078  15.817  0.0093 -0.1952  0.6040
  198MPD1    C5 3013   3.673   0.046  15.720  0.1476 -0.0358  0.4358
  198MPD1     H 3014   4.028   4.678  15.633  0.6290  1.6783 -0.5121
  198MPD1    H1 3015   3.726   0.120  15.909 -0.5290 -0.4787  0.5139
  198MPD1    H2 3016   3.612   4.690  15.540 -1.4666 -1.9016  2.5545
  198MPD1    H3 3017   3.569   0.067  15.742  0.2663 -1.8575  2.8162
  198MPD1     N 3018   3.997   0.062  15.872  0.0309  0.2482  0.7803
  198MPD1    H5 3019   4.088   0.035  15.836  0.2234  1.8342  0.0568
  198MPD1    N1 3020   3.863   4.609  15.461 -0.4992  0.0593  0.3226
  198MPD1    H6 3021   3.795   4.603  15.385  1.7429 -0.7274 -1.6221
  198MPD1    H7 3022   3.958   4.627  15.430 -0.4307 -0.1835  0.3959
  199MPD1     C 3023   4.409   1.046  10.572 -0.0042 -0.2457  0.2637
  199MPD1    C1 3024   4.549   1.044  10.573  0.0442  0.3749 -0.2814
  199MPD1    C2 3025   4.634   1.040  10.461 -0.4667 -0.4542 -0.3095
  199MPD1    C3 3026   4.568   1.040  10.337 -0.5015  0.6583  0.0382
  199MPD1    C4 3027   4.432   1.036  10.338 -0.2393  0.2822  0.5115
  199MPD1    C5 3028   4.354   1.039  10.450  0.6396 -0.4094 -0.8363
  199MPD1     H 3029   0.021   1.025  10.475 -1.0574 -0.5414  4.1248
  199MPD1    H1 3030   4.393   1.056  10.239 -2.1167  1.7928  1.5547
  199MPD1    H2 3031   4.351   1.059  10.662 -0.0550 -1.0009  0.3341
  199MPD1    H3 3032   4.247   1.054  10.447  0.5602 -0.2548  3.0148
  199MPD1     N 3033   4.636   1.039  10.211  0.4528 -0.6755 -0.0605
  199MPD1    H5 3034   4.574   1.028  10.132 -0.4844 -0.4013  0.6486
  199MPD1    N1 3035   4.600   1.041  10.705 -0.2160 -0.0222 -0.6250
  199MPD1    H6 3036   4.692   1.000  10.698  0.4630  1.1560  1.4471
  199MPD1    H7 3037   4.549   0.970  10.757  2.2769 -2.4346 -1.5112
  200MPD1     C 3038   4.056   1.748  14.919 -0.4677 -0.5160 -0.3284
  200MPD1    C1 3039   4.113   1.793  14.807  0.8244 -1.1000  0.4686
  200MPD1    C2 3040   4.225   1.723  14.763  0.4925 -0.6488  0.1514
  200MPD1    C3 3041   4.287   1.616  14.839  0.2171 -0.5058 -0.0296
  200MPD1    C4 3042   4.223   1.585  14.958  0.1278  0.5580 -0.7775
  200MPD1    C5 3043   4.109   1.651  14.997 -0.6494  0.5443 -0.8545
  200MPD1     H 3044   4.269   1.742  14.666 -2.4922 -1.8165 -1.4234
  200MPD1    H1 3045   4.275   1.521  15.027 -1.2520  2.1263  1.7039
  200MPD1    H2 3046   3.970   1.804  14.954  1.7896  1.0924  2.6563
  200MPD1    H3 3047   4.060   1.615  15.087  0.4059 -2.2147 -1.3840
  200MPD1     N 3048   4.396   1.547  14.782  0.4458 -0.0997 -0.0006
  200MPD1    H5 3049   4.424   1.579  14.690  0.5883 -0.3008 -0.0254
  200MPD1    N1 3050   4.046   1.888  14.728  0.5207  0.1325 -0.1188
  200MPD1    H6 3051   4.113   1.935  14.668  0.5953 -0.0437 -0.1734
  200MPD1    H7 3052   3.988   1.947  14.787  0.2728 -0.9236  0.6972
  201MPD1     C 3053   2.325   0.657  13.281  0.3927  0.1119 -0.0900
  201MPD1    C1 3054   2.433   0.580  13.244 -0.1158 -0.4011  0.7303
  201MPD1    C2 3055   2.412   0.449  13.202 -0.2087  0.0941 -0.5019
  201MPD1    C3 3056   2.282   0.393  13.200  0.4140 -0.3835 -0.4305
  201MPD1    C4 3057   2.175   0.473  13.237 -0.5724  0.0072  0.6009
  201MPD1    C5 3058   2.198   0.604  13.282 -0.7124 -0.0121  0.2512
  201MPD1     H 3059   2.502   0.394  13.176  0.0105  0.8190 -1.3081
  201MPD1    H1 3060   2.073   0.438  13.243 -0.6304  0.1181  0.2772
  201MPD1    H2 3061   2.336   0.759  13.315 -2.9012 -0.2193  2.0316
  201MPD1    H3 3062   2.112   0.665  13.305  0.5431  1.8534 -0.0383
  201MPD1     N 3063   2.275   0.255  13.172  0.1421  0.3007 -0.1546
  201MPD1    H5 3064   2.363   0.206  13.158 -2.1656 -4.2409  1.3959
  201MPD1    N1 3065   2.560   0.639  13.241  0.2559  0.0094  0.1828
  201MPD1    H6 3066   2.623   0.559  13.246 -1.2797 -1.1435  1.3186
  201MPD1    H7 3067   2.568   0.694  13.327 -0.6206 -0.0773  0.3209
  202MPD1     C 3068   2.428   3.823   9.336  0.8628  0.1763 -1.1229
  202MPD1    C1 3069   2.373   3.938   9.393  0.7085  0.0108 -1.1563
  202MPD1    C2 3070   2.268   3.918   9.479 -0.3931 -0.1085 -0.2739
  202MPD1    C3 3071   2.189   3.802   9.483  1.0138 -0.0320  0.2347
  202MPD1    C4 3072   2.230   3.699   9.414  0.4959 -0.6582 -0.2086
  202MPD1    C5 3073   2.351   3.709   9.342 -0.1919 -0.5894  0.0437
  202MPD1     H 3074   2.248   4.000   9.548  3.0264  1.9346 -1.7367
  202MPD1    H1 3075   2.178   3.604   9.425 -0.0849 -0.3879 -0.6441
  202MPD1    H2 3076   2.528   3.816   9.296  0.6451 -2.9822 -1.1173
  202MPD1    H3 3077   2.391   3.619   9.298 -0.6657 -0.3677 -0.8475
  202MPD1     N 3078   2.089   3.797   9.575  0.2837 -0.6123 -0.2768
  202MPD1    H5 3079   2.059   3.703   9.598 -0.5262 -0.1013  0.7926
  202MPD1    N1 3080   2.454   4.048   9.417  0.4095  0.5087 -0.5170
  202MPD1    H6 3081   2.408   4.138   9.430 -1.1563 -0.4593  0.6132
  202MPD1    H7 3082   2.520   4.063   9.341  0.9452 -4.2842 -0.9664
  203MPD1     C 3083   0.480   1.262  12.424 -0.0192 -0.6440  0.0211
  203MPD1    C1 3084   0.570   1.202  12.514 -0.0230  0.5589  0.4423
  203MPD1    C2 3085   0.598   1.071  12.501 -0.1494 -0.2946  0.7702
  203MPD1    C3 3086   0.538   0.993  12.405  0.5509 -0.3041  0.1657
  203MPD1    C4 3087   0.443   1.053  12.321  0.1388 -0.3599 -0.4960
  203MPD1    C5 3088   0.418   1.181  12.333  0.1275 -0.5659 -0.2721
  203MPD1     H 3089   0.672   1.022  12.564  1.7071  1.8285  0.2407
  203MPD1    H1 3090   0.375   0.998  12.257  0.1988  0.3229 -1.1522
  203MPD1    H2 3091   0.460   1.368  12.434 -2.7648 -1.4549  3.1316
  203MPD1    H3 3092   0.342   1.225  12.269 -1.9915 -1.5102  1.6211
  203MPD1     N 3093   0.572   0.861  12.404  0.0404  0.0351  0.2895
  203MPD1    H5 3094   0.639   0.833  12.474 -1.9664 -4.1184  0.5789
  203MPD1    N1 3095   0.635   1.265  12.622 -0.0826  0.4215 -0.4771
  203MPD1    H6 3096   0.707   1.216  12.673 -0.7337  0.4315  0.4508
  203MPD1    H7 3097   0.570   1.316  12.682 -0.2130 -0.4321  0.1085
  204MPD1     C 3098   0.110   1.160  17.674 -1.6827  0.2013 -0.4111
  204MPD1    C1 3099   0.115   1.067  17.565 -0.2649 -0.0439 -0.2589
  204MPD1    C2 3100   0.235   1.033  17.506 -0.4624 -0.7562 -0.1440
  204MPD1    C3 3101   0.350   1.068  17.570 -0.7439 -0.0518 -0.3542
  204MPD1    C4 3102   0.351   1.148  17.677 -0.0537 -0.7123  0.0966
  204MPD1    C5 3103   0.230   1.198   0.044 -0.3165  0.5162 -0.7465
  204MPD1     H 3104   0.234   0.973  17.416 -0.4993 -1.6428  0.4468
  204MPD1    H1 3105   0.443   1.174   0.047  0.3280  0.8457 -1.3333
  204MPD1    H2 3106   0.020   1.210   0.027 -2.2628 -0.5866 -0.7882
  204MPD1    H3 3107   0.226   1.266   0.128 -1.9083 -1.2198  0.5810
  204MPD1     N 3108   0.470   1.006  17.520  0.5274 -0.4096  0.5493
  204MPD1    H5 3109   0.467   0.931  17.452  0.9048 -3.0538  3.4058
  204MPD1    N1 3110   4.715   1.035  17.494  0.2078 -0.4360 -0.1419
  204MPD1    H6 3111   0.004   0.944  17.449 -0.4004 -0.6350  0.1379
  204MPD1    H7 3112   4.638   1.024  17.560 -0.3273  1.2970 -0.4636
  205MPD1     C 3113   1.674   0.417  16.738 -0.7595 -0.1576 -0.1840
  205MPD1    C1 3114   1.601   0.470  16.845  0.0189  0.1188 -0.2003
  205MPD1    C2 3115   1.495   0.401  16.899  0.4664  0.3441  0.3032
  205MPD1    C3 3116   1.473   0.272  16.856  0.0922  0.0496  0.5439
  205MPD1    C4 3117   1.541   0.216  16.750  1.1403 -0.2992  0.7069
  205MPD1    C5 3118   1.635   0.295  16.687 -0.0074 -0.0576  0.0735
  205MPD1     H 3119   1.434   0.452  16.972 -1.1635 -0.2161 -0.6695
  205MPD1    H1 3120   1.510   0.124  16.700  0.2603  0.1121  0.4916
  205MPD1    H2 3121   1.753   0.468  16.684  0.2934 -1.3376  0.2442
  205MPD1    H3 3122   1.688   0.260  16.599 -2.0715  0.5820 -1.4148
  205MPD1     N 3123   1.359   0.211  16.920 -0.1311 -0.3781 -0.5471
  205MPD1    H5 3124   1.297   0.274  16.970  1.4455  1.1708 -0.5240
  205MPD1    N1 3125   1.633   0.599  16.902  0.2209 -0.0106  0.1772
  205MPD1    H6 3126   1.655   0.661  16.824 -1.7792  0.0374 -0.3406
  205MPD1    H7 3127   1.551   0.623  16.958  0.9188  3.1898 -0.1494
  206MPD1     C 3128   1.052   3.411  16.344 -0.4919  0.1418 -0.5949
  206MPD1    C1 3129   1.117   3.354  16.240  0.9125 -0.1070  0.4338
  206MPD1    C2 3130   1.062   3.380  16.115 -0.3576 -0.0341  0.1893
  206MPD1    C3 3131   0.939   3.442  16.093 -0.1188  0.6737 -0.2854
  206MPD1    C4 3132   0.871   3.489  16.200 -0.0079 -0.2054 -0.1755
  206MPD1    C5 3133   0.929   3.474  16.322 -0.2745 -0.3589  0.5677
  206MPD1     H 3134   1.124   3.336  16.037  0.7403  2.5911 -0.4096
  206MPD1    H1 3135   0.780   3.546  16.192  0.0267 -0.2442 -0.8783
  206MPD1    H2 3136   1.098   3.428  16.440  0.0737 -2.4391 -0.4080
  206MPD1    H3 3137   0.883   3.516  16.410 -1.0605  1.7543 -0.8726
  206MPD1     N 3138   0.880   3.462  15.966 -0.2646  0.0139 -0.3498
  206MPD1    H5 3139   0.805   3.529  15.973 -0.7409 -0.5200 -0.3704
  206MPD1    N1 3140   1.251   3.306  16.246 -0.6887  0.8937  0.2426
  206MPD1    H6 3141   1.261   3.241  16.168 -2.2539 -0.0673  0.8388
  206MPD1    H7 3142   1.277   3.262  16.334  4.0564  1.1328 -1.0287
  207MPD1     C 3143   2.734   0.277   9.253 -0.5082  0.7563 -0.6006
  207MPD1    C1 3144   2.658   0.231   9.353  0.4210 -0.4994 -0.3642
  207MPD1    C2 3145   2.665   0.293   9.474 -0.2387  0.0812  0.1205
  207MPD1    C3 3146   2.743   0.407   9.488  0.4162  0.0246 -0.3759
  207MPD1    C4 3147   2.808   0.462   9.384  0.1881 -0.0333  0.6398
  207MPD1    C5 3148   2.810   0.396   9.263 -0.7442 -0.1576  0.0954
  207MPD1     H 3149   2.589   0.266   9.546  0.1587  0.7307  0.7879
  207MPD1    H1 3150   2.853   0.560   9.392  1.0915 -0.4089  0.1803
  207MPD1    H2 3151   2.732   0.211   9.167  0.6401 -0.1658  0.0892
  207MPD1    H3 3152   2.877   0.426   9.183  0.4772  2.1133  1.9576
  207MPD1     N 3153   2.739   0.481   9.604 -0.3547  0.0141 -0.3999
  207MPD1    H5 3154   2.783   0.573   9.600 -0.7469  0.1874 -0.7024
  207MPD1    N1 3155   2.610   0.100   9.346  0.3714  0.1023  0.5286
  207MPD1    H6 3156   2.538   0.096   9.418  0.9963 -2.1886  1.0240
  207MPD1    H7 3157   2.571   0.075   9.255 -1.0515  0.3124  1.0843
  208MPD1     C 3158   2.281   0.352  17.671  0.6387 -0.0227  0.3206
  208MPD1    C1 3159   2.349   0.241   0.038  0.3694  0.2090  0.1459
  208MPD1    C2 3160   2.274   0.123   0.047  0.2917  0.0798  0.6659
  208MPD1    C3 3161   2.138   0.119   0.036 -0.0982 -0.2960 -0.1950
  208MPD1    C4 3162   2.076   0.235  17.670 -0.0852  0.1219 -0.3941
  208MPD1    C5 3163   2.151   0.348  17.637 -0.6197  0.8007  1.1229
  208MPD1     H 3164   2.308   0.023   0.069  0.9493 -0.1915 -1.6216
  208MPD1    H1 3165   1.975   0.229  17.630 -1.7934  0.3556  3.7833
  208MPD1    H2 3166   2.336   0.445  17.658 -3.0424  1.8953 -1.6000
  208MPD1    H3 3167   2.116   0.444  17.601  0.8037  0.5514 -0.9521
  208MPD1     N 3168   2.078   4.712   0.052 -0.1042  0.0286 -0.2739
  208MPD1    H5 3169   2.145   4.641   0.080 -2.4581 -0.9763  2.8509
  208MPD1    N1 3170   2.488   0.239   0.049  0.0946  0.5662 -0.2050
  208MPD1    H6 3171   2.503   0.164   0.116 -0.0966 -0.1978 -1.0115
  208MPD1    H7 3172   2.522   0.328   0.084 -1.8808  1.8006 -1.4651
  209MPD1     C 3173   2.829   4.662  11.576  0.5206 -0.2181 -0.4514
  209MPD1    C1 3174   2.859   0.070  11.617 -0.0717  0.0528  0.3037
  209MPD1    C2 3175   2.879   0.162  11.520  0.7451 -0.3441 -0.5657
  209MPD1    C3 3176   2.874   0.125  11.381 -0.2908  0.8000  0.2760
  209MPD1    C4 3177   2.838   4.712  11.344  0.1412 -0.1402  0.1894
  209MPD1    C5 3178   2.819   4.624  11.447 -0.7303  0.4812 -0.0164
  209MPD1     H 3179   2.911   0.261  11.549  0.6882 -0.9578  1.5677
  209MPD1    H1 3180   2.837   4.673  11.242 -0.5316  0.1201  0.0989
  209MPD1    H2 3181   2.813   4.590  11.655  1.7968 -0.8758 -0.8010
  209MPD1    H3 3182   2.795   4.520  11.430  0.8231 -0.2579  2.2666
  209MPD1     N 3183   2.905   0.226  11.284 -0.8904  1.0281 -0.5066
  209MPD1    H5 3184   2.934   0.317  11.317  0.3267 -0.5737  2.8501
  209MPD1    N1 3185   2.890   0.095  11.756  0.4552  0.1959 -0.1492
  209MPD1    H6 3186   2.896   0.193  11.783  1.5328  0.7032 -2.2582
  209MPD1    H7 3187   2.822   0.043  11.812 -0.5904  1.1580 -0.5058
  210MPD1     C 3188   3.483   0.978  10.991  0.3343 -0.4359  0.0899
  210MPD1    C1 3189   3.375   0.978  11.080 -0.1463  0.6603 -0.2299
  210MPD1    C2 3190   3.281   0.873  11.070 -0.0440  0.3027 -0.5573
  210MPD1    C3 3191   3.301   0.775  10.974 -0.4969  0.4497 -0.9514
  210MPD1    C4 3192   3.393   0.796  10.871  0.0327 -0.3752  0.4092
  210MPD1    C5 3193   3.488   0.891  10.883 -0.0849 -0.0716 -0.2710
  210MPD1     H 3194   3.202   0.871  11.144 -2.1860 -2.5740 -2.8880
  210MPD1    H1 3195   3.389   0.731  10.784  0.9813  1.2185 -0.8387
  210MPD1    H2 3196   3.569   1.042  11.007 -1.9800  2.8075 -0.4208
  210MPD1    H3 3197   3.570   0.894  10.812  0.6003 -0.7899  0.4823
  210MPD1     N 3198   3.213   0.665  10.964 -0.2945 -0.0026 -0.9664
  210MPD1    H5 3199   3.218   0.603  10.883 -1.3673  0.9885 -1.7911
  210MPD1    N1 3200   3.375   1.070  11.183 -0.1090  0.3867  0.3259
  210MPD1    H6 3201   3.403   1.163  11.153 -1.2063  0.7086  0.2939
  210MPD1    H7 3202   3.281   1.072  11.223  0.8160 -1.2353  2.5382
  211MPD1     C 3203   1.858   4.685  15.785 -0.6209 -0.1571  0.0969
  211MPD1    C1 3204   1.742   4.621  15.830 -0.0728 -0.9474 -0.4096
  211MPD1    C2 3205   1.647   4.691  15.902  0.6606 -0.8475 -0.3872
  211MPD1    C3 3206   1.681   0.102  15.939 -0.4091  0.2187  0.6027
  211MPD1    C4 3207   1.800   0.161  15.891 -0.5884 -0.2876 -0.4500
  211MPD1    C5 3208   1.893   0.094  15.817 -0.2520  0.5555 -0.3357
  211MPD1     H 3209   1.549   4.653  15.926  1.5072 -3.1707 -0.6207
  211MPD1    H1 3210   1.832   0.260  15.920  1.7840 -1.1176 -0.2653
  211MPD1    H2 3211   1.928   4.619  15.736 -3.0579 -1.4372 -1.6860
  211MPD1    H3 3212   1.982   0.148  15.786 -0.8470  1.0854 -1.1292
  211MPD1     N 3213   1.589   0.173  16.011 -0.3144  0.0709  0.2248
  211MPD1    H5 3214   1.495   0.134  16.015 -1.1082  1.8041 -1.5920
  211MPD1    N1 3215   1.711   4.497  15.784 -0.3897  0.1260  0.5551
  211MPD1    H6 3216   1.789   4.441  15.750  0.8008  2.0255  0.1579
  211MPD1    H7 3217   1.663   4.438  15.851  2.0389 -1.5783  0.7973
  212MPD1     C 3218   0.495   3.509  16.105 -0.1791  0.3113  0.2416
  212MPD1    C1 3219   0.423   3.563  16.207  0.0849  0.1003 -0.4100
  212MPD1    C2 3220   0.407   3.488  16.322 -0.5454 -0.0466  0.0169
  212MPD1    C3 3221   0.466   3.368  16.340 -0.2264  0.1378 -0.1522
  212MPD1    C4 3222   0.548   3.318  16.237  0.1301  0.5769  0.3351
  212MPD1    C5 3223   0.552   3.382  16.117  0.1791 -0.9262  0.5226
  212MPD1     H 3224   0.340   3.519  16.402  0.8544  0.7816  0.8556
  212MPD1    H1 3225   0.604   3.227  16.252  0.6424  0.7242 -0.7188
  212MPD1    H2 3226   0.518   3.559  16.012  0.8803  1.2182  0.9815
  212MPD1    H3 3227   0.600   3.340  16.030 -0.1486  0.0912 -0.1425
  212MPD1     N 3228   0.457   3.296  16.467  0.0253  0.1236  0.4716
  212MPD1    H5 3229   0.492   3.201  16.471  1.8680  0.7240 -1.3341
  212MPD1    N1 3230   0.345   3.679  16.183  0.6010 -0.3183 -0.2679
  212MPD1    H6 3231   0.337   3.735  16.267  0.1504 -1.4842  0.4596
  212MPD1    H7 3232   0.407   3.732  16.122 -1.4122  1.7683 -0.5237
  213MPD1     C 3233   3.106   3.869  15.637 -0.0578 -0.1289  0.8860
  213MPD1    C1 3234   3.196   3.980  15.650  0.1557  0.0782  0.3311
  213MPD1    C2 3235   3.138   4.089  15.590  0.1430  0.0113  0.3170
  213MPD1    C3 3236   3.038   4.071  15.495 -0.6752 -0.0902 -0.1984
  213MPD1    C4 3237   2.974   3.953  15.475  0.1383  0.1050 -0.0156
  213MPD1    C5 3238   3.010   3.851  15.548 -0.2658 -0.1656  0.3723
  213MPD1     H 3239   3.181   4.187  15.608 -0.0251  0.1495 -0.0367
  213MPD1    H1 3240   2.897   3.923  15.405  1.1441 -1.3279 -0.5119
  213MPD1    H2 3241   3.125   3.787  15.705  0.5386 -0.4966  0.2850
  213MPD1    H3 3242   2.955   3.758  15.542  1.3921 -1.0759 -0.6729
  213MPD1     N 3243   2.998   4.177  15.411  0.1935 -0.3703 -0.6955
  213MPD1    H5 3244   2.924   4.151  15.346  1.0231  0.5489 -2.0121
  213MPD1    N1 3245   3.258   4.009  15.769  0.3915  0.0698  0.0289
  213MPD1    H6 3246   3.324   4.088  15.770 -0.3004  0.6904 -2.8612
  213MPD1    H7 3247   3.311   3.927  15.797 -1.7195 -1.0181  0.8098
  214MPD1     C 3248   2.376   4.295  14.701  0.0415  0.1210  0.9327
  214MPD1    C1 3249   2.353   4.315  14.834  0.0205 -0.0054  0.2371
  214MPD1    C2 3250   2.462   4.304  14.918 -0.5774 -0.0153  0.0297
  214MPD1    C3 3251   2.590   4.277  14.871 -0.0994  0.0678  0.1631
  214MPD1    C4 3252   2.613   4.258  14.740  0.3036  0.3938  0.3449
  214MPD1    C5 3253   2.504   4.262  14.656 -0.0611  0.5936 -0.7386
  214MPD1     H 3254   2.446   4.322  15.023 -0.8907  1.5843 -0.2938
  214MPD1    H1 3255   2.707   4.224  14.698 -0.5118 -2.7778  1.0640
  214MPD1    H2 3256   2.298   4.309  14.627  1.2029  0.1262 -0.3201
  214MPD1    H3 3257   2.515   4.247  14.549  0.0890 -0.0361 -0.6335
  214MPD1     N 3258   2.706   4.271  14.961  0.6259  0.2525  0.0953
  214MPD1    H5 3259   2.794   4.259  14.911 -0.2835  0.9601 -1.6833
  214MPD1    N1 3260   2.228   4.335  14.889 -0.6509 -0.2725 -0.2205
  214MPD1    H6 3261   2.218   4.378  14.981  0.1984 -0.1572 -0.1802
  214MPD1    H7 3262   2.147   4.352  14.830 -0.5355  0.3894 -0.1848
  215MPD1     C 3263   1.814   0.480  10.507 -0.2146 -0.4950 -0.4140
  215MPD1    C1 3264   1.813   0.516  10.640 -0.5429  0.3449  0.0049
  215MPD1    C2 3265   1.932   0.552  10.697  0.6128  0.7538  0.3221
  215MPD1    C3 3266   2.053   0.545  10.630 -0.1511  0.1551 -0.2703
  215MPD1    C4 3267   2.052   0.501  10.499 -0.3306  0.0930 -0.4798
  215MPD1    C5 3268   1.933   0.477  10.433 -0.2485 -0.1141  0.0423
  215MPD1     H 3269   1.928   0.605  10.792 -0.1398  1.5883 -0.1686
  215MPD1    H1 3270   2.139   0.489  10.436  0.3983  0.2290  0.4910
  215MPD1    H2 3271   1.722   0.463  10.452 -0.7065 -1.4539  0.7069
  215MPD1    H3 3272   1.931   0.453  10.327 -0.7944  0.1399 -0.0071
  215MPD1     N 3273   2.174   0.591  10.695  0.1646  0.1292  0.0666
  215MPD1    H5 3274   2.166   0.633  10.787 -1.9879  1.0323 -0.5327
  215MPD1    N1 3275   1.693   0.534  10.710 -0.3903  0.0812 -0.2850
  215MPD1    H6 3276   1.615   0.486  10.667 -1.5631  0.8933  0.9603
  215MPD1    H7 3277   1.694   0.495  10.803 -0.7472 -0.3146 -0.4478
  216MPD1     C 3278   1.468   2.923  16.230 -0.2063 -0.0603  1.0354
  216MPD1    C1 3279   1.365   2.829  16.249  0.6730  0.0590  0.5920
  216MPD1    C2 3280   1.330   2.801  16.380  0.1917  0.0604 -0.2207
  216MPD1    C3 3281   1.393   2.856  16.487 -0.6290  0.8573 -0.2593
  216MPD1    C4 3282   1.501   2.939  16.467  0.6951  0.3692 -0.1471
  216MPD1    C5 3283   1.530   2.976  16.343 -0.2748 -0.4806  0.2468
  216MPD1     H 3284   1.249   2.730  16.395  0.6915  0.1609  2.9897
  216MPD1    H1 3285   1.551   2.998  16.543  1.4104 -0.8666  0.3367
  216MPD1    H2 3286   1.505   2.961  16.136  1.6868 -0.7935  1.5005
  216MPD1    H3 3287   1.616   3.040  16.331  1.6478 -2.8586  1.1873
  216MPD1     N 3288   1.330   2.843  16.618 -0.3695  0.7759 -0.6813
  216MPD1    H5 3289   1.260   2.769  16.620 -0.1676  0.5304 -2.3365
  216MPD1    N1 3290   1.298   2.776  16.137 -0.2325  0.1741 -0.5399
  216MPD1    H6 3291   1.258   2.683  16.147  0.7414 -0.3444 -1.5023
  216MPD1    H7 3292   1.352   2.769  16.051 -0.7561 -1.3194 -0.7372
  217MPD1     C 3293   2.012   3.897   8.657  0.0370  0.4745  0.3708
  217MPD1    C1 3294   2.016   3.762   8.682  0.4974 -0.0148 -0.5491
  217MPD1    C2 3295   1.927   3.711   8.776  0.9370 -0.1593  0.0038
  217MPD1    C3 3296   1.847   3.796   8.848  0.5799  0.1522  0.4046
  217MPD1    C4 3297   1.857   3.928   8.829  0.0816  0.3984 -0.2581
  217MPD1    C5 3298   1.928   3.976   8.727 -0.1618 -0.0992  0.6130
  217MPD1     H 3299   1.916   3.605   8.795  0.7046 -0.5087 -2.1161
  217MPD1    H1 3300   1.822   3.990   8.910  0.1906  0.4781 -0.2727
  217MPD1    H2 3301   2.069   3.955   8.585  0.5287 -1.0554 -0.4694
  217MPD1    H3 3302   1.928   4.084   8.720 -0.0045 -0.1306  0.1508
  217MPD1     N 3303   1.738   3.750   8.929 -0.1843 -0.3055  0.3872
  217MPD1    H5 3304   1.681   3.825   8.967 -0.4880  1.5638 -3.7691
  217MPD1    N1 3305   2.087   3.679   8.597  0.7116 -0.0200  0.1148
  217MPD1    H6 3306   2.173   3.721   8.562 -0.4536  2.2877  0.0760
  217MPD1    H7 3307   2.113   3.589   8.639 -1.5200 -0.3562  0.7534
  218MPD1     C 3308   2.010   0.978  12.640  0.5392  0.7614  0.0690
  218MPD1    C1 3309   2.130   1.020  12.591  0.3559 -0.6878 -0.0070
  218MPD1    C2 3310   2.219   0.923  12.533  0.3866 -0.2559 -0.2363
  218MPD1    C3 3311   2.190   0.789  12.543 -0.3910  0.7150 -0.6448
  218MPD1    C4 3312   2.065   0.751  12.598  0.4134  0.0664 -0.2149
  218MPD1    C5 3313   1.977   0.845  12.645  0.1756  0.9185  0.0187
  218MPD1     H 3314   2.311   0.956  12.487 -1.0208 -0.2060 -3.0435
  218MPD1    H1 3315   2.045   0.648  12.626  0.0671 -0.3362 -1.9201
  218MPD1    H2 3316   1.936   1.046  12.681  1.0448  0.8487  0.8119
  218MPD1    H3 3317   1.890   0.809  12.699  0.5246 -1.9499 -1.3223
  218MPD1     N 3318   2.285   0.692  12.493 -0.1103 -0.5855  0.4177
  218MPD1    H5 3319   2.368   0.725  12.445 -0.2875 -0.0972  0.4486
  218MPD1    N1 3320   2.161   1.155  12.578  0.5805 -0.4680 -0.1761
  218MPD1    H6 3321   2.103   1.217  12.634  2.6412  1.2579  0.0562
  218MPD1    H7 3322   2.258   1.187  12.572  0.6972 -0.8570 -0.3749
  219MPD1     C 3323   3.016   0.460  11.906  0.5397 -0.0651 -0.0480
  219MPD1    C1 3324   2.926   0.564  11.898 -0.5775  0.3678  0.0313
  219MPD1    C2 3325   2.798   0.536  11.957 -0.0796 -0.0929 -0.8856
  219MPD1    C3 3326   2.775   0.423  12.028  0.7085 -0.7471  1.3226
  219MPD1    C4 3327   2.861   0.320  12.024 -0.4070  0.2628 -1.0624
  219MPD1    C5 3328   2.983   0.340  11.959  0.7588  0.3331  0.9629
  219MPD1     H 3329   2.722   0.613  11.944 -1.3998 -1.4100 -1.0005
  219MPD1    H1 3330   2.840   0.223  12.069 -1.8538  2.4241  2.8715
  219MPD1    H2 3331   3.116   0.470  11.867  0.1204  0.3606 -1.0201
  219MPD1    H3 3332   3.052   0.258  11.970  1.2326  0.6256  0.1432
  219MPD1     N 3333   2.658   0.396  12.107 -0.5237 -0.3179  0.6182
  219MPD1    H5 3334   2.661   0.312  12.164 -2.5938 -1.2522 -0.6587
  219MPD1    N1 3335   2.961   0.675  11.815 -0.0141 -0.3176 -0.0028
  219MPD1    H6 3336   2.902   0.754  11.838 -1.8506 -1.9174  0.7443
  219MPD1    H7 3337   3.058   0.702  11.833  0.1055  0.3216 -1.6098
  220MPD1     C 3338   3.016   1.722   9.429  0.4580  0.6443  0.0277
  220MPD1    C1 3339   3.076   1.670   9.540  0.2287 -0.1712  0.0427
  220MPD1    C2 3340   3.006   1.575   9.600  0.1167  0.3986  0.0187
  220MPD1    C3 3341   2.878   1.551   9.562  0.1061  0.1548 -0.3567
  220MPD1    C4 3342   2.817   1.610   9.454 -0.8010  0.3653  0.3209
  220MPD1    C5 3343   2.895   1.689   9.380 -0.1231  0.6513  0.1797
  220MPD1     H 3344   3.050   1.516   9.680 -0.1014  0.9024  0.5035
  220MPD1    H1 3345   2.713   1.600   9.425 -0.8315 -1.8034  1.2525
  220MPD1    H2 3346   3.064   1.797   9.367 -1.2104 -1.2653 -3.6083
  220MPD1    H3 3347   2.861   1.750   9.297  2.1562  1.0288 -0.4741
  220MPD1     N 3348   2.820   1.459   9.645 -0.5705  0.6866  0.1849
  220MPD1    H5 3349   2.875   1.440   9.728  0.0424 -1.0276 -0.6268
  220MPD1    N1 3350   3.210   1.692   9.560 -0.2797  0.3835  0.0042
  220MPD1    H6 3351   3.240   1.789   9.564 -2.1054  1.0892 -3.4133
  220MPD1    H7 3352   3.227   1.658   9.654  0.2340 -0.0643 -0.2465
  221MPD1     C 3353   1.106   0.330  16.690 -0.0958  0.1407 -0.3194
  221MPD1    C1 3354   1.219   0.329  16.622  0.7727  0.0184 -0.1629
  221MPD1    C2 3355   1.240   0.236  16.517 -0.1596  0.0420 -0.3059
  221MPD1    C3 3356   1.159   0.123  16.515  0.6410 -0.0958 -0.2938
  221MPD1    C4 3357   1.050   0.117  16.594 -0.4598 -0.0534  0.4864
  221MPD1    C5 3358   1.027   0.218  16.678 -1.1262 -0.4840  0.7115
  221MPD1     H 3359   1.329   0.248  16.456  1.2410 -0.5901  1.5744
  221MPD1    H1 3360   0.975   0.039  16.589  0.6266 -1.2546  2.9926
  221MPD1    H2 3361   1.086   0.410  16.760  1.8202  1.0548 -0.8380
  221MPD1    H3 3362   0.947   0.214  16.752 -1.0729 -0.7197  0.7556
  221MPD1     N 3363   1.189   0.012  16.437 -0.4394  0.2617  0.7274
  221MPD1    H5 3364   1.112   4.667  16.429  0.4133 -0.8803  1.9622
  221MPD1    N1 3365   1.296   0.448  16.628  0.2942  1.0285  0.2164
  221MPD1    H6 3366   1.393   0.422  16.612 -0.7278 -1.9048 -1.2267
  221MPD1    H7 3367   1.294   0.504  16.713  2.0387  1.6295 -0.1545
  222MPD1     C 3368   1.847   3.316  16.206 -0.6389 -0.3762 -0.2343
  222MPD1    C1 3369   1.855   3.439  16.268 -0.3427 -0.3833 -0.3778
  222MPD1    C2 3370   1.739   3.511  16.294 -0.0993 -0.5776 -0.3216
  222MPD1    C3 3371   1.617   3.453  16.253  0.6864  0.4343 -0.7034
  222MPD1    C4 3372   1.608   3.324  16.200 -0.0290  0.3557 -0.0083
  222MPD1    C5 3373   1.726   3.259  16.176 -1.1263  0.3039  0.4026
  222MPD1     H 3374   1.746   3.608  16.340 -1.7654 -0.5932 -0.0324
  222MPD1    H1 3375   1.507   3.293  16.176 -0.7290  1.4581  1.4682
  222MPD1    H2 3376   1.940   3.261  16.192 -0.3976  0.1732 -0.7772
  222MPD1    H3 3377   1.728   3.165  16.121  0.2801  0.9151 -0.5966
  222MPD1     N 3378   1.493   3.529  16.272 -0.5351  0.0159 -0.3337
  222MPD1    H5 3379   1.411   3.470  16.261 -0.5940  0.0995 -0.3372
  222MPD1    N1 3380   1.972   3.506  16.301 -0.6421 -0.0888  0.5632
  222MPD1    H6 3381   2.048   3.447  16.332 -0.3802  0.0069  0.1119
  222MPD1    H7 3382   1.960   3.590  16.358  0.6229  0.2395  0.3629
  223MPD1     C 3383   0.668   3.825  15.822 -0.0363 -0.4018  0.8788
  223MPD1    C1 3384   0.613   3.817  15.947  0.4397  0.4160 -0.1424
  223MPD1    C2 3385   0.706   3.814  16.053  0.0306  0.5293  0.0382
  223MPD1    C3 3386   0.842   3.827  16.033  0.3579  0.8797  0.7336
  223MPD1    C4 3387   0.892   3.854  15.906  0.1130  0.6000 -0.3412
  223MPD1    C5 3388   0.800   3.852  15.799  0.1515 -0.0676 -0.3485
  223MPD1     H 3389   0.666   3.813  16.154  0.6830 -0.1290  0.2892
  223MPD1    H1 3390   0.996   3.868  15.882  0.2350  2.5050  1.3267
  223MPD1    H2 3391   0.598   3.831  15.739 -0.7363 -0.2517  1.4871
  223MPD1    H3 3392   0.834   3.876  15.699  1.1296 -0.1371 -0.0334
  223MPD1     N 3393   0.933   3.810  16.144 -0.2335  0.1882  0.6045
  223MPD1    H5 3394   0.894   3.825  16.236 -0.9732  0.1764  0.2885
  223MPD1    N1 3395   0.474   3.834  15.969  0.1888 -0.4817 -0.1861
  223MPD1    H6 3396   0.439   3.912  16.025 -0.3743 -1.0257  0.2232
  223MPD1    H7 3397   0.418   3.836  15.884  0.6424  0.2630 -0.4728
  224MPD1     C 3398   1.634   0.109   9.478  0.0333 -0.1706 -0.3729
  224MPD1    C1 3399   1.648   4.703   9.437 -0.2798  0.2163  0.5841
  224MPD1    C2 3400   1.575   4.597   9.495  0.4174  0.7143 -0.0949
  224MPD1    C3 3401   1.481   4.630   9.598 -0.2919  0.6694 -0.0337
  224MPD1    C4 3402   1.460   0.044   9.624  0.2139  0.4176  0.3877
  224MPD1    C5 3403   1.538   0.139   9.569 -1.0282 -0.0652  0.1144
  224MPD1     H 3404   1.584   4.492   9.468 -1.6173  0.7177 -0.7518
  224MPD1    H1 3405   1.396   0.076   9.706  0.0482 -2.1877  1.2778
  224MPD1    H2 3406   1.691   0.188   9.430 -0.2364 -0.1636 -0.6809
  224MPD1    H3 3407   1.529   0.243   9.598 -0.8215 -0.0553  0.1405
  224MPD1     N 3408   1.409   4.529   9.678  0.3253  0.8822  0.4361
  224MPD1    H5 3409   1.363   4.566   9.761  2.8958 -2.2188  3.2073
  224MPD1    N1 3410   1.722   4.688   9.320  0.3074  0.5483 -0.0004
  224MPD1    H6 3411   1.782   4.605   9.316  1.5528  1.3829  1.3573
  224MPD1    H7 3412   1.791   0.042   9.309  0.2314  0.5596 -0.4265
  225MPD1     C 3413   2.509   1.527  12.623  0.6168 -0.1683 -0.4027
  225MPD1    C1 3414   2.386   1.478  12.634  0.8208  0.1635  0.3134
  225MPD1    C2 3415   2.304   1.476  12.517 -0.2834  0.1981  0.3266
  225MPD1    C3 3416   2.357   1.505  12.395  0.4025 -0.9698  0.2247
  225MPD1    C4 3417   2.481   1.556  12.390  0.4415 -0.1779 -0.1403
  225MPD1    C5 3418   2.557   1.565  12.505  0.1750 -0.3790  0.6483
  225MPD1     H 3419   2.199   1.451  12.533 -0.1993 -0.6170 -0.3847
  225MPD1    H1 3420   2.518   1.606  12.301  1.6473 -1.8007 -0.5451
  225MPD1    H2 3421   2.570   1.522  12.712  0.1852 -0.6518 -0.1318
  225MPD1    H3 3422   2.652   1.617  12.497  0.7003 -1.2635  1.1391
  225MPD1     N 3423   2.269   1.506  12.283  0.1190  0.1789 -0.2960
  225MPD1    H5 3424   2.315   1.553  12.205  0.4850  0.3678  0.0357
  225MPD1    N1 3425   2.318   1.468  12.761 -0.3644 -0.1344 -0.5130
  225MPD1    H6 3426   2.372   1.415  12.828 -2.4644 -2.6560 -0.7971
  225MPD1    H7 3427   2.241   1.402  12.752  0.5270 -1.5787  2.6765
  226MPD1     C 3428   1.178   1.728   9.863  0.9640 -0.4582 -0.0770
  226MPD1    C1 3429   1.164   1.605   9.926  0.4765  0.0766  0.4293
  226MPD1    C2 3430   1.248   1.503   9.875  0.4244  0.4403  0.0442
  226MPD1    C3 3431   1.337   1.518   9.772 -0.3117 -0.2964 -0.1568
  226MPD1    C4 3432   1.350   1.639   9.712 -0.5278  0.2134  0.2067
  226MPD1    C5 3433   1.271   1.743   9.762 -0.1667  0.4047  0.6404
  226MPD1     H 3434   1.234   1.407   9.923  2.4913  1.2469  2.2516
  226MPD1    H1 3435   1.410   1.654   9.623  0.3235 -1.6978  0.4718
  226MPD1    H2 3436   1.128   1.814   9.905  3.1657 -0.0853  1.7900
  226MPD1    H3 3437   1.279   1.837   9.707  0.6430 -0.1986 -0.2696
  226MPD1     N 3438   1.387   1.396   9.720 -0.3883 -1.1865 -0.1585
  226MPD1    H5 3439   1.350   1.312   9.764  0.5932 -0.0627  2.7633
  226MPD1    N1 3440   1.075   1.582  10.028  0.2246 -0.1931 -0.4334
  226MPD1    H6 3441   1.118   1.521  10.097  2.2562 -0.8382 -2.2725
  226MPD1    H7 3442   1.043   1.674  10.055 -3.1628 -1.0053 -1.6374
  227MPD1     C 3443   1.019   0.561   9.316  0.5378 -0.5060 -1.0354
  227MPD1    C1 3444   1.102   0.599   9.219  0.6411 -0.1987  0.6157
  227MPD1    C2 3445   1.177   0.718   9.234 -0.1823 -0.1439 -0.5400
  227MPD1    C3 3446   1.170   0.795   9.352  0.1142  0.1958 -0.3739
  227MPD1    C4 3447   1.090   0.739   9.455  0.0362 -0.5400  0.3320
  227MPD1    C5 3448   1.024   0.626   9.439  0.2371 -0.3696  0.2169
  227MPD1     H 3449   1.243   0.750   9.154 -1.1015  0.6284 -0.9851
  227MPD1    H1 3450   1.088   0.789   9.551  2.4721  0.0654  0.0734
  227MPD1    H2 3451   0.959   0.471   9.317  2.7021 -1.9506 -0.0437
  227MPD1    H3 3452   0.958   0.584   9.514 -2.0154  0.0823 -1.5169
  227MPD1     N 3453   1.248   0.911   9.365 -0.5820  0.0255  0.1657
  227MPD1    H5 3454   1.323   0.924   9.297  0.0785 -0.5056  0.7940
  227MPD1    N1 3455   1.101   0.530   9.096  0.3240 -0.2433  0.2877
  227MPD1    H6 3456   1.194   0.542   9.054  0.2232  0.4454  0.2560
  227MPD1    H7 3457   1.069   0.434   9.105  0.5429 -0.2929  0.5656
  228MPD1     C 3458   4.173   4.047  12.978  0.0754  0.3256 -0.3456
  228MPD1    C1 3459   4.064   4.071  13.063  0.0442  0.3239 -0.4462
  228MPD1    C2 3460   3.942   4.029  13.022 -0.4156 -0.1088 -0.2555
  228MPD1    C3 3461   3.936   3.950  12.909 -0.5666 -0.6309  0.8897
  228MPD1    C4 3462   4.042   3.927  12.827 -0.4733  0.4902 -0.5183
  228MPD1    C5 3463   4.159   3.974  12.866 -0.1261 -0.3379  0.2416
  228MPD1     H 3464   3.846   4.053  13.067 -0.2585 -1.9420  1.0584
  228MPD1    H1 3465   4.034   3.869  12.736  2.4295  0.6419 -0.9022
  228MPD1    H2 3466   4.268   4.088  13.009  0.6423 -1.3684  0.1571
  228MPD1    H3 3467   4.244   3.952  12.803  1.3475 -0.1021  2.1502
  228MPD1     N 3468   3.802   3.912  12.862  0.0389  0.1059 -0.2129
  228MPD1    H5 3469   3.722   3.924  12.923 -1.2903 -1.6001 -1.6392
  228MPD1    N1 3470   4.079   4.165  13.167  0.6913 -0.1789 -0.0211
  228MPD1    H6 3471   3.997   4.154  13.227  0.8252 -0.2642  0.1485
  228MPD1    H7 3472   4.159   4.142  13.226  0.5451  0.9694  0.6151
  229MPD1     C 3473   2.769   1.499  14.603  0.0376  0.0720 -0.0367
  229MPD1    C1 3474   2.854   1.611  14.581  0.4987  1.1230 -0.0010
  229MPD1    C2 3475   2.980   1.611  14.639 -0.1021 -0.0640  0.6297
  229MPD1    C3 3476   3.028   1.497  14.701  0.1101  1.2846  0.6360
  229MPD1    C4 3477   2.941   1.390  14.719 -0.0894  0.0871 -0.2248
  229MPD1    C5 3478   2.809   1.394  14.682  0.0468  0.1263 -0.0001
  229MPD1     H 3479   3.046   1.698  14.633  0.7201 -0.8161 -1.1528
  229MPD1    H1 3480   2.976   1.311  14.784 -2.3269 -1.6380 -1.1544
  229MPD1    H2 3481   2.666   1.499  14.570 -0.0940 -0.2555  0.3731
  229MPD1    H3 3482   2.738   1.319  14.714  0.4822 -1.3172 -2.4153
  229MPD1     N 3483   3.160   1.493  14.749  0.1600 -0.7139  0.2935
  229MPD1    H5 3484   3.193   1.400  14.773 -1.4575 -1.1370  0.8524
  229MPD1    N1 3485   2.803   1.723  14.520  0.2586  0.5140  0.3048
  229MPD1    H6 3486   2.875   1.755  14.456  0.2979  0.5407  0.3630
  229MPD1    H7 3487   2.727   1.692  14.460  1.3621 -0.5218 -0.5478
  230MPD1     C 3488   3.778   2.219  15.115  0.3865 -0.1006  0.4486
  230MPD1    C1 3489   3.673   2.218  15.028 -0.0752  0.4303  0.7371
  230MPD1    C2 3490   3.615   2.104  14.979 -0.4078 -0.0828  0.5454
  230MPD1    C3 3491   3.669   1.981  15.022 -0.3836  0.3272 -0.4310
  230MPD1    C4 3492   3.772   1.981  15.113 -0.1335 -0.2747  0.2775
  230MPD1    C5 3493   3.821   2.099  15.160  0.0044  0.2102  0.8843
  230MPD1     H 3494   3.529   2.104  14.914 -1.0187 -2.7981  1.3207
  230MPD1    H1 3495   3.818   1.889  15.146  1.0784 -0.0304 -0.6843
  230MPD1    H2 3496   3.818   2.314  15.148 -1.5806  1.2991 -1.2542
  230MPD1    H3 3497   3.901   2.110  15.232 -1.3926  2.3291  2.0759
  230MPD1     N 3498   3.613   1.861  14.974  0.2260  1.4769  0.9759
  230MPD1    H5 3499   3.554   1.884  14.895  0.3771  0.2651  0.5095
  230MPD1    N1 3500   3.616   2.337  14.982  0.9712 -0.5839  0.4336
  230MPD1    H6 3501   3.525   2.337  14.937  0.3603 -1.3447  1.6665
  230MPD1    H7 3502   3.621   2.405  15.058 -1.6213  1.6696 -1.4124
  231MPD1     C 3503   2.423   4.557  15.278  0.1529  0.1809  0.3473
  231MPD1    C1 3504   2.353   4.575  15.164 -0.4219  0.3175  0.1336
  231MPD1    C2 3505   2.425   4.618  15.049 -0.2429 -0.5725 -0.5713
  231MPD1    C3 3506   2.560   4.648  15.056  0.5938 -1.0267 -0.2867
  231MPD1    C4 3507   2.622   4.643  15.178  0.2181 -0.2462  0.0108
  231MPD1    C5 3508   2.555   4.604  15.290 -0.3752  0.3324 -1.1853
  231MPD1     H 3509   2.373   4.615  14.954 -1.8560  0.6158  0.2683
  231MPD1    H1 3510   2.727   4.661  15.197 -0.6005  3.2253  1.2441
  231MPD1    H2 3511   2.375   4.522  15.369 -0.8226  0.3008 -0.1191
  231MPD1    H3 3512   2.610   4.603  15.383  1.1496 -2.0770 -2.1086
  231MPD1     N 3513   2.624   4.695  14.941  0.3435  0.0532  0.0526
  231MPD1    H5 3514   2.568   4.678  14.858 -0.8844  0.5315  0.7881
  231MPD1    N1 3515   2.229   4.520  15.150  0.5607 -0.3221 -0.9097
  231MPD1    H6 3516   2.169   4.529  15.233  0.6871  2.3011 -1.0998
  231MPD1    H7 3517   2.184   4.552  15.065  0.7081 -1.1226 -1.2912
  232MPD1     C 3518   0.120   1.518  16.857 -0.4645  0.2077 -0.5473
  232MPD1    C1 3519   0.143   1.520  16.998  1.2133  0.0891  0.4190
  232MPD1    C2 3520   0.051   1.586  17.078  0.4255  1.3076 -1.1062
  232MPD1    C3 3521   4.643   1.618  17.034 -0.2636 -0.2065  0.2699
  232MPD1    C4 3522   4.620   1.603  16.895  0.4768 -0.0481  0.4120
  232MPD1    C5 3523   4.716   1.558  16.810 -0.1788  0.3290  0.5766
  232MPD1     H 3524   0.084   1.595  17.181  1.2539  0.0634 -1.2485
  232MPD1    H1 3525   4.528   1.642  16.854  0.4799  1.1714  1.5498
  232MPD1    H2 3526   0.196   1.479  16.790 -1.6995 -1.4359 -0.9886
  232MPD1    H3 3527   4.692   1.558  16.704 -2.8021 -1.2752  1.1714
  232MPD1     N 3528   4.548   1.658  17.133 -0.5792 -0.3942 -0.7210
  232MPD1    H5 3529   4.587   1.669  17.226 -2.0376 -1.0799 -0.0216
  232MPD1    N1 3530   0.272   1.501  17.049 -0.4564 -0.2396  0.1153
  232MPD1    H6 3531   0.273   1.457  17.141 -2.2939  0.8648  0.6472
  232MPD1    H7 3532   0.331   1.437  16.995  1.3294  1.2303  0.2921
  233MPD1     C 3533   1.308   1.211   1.052 -0.2768  0.4529  0.0098
  233MPD1    C1 3534   1.247   1.098   1.039  0.6673 -0.2608  0.5473
  233MPD1    C2 3535   1.269   1.010   1.146  0.3921  0.0209  0.9043
  233MPD1    C3 3536   1.369   1.027   1.236  0.0267  0.3462  0.7310
  233MPD1    C4 3537   1.449   1.138   1.228 -0.1238  0.4256  0.4252
  233MPD1    C5 3538   1.405   1.232   1.141  0.5468  0.2785 -0.3045
  233MPD1     H 3539   1.206   0.923   1.159 -0.0944  0.0418 -1.1841
  233MPD1    H1 3540   1.531   1.167   1.293 -1.7719  1.1455  2.1952
  233MPD1    H2 3541   1.306   1.276   0.965 -1.9249 -0.1067 -0.3664
  233MPD1    H3 3542   1.473   1.311   1.110  0.8353  0.6421  1.2329
  233MPD1     N 3543   1.408   0.933   1.337  0.2681 -0.5447  0.1471
  233MPD1    H5 3544   1.490   0.956   1.392 -1.5049 -1.6896  3.2576
  233MPD1    N1 3545   1.146   1.075   0.941  0.9314 -0.2022 -0.2573
  233MPD1    H6 3546   1.135   0.976   0.921 -0.0668  0.4763 -3.1100
  233MPD1    H7 3547   1.174   1.109   0.849  0.2130  1.1959  0.0404
  234MPD1     C 3548   1.547   2.610  10.569 -0.4839  0.0769  0.2506
  234MPD1    C1 3549   1.559   2.737  10.625 -0.4104 -0.0276 -0.0518
  234MPD1    C2 3550   1.552   2.850  10.551 -0.1274 -0.5392  0.2089
  234MPD1    C3 3551   1.517   2.839  10.420 -0.8089 -0.6149  0.1380
  234MPD1    C4 3552   1.497   2.715  10.366  0.0197  0.4380 -0.5793
  234MPD1    C5 3553   1.509   2.598  10.438  0.0618  1.2318 -0.3348
  234MPD1     H 3554   1.567   2.945  10.601 -2.1272 -0.5813  0.8755
  234MPD1    H1 3555   1.484   2.696  10.260  0.8171 -1.7790 -0.2733
  234MPD1    H2 3556   1.554   2.517  10.625  0.5085  0.4051  0.6757
  234MPD1    H3 3557   1.504   2.502  10.388  1.1317 -0.1000  2.1127
  234MPD1     N 3558   1.511   2.953  10.338 -0.3338  0.0757 -0.5663
  234MPD1    H5 3559   1.566   3.031  10.373 -1.6362  0.2637  1.0521
  234MPD1    N1 3560   1.603   2.733  10.759  0.0347  0.1716 -0.6731
  234MPD1    H6 3561   1.579   2.819  10.808  1.9821  1.1243 -1.4365
  234MPD1    H7 3562   1.555   2.659  10.811 -0.7979 -0.7250 -2.7231
  235MPD1     C 3563   1.357   3.512   8.764 -0.4543 -0.8733  0.1982
  235MPD1    C1 3564   1.462   3.573   8.695  0.2921  0.1495  0.1503
  235MPD1    C2 3565   1.576   3.502   8.665  0.1786  0.3504 -0.1454
  235MPD1    C3 3566   1.577   3.370   8.695  0.6224  0.4362  0.1925
  235MPD1    C4 3567   1.470   3.309   8.750  0.0257 -0.6103 -0.7800
  235MPD1    C5 3568   1.352   3.376   8.773 -0.1243  0.1673 -0.8234
  235MPD1     H 3569   1.665   3.547   8.621 -0.7970  1.0403 -1.4286
  235MPD1    H1 3570   1.480   3.205   8.781 -0.8254 -0.2758  0.5850
  235MPD1    H2 3571   1.274   3.566   8.810  1.6379  1.8773  0.7642
  235MPD1    H3 3572   1.280   3.317   8.830  1.0716 -0.7975 -0.3189
  235MPD1     N 3573   1.698   3.301   8.673  0.8925 -0.3305  0.6475
  235MPD1    H5 3574   1.775   3.360   8.643  2.5862 -3.1955 -0.6462
  235MPD1    N1 3575   1.467   3.711   8.685  0.3340 -0.0909 -0.0230
  235MPD1    H6 3576   1.373   3.748   8.675  0.5643  0.0790 -1.4503
  235MPD1    H7 3577   1.528   3.740   8.609  1.2372 -1.2588  0.2439
  236MPD1     C 3578   2.332   1.494   9.919  0.5816 -0.0939  0.1643
  236MPD1    C1 3579   2.344   1.595   9.823 -1.1789  0.4005 -0.4403
  236MPD1    C2 3580   2.471   1.648   9.807 -0.4055  0.5686  0.0556
  236MPD1    C3 3581   2.575   1.609   9.883 -0.3087 -0.3668 -0.7645
  236MPD1    C4 3582   2.563   1.513   9.980 -0.4065 -0.2452 -0.2425
  236MPD1    C5 3583   2.441   1.455   9.996  0.7560 -0.2682 -0.0780
  236MPD1     H 3584   2.479   1.713   9.721 -0.1274  1.7759  1.0099
  236MPD1    H1 3585   2.648   1.489  10.044 -0.7513 -0.2844  0.1987
  236MPD1    H2 3586   2.241   1.437   9.937  1.9608 -1.7943  1.6371
  236MPD1    H3 3587   2.427   1.373  10.065 -1.4466  0.4866  0.3593
  236MPD1     N 3588   2.705   1.665   9.883  0.7402 -1.0851  0.6134
  236MPD1    H5 3589   2.778   1.633   9.947  0.1971 -0.2514  1.6513
  236MPD1    N1 3590   2.244   1.626   9.735  0.4065 -0.7638  0.1760
  236MPD1    H6 3591   2.262   1.726   9.726  0.1995 -0.7735 -0.3125
  236MPD1    H7 3592   2.155   1.617   9.784 -0.6785 -1.3311 -1.9365
  237MPD1     C 3593   2.915   1.025  14.820  0.7280  0.8899  0.2257
  237MPD1    C1 3594   2.804   1.036  14.740 -0.8951 -0.8151 -0.0437
  237MPD1    C2 3595   2.674   1.059  14.788 -0.0235  0.3753 -0.1215
  237MPD1    C3 3596   2.656   1.069  14.930  0.9958  0.0783  0.4061
  237MPD1    C4 3597   2.768   1.050  15.011 -0.0920 -0.6954  0.5031
  237MPD1    C5 3598   2.892   1.038  14.961  0.1373 -0.4957 -0.5880
  237MPD1     H 3599   2.591   1.054  14.719 -0.6191 -0.3293  0.6552
  237MPD1    H1 3600   2.762   1.065  15.119 -0.2006  0.8453  0.2818
  237MPD1    H2 3601   3.016   1.008  14.786  0.8576 -0.2261  1.1498
  237MPD1    H3 3602   2.975   1.030  15.030 -1.2594 -0.2836  1.1227
  237MPD1     N 3603   2.532   1.078  14.993 -0.0259  0.3934 -0.2565
  237MPD1    H5 3604   2.529   1.074  15.094 -1.7810 -0.6373 -0.3536
  237MPD1    N1 3605   2.817   1.014  14.603  0.4343  0.2638  0.2654
  237MPD1    H6 3606   2.767   1.082  14.547 -0.4233 -0.3374  0.2913
  237MPD1    H7 3607   2.915   1.024  14.579  0.5821 -0.6398  0.4900
  238MPD1     C 3608   4.248   4.348  15.232  0.0066 -0.0350 -0.2468
  238MPD1    C1 3609   4.296   4.354  15.104 -0.2418 -1.1135 -0.2707
  238MPD1    C2 3610   4.206   4.377  15.001  0.8234 -0.0514 -0.6977
  238MPD1    C3 3611   4.066   4.380  15.022 -0.0205 -0.5015 -0.4316
  238MPD1    C4 3612   4.027   4.373  15.148  0.1576 -0.6119  0.0725
  238MPD1    C5 3613   4.112   4.366  15.255  0.7250  0.3205  0.0201
  238MPD1     H 3614   4.242   4.383  14.899  0.7970  1.5126 -0.6204
  238MPD1    H1 3615   3.919   4.377  15.160  0.3046 -0.5774  1.3092
  238MPD1    H2 3616   4.315   4.336  15.316  0.4013  1.7145 -0.3098
  238MPD1    H3 3617   4.072   4.365  15.355 -0.6223 -1.2098 -0.5238
  238MPD1     N 3618   3.970   4.374  14.924 -1.0106 -0.2685  0.0850
  238MPD1    H5 3619   3.878   4.372  14.968 -1.2116 -4.1473 -0.4871
  238MPD1    N1 3620   4.435   4.346  15.078 -0.0960  0.2351  0.1413
  238MPD1    H6 3621   4.485   4.292  15.148 -0.8601 -1.9824 -1.0377
  238MPD1    H7 3622   4.452   4.312  14.984  1.0809  0.8808  0.1256
  239MPD1     C 3623   4.561   0.492  14.967  0.7469  0.1517  0.4943
  239MPD1    C1 3624   4.439   0.457  14.921 -0.1043 -0.1650  1.0719
  239MPD1    C2 3625   4.400   0.518  14.801 -0.6781  0.4500  0.7044
  239MPD1    C3 3626   4.481   0.607  14.737 -0.0040  0.9850  0.2240
  239MPD1    C4 3627   4.595   0.645  14.791  0.2523  0.6289 -0.4166
  239MPD1    C5 3628   4.633   0.596  14.909 -0.1075 -0.2229 -0.1585
  239MPD1     H 3629   4.297   0.515  14.766 -0.0493  0.0507 -1.1416
  239MPD1    H1 3630   4.661   0.715  14.742  0.9381  0.5491  0.3946
  239MPD1    H2 3631   4.607   0.444  15.052  1.9836 -0.6190 -0.6182
  239MPD1    H3 3632   0.004   0.634  14.955  0.9315 -0.6231 -1.8858
  239MPD1     N 3633   4.445   0.677  14.616  0.4155  0.1892 -0.0873
  239MPD1    H5 3634   4.510   0.748  14.585 -1.4894  1.8864 -0.1335
  239MPD1    N1 3635   4.356   0.377  14.996 -0.0788  0.7553 -0.0584
  239MPD1    H6 3636   4.298   0.322  14.932  0.7185 -0.2420  0.0795
  239MPD1    H7 3637   4.401   0.309  15.057 -1.7130 -0.3128 -0.0290
  240MPD1     C 3638   3.886   0.403  13.449 -0.6826 -0.0715 -0.1733
  240MPD1    C1 3639   3.777   0.454  13.516 -0.6219 -0.4133  0.0395
  240MPD1    C2 3640   3.751   0.420  13.647  0.1828 -0.6156  0.0205
  240MPD1    C3 3641   3.854   0.366  13.717 -0.0808  0.7226  0.2199
  240MPD1    C4 3642   3.980   0.341  13.658 -0.2770 -0.2655  0.3537
  240MPD1    C5 3643   3.987   0.351  13.521  0.6651  0.2531  0.6544
  240MPD1     H 3644   3.655   0.451  13.686  0.3402  0.4268 -0.4268
  240MPD1    H1 3645   4.064   0.294  13.709  0.4026 -0.3858 -0.8701
  240MPD1    H2 3646   3.893   0.405  13.341 -2.6691  0.4854 -0.2953
  240MPD1    H3 3647   4.078   0.328  13.466  1.3711  3.4952  0.4595
  240MPD1     N 3648   3.824   0.334  13.851 -0.3031  0.0736 -0.4899
  240MPD1    H5 3649   3.733   0.355  13.889  0.6252  2.0428  0.6313
  240MPD1    N1 3650   3.674   0.494  13.429 -0.3981 -0.9792 -0.1888
  240MPD1    H6 3651   3.587   0.520  13.475 -0.2331 -2.2616  0.8657
  240MPD1    H7 3652   3.696   0.563  13.359  1.1624 -1.3096 -0.0219
  241MPD1     C 3653   4.473   4.695  14.562  0.6484  0.0060 -0.0328
  241MPD1    C1 3654   4.346   4.638  14.575  0.4082 -0.2437  0.3530
  241MPD1    C2 3655   4.246   4.675  14.492  0.0856 -0.2797  0.2819
  241MPD1    C3 3656   4.256   0.063  14.408 -0.3735 -0.0870 -0.1462
  241MPD1    C4 3657   4.380   0.120  14.394  0.5498  0.0155  0.0308
  241MPD1    C5 3658   4.480   0.076  14.472  0.1145 -0.6425 -0.2030
  241MPD1     H 3659   4.151   4.626  14.514  0.0038 -0.1837  0.1465
  241MPD1    H1 3660   4.397   0.202  14.325  1.1735 -0.8739 -0.8613
  241MPD1    H2 3661   4.542   4.669  14.642 -0.5949  0.2458  1.1053
  241MPD1    H3 3662   4.573   0.128  14.454  0.5108 -0.9782  0.8489
  241MPD1     N 3663   4.140   0.112  14.342 -0.0811 -0.4079 -0.4748
  241MPD1    H5 3664   4.162   0.185  14.275  1.4273  0.2046  0.6829
  241MPD1    N1 3665   4.338   4.523  14.661  0.4915 -0.0613 -0.3577
  241MPD1    H6 3666   4.382   4.543  14.750  0.3083 -1.4342  0.0360
  241MPD1    H7 3667   4.241   4.506  14.688  0.6486 -2.6325 -1.4358
  242MPD1     C 3668   4.376   3.506  15.024 -0.2063  0.5505  0.2438
  242MPD1    C1 3669   4.374   3.479  14.889 -0.8867 -0.0158  0.2640
  242MPD1    C2 3670   4.268   3.405  14.842  0.3288 -0.2529 -0.4367
  242MPD1    C3 3671   4.186   3.325  14.920 -0.0553 -0.2802  0.0491
  242MPD1    C4 3672   4.214   3.328  15.055  0.4554  0.0979  0.2692
  242MPD1    C5 3673   4.302   3.427  15.106  0.0513 -0.3220 -0.0551
  242MPD1     H 3674   4.266   3.397  14.734 -2.5201  2.3199 -0.5522
  242MPD1    H1 3675   4.164   3.264  15.127  0.0851 -2.5691 -2.3422
  242MPD1    H2 3676   4.449   3.572  15.071  0.6994 -0.4512  0.2346
  242MPD1    H3 3677   4.306   3.445  15.213  2.1662 -3.2169  0.3637
  242MPD1     N 3678   4.084   3.239  14.872  0.0467  0.2352 -0.4694
  242MPD1    H5 3679   4.054   3.170  14.941  0.0058  0.4207 -0.3011
  242MPD1    N1 3680   4.440   3.576  14.805 -0.1306 -0.1799 -0.4115
  242MPD1    H6 3681   4.438   3.532  14.713  2.1369  0.1712 -0.6421
  242MPD1    H7 3682   4.539   3.585  14.825 -0.0576 -0.7227 -0.5200
  243MPD1     C 3683   1.580   2.518  16.899 -0.4625  0.6110 -0.3539
  243MPD1    C1 3684   1.487   2.462  16.813 -0.4239  0.6222  0.0647
  243MPD1    C2 3685   1.430   2.349  16.862 -0.3936 -0.1486 -0.6078
  243MPD1    C3 3686   1.437   2.307  16.993  0.3516  0.3964  0.3353
  243MPD1    C4 3687   1.512   2.376  17.080  0.2839 -0.2192 -0.4485
  243MPD1    C5 3688   1.582   2.483  17.032  0.3795  1.0989 -0.4958
  243MPD1     H 3689   1.367   2.286  16.800 -0.0212 -0.8647 -0.2678
  243MPD1    H1 3690   1.533   2.354  17.184 -0.4973 -1.7968 -0.6334
  243MPD1    H2 3691   1.637   2.605  16.871  1.4363 -1.4371 -2.8216
  243MPD1    H3 3692   1.644   2.533  17.106  0.3991  0.7193 -0.2541
  243MPD1     N 3693   1.358   2.199  17.036 -0.3802 -0.1651  0.0539
  243MPD1    H5 3694   1.304   2.157  16.961  3.8732  1.5513 -4.0061
  243MPD1    N1 3695   1.480   2.492  16.679  0.5338 -0.2785  0.0660
  243MPD1    H6 3696   1.397   2.453  16.634  0.4891  0.5748 -0.6001
  243MPD1    H7 3697   1.503   2.587  16.650  1.6352 -0.6715 -0.3451
  244MPD1     C 3698   0.515   1.922  17.668  0.5437 -0.8803 -0.1622
  244MPD1    C1 3699   0.550   1.804  17.598 -0.4598 -1.2419 -0.7376
  244MPD1    C2 3700   0.651   1.814  17.505 -0.2757  1.2294 -0.7473
  244MPD1    C3 3701   0.738   1.924  17.508 -0.3190 -0.0055  0.3831
  244MPD1    C4 3702   0.707   2.039  17.584 -0.4112  0.1486  0.5142
  244MPD1    C5 3703   0.598   2.030  17.666  0.1590  0.5804  0.1434
  244MPD1     H 3704   0.662   1.735  17.431  1.4378  0.2988  0.4871
  244MPD1    H1 3705   0.765   2.130  17.576 -1.6636  0.7054 -2.2808
  244MPD1    H2 3706   0.440   1.923   0.064  0.9929 -0.8368  0.2703
  244MPD1    H3 3707   0.574   2.115   0.046 -2.1297  1.4579 -1.9238
  244MPD1     N 3708   0.847   1.926  17.416  0.4858 -0.3088  0.0942
  244MPD1    H5 3709   0.854   1.838  17.364 -0.2004  0.2463 -0.9404
  244MPD1    N1 3710   0.456   1.702  17.591  0.2246 -0.5668  0.4197
  244MPD1    H6 3711   0.499   1.611  17.571  1.1311  0.0490 -0.4407
  244MPD1    H7 3712   0.405   1.692  17.679  0.5360 -2.1026  0.4343
  245MPD1     C 3713   2.584   1.713  12.953  0.7093  0.0628  0.1259
  245MPD1    C1 3714   2.461   1.769  12.985 -0.4775  0.0463 -0.3674
  245MPD1    C2 3715   2.457   1.870  13.078  0.3796  0.9026  0.0943
  245MPD1    C3 3716   2.573   1.913  13.145 -0.8821  0.0647  0.6556
  245MPD1    C4 3717   2.692   1.851  13.121  0.1291 -0.4513 -0.3785
  245MPD1    C5 3718   2.694   1.751  13.031  0.4172  0.2730  0.1753
  245MPD1     H 3719   2.367   1.930  13.088  0.3994  0.5969  1.9626
  245MPD1    H1 3720   2.789   1.879  13.162  0.1076 -1.9107  0.7010
  245MPD1    H2 3721   2.596   1.633  12.881 -1.2588 -1.3911  1.4316
  245MPD1    H3 3722   2.786   1.695  13.018  1.3917  1.1433  3.4628
  245MPD1     N 3723   2.556   2.011  13.250  0.4122  0.0315  0.1028
  245MPD1    H5 3724   2.460   2.038  13.267  1.2869  2.0033  1.8198
  245MPD1    N1 3725   2.357   1.752  12.897  0.5341  0.3370  0.1392
  245MPD1    H6 3726   2.360   1.665  12.844 -0.2210 -0.6320  1.6932
  245MPD1    H7 3727   2.268   1.753  12.947  0.6769  1.8094  0.3490
  246MPD1     C 3728   1.546   3.971   9.369  0.0033 -0.0117  0.5305
  246MPD1    C1 3729   1.596   3.850   9.413 -0.3722  0.0127  0.5533
  246MPD1    C2 3730   1.721   3.805   9.375  0.4161 -0.9171  0.5590
  246MPD1    C3 3731   1.789   3.879   9.284 -0.4224 -0.3494 -0.2461
  246MPD1    C4 3732   1.743   4.001   9.247 -0.7052  0.3742  0.0643
  246MPD1    C5 3733   1.619   4.049   9.287 -0.0463  0.4144 -0.3143
  246MPD1     H 3734   1.758   3.712   9.416 -0.8637 -1.6883 -0.0110
  246MPD1    H1 3735   1.791   4.053   9.165 -0.1746 -0.9130 -0.4415
  246MPD1    H2 3736   1.445   3.998   9.398 -0.0606  1.0167 -0.6151
  246MPD1    H3 3737   1.580   4.138   9.240 -0.5479  0.8910  1.0069
  246MPD1     N 3738   1.910   3.820   9.228 -0.0665 -0.0365  0.8055
  246MPD1    H5 3739   1.931   3.722   9.247  0.3962  0.3404  2.2501
  246MPD1    N1 3740   1.533   3.772   9.514  0.2400  0.1852  0.1244
  246MPD1    H6 3741   1.561   3.675   9.510 -1.4831 -0.2072 -2.4549
  246MPD1    H7 3742   1.431   3.778   9.513  0.0924 -2.5045  1.2326
  247MPD1     C 3743   2.154   1.978  17.183 -0.1855  0.3562 -0.0398
  247MPD1    C1 3744   2.170   2.089  17.103 -0.1887  0.7279 -0.2709
  247MPD1    C2 3745   2.126   2.075  16.971 -0.0135 -0.5009  0.3283
  247MPD1    C3 3746   2.068   1.962  16.921  0.5352 -0.2558 -0.3304
  247MPD1    C4 3747   2.042   1.863  17.009 -0.2058  0.1133 -0.3612
  247MPD1    C5 3748   2.088   1.868  17.132 -0.0435  0.4847 -0.0700
  247MPD1     H 3749   2.144   2.158  16.903  0.1917 -1.7899 -1.1885
  247MPD1    H1 3750   1.999   1.773  16.969 -0.8591  0.3426 -0.1887
  247MPD1    H2 3751   2.208   1.968  17.277  0.9929 -0.9618 -0.8591
  247MPD1    H3 3752   2.084   1.775  17.188  1.4577 -0.2175 -1.1126
  247MPD1     N 3753   2.035   1.944  16.790 -0.2942  0.3366  0.3862
  247MPD1    H5 3754   1.977   1.864  16.768  0.5747  0.2498 -1.5494
  247MPD1    N1 3755   2.248   2.200  17.138 -0.0727 -0.2767  0.1148
  247MPD1    H6 3756   2.221   2.219  17.235 -1.3380 -0.9652 -0.0932
  247MPD1    H7 3757   2.216   2.279  17.081  1.8117  1.1001  0.9718
  248MPD1     C 3758   3.305   2.411  17.219 -0.5574  0.1416  0.4872
  248MPD1    C1 3759   3.269   2.288  17.272 -1.1335  0.4509  0.2685
  248MPD1    C2 3760   3.232   2.288  17.405 -0.4781  0.4043 -0.3915
  248MPD1    C3 3761   3.265   2.390  17.491  0.3754 -1.0268  0.3413
  248MPD1    C4 3762   3.329   2.498  17.436  0.1815  0.6880  0.6149
  248MPD1    C5 3763   3.349   2.512  17.301  0.2419 -0.6794 -0.6827
  248MPD1     H 3764   3.202   2.196  17.454 -1.5457 -0.1636 -2.1162
  248MPD1    H1 3765   3.345   2.590  17.490  0.5727  0.8481  0.2274
  248MPD1    H2 3766   3.317   2.417  17.111  2.6737  0.6078  0.8604
  248MPD1    H3 3767   3.387   2.603  17.256  0.0397  0.1938  0.8872
  248MPD1     N 3768   3.236   2.375  17.626  0.5533 -0.0532 -0.0506
  248MPD1    H5 3769   3.188   2.289  17.651 -0.3814  0.6251  0.5081
  248MPD1    N1 3770   3.224   2.176  17.197  0.2765  0.7557  0.1420
  248MPD1    H6 3771   3.270   2.152  17.110 -2.0295 -1.2111 -0.5397
  248MPD1    H7 3772   3.219   2.094  17.257  1.5792  3.2963  3.7663
  249MPD1     C 3773   3.164   0.430   9.976  0.6064  0.4063  0.6464
  249MPD1    C1 3774   3.274   0.518   9.956 -0.8082  0.4484  0.2195
  249MPD1    C2 3775   3.284   0.597   9.847  0.0003  0.2059 -0.2949
  249MPD1    C3 3776   3.183   0.601   9.756  0.0846  0.1286  0.5084
  249MPD1    C4 3777   3.083   0.502   9.767 -0.4059  0.7318 -0.1306
  249MPD1    C5 3778   3.078   0.420   9.875 -0.1497  0.8069 -0.5945
  249MPD1     H 3779   3.362   0.670   9.832 -1.0214  1.3187 -0.2192
  249MPD1    H1 3780   3.003   0.509   9.695 -1.6232  1.3106  1.2968
  249MPD1    H2 3781   3.152   0.386  10.074  0.3437 -1.9950 -0.4863
  249MPD1    H3 3782   2.989   0.357   9.877  1.0902 -0.9093  0.7036
  249MPD1     N 3783   3.192   0.706   9.660  0.3068 -0.5538  0.1438
  249MPD1    H5 3784   3.268   0.772   9.670  0.4735 -0.8058  0.5504
  249MPD1    N1 3785   3.377   0.524  10.053  0.1340  0.3598  0.0544
  249MPD1    H6 3786   3.331   0.507  10.142  0.1773 -0.8910 -0.1568
  249MPD1    H7 3787   3.425   0.614  10.057  1.9698 -0.5363 -1.7940
  250MPD2     C 3788   0.157   1.247  13.071 -0.4380  0.3568  0.0200
  250MPD2    C1 3789   0.149   1.258  12.937 -0.6650 -0.2294  0.0398
  250MPD2    C2 3790   0.072   1.164  12.870  0.3261  0.4755 -0.2758
  250MPD2    C3 3791   0.017   1.053  12.940 -0.6912 -0.3275  0.1794
  250MPD2    C4 3792   0.024   1.048  13.072  0.2606 -0.1732 -0.0467
  250MPD2    C5 3793   0.100   1.142  13.139  0.1995 -1.1175  0.0955
  250MPD2     H 3794   0.063   1.170  12.762 -1.0021  1.2326 -0.1316
  250MPD2    H1 3795   4.695   0.972  13.133  0.9849  0.3524  1.1919
  250MPD2    H2 3796   0.219   1.314  13.129 -0.1629 -0.2393  0.4122
  250MPD2    H3 3797   0.124   1.126  13.243 -0.4225 -2.8142 -0.0229
  250MPD2     N 3798   4.679   0.943  12.870  0.7490 -0.0405  0.3693
  250MPD2    H5 3799   4.640   0.868  12.926 -0.2097  2.0875  2.5210
  250MPD2    N1 3800   0.221   1.365  12.883  0.8514 -0.4412 -0.5144
  250MPD2    H7 3801   0.281   1.419  12.944 -0.2352  0.2148 -0.0244
  251TMC3    C1 3802   0.312   1.490  12.706  0.1415 -0.4804  0.9168
  251TMC3    C2 3803   0.261   1.611  12.667 -0.4945 -0.3526  0.7550
  251TMC3    C3 3804   0.326   1.735  12.683 -0.2695  0.6016 -0.4512
  251TMC3    C4 3805   0.432   1.485  12.770  0.7895  0.2062 -0.3945
  251TMC3    C5 3806   0.502   1.605  12.775  0.6938  0.1123  0.1416
  251TMC3    C6 3807   0.452   1.731  12.734 -0.2026 -0.5438  0.4622
  251TMC3     C 3808   0.211   1.401  12.752  0.8767 -0.5793  0.1682
  251TMC3     O 3809   0.132   1.368  12.667 -0.4122  0.1444  0.2756
  251TMC3     H 3810   0.168   1.609  12.612  1.5960  2.1940 -2.8369
  251TMC3    H1 3811   0.463   1.393  12.818  1.1939  0.5448  0.0037
  251TMC3    H2 3812   0.503   1.824  12.754 -1.5441 -0.1447  1.9754
  251TMC3    C7 3813   0.645   1.590  12.812 -0.1351  0.4507 -0.3529
  251TMC3    C8 3814   0.251   1.828  12.770 -0.4623  0.9389 -0.0597
  251TMC3    O1 3815   0.686   1.491  12.868 -0.2984  0.0162  0.0170
  251TMC3    O2 3816   0.310   1.862  12.874  0.1491  0.3377  0.0998
  252TMC3    C1 3817   0.921   1.121   9.230 -0.4410 -0.5323 -0.2871
  252TMC3    C2 3818   1.034   1.167   9.163 -0.5882  1.0371 -0.6999
  252TMC3    C3 3819   1.109   1.254   9.231 -0.5477 -0.0474 -0.2155
  252TMC3    C4 3820   0.868   1.188   9.336  0.5439 -0.6207 -0.3080
  252TMC3    C5 3821   0.945   1.276   9.406  0.4746  0.0342 -0.7216
  252TMC3    C6 3822   1.071   1.304   9.353 -0.1321  0.2622 -0.7129
  252TMC3     C 3823   0.856   1.009   9.176  1.1596 -0.7239 -0.3056
  252TMC3     O 3824   0.857   0.989   9.056  0.2065 -0.2078  0.3228
  252TMC3     H 3825   1.078   1.110   9.081  0.2088  0.0730  0.3884
  252TMC3    H1 3826   0.775   1.154   9.379  0.0080  1.5224  0.2605
  252TMC3    H2 3827   1.130   1.379   9.403  0.5999 -0.9381  0.2222
  252TMC3    C7 3828   0.910   1.342   9.526 -0.0036  0.0987  0.3856
  252TMC3    C8 3829   1.245   1.274   9.184 -0.1462 -0.4114  0.2389
  252TMC3    O1 3830   0.990   1.428   9.568  0.1682  0.0246  0.4908
  252TMC3    O2 3831   1.287   1.206   9.090 -0.2153 -0.4843 -0.7179
  253MPD2     C 3832   1.977   1.539  15.228 -0.0976 -0.4397  0.0773
  253MPD2    C1 3833   1.848   1.497  15.236  0.1058  0.1511 -0.1860
  253MPD2    C2 3834   1.827   1.372  15.287 -0.3532 -0.4314 -0.4815
  253MPD2    C3 3835   1.927   1.298  15.347  0.2788 -0.5617  0.4257
  253MPD2    C4 3836   2.056   1.351  15.345 -0.2312 -0.4721 -0.3769
  253MPD2    C5 3837   2.080   1.461  15.271 -0.2760  0.5004 -0.2256
  253MPD2     H 3838   1.727   1.331  15.288 -0.4257 -0.2155  0.8457
  253MPD2    H1 3839   2.144   1.312  15.395 -0.8104 -0.0687  0.9541
  253MPD2    H2 3840   2.002   1.626  15.169  1.6733  0.3153  1.9655
  253MPD2    H3 3841   2.180   1.495  15.245 -0.1393 -1.5629 -2.3375
  253MPD2     N 3842   1.898   1.187  15.434 -0.1913  0.1310 -1.0492
  253MPD2    H5 3843   1.974   1.141  15.483  0.0230  0.9428 -0.6076
  253MPD2    N1 3844   1.738   1.566  15.183 -0.2231  0.0592 -1.1996
  253MPD2    H7 3845   1.655   1.511  15.200  0.7671 -0.6258  1.3390
  254TMC3    C1 3846   1.765   1.072  15.603  0.6577  0.2349  0.7585
  254TMC3    C2 3847   1.648   1.022  15.636  0.2705 -0.4119  0.4604
  254TMC3    C3 3848   1.638   0.937  15.741 -0.2322 -0.3534 -0.3075
  254TMC3    C4 3849   1.877   1.061  15.678  0.0729 -0.1379  0.0375
  254TMC3    C5 3850   1.865   0.971  15.778  0.7926  0.4112  0.2334
  254TMC3    C6 3851   1.751   0.901  15.803  0.1539  0.2918  0.3659
  254TMC3     C 3852   1.770   1.149  15.475  0.6990  0.1751 -0.0012
  254TMC3     O 3853   1.659   1.188  15.437  0.3536 -0.3054 -0.7463
  254TMC3     H 3854   1.559   1.047  15.579  2.3065  2.3634 -1.5070
  254TMC3    H1 3855   1.968   1.118  15.662  1.0720 -1.1633  2.0788
  254TMC3    H2 3856   1.745   0.827  15.882  2.0525 -0.2943 -0.0399
  254TMC3    C7 3857   1.982   0.931  15.862  0.7551 -0.7644 -0.4746
  254TMC3    C8 3858   1.536   0.943  15.839 -0.9421 -0.0861  0.6887
  254TMC3    O1 3859   1.976   0.831  15.933 -0.4410  0.3362  0.7951
  254TMC3    O2 3860   1.564   0.932  15.960 -0.3336  0.0988  0.4342
  255MPD2     C 3861   4.441   3.014   9.939 -0.7711  0.2313  0.5531
  255MPD2    C1 3862   4.577   3.037   9.942 -0.1765 -0.3826  0.7931
  255MPD2    C2 3863   4.660   2.929   9.923  0.4781  0.3684 -0.2876
  255MPD2    C3 3864   4.623   2.799   9.924 -0.1830 -0.4671  0.1674
  255MPD2    C4 3865   4.485   2.780   9.921  0.4665 -0.6892  0.1983
  255MPD2    C5 3866   4.397   2.886   9.926 -0.5066  0.1886  0.3856
  255MPD2     H 3867   0.047   2.940   9.934  0.2948  0.4144  1.4832
  255MPD2    H1 3868   4.438   2.683   9.930  0.1250 -0.3816  1.8828
  255MPD2    H2 3869   4.376   3.100   9.953  0.1360  1.0156 -0.0145
  255MPD2    H3 3870   4.294   2.855   9.935 -0.4233 -0.1480  0.1947
  255MPD2     N 3871   0.004   2.695   9.920  0.1451 -0.7291 -0.2887
  255MPD2    H5 3872   0.101   2.725   9.924  0.2008 -0.9888  0.3398
  255MPD2    N1 3873   4.621   3.171   9.967 -0.0711 -0.0907 -0.0388
  255MPD2    H7 3874   4.539   3.231   9.959 -0.4587 -0.2854  2.4166
  256TMC3    C1 3875   0.045   3.359   9.952 -0.1466  0.1589 -0.6147
  256TMC3    C2 3876   0.158   3.390   9.874 -0.2761 -0.0678 -0.4988
  256TMC3    C3 3877   0.139   3.452   9.753  0.1262  0.4835 -0.5821
  256TMC3    C4 3878   4.645   3.418   9.921 -0.7181  0.2190 -0.1389
  256TMC3    C5 3879   4.631   3.487   9.802 -0.2680 -0.8413 -0.0265
  256TMC3    C6 3880   0.013   3.491   9.710 -0.3597  0.1755 -0.0189
  256TMC3     C 3881   0.027   3.219   9.991 -0.8599 -0.1423  0.2455
  256TMC3     O 3882   0.125   3.156  10.025  0.1617 -0.1556 -0.0278
  256TMC3     H 3883   0.257   3.351   9.897 -0.6772 -0.3725  0.7334
  256TMC3    H1 3884   4.559   3.412   9.987  0.0024 -2.3301  0.5620
  256TMC3    H2 3885   4.712   3.540   9.616  2.1268  0.9107 -0.1973
  256TMC3    C7 3886   4.506   3.435   9.743  0.1355  0.4643 -0.4517
  256TMC3    C8 3887   0.232   3.409   9.651  1.3075 -0.4524  0.4655
  256TMC3    O1 3888   4.449   3.343   9.801  0.5642 -0.2785  0.8576
  256TMC3    O2 3889   0.279   3.297   9.660  0.0280  0.0151  0.3585
  257MPD2     C 3890   4.011   1.266  12.931 -0.1563  0.0994  0.2355
  257MPD2    C1 3891   3.985   1.150  12.854  0.5685 -0.1072 -0.1387
  257MPD2    C2 3892   4.003   1.027  12.913  0.1891 -0.3638 -0.3407
  257MPD2    C3 3893   4.042   1.013  13.045 -0.3944 -0.0897 -0.9228
  257MPD2    C4 3894   4.043   1.126  13.123  0.4895  0.0495 -0.0855
  257MPD2    C5 3895   4.032   1.248  13.068  0.0193  0.2399  0.7363
  257MPD2     H 3896   3.988   0.939  12.851  0.8762  0.5330 -1.7754
  257MPD2    H1 3897   4.069   1.125  13.228 -0.8313  0.6068  0.2474
  257MPD2    H2 3898   4.007   1.367  12.892  1.0609 -0.7590 -2.1464
  257MPD2    H3 3899   4.036   1.330  13.139 -2.9200  0.6678  0.3824
  257MPD2     N 3900   4.074   0.886  13.087  0.4229  0.3633 -0.2375
  257MPD2    H5 3901   4.069   0.813  13.016  2.2687 -0.5645  0.5591
  257MPD2    N1 3902   3.951   1.171  12.727 -0.6161 -0.1184 -0.0431
  257MPD2    H7 3903   3.941   1.269  12.702  1.1987  0.1091  0.1797
  258TMC3    C1 3904   4.095   0.702  13.237  0.1279 -0.1615  0.1689
  258TMC3    C2 3905   4.055   0.616  13.140 -0.0085 -0.2703  0.0277
  258TMC3    C3 3906   4.118   0.489  13.135  0.1103  0.1040  0.0651
  258TMC3    C4 3907   4.184   0.666  13.338  0.1442 -0.3090 -0.0222
  258TMC3    C5 3908   4.248   0.549  13.319 -0.1804 -0.5831 -0.5408
  258TMC3    C6 3909   4.211   0.449  13.231 -0.8915 -0.6857 -0.7609
  258TMC3     C 3910   4.085   0.847  13.220  0.6375  0.0356 -0.3595
  258TMC3     O 3911   4.080   0.916  13.324  0.5864  0.2942 -0.5637
  258TMC3     H 3912   3.974   0.638  13.071 -0.2152  1.1986  0.7416
  258TMC3    H1 3913   4.214   0.746  13.404 -0.5953 -0.9523  1.0838
  258TMC3    H2 3914   4.244   0.346  13.234 -0.9637 -0.7366 -1.8503
  258TMC3    C7 3915   4.313   0.501  13.440 -0.4902 -0.6320  0.1606
  258TMC3    C8 3916   4.025   0.383  13.095 -0.7920  0.0777  0.2846
  258TMC3    O1 3917   4.400   0.417  13.421 -0.7168  0.2530 -0.3988
  258TMC3    O2 3918   4.015   0.281  13.164 -0.5420 -1.2773  0.4878
  259MPD2     C 3919   3.888   2.694   0.831  0.3203 -0.2336  0.7549
  259MPD2    C1 3920   3.848   2.568   0.872 -0.0202 -0.3554  0.6430
  259MPD2    C2 3921   3.928   2.461   0.825 -1.2862 -0.0194 -0.0602
  259MPD2    C3 3922   4.031   2.475   0.742  0.4974 -0.6355 -0.1825
  259MPD2    C4 3923   4.050   2.599   0.679  0.2157  0.4927  0.4457
  259MPD2    C5 3924   3.985   2.703   0.729  0.2676  0.5792  0.4902
  259MPD2     H 3925   3.901   2.361   0.855  1.0207 -1.1080 -1.7048
  259MPD2    H1 3926   4.121   2.609   0.599 -1.3059  2.1300 -0.6973
  259MPD2    H2 3927   3.836   2.783   0.866  0.2655 -0.2186  0.6355
  259MPD2    H3 3928   4.007   2.802   0.692 -2.0663  1.0225  0.3204
  259MPD2     N 3929   4.110   2.359   0.711 -0.3738 -0.1440 -0.2009
  259MPD2    H5 3930   4.085   2.274   0.760 -2.5552  0.5712 -0.0442
  259MPD2    N1 3931   3.734   2.566   0.953 -0.1046  1.1913 -1.0006
  259MPD2    H7 3932   3.704   2.657   0.987  1.1797  0.2958  2.5747
  260TMC3    C1 3933   4.273   2.216   0.620 -0.0783 -1.0088 -0.5771
  260TMC3    C2 3934   4.405   2.195   0.593 -0.2289  0.3017  0.7851
  260TMC3    C3 3935   4.445   2.068   0.551  0.1667  0.1288 -0.4370
  260TMC3    C4 3936   4.178   2.118   0.597  0.5393  1.1172  0.2730
  260TMC3    C5 3937   4.218   2.000   0.560  0.0634 -0.4538 -0.2249
  260TMC3    C6 3938   4.348   1.970   0.533  0.1607 -0.2368  0.1671
  260TMC3     C 3939   4.224   2.353   0.632  0.2042 -0.8103  0.2171
  260TMC3     O 3940   4.298   2.439   0.579  0.2675  0.8934 -0.0108
  260TMC3     H 3941   4.475   2.277   0.606  0.6561 -0.1735 -1.0055
  260TMC3    H1 3942   4.072   2.141   0.601  0.6901  1.6146  1.6684
  260TMC3    H2 3943   4.378   1.875   0.491 -0.5511 -0.3802 -0.0214
  260TMC3    C7 3944   4.115   1.920   0.488 -0.1320 -0.0904 -0.1907
  260TMC3    C8 3945   4.548   2.062   0.451  0.1850  0.1462 -0.6093
  260TMC3    O1 3946   4.163   1.874   0.380 -0.1824  0.2926 -0.0302
  260TMC3    O2 3947   4.655   2.117   0.478  0.7031  0.7103 -0.1064
  261MPD2     C 3948   4.326   0.621  12.127  0.4869 -0.6504  0.0587
  261MPD2    C1 3949   4.403   0.727  12.184 -0.2495 -0.2773  0.7103
  261MPD2    C2 3950   4.441   0.837  12.098  0.0859 -0.5190 -0.0985
  261MPD2    C3 3951   4.419   0.835  11.957  0.1135  0.1929  0.0100
  261MPD2    C4 3952   4.350   0.727  11.917 -0.4392 -0.1819  0.1917
  261MPD2    C5 3953   4.294   0.628  11.996 -0.0512  0.1808  0.5250
  261MPD2     H 3954   4.515   0.909  12.131 -0.1628  0.0911 -0.8593
  261MPD2    H1 3955   4.320   0.725  11.813  0.6359 -0.3087 -0.1145
  261MPD2    H2 3956   4.299   0.537  12.189 -2.3430  0.0129 -0.3092
  261MPD2    H3 3957   4.232   0.556  11.944  2.2654 -1.7162  0.3999
  261MPD2     N 3958   4.470   0.943  11.885 -0.1415 -0.9518 -0.7682
  261MPD2    H5 3959   4.483   1.018  11.952  3.2795 -2.2998  0.0933
  261MPD2    N1 3960   4.455   0.731  12.317 -0.4897  0.2626 -0.1071
  261MPD2    H7 3961   4.539   0.785  12.336  0.3670 -0.8987 -0.5765
  262TMC3    C1 3962   4.538   1.073  11.700  0.9639 -0.4462  0.2476
  262TMC3    C2 3963   4.516   1.178  11.786 -0.4350 -0.7247 -0.3095
  262TMC3    C3 3964   4.588   1.292  11.778 -0.2081 -0.9628 -0.3466
  262TMC3    C4 3965   4.642   1.073  11.617  0.0254  0.4601 -1.2839
  262TMC3    C5 3966   4.711   1.191  11.611 -0.1471  0.2030 -0.2064
  262TMC3    C6 3967   4.690   1.296  11.696  0.0814 -0.1398  0.0129
  262TMC3     C 3968   4.501   0.945  11.751 -1.2585 -0.0882  0.4731
  262TMC3     O 3969   4.512   0.845  11.677  0.8950  0.0413  0.6002
  262TMC3     H 3970   4.423   1.183  11.842 -0.6518 -0.4176 -0.6892
  262TMC3    H1 3971   4.663   0.994  11.546  0.6287  0.3806 -1.0143
  262TMC3    H2 3972   0.043   1.376  11.696 -1.5166  1.3175 -1.5549
  262TMC3    C7 3973   0.040   1.231  11.477  0.6258 -0.4446 -0.4683
  262TMC3    C8 3974   4.528   1.428  11.779  0.7514 -0.6218  0.0828
  262TMC3    O1 3975   0.077   1.142  11.402 -0.3366  0.6848  0.3986
  262TMC3    O2 3976   4.585   1.508  11.714  0.1786  0.0712 -0.0482
  263MPD2     C 3977   0.731   0.001  10.971 -0.2705 -0.8652  0.1007
  263MPD2    C1 3978   0.740   0.139  10.994  0.0902 -0.5751  0.7701
  263MPD2    C2 3979   0.735   0.219  10.883 -0.7351 -0.6118  0.8243
  263MPD2    C3 3980   0.729   0.173  10.755  0.1115 -1.0839 -0.2545
  263MPD2    C4 3981   0.728   0.032  10.730 -0.7657 -0.3908  0.3981
  263MPD2    C5 3982   0.726   4.672  10.840  0.2979  0.0899 -0.0688
  263MPD2     H 3983   0.739   0.326  10.903 -2.0867 -0.7673  1.8848
  263MPD2    H1 3984   0.700   0.000  10.630  0.2781 -0.0392 -0.0090
  263MPD2    H2 3985   0.721   4.645  11.048 -1.4529 -0.5557  0.2597
  263MPD2    H3 3986   0.708   4.565  10.838 -0.0674  0.1123  1.9903
  263MPD2     N 3987   0.708   0.271  10.661 -0.2923 -1.0738  0.3058
  263MPD2    H5 3988   0.680   0.359  10.704  2.3830  0.2331 -0.5860
  263MPD2    N1 3989   0.758   0.182  11.128 -0.1361  0.7289 -0.1807
  263MPD2    H7 3990   0.763   0.105  11.193  1.1446  0.9199 -0.0554
  264TMC3    C1 3991   0.687   0.391  10.460 -0.5903  0.2536 -0.1160
  264TMC3    C2 3992   0.626   0.497  10.521 -0.1710 -0.9352  0.1886
  264TMC3    C3 3993   0.615   0.615  10.449  0.7710  0.4948  0.2563
  264TMC3    C4 3994   0.741   0.407  10.337 -0.3449 -0.0229  0.4414
  264TMC3    C5 3995   0.729   0.524  10.263  0.1582 -0.1030  0.2999
  264TMC3    C6 3996   0.651   0.626  10.315  0.8165  0.6793  0.0381
  264TMC3     C 3997   0.707   0.260  10.525 -0.3495  0.5459  0.6679
  264TMC3     O 3998   0.721   0.156  10.460 -0.2545  0.6487 -0.1848
  264TMC3     H 3999   0.595   0.506  10.624  0.2443  1.2574  0.1159
  264TMC3    H1 4000   0.796   0.328  10.288 -0.7893  0.9038 -1.5520
  264TMC3    H2 4001   0.639   0.717  10.257 -1.4116  1.3459  1.5261
  264TMC3    C7 4002   0.853   0.565  10.205  0.3877  0.0518  0.3281
  264TMC3    C8 4003   0.664   0.738  10.520  0.0433 -0.4631 -0.3586
  264TMC3    O1 4004   0.925   0.475  10.166  0.6238 -0.2012 -0.0199
  264TMC3    O2 4005   0.733   0.814  10.456  0.3412 -0.0711  0.0903
  265MPD2     C 4006   2.866   0.893  15.326 -0.2982  0.0692  0.6363
  265MPD2    C1 4007   2.983   0.971  15.328  0.1344 -0.2481  0.2794
  265MPD2    C2 4008   3.089   0.931  15.247  0.3599 -0.5501  0.0679
  265MPD2    C3 4009   3.083   0.819  15.170 -0.2336 -0.1740 -0.2750
  265MPD2    C4 4010   2.966   0.752  15.163 -0.6415  0.5204  0.0325
  265MPD2    C5 4011   2.861   0.787  15.241  0.5377  0.2165 -0.0154
  265MPD2     H 4012   3.182   0.987  15.254 -0.3965  0.4714  1.9471
  265MPD2    H1 4013   2.948   0.664  15.103  2.5183  1.0548 -1.6453
  265MPD2    H2 4014   2.777   0.892  15.388  1.8881 -1.3728  3.7541
  265MPD2    H3 4015   2.778   0.718  15.232 -1.4199  2.7112 -1.0132
  265MPD2     N 4016   3.186   0.773  15.083 -0.0044 -0.1307  0.2339
  265MPD2    H5 4017   3.164   0.693  15.024 -1.5933  0.5577 -0.1175
  265MPD2    N1 4018   2.997   1.079  15.415 -0.4059  0.4937  0.1737
  265MPD2    H7 4019   3.091   1.114  15.428  0.1291 -0.7940 -0.3453
  266TMC3    C1 4020   2.919   1.248  15.558  0.2664  0.5545  1.1850
  266TMC3    C2 4021   3.027   1.243  15.641 -0.2034  0.5795 -0.0942
  266TMC3    C3 4022   3.048   1.346  15.729 -0.0835  0.7964 -0.7109
  266TMC3    C4 4023   2.829   1.348  15.568  0.3854  0.1710 -0.4495
  266TMC3    C5 4024   2.857   1.449  15.657 -0.5076  0.1584 -0.6277
  266TMC3    C6 4025   2.965   1.448  15.738  0.2138 -0.3086 -0.2840
  266TMC3     C 4026   2.887   1.135  15.469  0.1299 -0.1177 -0.1833
  266TMC3     O 4027   2.769   1.123  15.442 -0.1211  0.3490  0.2375
  266TMC3     H 4028   3.092   1.157  15.632 -1.0179 -0.3222  2.5445
  266TMC3    H1 4029   2.739   1.332  15.509  0.1464 -0.4646  0.0792
  266TMC3    H2 4030   2.984   1.532  15.804  1.8908 -0.7604 -0.1867
  266TMC3    C7 4031   2.764   1.554  15.685  1.0553 -0.5308 -0.6615
  266TMC3    C8 4032   3.153   1.326  15.823 -0.0762 -0.0537 -0.2826
  266TMC3    O1 4033   2.764   1.586  15.802 -0.2614 -0.1079  0.1287
  266TMC3    O2 4034   3.216   1.224  15.809 -0.2861  0.1545  0.4216
  267MPD2     C 4035   1.507   2.622   0.014  0.1221 -0.2707 -0.0207
  267MPD2    C1 4036   1.586   2.690  17.607 -0.3679  0.1895  0.4578
  267MPD2    C2 4037   1.540   2.727  17.477 -0.3406  0.1473  0.0164
  267MPD2    C3 4038   1.421   2.673  17.435 -0.2161  0.2201 -0.0845
  267MPD2    C4 4039   1.355   2.598  17.529  0.0916 -0.1631  0.2181
  267MPD2    C5 4040   1.387   2.575  17.656  0.3908  0.0358  0.0035
  267MPD2     H 4041   1.602   2.783  17.407 -0.3983 -0.4451 -0.5106
  267MPD2    H1 4042   1.262   2.549  17.504  2.0269 -3.2578 -0.8147
  267MPD2    H2 4043   1.551   2.585   0.106  1.1384 -0.1369 -0.4549
  267MPD2    H3 4044   1.322   2.531   0.048 -0.6506 -0.6776 -1.3383
  267MPD2     N 4045   1.362   2.695  17.303 -0.1211 -0.0497  0.1060
  267MPD2    H5 4046   1.283   2.638  17.276  0.0402 -0.6271  0.8564
  267MPD2    N1 4047   1.711   2.733  17.659  0.8935  0.1050  0.2948
  267MPD2    H7 4048   1.730   2.722   0.076 -1.8513 -3.3597  0.4322
  268TMC3    C1 4049   1.924   2.844   0.006 -0.7049 -0.3966 -0.2383
  268TMC3    C2 4050   2.017   2.931  17.633 -0.0120  0.2799 -0.0454
  268TMC3    C3 4051   2.139   2.932   0.007  0.5712 -0.4298 -0.0903
  268TMC3    C4 4052   1.946   2.767   0.115  0.6756 -0.2052 -0.5835
  268TMC3    C5 4053   2.072   2.772   0.171  0.3450 -0.4479  0.0208
  268TMC3    C6 4054   2.172   2.857   0.120 -0.0017 -0.3864 -0.7542
  268TMC3     C 4055   1.810   2.806  17.595 -0.0478  0.6862 -0.0165
  268TMC3     O 4056   1.820   2.848  17.480  0.0270 -0.3302  0.2525
  268TMC3     H 4057   1.994   2.990  17.545 -1.5455  0.5963  0.5707
  268TMC3    H1 4058   1.876   2.696   0.157 -0.3235  0.2895 -1.4147
  268TMC3    H2 4059   2.277   2.853   0.147 -0.7328  1.0835  2.3356
  268TMC3    C7 4060   2.079   2.715   0.305 -0.2133  0.2234 -0.5494
  268TMC3    C8 4061   2.233   3.010  17.626  0.1829  0.2224 -0.0606
  268TMC3    O1 4062   1.976   2.659   0.344 -0.0825  0.6646  0.0321
  268TMC3    O2 4063   2.314   3.060   0.017 -0.3879 -0.3595 -0.3237
  269MPD2     C 4064   0.968   1.672  15.671 -0.3357  0.0938 -0.2479
  269MPD2    C1 4065   0.838   1.670  15.621  0.4369  0.8636  0.4598
  269MPD2    C2 4066   0.792   1.769  15.532 -0.6030  0.0314 -0.0493
  269MPD2    C3 4067   0.875   1.872  15.493 -1.2567 -0.3311  0.5142
  269MPD2    C4 4068   1.003   1.871  15.545 -0.4125  0.1799 -0.0638
  269MPD2    C5 4069   1.051   1.773  15.634 -0.2074 -0.8186  0.1215
  269MPD2     H 4070   0.699   1.745  15.483 -0.1426 -2.8481  0.4225
  269MPD2    H1 4071   1.067   1.954  15.517 -0.1308 -0.1384 -0.3491
  269MPD2    H2 4072   0.998   1.589  15.735  0.6128  0.4716 -0.2013
  269MPD2    H3 4073   1.151   1.778  15.676  0.1972  0.8352 -1.0422
  269MPD2     N 4074   0.825   1.974  15.406 -0.1500 -0.3014  0.3792
  269MPD2    H5 4075   0.725   1.988  15.389  0.4135 -0.9193 -3.3546
  269MPD2    N1 4076   0.760   1.558  15.665  1.4636  0.0705 -0.0019
  269MPD2    H7 4077   0.821   1.490  15.710 -1.2732 -1.5636  1.3382
  270TMC3    C1 4078   0.584   1.379  15.653  0.2154 -0.3402 -0.5241
  270TMC3    C2 4079   0.456   1.352  15.635 -0.0548 -0.7080  0.3925
  270TMC3    C3 4080   0.419   1.222  15.648  0.8344 -0.2481 -0.2291
  270TMC3    C4 4081   0.677   1.287  15.693  0.0028  0.1707 -0.1912
  270TMC3    C5 4082   0.643   1.151  15.710  0.3331 -0.4288  0.7309
  270TMC3    C6 4083   0.511   1.120  15.677  0.6868 -0.5965  0.0267
  270TMC3     C 4084   0.638   1.515  15.610 -0.2279  0.1241 -0.2389
  270TMC3     O 4085   0.552   1.585  15.556 -0.1940 -0.3119 -0.1675
  270TMC3     H 4086   0.383   1.427  15.608 -0.7627 -1.8153 -0.7765
  270TMC3    H1 4087   0.781   1.314  15.704 -0.0177  0.0355  0.3178
  270TMC3    H2 4088   0.471   1.019  15.670  0.6328 -0.5289 -0.5918
  270TMC3    C7 4089   0.735   1.044  15.693 -0.0808  0.3015 -0.4692
  270TMC3    C8 4090   0.332   1.159  15.545  0.7599  0.2914  0.3821
  270TMC3    O1 4091   0.837   1.060  15.625  0.0580 -0.2284 -0.3328
  270TMC3    O2 4092   0.230   1.101  15.579 -0.4655 -0.1761  0.2243
  271MPD2     C 4093   0.126   0.972  13.792 -0.9084  0.7681 -0.4030
  271MPD2    C1 4094   0.060   1.014  13.909  0.7040  0.3107  0.3040
  271MPD2    C2 4095   4.697   1.131  13.898 -0.0365 -0.1206  0.7634
  271MPD2    C3 4096   4.672   1.193  13.772 -0.2970  0.1020  0.3734
  271MPD2    C4 4097   0.013   1.138  13.663 -0.3804  0.1411  0.1070
  271MPD2    C5 4098   0.108   1.034  13.671 -0.8343  0.0899  0.5223
  271MPD2     H 4099   4.655   1.161  13.993  1.9609  0.7247  1.3761
  271MPD2    H1 4100   4.718   1.189  13.568 -0.4634  1.3411  0.7659
  271MPD2    H2 4101   0.192   0.886  13.795 -1.0397  0.7032  0.5406
  271MPD2    H3 4102   0.159   0.996  13.583 -1.0245 -0.1150  0.5004
  271MPD2     N 4103   4.581   1.302  13.751 -0.1602 -0.2484  0.0578
  271MPD2    H5 4104   4.559   1.334  13.657  1.7884  1.0593  0.0539
  271MPD2    N1 4105   0.074   0.953  14.034 -0.3242  0.0394 -0.2077
  271MPD2    H7 4106   0.026   1.000  14.110  4.0739  1.9903  1.3875
  272TMC3    C1 4107   0.170   0.796  14.190 -0.3799  0.2650  0.6722
  272TMC3    C2 4108   0.288   0.748  14.221 -0.3637 -0.1663  0.3272
  272TMC3    C3 4109   0.346   0.763  14.348 -0.3077 -0.1031  0.1555
  272TMC3    C4 4110   0.085   0.834  14.291 -0.0998 -0.1364 -0.0084
  272TMC3    C5 4111   0.137   0.845  14.415 -0.3357 -0.3054 -0.0059
  272TMC3    C6 4112   0.264   0.807  14.454  0.5359 -0.3285 -0.0663
  272TMC3     C 4113   0.162   0.846  14.056 -0.8776 -0.8409 -0.2409
  272TMC3     O 4114   0.251   0.797  13.986  0.5371 -0.2700  0.3847
  272TMC3     H 4115   0.346   0.691  14.150  1.4499  0.3155  1.4101
  272TMC3    H1 4116   4.709   0.879  14.268  0.0717  0.0783 -0.3101
  272TMC3    H2 4117   0.306   0.818  14.553  2.2594 -1.2772 -0.6951
  272TMC3    C7 4118   0.055   0.898  14.518 -0.5372 -0.9096 -0.2214
  272TMC3    C8 4119   0.484   0.735  14.356  0.3484  0.0888 -0.4104
  272TMC3    O1 4120   4.663   0.846  14.531  0.4610  0.3187  0.4916
  272TMC3    O2 4121   0.541   0.732  14.248  0.0806  0.0635 -0.1027
  273MPD2     C 4122   1.466   3.850  12.044  0.3407  0.3767  0.0003
  273MPD2    C1 4123   1.568   3.922  11.993  1.1415 -0.7392  0.5977
  273MPD2    C2 4124   1.559   3.961  11.858  0.2089 -0.1201  0.6537
  273MPD2    C3 4125   1.439   3.947  11.791 -0.3341  0.5424 -0.7131
  273MPD2    C4 4126   1.334   3.884  11.849  0.3680 -0.4378 -0.1760
  273MPD2    C5 4127   1.356   3.823  11.974 -0.6566  0.0520  0.3134
  273MPD2     H 4128   1.652   4.003  11.821 -1.3094  1.0700 -1.8295
  273MPD2    H1 4129   1.243   3.866  11.793  1.6806 -1.3736 -2.0069
  273MPD2    H2 4130   1.451   3.804  12.142 -0.4238  1.5929  0.4504
  273MPD2    H3 4131   1.270   3.772  12.015 -2.1913  1.9436 -0.5542
  273MPD2     N 4132   1.416   3.976  11.655 -0.4766  0.2719 -0.2729
  273MPD2    H5 4133   1.323   3.960  11.617 -1.0666  1.9614  0.4210
  273MPD2    N1 4134   1.684   3.957  12.070 -0.0978 -0.7396  0.4081
  273MPD2    H7 4135   1.758   4.001  12.016  0.9215 -2.2508  0.5776
  274TMC3    C1 4136   1.439   4.114  11.468 -0.2776 -0.4008  0.4763
  274TMC3    C2 4137   1.363   4.040  11.383  0.2351 -0.5700 -1.4061
  274TMC3    C3 4138   1.331   4.094  11.265  0.0005  0.2100  0.0802
  274TMC3    C4 4139   1.477   4.245  11.442 -0.2777  0.5647  0.5259
  274TMC3    C5 4140   1.427   4.303  11.329  0.2371  0.8051  0.1335
  274TMC3    C6 4141   1.351   4.228  11.238 -0.1027 -0.4217  0.0415
  274TMC3     C 4142   1.505   4.051  11.577  0.4245  0.3105  0.0335
  274TMC3     O 4143   1.619   4.091  11.605  0.3770  0.5407  0.0748
  274TMC3     H 4144   1.362   3.933  11.400 -1.5634 -0.5585 -1.3827
  274TMC3    H1 4145   1.528   4.305  11.516  0.9421 -0.1055  0.2416
  274TMC3    H2 4146   1.291   4.280  11.164 -0.0969  0.6714  0.8221
  274TMC3    C7 4147   1.372   4.444  11.348  0.7056 -0.1938  0.4354
  274TMC3    C8 4148   1.262   4.013  11.170  0.6470  0.7551  0.4413
  274TMC3    O1 4149   1.266   4.476  11.297  0.3008 -0.0236 -0.3810
  274TMC3    O2 4150   1.205   3.912  11.206  0.6008  0.1770 -0.2439
  275MPD2     C 4151   1.306   1.945  14.233 -0.4476 -0.1961  0.1804
  275MPD2    C1 4152   1.229   2.057  14.216  0.1130  1.0474  0.1935
  275MPD2    C2 4153   1.096   2.044  14.179  0.1247  0.0325 -0.1990
  275MPD2    C3 4154   1.040   1.923  14.150 -0.0805 -0.3719 -0.2205
  275MPD2    C4 4155   1.121   1.807  14.160 -0.6519  0.4494  0.3807
  275MPD2    C5 4156   1.249   1.823  14.194  0.2679 -0.2868  0.1803
  275MPD2     H 4157   1.037   2.135  14.168 -1.0267 -0.8020 -1.0080
  275MPD2    H1 4158   1.085   1.709  14.131  0.9381 -0.1154  0.3613
  275MPD2    H2 4159   1.411   1.942  14.260 -0.9786  0.3811  2.3174
  275MPD2    H3 4160   1.317   1.738  14.188 -0.2647 -0.6005 -1.2899
  275MPD2     N 4161   0.905   1.909  14.103  0.1866 -0.0346  0.3734
  275MPD2    H5 4162   0.880   1.816  14.072  0.2059 -0.6885  2.3392
  275MPD2    N1 4163   1.274   2.184  14.263 -0.2719 -0.1895  0.3615
  275MPD2    H7 4164   1.213   2.264  14.248  1.5286  1.2099  0.4462
  276TMC3    C1 4165   1.396   2.329  14.401 -0.4574  0.1243  0.4758
  276TMC3    C2 4166   1.271   2.384  14.430 -0.1872  0.0473  0.5544
  276TMC3    C3 4167   1.261   2.472  14.533 -0.1094  0.0413 -0.0141
  276TMC3    C4 4168   1.508   2.359  14.470 -1.0163 -0.2623 -0.0832
  276TMC3    C5 4169   1.496   2.441  14.578  0.0911 -0.3644  0.2800
  276TMC3    C6 4170   1.376   2.506  14.605 -0.0136 -0.0241 -0.0009
  276TMC3     C 4171   1.399   2.211  14.319 -0.6826  0.1696 -0.1509
  276TMC3     O 4172   1.503   2.150  14.309 -0.0523 -0.6239  0.8068
  276TMC3     H 4173   1.177   2.346  14.391  0.1692 -1.5798  1.3026
  276TMC3    H1 4174   1.603   2.326  14.430 -0.4063 -0.1894  1.2871
  276TMC3    H2 4175   1.358   2.569  14.692  0.2062  1.9805 -1.4182
  276TMC3    C7 4176   1.577   2.425  14.695 -0.0894  0.1039  0.0480
  276TMC3    C8 4177   1.155   2.413  14.613 -0.7010  0.1444  0.0210
  276TMC3    O1 4178   1.563   2.502  14.790  0.0833 -0.3341  0.6955
  276TMC3    O2 4179   1.040   2.415  14.573  0.1047  0.1996 -0.0853
  277MPD2     C 4180   3.448   0.423  12.845 -0.3467  0.0965  0.4474
  277MPD2    C1 4181   3.329   0.395  12.898 -0.3383 -0.2922 -0.0856
  277MPD2    C2 4182   3.316   0.326  13.019  0.2434  0.0278 -1.0645
  277MPD2    C3 4183   3.429   0.288  13.081 -0.3611  0.0788 -0.1766
  277MPD2    C4 4184   3.550   0.320  13.026 -0.4463  0.6715  0.2112
  277MPD2    C5 4185   3.561   0.389  12.910  0.7517 -0.1689  0.0110
  277MPD2     H 4186   3.213   0.313  13.051  0.5813  1.0863  0.4624
  277MPD2    H1 4187   3.646   0.289  13.067  0.1635 -0.4787 -2.0822
  277MPD2    H2 4188   3.468   0.470  12.750 -1.2368  1.5593  0.9766
  277MPD2    H3 4189   3.658   0.411  12.869  0.3858 -0.5181 -1.0370
  277MPD2     N 4190   3.425   0.238  13.207  0.2424 -0.1742  0.2844
  277MPD2    H5 4191   3.496   0.270  13.272  2.9134  0.9979 -3.2287
  277MPD2    N1 4192   3.222   0.447  12.826  0.3564 -0.5250 -0.4569
  277MPD2    H7 4193   3.251   0.501  12.745 -0.7861  0.9909  0.1489
  278TMC3    C1 4194   3.272   0.223  13.397 -0.2805  0.1534 -0.0592
  278TMC3    C2 4195   3.210   0.128  13.471  0.0859 -0.2830  0.0423
  278TMC3    C3 4196   3.086   0.153  13.522 -0.2233 -0.1451 -0.0014
  278TMC3    C4 4197   3.213   0.347  13.379 -0.3559 -0.3317 -0.0072
  278TMC3    C5 4198   3.106   0.374  13.458 -0.2021 -0.0906  0.3339
  278TMC3    C6 4199   3.033   0.279  13.525 -0.7509 -0.1367  0.3431
  278TMC3     C 4200   3.312   0.175  13.263 -0.3414  0.3776  0.3590
  278TMC3     O 4201   3.235   0.092  13.213  0.1682  0.3047  0.4892
  278TMC3     H 4202   3.254   0.030  13.463  0.3477 -0.0866 -0.9202
  278TMC3    H1 4203   3.280   0.424  13.343 -1.0105 -0.6932 -2.0158
  278TMC3    H2 4204   2.958   0.304  13.599 -0.9124  2.5410 -0.6987
  278TMC3    C7 4205   3.057   0.513  13.459  0.0846  0.3830  0.0075
  278TMC3    C8 4206   3.013   0.034  13.576 -0.2061  0.2060  0.0128
  278TMC3    O1 4207   3.127   0.601  13.417  0.1448  0.5736 -0.3972
  278TMC3    O2 4208   3.081   4.659  13.612  0.1351  0.2388  0.4919
  279MPD2     C 4209   3.006   1.161   0.319  0.5585  0.3600 -0.9019
  279MPD2    C1 4210   2.928   1.053   0.280 -0.0990  0.5143 -0.0880
  279MPD2    C2 4211   2.935   1.015   0.148  0.3235 -0.4954 -0.2814
  279MPD2    C3 4212   3.005   1.097   0.051  0.1563  1.1766  0.0650
  279MPD2    C4 4213   3.084   1.200   0.096  0.3107 -0.3851  0.6202
  279MPD2    C5 4214   3.086   1.224   0.236 -0.1794 -0.1880  0.7932
  279MPD2     H 4215   2.881   0.930   0.109  2.5120 -0.3996 -3.4738
  279MPD2    H1 4216   3.144   1.262   0.030 -1.2716  0.7476  0.2260
  279MPD2    H2 4217   3.007   1.194   0.422 -0.5787  1.3487 -1.2052
  279MPD2    H3 4218   3.137   1.312   0.274  1.1655 -0.5594 -0.1444
  279MPD2     N 4219   3.001   1.082  17.592 -0.0954 -0.0267  0.1217
  279MPD2    H5 4220   3.042   1.151  17.530 -0.9662 -1.6521 -2.2392
  279MPD2    N1 4221   2.830   1.008   0.369 -0.3415 -0.8659  0.6486
  279MPD2    H7 4222   2.830   1.047   0.463  1.0452  0.7131 -0.0245
  280TMC3    C1 4223   2.600   0.945   0.409  0.1117  0.2138 -0.0283
  280TMC3    C2 4224   2.505   0.853   0.391 -0.0703  0.4229 -0.4071
  280TMC3    C3 4225   2.378   0.890   0.430 -0.0944 -0.4055  0.6043
  280TMC3    C4 4226   2.580   1.074   0.457  0.0100  0.2048  0.2354
  280TMC3    C5 4227   2.448   1.101   0.496 -0.1933  1.2171 -0.3293
  280TMC3    C6 4228   2.351   1.012   0.485  0.1447 -0.5631 -0.0546
  280TMC3     C 4229   2.726   0.924   0.328 -0.9636 -1.0004  0.8297
  280TMC3     O 4230   2.731   0.840   0.243 -0.1624  0.2637  0.3825
  280TMC3     H 4231   2.531   0.750   0.369 -0.5678  0.3236 -0.5336
  280TMC3    H1 4232   2.659   1.147   0.475  0.5924 -0.9902  2.5636
  280TMC3    H2 4233   2.253   1.026   0.530 -0.2302 -0.2420 -0.9735
  280TMC3    C7 4234   2.418   1.233   0.536  0.1410 -0.0053 -0.0567
  280TMC3    C8 4235   2.283   0.790   0.471  0.1121  0.2348 -0.3088
  280TMC3    O1 4236   2.513   1.301   0.578 -0.3061 -0.1257 -0.0444
  280TMC3    O2 4237   2.208   0.818   0.565  0.0411  0.2020  0.4278
  281TMC3    C1 4238   1.050   1.922  13.345  0.4569  0.6571  0.7577
  281TMC3    C2 4239   1.163   1.872  13.281 -0.1155  0.5749  0.2923
  281TMC3    C3 4240   1.165   1.736  13.245 -0.4800 -0.5999 -0.2146
  281TMC3    C4 4241   0.938   1.846  13.373 -0.2207  0.2836 -0.1782
  281TMC3    C5 4242   0.944   1.711  13.338  0.4578 -0.2192  0.4267
  281TMC3    C6 4243   1.056   1.653  13.283  0.2726  0.5332 -0.1045
  281TMC3     C 4244   1.032   2.058  13.319 -0.3588 -0.2959  0.2725
  281TMC3     O 4245   1.120   2.134  13.367 -0.3117  0.1593  0.0923
  281TMC3     H 4246   1.255   1.927  13.270  0.3045 -0.5216 -1.6222
  281TMC3    H1 4247   0.851   1.879  13.427 -0.4193  0.1382 -0.4091
  281TMC3    H2 4248   1.077   1.548  13.265 -2.5668  0.2588 -1.7613
  281TMC3    C7 4249   0.841   1.617  13.379  0.3906 -0.3555  0.7671
  281TMC3    C8 4250   1.196   1.715  13.112  0.4124  0.8274 -0.2621
  281TMC3    O1 4251   0.725   1.651  13.377 -0.6160  0.3448  0.0882
  281TMC3    O2 4252   1.282   1.787  13.060 -0.1992  0.0306  0.3255
  282MPD2     C 4253   2.721   2.757  14.740 -0.2220 -0.6661 -0.1152
  282MPD2    C1 4254   2.641   2.864  14.778 -0.0164  0.4242  0.5064
  282MPD2    C2 4255   2.605   2.967  14.687  0.6787 -0.1573 -0.2296
  282MPD2    C3 4256   2.640   2.949  14.553  0.0423  0.3239  0.0066
  282MPD2    C4 4257   2.715   2.840  14.508  0.2829 -0.3397  0.3144
  282MPD2    C5 4258   2.756   2.746  14.606 -0.0146  0.6303  0.1437
  282MPD2     H 4259   2.543   3.049  14.722  2.1289 -0.1418  2.2507
  282MPD2    H1 4260   2.760   2.829  14.410  1.1392 -1.9399  0.8844
  282MPD2    H2 4261   2.752   2.672  14.800  1.1311 -0.9208 -1.1703
  282MPD2    H3 4262   2.802   2.658  14.562  0.4747  0.2392  1.4339
  282MPD2     N 4263   2.594   3.044  14.455  0.2947  0.3602 -0.6570
  282MPD2    H5 4264   2.572   3.136  14.490  0.6824 -0.7833  2.6111
  282MPD2    N1 4265   2.587   2.868  14.905  0.2238  0.0075 -0.0807
  282MPD2    H7 4266   2.539   2.956  14.923  1.5816  0.2222  2.6134
  283TMC3    C1 4267   2.533   2.808  15.125 -0.2037  0.2717  0.0794
  283TMC3    C2 4268   2.553   2.937  15.159 -0.6391 -0.9539 -0.2175
  283TMC3    C3 4269   2.522   2.966  15.290 -0.7523 -0.0983 -0.3581
  283TMC3    C4 4270   2.488   2.710  15.212 -0.0089 -0.5150 -0.0036
  283TMC3    C5 4271   2.448   2.752  15.338 -0.8252 -0.6507  0.6062
  283TMC3    C6 4272   2.462   2.880  15.376  0.4712  0.3970 -0.1278
  283TMC3     C 4273   2.577   2.766  14.996 -0.1630 -0.1099 -0.0321
  283TMC3     O 4274   2.602   2.649  14.979 -0.0026  0.1813  0.1336
  283TMC3     H 4275   2.610   3.008  15.100 -0.9181  0.4310  1.1818
  283TMC3    H1 4276   2.485   2.605  15.187  0.4301 -0.6736  0.6026
  283TMC3    H2 4277   2.438   2.923  15.473  1.6675  0.1249  0.2887
  283TMC3    C7 4278   2.416   2.654  15.442  0.0098 -0.5688 -0.1356
  283TMC3    C8 4279   2.510   3.105  15.331 -0.3680  0.1849  0.1285
  283TMC3    O1 4280   2.425   2.698  15.558 -0.3677  0.0165  0.0006
  283TMC3    O2 4281   2.519   3.123  15.454 -0.0791  0.8901  0.6029
  284MPD2     C 4282   0.774   2.184  11.603  0.4528  0.4342  0.4103
  284MPD2    C1 4283   0.744   2.130  11.477  0.0000  0.2583  0.2797
  284MPD2    C2 4284   0.709   1.999  11.465 -0.0750 -0.3168 -1.2884
  284MPD2    C3 4285   0.706   1.911  11.571 -0.2823 -0.6050  0.2249
  284MPD2    C4 4286   0.738   1.970  11.694 -0.8872  0.1610  1.4836
  284MPD2    C5 4287   0.763   2.100  11.711 -0.5004  0.1806  0.1494
  284MPD2     H 4288   0.695   1.962  11.365 -0.6800 -0.8524 -1.0004
  284MPD2    H1 4289   0.747   1.914  11.787  2.0071  0.3586  1.3194
  284MPD2    H2 4290   0.810   2.286  11.614  3.3542 -0.3518 -1.6814
  284MPD2    H3 4291   0.778   2.137  11.812  1.4633 -0.9982  0.2978
  284MPD2     N 4292   0.699   1.767  11.559  0.1379  0.8727 -0.1839
  284MPD2    H5 4293   0.697   1.714  11.646  2.9933  1.7868  0.4559
  284MPD2    N1 4294   0.766   2.199  11.354  0.4340  0.2795  0.1212
  284MPD2    H7 4295   0.772   2.136  11.275  0.8973  1.1396 -0.5244
  285TMC3    C1 4296   0.913   2.339  11.239  0.4089 -0.5755 -0.4607
  285TMC3    C2 4297   0.968   2.220  11.195  0.5063 -0.6902  0.4742
  285TMC3    C3 4298   1.097   2.223  11.152  0.6170  0.2494 -0.5981
  285TMC3    C4 4299   1.002   2.446  11.244 -0.0508  0.4019  0.3085
  285TMC3    C5 4300   1.135   2.448  11.215  0.2252 -0.1070 -0.2401
  285TMC3    C6 4301   1.184   2.328  11.171  0.1305  0.3700 -0.3085
  285TMC3     C 4302   0.805   2.328  11.342 -0.1223  0.1305  0.2399
  285TMC3     O 4303   0.769   2.424  11.409  0.4030 -0.3206 -0.5767
  285TMC3     H 4304   0.916   2.125  11.186  0.7576 -1.0072  2.3779
  285TMC3    H1 4305   0.959   2.531  11.295  0.4835 -0.0316  1.4940
  285TMC3    H2 4306   1.279   2.331  11.118  0.5003 -2.9280  0.1826
  285TMC3    C7 4307   1.221   2.538  11.294  0.7294 -0.3118 -0.5961
  285TMC3    C8 4308   1.143   2.103  11.089  0.6331 -0.7868 -0.1577
  285TMC3    O1 4309   1.175   2.647  11.321  0.4061  0.0713 -0.1963
  285TMC3    O2 4310   1.060   2.048  11.020  0.4852  0.0400 -0.3359
  286MPD2     C 4311   2.538   0.782   1.767  0.8131 -0.0601 -0.7527
  286MPD2    C1 4312   2.447   0.688   1.731 -0.4116 -0.9942  0.1665
  286MPD2    C2 4313   2.479   0.588   1.643  0.6525  0.1363 -0.1157
  286MPD2    C3 4314   2.599   0.589   1.579  0.0617 -0.2055 -0.6773
  286MPD2    C4 4315   2.693   0.680   1.618  0.6282  0.5399  0.2197
  286MPD2    C5 4316   2.664   0.780   1.712 -0.6415  0.5479 -0.0377
  286MPD2     H 4317   2.403   0.512   1.631 -0.6710  1.5503 -0.6810
  286MPD2    H1 4318   2.791   0.680   1.571  0.1590  0.3367 -0.7775
  286MPD2    H2 4319   2.518   0.868   1.829  0.4193 -0.7030  0.0139
  286MPD2    H3 4320   2.735   0.855   1.743 -0.0585 -0.0284  0.0292
  286MPD2     N 4321   2.642   0.490   1.489 -0.8533 -0.0674  0.2658
  286MPD2    H5 4322   2.736   0.499   1.452 -0.1663 -0.1301  1.9814
  286MPD2    N1 4323   2.317   0.688   1.782  0.2734 -0.6631  0.6915
  286MPD2    H7 4324   2.249   0.622   1.745  0.5605 -0.4056 -0.2828
  287TMC3    C1 4325   2.650   0.292   1.362 -0.1575 -1.1213 -0.2047
  287TMC3    C2 4326   2.596   0.236   1.253 -0.0754  0.1008 -0.3560
  287TMC3    C3 4327   2.663   0.131   1.193 -0.4800 -0.4760 -0.2918
  287TMC3    C4 4328   2.769   0.257   1.409 -0.9512  0.0950 -0.1765
  287TMC3    C5 4329   2.838   0.155   1.345 -0.2284  0.2053 -0.4569
  287TMC3    C6 4330   2.785   0.082   1.239  0.7472 -0.6375  0.5015
  287TMC3     C 4331   2.569   0.382   1.446  0.3694 -0.4703  0.2461
  287TMC3     O 4332   2.449   0.365   1.453 -0.0883  0.3166  0.3319
  287TMC3     H 4333   2.489   0.253   1.246  0.0386  0.3202 -1.4600
  287TMC3    H1 4334   2.801   0.283   1.509  0.4440  1.6020 -1.0108
  287TMC3    H2 4335   2.830   4.709   1.208  1.1787 -0.8838  1.8811
  287TMC3    C7 4336   2.950   0.094   1.413  0.0430  0.4186 -0.1488
  287TMC3    C8 4337   2.603   0.044   1.099 -0.1202 -0.6499  0.4918
  287TMC3    O1 4338   2.954   0.101   1.536 -0.1066 -0.8521 -0.2721
  287TMC3    O2 4339   2.642   4.648   1.095  0.1290  0.3685  0.0039
  288TMC3    C1 4340   3.840   0.463  14.479 -0.3810  0.1254  0.5485
  288TMC3    C2 4341   3.707   0.458  14.459 -0.1295  1.1977 -0.1356
  288TMC3    C3 4342   3.652   0.508  14.344 -0.5475  0.2396  0.5439
  288TMC3    C4 4343   3.931   0.498  14.379 -0.3338  0.8054 -0.2281
  288TMC3    C5 4344   3.870   0.538  14.257 -0.0880 -0.8610  0.5770
  288TMC3    C6 4345   3.733   0.555  14.243 -0.0032  0.5371  0.0890
  288TMC3     C 4346   3.879   0.373  14.589 -0.3149  0.3020 -0.1374
  288TMC3     O 4347   3.789   0.301  14.633 -0.1738 -0.7817  0.7635
  288TMC3     H 4348   3.647   0.445  14.547  2.4719 -0.5236  1.3781
  288TMC3    H1 4349   4.039   0.495  14.393 -0.1007  2.4918 -1.6149
  288TMC3    H2 4350   3.681   0.604  14.161  0.7578 -1.1347 -1.4007
  288TMC3    C7 4351   3.957   0.584  14.151  0.5770 -0.3373  0.7840
  288TMC3    C8 4352   3.517   0.482  14.303 -0.8302 -0.0326  0.2437
  288TMC3    O1 4353   4.077   0.590  14.167  0.3382  0.2490  0.0660
  288TMC3    O2 4354   3.469   0.538  14.205 -0.6455 -1.1122  0.3892
  289MPD2     C 4355   3.387   4.575  14.415  0.3123  0.8201  0.6318
  289MPD2    C1 4356   3.415   4.625  14.292 -0.0542 -0.2297  0.4561
  289MPD2    C2 4357   3.329   4.591  14.186  0.3785 -0.0760  0.1364
  289MPD2    C3 4358   3.230   4.494  14.204 -0.3777 -0.4444  0.1054
  289MPD2    C4 4359   3.212   4.438  14.330 -0.2440  0.0077  0.5921
  289MPD2    C5 4360   3.283   4.489  14.439  0.6391  0.0395  0.1986
  289MPD2     H 4361   3.342   4.640  14.091  1.1492  0.8392  0.7094
  289MPD2    H1 4362   3.125   4.379  14.356 -0.2678  0.3182  1.2349
  289MPD2    H2 4363   3.445   4.613  14.498  0.2796  1.6123  0.2995
  289MPD2    H3 4364   3.268   4.443  14.535  0.9289 -1.7769 -0.6176
  289MPD2     N 4365   3.133   4.470  14.105 -0.6354 -0.0383  0.3059
  289MPD2    H5 4366   3.143   4.511  14.013 -1.2021 -1.6348 -0.4643
  289MPD2    N1 4367   3.522   4.716  14.286  0.5936  0.0645  0.0965
  289MPD2    H7 4368   3.561   0.025  14.375  2.4038 -1.6162 -0.1566
  290TMC3    C1 4369   2.963   4.364  13.998 -0.3998  0.1808 -0.2480
  290TMC3    C2 4370   2.890   4.480  13.983  0.1590  0.5376 -0.1315
  290TMC3    C3 4371   2.775   4.467  13.909 -0.3263 -0.0476 -1.3280
  290TMC3    C4 4372   2.931   4.254  13.927 -0.0070  0.5012 -1.0341
  290TMC3    C5 4373   2.810   4.250  13.864  0.6267  0.0616  0.3067
  290TMC3    C6 4374   2.728   4.358  13.846 -0.0600  0.1645 -0.2449
  290TMC3     C 4375   3.053   4.360  14.110  0.0747  0.3289  0.0956
  290TMC3     O 4376   3.061   4.253  14.172  0.1857 -0.3977  0.1018
  290TMC3     H 4377   2.928   4.574  14.022 -1.6388  0.6413  1.3597
  290TMC3    H1 4378   2.999   4.170  13.932  0.9934  1.2763 -1.6482
  290TMC3    H2 4379   2.633   4.355  13.794 -0.5793 -0.8611  0.7622
  290TMC3    C7 4380   2.769   4.135  13.781 -0.2486  0.5885  0.1526
  290TMC3    C8 4381   2.696   4.583  13.882  0.8521  0.0013  0.0394
  290TMC3    O1 4382   2.682   4.152  13.700 -0.0522 -0.0440  0.0200
  290TMC3    O2 4383   2.577   4.567  13.875 -0.3716  0.4590  0.2706
  291MPD2     C 4384   2.918   4.386   0.252  0.5237  0.2002 -0.1728
  291MPD2    C1 4385   3.021   4.327   0.322  0.4189  0.2115  0.0745
  291MPD2    C2 4386   3.115   4.395   0.402 -0.4172  0.0117  0.2612
  291MPD2    C3 4387   3.100   4.535   0.422 -0.5888  0.2573 -0.5005
  291MPD2    C4 4388   2.991   4.591   0.360 -0.9127  0.6867  0.5875
  291MPD2    C5 4389   2.907   4.524   0.272 -1.1735  0.8557  0.2610
  291MPD2     H 4390   3.198   4.339   0.443 -1.3231 -0.8930  0.8600
  291MPD2    H1 4391   2.974   4.698   0.356 -1.4163  0.4615 -2.8632
  291MPD2    H2 4392   2.851   4.342   0.180 -0.3863 -1.1801  1.5306
  291MPD2    H3 4393   2.828   4.585   0.230 -1.0274  0.5968 -0.3985
  291MPD2     N 4394   3.193   4.622   0.486 -0.0585 -0.0307  0.2990
  291MPD2    H5 4395   3.185   0.000   0.463  0.8125  0.1094  0.6159
  291MPD2    N1 4396   3.055   4.192   0.306 -0.1039  0.6910 -0.1788
  291MPD2    H7 4397   3.141   4.156   0.347 -2.0659 -0.8432  2.6128
  292TMC3    C1 4398   3.061   3.980   0.234  0.1221  0.0121 -0.2369
  292TMC3    C2 4399   3.143   3.953   0.344 -0.5371 -0.4661  0.4712
  292TMC3    C3 4400   3.210   3.838   0.347 -0.1601 -0.0900 -0.3162
  292TMC3    C4 4401   3.038   3.890   0.135  0.2534  0.0995  0.4245
  292TMC3    C5 4402   3.110   3.772   0.149  0.0175 -0.0321  0.1790
  292TMC3    C6 4403   3.201   3.743   0.246 -0.0770  0.0047 -1.3533
  292TMC3     C 4404   2.984   4.105   0.233  0.8156 -0.4286  0.1063
  292TMC3     O 4405   2.886   4.113   0.160 -0.2935 -0.2200 -0.1123
  292TMC3     H 4406   3.158   4.026   0.423 -1.6093 -0.3819  0.6043
  292TMC3    H1 4407   2.988   3.923   0.045 -1.1965 -2.4863  0.2886
  292TMC3    H2 4408   3.246   3.646   0.267  1.9993  1.2995  0.2358
  292TMC3    C7 4409   3.060   3.659   0.078 -0.1880  0.1640 -0.2026
  292TMC3    C8 4410   3.276   3.806   0.473 -0.2197  0.1366 -0.3606
  292TMC3    O1 4411   3.143   3.564   0.075 -0.2731  0.3364 -0.2158
  292TMC3    O2 4412   3.363   3.725   0.478 -0.5864 -0.5102  0.0411
  293MPD2     C 4413   4.353   1.132  12.486  0.3551  0.2313 -0.8410
  293MPD2    C1 4414   4.280   1.033  12.546  0.1652 -0.4370  0.4996
  293MPD2    C2 4415   4.273   1.024  12.683 -0.0700 -0.4032  0.1208
  293MPD2    C3 4416   4.360   1.097  12.765 -0.0245 -0.1825 -0.0888
  293MPD2    C4 4417   4.443   1.184  12.700  0.9789 -0.1218 -0.3014
  293MPD2    C5 4418   4.443   1.200  12.565 -0.1080  0.1590  0.9839
  293MPD2     H 4419   4.218   0.947  12.736 -1.4808  0.1728 -0.5029
  293MPD2    H1 4420   4.519   1.240  12.753 -0.5030  0.5196  1.1375
  293MPD2    H2 4421   4.351   1.145  12.378 -1.4513  0.5997 -0.7676
  293MPD2    H3 4422   4.509   1.273  12.519 -0.1307 -1.5939 -1.8497
  293MPD2     N 4423   4.348   1.089  12.910 -0.2466 -0.4002  0.4013
  293MPD2    H5 4424   4.308   1.003  12.945  0.9372 -0.1919  2.2345
  293MPD2    N1 4425   4.212   0.946  12.458  0.8850 -0.3198 -0.1783
  293MPD2    H7 4426   4.207   0.968  12.359 -1.6274 -0.7987 -0.1663
  294TMC3    C1 4427   4.070   0.792  12.369 -0.9265 -0.0866  0.6364
  294TMC3    C2 4428   3.982   0.688  12.387 -0.2978  0.1291  0.5822
  294TMC3    C3 4429   3.911   0.643  12.277 -0.1522 -0.2917 -0.1830
  294TMC3    C4 4430   4.093   0.848  12.247  0.0439 -0.6130 -0.0090
  294TMC3    C5 4431   4.016   0.807  12.145  0.0395  0.4680  0.0698
  294TMC3    C6 4432   3.913   0.710  12.155  0.5693  0.4711  0.6174
  294TMC3     C 4433   4.136   0.836  12.497 -0.4769 -0.1364 -0.4396
  294TMC3     O 4434   4.127   0.769  12.601  0.1818 -0.5301  0.0977
  294TMC3     H 4435   4.001   0.616  12.466 -0.0371 -1.7666 -1.1971
  294TMC3    H1 4436   4.186   0.898  12.222  0.8798 -2.5873 -0.8984
  294TMC3    H2 4437   3.863   0.671  12.067  0.2229 -1.4038  1.6391
  294TMC3    C7 4438   4.051   0.855  12.013  0.6629 -0.1002  0.4553
  294TMC3    C8 4439   3.803   0.551  12.308  0.2210  0.0555  0.2781
  294TMC3    O1 4440   4.128   0.953  12.017  0.5228 -0.0492  0.2285
  294TMC3    O2 4441   3.780   0.526  12.424  0.1754  0.3124 -0.1886
  295MPD2     C 4442   0.352   3.735  17.324  0.2173  0.4994 -0.1607
  295MPD2    C1 4443   0.412   3.818  17.411  0.2719 -0.3435  0.6438
  295MPD2    C2 4444   0.368   3.814  17.544  0.4097  0.2349 -0.1016
  295MPD2    C3 4445   0.275   3.722  17.590  0.8721 -0.2264 -0.2791
  295MPD2    C4 4446   0.222   3.631  17.497 -0.5752  0.0451 -0.1261
  295MPD2    C5 4447   0.262   3.642  17.367 -0.4885  0.6669 -0.3109
  295MPD2     H 4448   0.425   3.886  17.601 -3.0749 -0.2287  3.9334
  295MPD2    H1 4449   0.143   3.561  17.524 -0.7865  1.1202  2.0895
  295MPD2    H2 4450   0.367   3.739  17.216  1.6652 -0.0284  0.0167
  295MPD2    H3 4451   0.213   3.568  17.305  0.2744 -0.8327  0.8684
  295MPD2     N 4452   0.233   3.712   0.043  0.4611 -0.3271 -0.4692
  295MPD2    H5 4453   0.188   3.626   0.072 -1.6938  0.7803 -0.5535
  295MPD2    N1 4454   0.483   3.932  17.365  0.0752  0.1898  0.3086
  295MPD2    H7 4455   0.499   4.005  17.434 -4.0998  1.4516 -0.0980
  296TMC3    C1 4456   0.210   3.780   0.266 -0.4336  0.0086 -0.3624
  296TMC3    C2 4457   0.197   3.887   0.359 -0.1569 -0.0561  0.0321
  296TMC3    C3 4458   0.204   3.867   0.492 -0.2602 -0.2375  0.1984
  296TMC3    C4 4459   0.233   3.656   0.308 -0.0957  0.6076 -0.3165
  296TMC3    C5 4460   0.235   3.637   0.447  0.9322  0.2615 -0.1530
  296TMC3    C6 4461   0.217   3.740   0.538 -0.0617 -0.2375  0.1390
  296TMC3     C 4462   0.249   3.812   0.132  0.3036 -0.1359  0.4219
  296TMC3     O 4463   0.296   3.926   0.114 -0.0479 -0.5036 -0.3209
  296TMC3     H 4464   0.188   3.988   0.321  0.9361 -0.1943 -0.6068
  296TMC3    H1 4465   0.258   3.577   0.238 -2.0596 -0.4692  0.1909
  296TMC3    H2 4466   0.218   3.719   0.645  3.0214 -3.2278 -0.4690
  296TMC3    C7 4467   0.245   3.498   0.485  0.6937  0.4147  0.8126
  296TMC3    C8 4468   0.201   3.992   0.574 -0.2462 -0.0403 -0.1586
  296TMC3    O1 4469   0.217   3.415   0.402 -0.6354  0.2011  0.2624
  296TMC3    O2 4470   0.146   4.088   0.519 -0.5505 -0.0089  0.7029
  297MPD2     C 4471   2.439   1.266  16.538 -0.4651 -0.0310 -0.0088
  297MPD2    C1 4472   2.383   1.326  16.431 -0.0053  0.0251  0.7269
  297MPD2    C2 4473   2.451   1.438  16.377 -0.6772  0.2958  0.3708
  297MPD2    C3 4474   2.570   1.479  16.431 -0.3842  0.5947 -0.3050
  297MPD2    C4 4475   2.617   1.426  16.547 -0.7586  0.8720  0.1899
  297MPD2    C5 4476   2.544   1.329  16.604 -0.6939  0.5123 -0.0456
  297MPD2     H 4477   2.405   1.475  16.286  0.0197 -0.7494 -0.3931
  297MPD2    H1 4478   2.718   1.446  16.581 -1.5960  2.4940  1.7255
  297MPD2    H2 4479   2.397   1.172  16.573 -2.0561  0.7839  0.2749
  297MPD2    H3 4480   2.575   1.278  16.694  0.3058  0.5791 -0.3481
  297MPD2     N 4481   2.624   1.592  16.370  0.4682  0.4137 -0.4079
  297MPD2    H5 4482   2.590   1.618  16.278  0.4464  1.1134 -0.1973
  297MPD2    N1 4483   2.265   1.286  16.370  0.0564  0.1112 -0.2100
  297MPD2    H7 4484   2.231   1.343  16.293 -0.8114 -1.6084 -1.1072
  298TMC3    C1 4485   2.053   1.205  16.353 -0.1006  0.0908  0.7536
  298TMC3    C2 4486   2.056   1.229  16.214 -0.5342 -0.0630  0.3136
  298TMC3    C3 4487   1.929   1.258  16.151  0.8983 -0.2985  0.3901
  298TMC3    C4 4488   1.938   1.221  16.425  0.0178 -0.1906 -0.2936
  298TMC3    C5 4489   1.826   1.260  16.362 -0.0151  0.3958  0.0686
  298TMC3    C6 4490   1.815   1.275  16.225  0.2749 -0.8027  0.6529
  298TMC3     C 4491   2.183   1.195  16.425 -0.7842 -0.0221 -0.0817
  298TMC3     O 4492   2.180   1.140  16.532 -0.8243  0.2629 -0.1101
  298TMC3     H 4493   2.149   1.231  16.158 -0.2968  3.4645  0.8036
  298TMC3    H1 4494   1.938   1.196  16.530 -0.2044  1.2937  0.0643
  298TMC3    H2 4495   1.721   1.295  16.176 -0.6500 -1.9262  1.9609
  298TMC3    C7 4496   1.757   1.369  16.439  0.4956 -0.2941 -0.4336
  298TMC3    C8 4497   1.912   1.305  16.014 -0.1361 -0.2300  0.1529
  298TMC3    O1 4498   1.796   1.386  16.553 -0.5513 -0.1166 -0.5429
  298TMC3    O2 4499   1.799   1.322  15.972  0.1883 -0.6059 -0.9391
  299MPD2     C 4500   2.496   1.041  10.777 -0.1581  0.2491 -0.3283
  299MPD2    C1 4501   2.556   1.103  10.667  0.0596  0.0556  0.0628
  299MPD2    C2 4502   2.486   1.105  10.546  0.1308  1.2807 -0.1961
  299MPD2    C3 4503   2.354   1.059  10.551  0.6665  0.2926  0.5301
  299MPD2    C4 4504   2.300   1.006  10.667  0.1035  0.2212 -0.0797
  299MPD2    C5 4505   2.377   0.990  10.779 -0.1859 -0.6846 -0.1577
  299MPD2     H 4506   2.537   1.139  10.457 -0.0894  2.5479  0.1660
  299MPD2    H1 4507   2.195   0.981  10.673  0.6753 -1.7671  1.5628
  299MPD2    H2 4508   2.549   1.042  10.872 -1.3576 -1.2244  0.3599
  299MPD2    H3 4509   2.343   0.940  10.870  1.3204  0.0131  0.7896
  299MPD2     N 4510   2.267   1.071  10.443 -0.2774  0.6571  0.0854
  299MPD2    H5 4511   2.175   1.029  10.457 -0.6397  1.4077 -0.0191
  299MPD2    N1 4512   2.682   1.160  10.678 -0.1496  0.1168 -0.8764
  299MPD2    H7 4513   2.734   1.128  10.759  2.0780 -0.4373 -2.5197
  300TMC3    C1 4514   2.189   1.104  10.223 -0.2125  0.3548  0.1713
  300TMC3    C2 4515   2.159   1.214  10.156 -0.5718 -0.1258  0.4064
  300TMC3    C3 4516   2.021   1.238  10.127  0.2441 -0.1455 -0.0501
  300TMC3    C4 4517   2.096   1.005  10.250  0.5444  0.1134  0.3212
  300TMC3    C5 4518   1.962   1.033  10.227  0.9152  0.5056  0.0635
  300TMC3    C6 4519   1.921   1.148  10.165 -0.8845  0.1782 -0.1958
  300TMC3     C 4520   2.302   1.108  10.314  0.6246 -0.8623  0.2066
  300TMC3     O 4521   2.397   1.179  10.280  0.0711  0.1965 -0.1846
  300TMC3     H 4522   2.223   1.301  10.143 -1.6623  0.6520  0.1748
  300TMC3    H1 4523   2.129   0.911  10.292  2.1473 -0.2113 -1.7093
  300TMC3    H2 4524   1.815   1.160  10.144 -0.4569 -0.4542 -2.7513
  300TMC3    C7 4525   1.865   0.938  10.280  0.6087  0.7186  0.4492
  300TMC3    C8 4526   1.973   1.376  10.111  0.3468  0.2180 -0.3247
  300TMC3    O1 4527   1.893   0.819  10.282  0.3247 -0.1654 -0.4774
  300TMC3    O2 4528   2.061   1.463  10.118 -0.1826  0.3523 -0.3334
  301MPD2     C 4529   0.362   2.717   1.409  0.0569 -0.0369 -0.2395
  301MPD2    C1 4530   0.227   2.709   1.354 -0.0806 -0.2246 -1.2207
  301MPD2    C2 4531   0.201   2.616   1.263 -0.0356 -0.1118 -0.1782
  301MPD2    C3 4532   0.297   2.521   1.222  1.3193 -0.3274 -0.1333
  301MPD2    C4 4533   0.420   2.537   1.275  0.5452  0.3120  0.2793
  301MPD2    C5 4534   0.454   2.623   1.373  0.4849  0.1987  0.6874
  301MPD2     H 4535   0.095   2.613   1.241  0.0447 -2.1052 -0.2565
  301MPD2    H1 4536   0.493   2.463   1.245  0.5148  0.5969 -0.4836
  301MPD2    H2 4537   0.390   2.788   1.486  0.3964 -0.1760 -0.2366
  301MPD2    H3 4538   0.556   2.626   1.408  0.5835 -0.4721  0.4661
  301MPD2     N 4539   0.258   2.408   1.138  0.2068  0.6216 -0.3457
  301MPD2    H5 4540   0.328   2.337   1.118  1.9352  1.7906  1.6183
  301MPD2    N1 4541   0.122   2.796   1.389  0.5704 -0.3082 -0.3358
  301MPD2    H7 4542   0.037   2.796   1.334 -1.0050  1.0830  2.0549
  302TMC3    C1 4543   0.109   2.294   0.976 -0.4174 -0.3134 -0.3429
  302TMC3    C2 4544   0.206   2.205   0.943  1.1237  1.2448 -0.2524
  302TMC3    C3 4545   0.170   2.089   0.869  0.3320 -0.1964 -0.3370
  302TMC3    C4 4546   4.698   2.268   0.942 -0.1543  0.4098 -0.3740
  302TMC3    C5 4547   4.665   2.145   0.887  0.0606  0.2438 -0.4674
  302TMC3    C6 4548   0.039   2.049   0.854  0.3665 -0.0048 -0.1231
  302TMC3     C 4549   0.136   2.411   1.067 -0.1370  0.3091 -0.0177
  302TMC3     O 4550   0.043   2.489   1.058 -0.1455  0.4166  0.2245
  302TMC3     H 4551   0.311   2.232   0.948  1.6014 -0.5941 -0.6546
  302TMC3    H1 4552   4.627   2.341   0.980  0.0080 -0.3067  1.3376
  302TMC3    H2 4553   0.004   1.976   0.782  0.6361 -2.5191  2.3243
  302TMC3    C7 4554   4.530   2.096   0.893  0.1647 -0.1044  0.0747
  302TMC3    C8 4555   0.275   1.988   0.843 -0.2367  0.5383 -0.0212
  302TMC3    O1 4556   4.528   1.976   0.882  0.8557 -0.0353  0.5988
  302TMC3    O2 4557   0.390   2.027   0.831  0.3198 -0.7533 -0.2657
  303MPD2     C 4558   3.913   0.816  10.343  0.5896  0.8586  1.8719
  303MPD2    C1 4559   3.833   0.734  10.267 -0.1484 -0.2779 -0.2920
  303MPD2    C2 4560   3.807   0.767  10.140  0.4555  0.9764  0.0036
  303MPD2    C3 4561   3.866   0.878  10.081  0.1629  0.0224 -0.2194
  303MPD2    C4 4562   3.954   0.962  10.148 -1.1466  0.1008  0.5878
  303MPD2    C5 4563   3.983   0.926  10.280  0.9360 -0.6605  0.6571
  303MPD2     H 4564   3.740   0.710  10.077 -0.3499  2.2135 -0.2433
  303MPD2    H1 4565   4.006   1.043  10.098 -0.4584  0.2924  1.6140
  303MPD2    H2 4566   3.946   0.790  10.443 -1.0503  1.0288  2.4459
  303MPD2    H3 4567   4.053   0.981  10.343 -1.1508  1.8381  0.8044
  303MPD2     N 4568   3.842   0.902   9.945 -0.2558 -0.1154 -0.1423
  303MPD2    H5 4569   3.913   0.963   9.906 -0.0983  0.5955  1.2448
  303MPD2    N1 4570   3.780   0.618  10.334 -0.2651 -0.3623  0.4599
  303MPD2    H7 4571   3.796   0.613  10.434 -2.8351  0.2868  0.9223
  304TMC3    C1 4572   3.735   0.383  10.346 -0.5723  0.2490 -0.5813
  304TMC3    C2 4573   3.639   0.399  10.444 -0.8889  0.0743 -0.2262
  304TMC3    C3 4574   3.589   0.288  10.497  0.4191 -0.6983 -0.4517
  304TMC3    C4 4575   3.772   0.274  10.285 -0.1870 -0.0294  0.0662
  304TMC3    C5 4576   3.710   0.168  10.336  0.2398  0.2203 -0.5006
  304TMC3    C6 4577   3.625   0.166  10.448  0.0667 -0.2016  0.0630
  304TMC3     C 4578   3.746   0.505  10.265  0.0853 -0.0382  0.0283
  304TMC3     O 4579   3.749   0.482  10.146  0.2694  0.1871  0.3352
  304TMC3     H 4580   3.602   0.497  10.472  2.0712  1.6478 -1.8087
  304TMC3    H1 4581   3.839   0.283  10.200  0.9781 -0.0403  0.9812
  304TMC3    H2 4582   3.598   0.066  10.482  0.1603 -1.7969 -4.5004
  304TMC3    C7 4583   3.674   0.079  10.232  0.4994  0.0794  0.0121
  304TMC3    C8 4584   3.444   0.306  10.489  0.6479  0.5384  0.1221
  304TMC3    O1 4585   3.571   0.019  10.259  0.3872 -0.0892  0.1776
  304TMC3    O2 4586   3.384   0.406  10.533  0.7652 -0.0815 -0.5721
  305MPD2     C 4587   2.936   3.183  13.369 -0.2288 -0.0516 -0.1739
  305MPD2    C1 4588   2.937   3.051  13.420 -0.2309 -0.1213  0.2111
  305MPD2    C2 4589   2.886   2.949  13.346  0.4720  0.5497  0.7454
  305MPD2    C3 4590   2.849   2.967  13.221  0.9377  0.0384  0.4369
  305MPD2    C4 4591   2.851   3.096  13.168 -0.2627 -0.5747 -0.5753
  305MPD2    C5 4592   2.889   3.203  13.242  0.1548  0.5430 -0.0264
  305MPD2     H 4593   2.897   2.849  13.386 -0.2904 -0.0542 -0.5687
  305MPD2    H1 4594   2.820   3.125  13.068 -2.8334 -0.0591  0.3527
  305MPD2    H2 4595   2.979   3.269  13.420 -0.2171  0.0638 -0.3783
  305MPD2    H3 4596   2.900   3.302  13.198 -0.2643  0.0898 -1.1347
  305MPD2     N 4597   2.795   2.871  13.142  0.1629 -0.0573  0.9860
  305MPD2    H5 4598   2.765   2.893  13.048  1.7611  2.3925  1.0395
  305MPD2    N1 4599   2.996   3.039  13.551 -0.0952  0.0113 -0.0014
  305MPD2    H7 4600   3.055   3.114  13.584  0.1446 -0.1224 -0.1297
  306TMC3    C1 4601   3.106   2.926  13.721 -0.1513 -0.5361 -0.0691
  306TMC3    C2 4602   3.134   2.807  13.782  0.2181  0.0992 -0.2192
  306TMC3    C3 4603   3.212   2.804  13.892  0.1738 -0.5184  0.2352
  306TMC3    C4 4604   3.143   3.046  13.780 -0.1042 -0.3363 -0.1034
  306TMC3    C5 4605   3.217   3.033  13.893 -0.0664 -0.2117  0.6220
  306TMC3    C6 4606   3.244   2.915  13.956  0.3489 -0.0978 -0.0632
  306TMC3     C 4607   3.007   2.922  13.618 -0.1412  0.1363 -0.1508
  306TMC3     O 4608   2.951   2.815  13.603  0.1092 -0.3770  0.0931
  306TMC3     H 4609   3.109   2.717  13.727  0.9097  0.2498 -0.7656
  306TMC3    H1 4610   3.117   3.145  13.745  0.0221  0.1066  1.0608
  306TMC3    H2 4611   3.299   2.909  14.049 -1.7981 -1.7344  1.0895
  306TMC3    C7 4612   3.269   3.155  13.953  0.5975 -0.1623 -0.8413
  306TMC3    C8 4613   3.264   2.687  13.953 -0.3907 -0.5530  0.0944
  306TMC3    O1 4614   3.210   3.257  13.925  0.2544 -0.0418  0.1733
  306TMC3    O2 4615   3.362   2.701  14.025  1.1894 -0.4938  0.4075
  307MPD2     C 4616   1.653   1.815   0.728 -0.1141 -0.3455 -0.0438
  307MPD2    C1 4617   1.585   1.703   0.679  0.0673  0.2300 -0.2580
  307MPD2    C2 4618   1.513   1.722   0.556  0.2821  0.6569  1.3960
  307MPD2    C3 4619   1.508   1.841   0.490  0.2816 -0.5140  0.5197
  307MPD2    C4 4620   1.570   1.947   0.549 -0.0591  0.0992  1.0896
  307MPD2    C5 4621   1.641   1.931   0.662  0.6277  0.3948  0.3181
  307MPD2     H 4622   1.470   1.630   0.519 -1.4495  1.8394  0.4701
  307MPD2    H1 4623   1.573   2.044   0.499 -0.5701 -0.4135  0.0676
  307MPD2    H2 4624   1.719   1.809   0.814  2.6805  0.9017 -2.0882
  307MPD2    H3 4625   1.695   2.016   0.702 -1.2551  1.2986  0.9510
  307MPD2     N 4626   1.421   1.857   0.379 -0.5039  0.1622  0.0174
  307MPD2    H5 4627   1.401   1.953   0.353 -1.2585 -0.5987 -2.2246
  307MPD2    N1 4628   1.584   1.577   0.734 -0.5152 -0.5214 -0.6306
  307MPD2    H7 4629   1.543   1.501   0.681  0.1382 -1.4507  0.1941
  308TMC3    C1 4630   1.074   1.893   0.168 -0.6954  0.1694  0.3709
  308TMC3    C2 4631   1.039   1.802   0.066 -0.2107 -0.5826  0.2846
  308TMC3    C3 4632   1.140   1.712   0.037 -0.2397  0.0206  0.1901
  308TMC3    C4 4633   1.189   1.895   0.238  0.0625  0.0873 -0.6176
  308TMC3    C5 4634   1.272   1.790   0.208 -0.7834 -0.2230 -0.7578
  308TMC3    C6 4635   1.257   1.699   0.105 -0.3543 -0.1925  1.1694
  308TMC3     C 4636   0.961   1.967   0.235  0.0424  0.7457  0.2898
  308TMC3     O 4637   0.994   2.064   0.298 -0.3648 -0.7271  0.3500
  308TMC3     H 4638   0.952   1.821   0.004  0.6645  0.0357 -0.7590
  308TMC3    H1 4639   1.205   1.955   0.327  1.3843 -0.1844 -0.6817
  308TMC3    H2 4640   1.333   1.623   0.091 -2.1990 -1.6956 -0.7603
  308TMC3    C7 4641   1.368   1.757   0.307  0.2143 -0.2305 -0.0341
  308TMC3    C8 4642   1.145   1.633  17.600 -0.2787 -0.3427 -0.3530
  308TMC3    O1 4643   1.398   1.637   0.317  0.6167 -0.2740 -0.4743
  308TMC3    O2 4644   1.131   1.683  17.491  0.3527 -0.5533  0.0859
  309MPD2     C 4645   0.475   1.141  17.054  0.0129  0.4540 -0.6237
  309MPD2    C1 4646   0.419   1.170  16.935  0.2292 -0.0766  0.7718
  309MPD2    C2 4647   0.283   1.185  16.927 -0.1292 -0.4935  0.9281
  309MPD2    C3 4648   0.203   1.191  17.045  0.4074 -0.3476 -0.5951
  309MPD2    C4 4649   0.266   1.169  17.164 -0.6025 -0.6505 -0.0775
  309MPD2    C5 4650   0.398   1.140  17.173 -0.3482  0.5914  0.8449
  309MPD2     H 4651   0.243   1.190  16.826 -0.0033  2.5040  1.0349
  309MPD2    H1 4652   0.215   1.191  17.257 -2.2839  0.3134 -1.2111
  309MPD2    H2 4653   0.581   1.124  17.068 -0.0899 -1.7791 -2.4137
  309MPD2    H3 4654   0.446   1.122  17.268  0.2645 -2.1381  0.0161
  309MPD2     N 4655   0.060   1.201  17.043 -0.0017  0.5200 -0.7244
  309MPD2    H5 4656   0.018   1.218  17.133  2.1801 -1.4509  0.6740
  309MPD2    N1 4657   0.489   1.187  16.811  0.1232  0.0864  0.2293
  309MPD2    H7 4658   0.441   1.213  16.726  1.0003 -0.4806 -0.4323
  310TMC3    C1 4659   0.670   1.199  16.672 -0.0291  0.0047 -0.6824
  310TMC3    C2 4660   0.602   1.290  16.597 -0.1826  0.4422 -0.1559
  310TMC3    C3 4661   0.658   1.312  16.476 -0.6670 -0.9626 -0.0410
  310TMC3    C4 4662   0.783   1.140  16.633  0.5467 -0.0120 -0.3337
  310TMC3    C5 4663   0.821   1.150  16.507  0.0194  0.0279  0.8128
  310TMC3    C6 4664   0.761   1.240  16.424 -0.1830 -0.5817  0.7344
  310TMC3     C 4665   0.624   1.145  16.797  0.2148  0.8928 -0.5647
  310TMC3     O 4666   0.707   1.101  16.872  0.0704  0.7696  0.1586
  310TMC3     H 4667   0.527   1.361  16.633 -0.0074  0.9698 -0.8334
  310TMC3    H1 4668   0.828   1.063  16.694 -2.0915 -1.8147 -0.6875
  310TMC3    H2 4669   0.790   1.249  16.319 -2.1110  0.6830  0.3190
  310TMC3    C7 4670   0.954   1.102  16.471 -0.3302  0.1363  0.1021
  310TMC3    C8 4671   0.554   1.361  16.389  0.0008 -0.5014 -0.7161
  310TMC3    O1 4672   0.987   1.114  16.358 -0.8755  0.1594 -0.4358
  310TMC3    O2 4673   0.439   1.353  16.431 -0.1611  0.5577 -0.2794
  311MPD2     C 4674   1.863   2.111  12.552 -0.0906  0.1454  0.1171
  311MPD2    C1 4675   1.869   2.228  12.625 -0.0962  0.0887 -0.4259
  311MPD2    C2 4676   1.752   2.260  12.705 -0.5115 -1.1261  0.1245
  311MPD2    C3 4677   1.647   2.171  12.709  0.4721 -0.1879  0.3816
  311MPD2    C4 4678   1.647   2.056  12.635  0.1994  0.5984  0.0116
  311MPD2    C5 4679   1.758   2.025  12.566 -0.6186 -0.0444  0.1306
  311MPD2     H 4680   1.738   2.360  12.743 -0.9659 -1.4615  0.8612
  311MPD2    H1 4681   1.557   1.996  12.624  0.8910 -1.0430  3.3300
  311MPD2    H2 4682   1.941   2.071  12.488 -0.7351 -2.7974  1.1856
  311MPD2    H3 4683   1.759   1.942  12.497  1.2849 -0.6789  0.9270
  311MPD2     N 4684   1.528   2.218  12.767 -0.0448  0.5479  0.1162
  311MPD2    H5 4685   1.527   2.310  12.811  0.3816  0.2240  0.8028
  311MPD2    N1 4686   1.973   2.329  12.619 -0.8973  0.3239 -0.7869
  311MPD2    H7 4687   1.964   2.413  12.676  0.7659 -0.6682  0.9327
  312TMC3    C1 4688   1.308   2.199  12.856  0.2320 -0.2176  0.1249
  312TMC3    C2 4689   1.180   2.170  12.810 -0.2368 -0.2488  0.1202
  312TMC3    C3 4690   1.081   2.252  12.859 -0.3903 -0.2912 -0.0702
  312TMC3    C4 4691   1.334   2.273  12.964 -0.0895 -0.3678  0.1577
  312TMC3    C5 4692   1.233   2.347  13.015  0.3492 -0.6795 -0.0253
  312TMC3    C6 4693   1.106   2.341  12.963  0.0455  0.1131 -0.3728
  312TMC3     C 4694   1.413   2.144  12.775 -0.1739 -0.0645  0.2196
  312TMC3     O 4695   1.384   2.034  12.731 -0.2156 -0.7054 -0.1998
  312TMC3     H 4696   1.156   2.099  12.731  0.1350  0.3502 -0.5347
  312TMC3    H1 4697   1.437   2.291  12.994 -1.3568  1.1883  3.5558
  312TMC3    H2 4698   1.030   2.410  13.000  1.6065  1.9527 -0.5769
  312TMC3    C7 4699   1.262   2.440  13.123  0.3462  0.1477  0.1893
  312TMC3    C8 4700   0.961   2.259  12.790 -0.3459 -0.3826 -0.1401
  312TMC3    O1 4701   1.169   2.512  13.153  0.2566  0.0896 -0.1740
  312TMC3    O2 4702   0.939   2.175  12.709  0.2334  0.0585 -0.2498
  313MPD2     C 4703   1.423   1.491  10.383 -0.9226 -0.3286 -0.8098
  313MPD2    C1 4704   1.304   1.542  10.422 -0.3723 -0.7536  0.4851
  313MPD2    C2 4705   1.188   1.490  10.366  0.2057 -0.7182 -0.5995
  313MPD2    C3 4706   1.189   1.377  10.284  0.2936 -0.4142 -0.6444
  313MPD2    C4 4707   1.313   1.328  10.247 -0.0959 -0.1397 -0.3831
  313MPD2    C5 4708   1.431   1.379  10.303 -0.1013 -0.6052  0.4508
  313MPD2     H 4709   1.099   1.542  10.399  0.9073  0.8470 -1.1285
  313MPD2    H1 4710   1.321   1.242  10.182 -0.1303 -0.8799  0.5914
  313MPD2    H2 4711   1.518   1.518  10.428 -1.4602  0.3278 -0.0682
  313MPD2    H3 4712   1.532   1.349  10.277 -1.1286 -1.9375 -1.9579
  313MPD2     N 4713   1.072   1.317  10.244 -0.2213  0.4834  0.3841
  313MPD2    H5 4714   0.990   1.365  10.280 -0.0775 -0.9585  2.6324
  313MPD2    N1 4715   1.290   1.646  10.516 -0.0413 -0.4886  0.0185
  313MPD2    H7 4716   1.200   1.693  10.520  0.3959  0.2906  0.8309
  314TMC3    C1 4717   1.366   1.849  10.584  0.0545  0.1827 -0.2306
  314TMC3    C2 4718   1.419   1.917  10.688 -0.2652  0.4401  0.0078
  314TMC3    C3 4719   1.416   2.055  10.681  0.6680  0.4065  0.3011
  314TMC3    C4 4720   1.318   1.912  10.470  0.3805  0.7044 -0.1895
  314TMC3    C5 4721   1.311   2.052  10.471 -0.5820  0.6678 -0.1126
  314TMC3    C6 4722   1.345   2.118  10.583 -0.0351  0.0396 -0.0203
  314TMC3     C 4723   1.399   1.708  10.564  0.0777 -0.0370  0.1335
  314TMC3     O 4724   1.503   1.659  10.601 -0.0422 -0.3593  0.2675
  314TMC3     H 4725   1.457   1.858  10.770  0.4740  1.5459  0.4562
  314TMC3    H1 4726   1.272   1.854  10.391 -1.9960 -0.3507  1.9373
  314TMC3    H2 4727   1.344   2.227  10.582  0.9880  0.0425 -0.9467
  314TMC3    C7 4728   1.255   2.104  10.352 -0.2886  0.8952 -0.3493
  314TMC3    C8 4729   1.455   2.135  10.799 -0.8460  0.2272 -0.3272
  314TMC3    O1 4730   1.177   2.200  10.353 -0.4418  0.2013  0.1799
  314TMC3    O2 4731   1.390   2.239  10.812 -0.5656 -0.9995 -0.4161
  315MPD2     C 4732   1.458   1.032   0.068 -0.3689 -0.7267 -0.4500
  315MPD2    C1 4733   1.518   1.053   0.188  0.4698  0.1361  0.0700
  315MPD2    C2 4734   1.572   1.178   0.221  0.0041  0.1465 -0.0323
  315MPD2    C3 4735   1.553   1.279   0.128  0.4105 -0.2633 -0.5493
  315MPD2    C4 4736   1.478   1.256   0.014  0.0977  0.4784  0.4398
  315MPD2    C5 4737   1.429   1.135  17.663 -0.6292  0.4245  0.5299
  315MPD2     H 4738   1.629   1.196   0.312  1.3036 -0.6513 -0.6930
  315MPD2    H1 4739   1.463   1.331  17.620  0.4556 -0.4593 -0.5526
  315MPD2    H2 4740   1.423   0.933   0.042 -1.5324 -0.4519  0.0797
  315MPD2    H3 4741   1.377   1.115  17.570 -0.6455 -0.8315  0.8127
  315MPD2     N 4742   1.628   1.394   0.143 -1.2146  0.0973  0.0450
  315MPD2    H5 4743   1.698   1.399   0.216  1.1384  0.2799 -2.2101
  315MPD2    N1 4744   1.542   0.954   0.281  0.4575  0.1438 -0.4711
  315MPD2    H7 4745   1.577   0.981   0.373 -1.5570  0.5186  0.2066
  316TMC3    C1 4746   1.681   1.629   0.131  0.7164 -0.5028  0.5415
  316TMC3    C2 4747   1.734   1.618   0.259 -1.1564  0.4058 -0.0802
  316TMC3    C3 4748   1.793   1.731   0.309 -0.1209  0.7542 -0.2164
  316TMC3    C4 4749   1.668   1.754   0.067 -0.5741  0.2305 -0.0574
  316TMC3    C5 4750   1.727   1.864   0.125  0.1154 -0.4046  0.1470
  316TMC3    C6 4751   1.791   1.850   0.244 -0.1891 -0.0870 -0.1260
  316TMC3     C 4752   1.614   1.512   0.076 -0.0895  0.9156 -0.0699
  316TMC3     O 4753   1.550   1.538  17.654  0.1022 -0.2472  0.1924
  316TMC3     H 4754   1.730   1.524   0.313  1.6993 -0.8232 -2.0012
  316TMC3    H1 4755   1.609   1.761  17.659 -0.4464 -1.2768 -0.2547
  316TMC3    H2 4756   1.855   1.933   0.272 -0.0631 -0.1747 -0.1502
  316TMC3    C7 4757   1.707   2.000   0.063 -0.4549  0.0482 -0.5409
  316TMC3    C8 4758   1.890   1.718   0.420  0.1345 -0.5050  0.6712
  316TMC3    O1 4759   1.654   2.091   0.134  0.3588 -0.2550 -0.5546
  316TMC3    O2 4760   1.922   1.826   0.463 -0.1017  0.3693  0.3964
  317MPD2     C 4761   2.692   4.235  12.479  0.3067 -0.0404 -0.0384
  317MPD2    C1 4762   2.804   4.159  12.441  0.0921  0.2730 -0.3265
  317MPD2    C2 4763   2.899   4.134  12.535 -0.3902 -0.5284 -0.1009
  317MPD2    C3 4764   2.885   4.175  12.665 -0.0836 -0.7429  0.2484
  317MPD2    C4 4765   2.778   4.256  12.703  0.6238 -0.1528 -0.1071
  317MPD2    C5 4766   2.684   4.282  12.611  0.0692  0.3693 -0.7569
  317MPD2     H 4767   2.990   4.087  12.500 -1.0071 -0.1829 -2.1977
  317MPD2    H1 4768   2.773   4.290  12.806 -1.2086 -2.6815  0.6597
  317MPD2    H2 4769   2.623   4.283  12.410 -0.8326  1.9332  2.4933
  317MPD2    H3 4770   2.599   4.344  12.636  1.2363  1.7233 -0.1312
  317MPD2     N 4771   2.988   4.126  12.751 -0.0450 -0.3049 -0.1968
  317MPD2    H5 4772   3.053   4.067  12.701  0.6498 -1.8862  2.6322
  317MPD2    N1 4773   2.825   4.107  12.313  0.1239  0.1897 -0.0273
  317MPD2    H7 4774   2.914   4.059  12.305  0.1481  0.3796 -0.8687
  318TMC3    C1 4775   3.126   4.081  12.942  0.5226  0.0996  0.0899
  318TMC3    C2 4776   3.115   3.945  12.925 -0.2644 -0.3055 -0.9746
  318TMC3    C3 4777   3.143   3.857  13.031 -0.1316 -0.0002  0.1294
  318TMC3    C4 4778   3.185   4.126  13.059 -0.3434 -0.1910  0.2285
  318TMC3    C5 4779   3.228   4.035  13.159  0.5076 -0.5178 -0.1495
  318TMC3    C6 4780   3.202   3.901  13.143  0.1814 -0.1892 -0.0656
  318TMC3     C 4781   3.010   4.154  12.883 -0.3377 -0.2142  0.1515
  318TMC3     O 4782   2.952   4.242  12.941  0.2746 -0.3762 -0.5102
  318TMC3     H 4783   3.069   3.909  12.834 -0.9648 -2.0727  0.0803
  318TMC3    H1 4784   3.193   4.232  13.079  0.6943 -0.6751  2.3037
  318TMC3    H2 4785   3.237   3.824  13.211 -1.7434  1.7919  3.1666
  318TMC3    C7 4786   3.349   4.075  13.224 -0.9660  0.0594 -0.0317
  318TMC3    C8 4787   3.055   3.741  13.019 -0.9928  0.0104 -0.4392
  318TMC3    O1 4788   3.363   4.195  13.242  0.6694 -0.7519  0.6611
  318TMC3    O2 4789   3.021   3.700  12.910 -0.4059  0.3508 -0.3657
  319MPD2     C 4790   4.254   0.613  16.294 -0.7917  0.2559  0.1445
  319MPD2    C1 4791   4.173   0.554  16.389 -0.5061 -0.1673  0.0125
  319MPD2    C2 4792   4.046   0.514  16.358  0.3466 -0.3314 -0.0799
  319MPD2    C3 4793   4.004   0.528  16.225  0.8703 -0.5268  0.7272
  319MPD2    C4 4794   4.094   0.576  16.131 -0.0680  0.3153 -0.0214
  319MPD2    C5 4795   4.219   0.623  16.168 -0.0489 -0.4318 -0.0258
  319MPD2     H 4796   3.982   0.477  16.437  0.7038  3.5066  1.9923
  319MPD2    H1 4797   4.066   0.580  16.027  1.8014 -0.4775 -0.5491
  319MPD2    H2 4798   4.344   0.666  16.323 -1.0089  0.9583 -0.4659
  319MPD2    H3 4799   4.286   0.666  16.095  1.0317 -1.5310  0.3194
  319MPD2     N 4800   3.872   0.496  16.179 -0.4592 -0.4568  0.5754
  319MPD2    H5 4801   3.853   0.518  16.082 -0.6512  0.0697  0.7273
  319MPD2    N1 4802   4.212   0.562  16.521 -0.4436 -0.4713  0.5532
  319MPD2    H7 4803   4.143   0.520  16.582 -1.5125 -0.1388 -0.4331
  320TMC3    C1 4804   3.652   0.425  16.171 -0.2379  0.3142 -0.5881
  320TMC3    C2 4805   3.620   0.518  16.087  0.0046  0.0807 -0.1296
  320TMC3    C3 4806   3.511   0.504  16.003  0.5271 -0.1641  0.8476
  320TMC3    C4 4807   3.585   0.307  16.168  0.1262 -0.0496 -0.5767
  320TMC3    C5 4808   3.484   0.288  16.081 -0.5556 -0.6530 -0.1653
  320TMC3    C6 4809   3.440   0.386  16.000 -0.9452  0.3361  0.3418
  320TMC3     C 4810   3.774   0.436  16.251  0.4619 -0.4400 -0.5515
  320TMC3     O 4811   3.788   0.370  16.354  0.2970  0.7189  0.0782
  320TMC3     H 4812   3.669   0.614  16.099 -1.4004  0.8113 -0.2545
  320TMC3    H1 4813   3.649   0.230  16.209  1.0573  0.8766 -0.2782
  320TMC3    H2 4814   3.344   0.378  15.950 -0.4062  0.6771 -0.7554
  320TMC3    C7 4815   3.450   0.155  16.043  0.0118 -0.2485 -0.8261
  320TMC3    C8 4816   3.502   0.615  15.906 -0.1555 -0.1640 -0.1948
  320TMC3    O1 4817   3.413   0.149  15.928  0.0661 -0.2086  0.3221
  320TMC3    O2 4818   3.537   0.721  15.952 -0.2306  0.0837  0.2222
  321TMC3    C1 4819   4.317   0.608  16.724  0.3519 -0.3469  0.1605
  321TMC3    C2 4820   4.225   0.523  16.785 -0.2073  0.4997 -0.9798
  321TMC3    C3 4821   4.204   0.540  16.919 -0.2418 -0.1521  0.0255
  321TMC3    C4 4822   4.399   0.700  16.796  0.0593  0.7927 -0.0562
  321TMC3    C5 4823   4.359   0.721  16.923 -0.3568 -0.1218 -0.3383
  321TMC3    C6 4824   4.261   0.648  16.979 -0.4608  1.1397 -0.7518
  321TMC3     C 4825   4.324   0.624  16.577 -0.1054  0.7568 -0.0087
  321TMC3     O 4826   4.419   0.685  16.523  0.4748  0.5036 -0.3768
  321TMC3     H 4827   4.174   0.445  16.731 -1.7010  0.5038  0.4324
  321TMC3    H1 4828   4.494   0.724  16.749 -1.0084  1.4769 -1.8603
  321TMC3    H2 4829   4.238   0.658  17.085  1.1442  2.9940 -0.5738
  321TMC3    C7 4830   4.465   0.750  17.022 -0.3949 -0.3009  0.1246
  321TMC3    C8 4831   4.230   0.422  16.998 -0.0376  0.5138 -0.0510
  321TMC3    O1 4832   4.447   0.698  17.133 -0.2888 -0.5443 -0.5822
  321TMC3    O2 4833   4.161   0.326  16.968 -0.4653 -0.4239 -0.2169
  322MPD2     C 4834   2.797   1.522  13.394 -0.2056  0.2039  0.4568
  322MPD2    C1 4835   2.859   1.467  13.502  0.6746 -0.0714 -0.5409
  322MPD2    C2 4836   2.949   1.363  13.486 -0.5525  0.1334  0.1902
  322MPD2    C3 4837   2.990   1.336  13.356  0.3876 -0.4652 -0.3111
  322MPD2    C4 4838   2.922   1.389  13.243  0.1415 -0.1251  0.7322
  322MPD2    C5 4839   2.826   1.482  13.265 -0.4543 -0.0904  0.1060
  322MPD2     H 4840   3.007   1.328  13.571 -0.3410  0.1306  0.0466
  322MPD2    H1 4841   2.959   1.363  13.145 -1.4079  0.6805 -0.0609
  322MPD2    H2 4842   2.728   1.604  13.403 -1.1833 -0.5811  0.1573
  322MPD2    H3 4843   2.771   1.539  13.190 -0.1895  0.0592  0.0246
  322MPD2     N 4844   3.112   1.270  13.349  0.0327  0.3704 -0.8629
  322MPD2    H5 4845   3.163   1.249  13.434  0.2676 -0.7290 -1.2732
  322MPD2    N1 4846   2.831   1.533  13.627  0.2433 -0.1340 -0.0127
  322MPD2    H7 4847   2.780   1.621  13.628 -0.4852 -0.5469 -0.6155
  323TMC3    C1 4848   2.865   1.581  13.859 -0.3843  0.2421 -0.3521
  323TMC3    C2 4849   2.910   1.709  13.824  1.3505  1.1309  0.2056
  323TMC3    C3 4850   2.962   1.794  13.923  0.8385 -0.0958 -0.4129
  323TMC3    C4 4851   2.890   1.531  13.984  0.5364  0.8110 -0.9664
  323TMC3    C5 4852   2.955   1.611  14.081  0.0649 -0.1047  0.1738
  323TMC3    C6 4853   2.981   1.740  14.042 -0.8006 -0.5717 -0.0870
  323TMC3     C 4854   2.871   1.480  13.751 -0.1129  0.1051 -0.2301
  323TMC3     O 4855   2.914   1.369  13.783  0.4721  0.5218  0.4673
  323TMC3     H 4856   2.892   1.757  13.729  1.7523  1.0150  0.0673
  323TMC3    H1 4857   2.870   1.427  14.010  0.1559  0.8797 -0.9761
  323TMC3    H2 4858   3.023   1.816  14.106 -0.1364 -0.4769 -0.6281
  323TMC3    C7 4859   3.049   1.558  14.168  0.4687  0.3425 -0.4075
  323TMC3    C8 4860   3.054   1.900  13.883  0.2648 -0.4687 -0.1139
  323TMC3    O1 4861   3.081   1.444  14.151  0.0392 -0.1489 -0.1685
  323TMC3    O2 4862   3.145   1.913  13.958 -0.2860  0.2811  0.0034
  324MPD2     C 4863   4.289   3.222  14.090 -0.7690 -0.7267 -0.4254
  324MPD2    C1 4864   4.318   3.343  14.024 -0.6662  0.1306  0.0865
  324MPD2    C2 4865   4.236   3.391  13.928  0.5689 -0.3731 -0.0399
  324MPD2    C3 4866   4.126   3.318  13.895 -0.0921  0.0638 -0.1274
  324MPD2    C4 4867   4.108   3.192  13.944 -0.1876  0.2968 -0.0493
  324MPD2    C5 4868   4.189   3.144  14.042 -0.0191  0.8831 -0.6455
  324MPD2     H 4869   4.265   3.481  13.875  0.8223  0.8187  2.1126
  324MPD2    H1 4870   4.023   3.129  13.919  0.5749 -0.7678  0.0154
  324MPD2    H2 4871   4.344   3.179  14.173 -0.7284  1.1855  0.5577
  324MPD2    H3 4872   4.164   3.059  14.105 -0.2598  1.9480  0.6725
  324MPD2     N 4873   4.030   3.340  13.796 -0.7791 -0.0779  0.2195
  324MPD2    H5 4874   3.951   3.276  13.792 -0.1876 -0.8742  1.3828
  324MPD2    N1 4875   4.432   3.420  14.059 -0.4007  0.4627  0.2471
  324MPD2    H7 4876   4.435   3.507  14.006 -1.7461  0.8297  0.7769
  325TMC3    C1 4877   3.918   3.438  13.613 -0.1666 -0.3672 -0.4201
  325TMC3    C2 4878   3.870   3.316  13.579  0.5048 -0.2795 -0.3011
  325TMC3    C3 4879   3.750   3.310  13.512 -0.0339  0.2248 -0.2386
  325TMC3    C4 4880   3.848   3.557  13.588  0.1729  0.2344 -0.1631
  325TMC3    C5 4881   3.719   3.539  13.541 -0.3730  0.0906  0.2755
  325TMC3    C6 4882   3.671   3.421  13.492 -0.0953 -0.3702  0.1424
  325TMC3     C 4883   4.034   3.445  13.711 -0.2655  0.6894 -0.0428
  325TMC3     O 4884   4.116   3.535  13.692  0.0610 -0.0563  0.1869
  325TMC3     H 4885   3.937   3.231  13.586  1.6185  0.4988 -1.4091
  325TMC3    H1 4886   3.897   3.650  13.611 -0.6014  0.0241  2.3308
  325TMC3    H2 4887   3.574   3.404  13.447 -0.1317 -2.2388  0.9435
  325TMC3    C7 4888   3.629   3.649  13.534 -0.3901 -0.3465  0.1106
  325TMC3    C8 4889   3.715   3.182  13.458 -0.4384 -0.5600  0.8030
  325TMC3    O1 4890   3.525   3.631  13.469 -0.4785  0.1300  0.0034
  325TMC3    O2 4891   3.763   3.083  13.518  0.7305 -0.2743  0.1210
  326MPD2     C 4892   0.892   4.066  11.161  0.9045 -0.1296 -0.3622
  326MPD2    C1 4893   0.874   4.070  11.027  0.2126  0.1764  0.3529
  326MPD2    C2 4894   0.935   4.178  10.955 -0.7273  1.1228 -0.3793
  326MPD2    C3 4895   1.005   4.275  11.020  0.5977  0.0094  0.1017
  326MPD2    C4 4896   0.997   4.279  11.157 -0.5791 -0.7759  0.0321
  326MPD2    C5 4897   0.946   4.175  11.228 -0.4513 -0.5050 -0.0252
  326MPD2     H 4898   0.927   4.180  10.847  1.8247 -1.2570 -0.6088
  326MPD2    H1 4899   1.041   4.364  11.209  2.4791 -1.4166 -1.5059
  326MPD2    H2 4900   0.864   3.982  11.224 -2.3013  1.4253  0.2851
  326MPD2    H3 4901   0.953   4.177  11.337  1.1903  3.0546 -0.2062
  326MPD2     N 4902   1.078   4.380  10.955 -0.1063 -0.1265  0.5972
  326MPD2    H5 4903   1.101   4.467  11.003 -0.0610 -0.2032  0.7131
  326MPD2    N1 4904   0.803   3.967  10.960 -0.3151 -0.1567  0.3676
  326MPD2    H7 4905   0.799   3.977  10.859  0.0540  1.4522  0.5068
  327TMC3    C1 4906   0.684   3.764  10.908  0.5443 -0.7090 -0.0254
  327TMC3    C2 4907   0.601   3.824  10.817 -0.1290  0.2296 -0.7770
  327TMC3    C3 4908   0.610   3.794  10.681 -0.4738 -0.4450  0.2729
  327TMC3    C4 4909   0.792   3.697  10.864  0.3501 -0.6313  0.2669
  327TMC3    C5 4910   0.808   3.676  10.726 -0.0765  0.5782 -0.5778
  327TMC3    C6 4911   0.711   3.719  10.636 -0.6659 -0.4157  0.3916
  327TMC3     C 4912   0.736   3.858  11.011  0.0299  0.0561 -0.3424
  327TMC3     O 4913   0.732   3.821  11.129 -0.6745  0.1986 -0.4151
  327TMC3     H 4914   0.527   3.893  10.855  1.4583  1.9139 -0.7178
  327TMC3    H1 4915   0.849   3.634  10.930 -0.4544 -0.6464  0.9492
  327TMC3    H2 4916   0.716   3.715  10.527  1.0792 -2.1221  0.5283
  327TMC3    C7 4917   0.946   3.706  10.682 -0.4889 -0.2099 -0.5273
  327TMC3    C8 4918   0.532   3.883  10.592 -0.5774  0.2917  0.2006
  327TMC3    O1 4919   0.976   3.728  10.564  0.0944  0.3199 -0.1220
  327TMC3    O2 4920   0.560   3.888  10.471 -0.0600  0.2866 -0.4885
  328MPD2     C 4921   3.949   4.533  17.264 -0.3495 -0.1541 -0.1927
  328MPD2    C1 4922   3.877   4.427  17.231  0.1626  0.0852 -1.1697
  328MPD2    C2 4923   3.786   4.430  17.133 -0.3906  0.3714  0.2642
  328MPD2    C3 4924   3.765   4.545  17.057 -0.3800  0.7095 -0.1183
  328MPD2    C4 4925   3.852   4.645  17.081 -0.0426  0.4755 -0.3914
  328MPD2    C5 4926   3.946   4.640  17.185 -0.0213  0.0959 -0.3269
  328MPD2     H 4927   3.716   4.348  17.121 -1.0048  1.1073 -1.0814
  328MPD2    H1 4928   3.852   0.010  17.013  0.2491  0.8537  0.0830
  328MPD2    H2 4929   4.023   4.532  17.343 -0.2146 -0.4505 -0.3229
  328MPD2    H3 4930   4.018   0.001  17.198 -0.8591  1.3585 -3.5450
  328MPD2     N 4931   3.658   4.559  16.956  0.5029  0.4464 -0.1611
  328MPD2    H5 4932   3.654   4.643  16.900 -0.2237 -1.0202 -2.2818
  328MPD2    N1 4933   3.895   4.312  17.312 -0.1143 -0.3036 -0.6188
  328MPD2    H7 4934   3.955   4.315  17.394  0.8305 -0.6830 -1.2925
  329TMC3    C1 4935   3.877   4.082  17.367 -1.0000  0.4042 -1.3884
  329TMC3    C2 4936   3.837   4.117  17.496 -0.7433 -0.2046  1.3793
  329TMC3    C3 4937   3.781   4.026  17.579  0.1573 -0.3856 -0.6318
  329TMC3    C4 4938   3.846   3.960  17.318  0.8894 -1.2720  0.4390
  329TMC3    C5 4939   3.792   3.865  17.400  0.8817  0.3494  0.0465
  329TMC3    C6 4940   3.762   3.895  17.530  0.1691  0.2755 -0.5877
  329TMC3     C 4941   3.867   4.185  17.264 -0.2068  0.7114 -0.7835
  329TMC3     O 4942   3.833   4.150  17.150 -0.2746 -0.0646  0.1987
  329TMC3     H 4943   3.879   4.206  17.541 -2.9417  1.0358  1.0118
  329TMC3    H1 4944   3.870   3.940  17.214  0.8419  0.5401  0.0776
  329TMC3    H2 4945   3.720   3.817  17.593 -1.1263  1.2623 -0.2253
  329TMC3    C7 4946   3.720   3.758  17.345  0.0136 -0.1270  0.0113
  329TMC3    C8 4947   3.807   4.027   0.042 -0.4042  0.1150  0.5931
  329TMC3    O1 4948   3.700   3.662  17.417 -0.3285 -0.2182 -0.3314
  329TMC3    O2 4949   3.833   3.923   0.095  0.4855  0.7984 -0.5924
  330TMC3    C1 4950   3.776   3.396   9.048  0.1299 -0.2669  0.3888
  330TMC3    C2 4951   3.781   3.272   8.991  0.9504  0.4258 -0.2805
  330TMC3    C3 4952   3.693   3.247   8.885 -1.0480 -0.5120 -0.8209
  330TMC3    C4 4953   3.699   3.499   8.999 -0.4023  0.6108  0.4373
  330TMC3    C5 4954   3.620   3.469   8.891  0.1573 -0.0696  0.0670
  330TMC3    C6 4955   3.612   3.344   8.836  0.4660  0.4460  0.1666
  330TMC3     C 4956   3.865   3.417   9.166 -0.2850  0.0161  0.4198
  330TMC3     O 4957   3.934   3.323   9.206 -0.1828  0.4440 -0.0767
  330TMC3     H 4958   3.860   3.211   9.034 -1.3539 -0.8179  2.2379
  330TMC3    H1 4959   3.713   3.601   9.031 -2.0211  0.5162  1.4751
  330TMC3    H2 4960   3.556   3.329   8.744 -0.1379 -0.4689  0.6912
  330TMC3    C7 4961   3.536   3.574   8.838  0.5311  0.2500  0.1852
  330TMC3    C8 4962   3.670   3.110   8.844  0.3903  0.4134 -0.6547
  330TMC3    O1 4963   3.496   3.667   8.903  0.7794 -0.1435  0.9163
  330TMC3    O2 4964   3.593   3.094   8.749  0.9508 -0.5445 -0.1652
  331MPD2     C 4965   3.814   2.862  12.527  0.0678  0.5107  0.2316
  331MPD2    C1 4966   3.936   2.865  12.469  0.2605  0.0885  0.4473
  331MPD2    C2 4967   3.983   2.755  12.398 -0.0713 -0.4512 -0.7152
  331MPD2    C3 4968   3.911   2.637  12.392  0.1987 -0.9239 -0.1573
  331MPD2    C4 4969   3.781   2.640  12.448  1.3023 -0.5596 -0.2662
  331MPD2    C5 4970   3.742   2.743  12.529 -0.2083  1.4932  0.6382
  331MPD2     H 4971   4.075   2.770  12.343  0.1747  1.2487  0.1562
  331MPD2    H1 4972   3.725   2.548  12.462 -0.6197  0.9481  1.8668
  331MPD2    H2 4973   3.773   2.947  12.582 -1.4241  0.5605 -0.9548
  331MPD2    H3 4974   3.642   2.742  12.571 -1.6488 -0.6946 -2.8846
  331MPD2     N 4975   3.969   2.539  12.318 -0.2662 -0.0848  0.1417
  331MPD2    H5 4976   4.065   2.565  12.297 -0.1262 -1.2426 -0.6250
  331MPD2    N1 4977   4.005   2.984  12.470  0.4454 -0.4077  0.3006
  331MPD2    H7 4978   3.946   3.066  12.478  0.6143 -0.6392  3.7073
  332TMC3    C1 4979   3.985   2.359  12.176  0.4588 -0.1907 -0.1744
  332TMC3    C2 4980   4.030   2.438  12.073  0.3101  0.3538 -0.7601
  332TMC3    C3 4981   4.056   2.381  11.958 -0.5517 -0.0639 -0.1944
  332TMC3    C4 4982   3.991   2.225  12.167  0.1597  0.9820  0.2133
  332TMC3    C5 4983   4.037   2.170  12.051 -0.3166 -0.6059  0.4251
  332TMC3    C6 4984   4.063   2.247  11.943 -0.0270  0.3777  0.0507
  332TMC3     C 4985   3.919   2.418  12.285 -0.8190  0.0597  0.0541
  332TMC3     O 4986   3.815   2.361  12.311  0.3389  0.1472 -0.1324
  332TMC3     H 4987   4.037   2.545  12.088 -0.9065 -0.0220  2.5027
  332TMC3    H1 4988   3.972   2.166  12.256 -0.0298 -0.0360 -0.5049
  332TMC3    H2 4989   4.098   2.192  11.857 -0.0615 -0.7155  0.7385
  332TMC3    C7 4990   4.140   2.074  12.069 -0.4130 -0.7531  0.4996
  332TMC3    C8 4991   4.113   2.460  11.847 -0.1484 -0.6918 -0.2700
  332TMC3    O1 4992   4.118   1.963  12.119 -0.0890 -0.0361 -0.9288
  332TMC3    O2 4993   4.175   2.564  11.873 -0.3683  0.2488 -0.2853
  333MPD2     C 4994   3.939   2.698  10.576  1.4992 -0.7351  0.1353
  333MPD2    C1 4995   4.021   2.612  10.504  0.5797 -0.1679 -0.0394
  333MPD2    C2 4996   4.019   2.478  10.535  0.4777  0.1799  0.0582
  333MPD2    C3 4997   3.937   2.424  10.631 -0.5419 -0.5591  0.1970
  333MPD2    C4 4998   3.852   2.507  10.701  0.5401  0.0220 -0.2188
  333MPD2    C5 4999   3.865   2.646  10.683  0.1195  0.8122 -0.1121
  333MPD2     H 5000   4.079   2.406  10.481 -0.7343  1.6259 -3.2166
  333MPD2    H1 5001   3.792   2.464  10.781  0.9174 -0.6574 -0.3054
  333MPD2    H2 5002   3.962   2.803  10.562  0.2551 -0.7529 -2.0537
  333MPD2    H3 5003   3.817   2.720  10.746  0.8013  0.8417  0.3666
  333MPD2     N 5004   3.949   2.285  10.649 -0.2701  0.3628  0.5954
  333MPD2    H5 5005   4.013   2.229  10.593 -2.7485 -2.2934  0.4453
  333MPD2    N1 5006   4.113   2.671  10.417  1.0024  0.1763 -0.7676
  333MPD2    H7 5007   4.118   2.772  10.407 -1.3795  0.2768 -0.8891
  334TMC3    C1 5008   4.329   2.667  10.308 -0.4928  0.0090 -0.7696
  334TMC3    C2 5009   4.430   2.585  10.279  1.1418 -0.0025 -0.0052
  334TMC3    C3 5010   4.551   2.642  10.246  0.2914 -0.1985  0.0212
  334TMC3    C4 5011   4.344   2.805  10.323  0.3484 -0.4639 -0.7705
  334TMC3    C5 5012   4.465   2.855  10.288 -0.0134 -0.1032  0.1415
  334TMC3    C6 5013   4.567   2.778  10.249 -0.2192 -0.0227  0.9103
  334TMC3     C 5014   4.204   2.598  10.338 -0.1344  0.4215 -0.4814
  334TMC3     O 5015   4.194   2.481  10.297 -0.1273  0.2198  0.6958
  334TMC3     H 5016   4.412   2.480  10.300 -0.8262  0.1693 -0.8223
  334TMC3    H1 5017   4.264   2.871  10.352  0.4187  0.0717 -1.7937
  334TMC3    H2 5018   4.659   2.822  10.211  1.0427 -2.1998  1.4253
  334TMC3    C7 5019   4.485   2.993  10.305 -0.3874  0.6098  0.4906
  334TMC3    C8 5020   4.665   2.553  10.269  0.0358 -0.6254  0.5993
  334TMC3    O1 5021   4.599   3.024  10.332  0.0217  0.6293  0.0734
  334TMC3    O2 5022   4.648   2.432  10.288  0.0543 -0.0441 -0.3622
  335TMC3    C1 5023   4.459   4.191  17.386  0.7963  0.3694  0.0786
  335TMC3    C2 5024   4.380   4.105  17.314 -0.8191  0.0121 -0.4274
  335TMC3    C3 5025   4.411   4.102  17.186  0.3303 -0.0634 -0.3775
  335TMC3    C4 5026   4.566   4.261  17.341 -0.4541 -0.4835 -0.2030
  335TMC3    C5 5027   4.591   4.245  17.209 -0.4206 -0.7193 -0.7395
  335TMC3    C6 5028   4.513   4.173  17.118 -0.1119  0.5243  0.4092
  335TMC3     C 5029   4.424   4.208  17.523 -0.0167  0.2309 -0.3504
  335TMC3     O 5030   4.467   4.316  17.561  0.3919  0.0965 -0.2332
  335TMC3     H 5031   4.293   4.063  17.363 -0.3480  0.4132  0.7556
  335TMC3    H1 5032   4.637   4.320  17.399 -1.7655  0.7788  0.1161
  335TMC3    H2 5033   4.514   4.179  17.010  1.1799 -1.0123  0.3426
  335TMC3    C7 5034   4.700   4.319  17.148  0.4892  0.5495 -0.0995
  335TMC3    C8 5035   4.306   4.052  17.101 -0.2104  0.0568  0.0755
  335TMC3    O1 5036   0.037   4.284  17.048  0.2376  0.3407 -0.4564
  335TMC3    O2 5037   4.289   4.115  17.000  0.4278  0.5509 -0.4368
  336MPD2     C 5038   4.350   1.572  16.131 -0.3236 -0.7657  0.2958
  336MPD2    C1 5039   4.258   1.550  16.031 -0.5213 -0.1554  0.4198
  336MPD2    C2 5040   4.211   1.420  16.009 -0.3691 -0.0792 -0.1737
  336MPD2    C3 5041   4.257   1.315  16.084 -0.0222  0.0021  0.2693
  336MPD2    C4 5042   4.349   1.345  16.185 -0.7406 -0.0959 -0.5670
  336MPD2    C5 5043   4.394   1.467  16.203  0.0292  0.4359 -0.0806
  336MPD2     H 5044   4.137   1.417  15.930  2.0652 -1.2066 -2.4215
  336MPD2    H1 5045   4.404   1.271  16.241  1.2973  0.2618 -2.1152
  336MPD2    H2 5046   4.399   1.668  16.137 -0.8485 -0.3508 -1.9399
  336MPD2    H3 5047   4.478   1.486  16.269 -0.1658 -0.8185  0.5201
  336MPD2     N 5048   4.210   1.183  16.079 -0.0527 -0.0748 -0.2265
  336MPD2    H5 5049   4.234   1.123  16.157 -0.2469  0.2266  0.0630
  336MPD2    N1 5050   4.218   1.649  15.936 -0.3356  0.0512 -0.0699
  336MPD2    H7 5051   4.140   1.627  15.875  0.7405 -1.4884 -0.8668
  337TMC3    C1 5052   4.238   1.845  15.797 -0.1076 -0.5110  0.5811
  337TMC3    C2 5053   4.103   1.859  15.788 -0.0768  0.0934  0.4972
  337TMC3    C3 5054   4.043   1.935  15.695  0.4086 -0.3576  0.2948
  337TMC3    C4 5055   4.313   1.915  15.708 -0.4368 -0.4627  0.4303
  337TMC3    C5 5056   4.259   1.989  15.607  0.2407  0.4499  0.0575
  337TMC3    C6 5057   4.118   2.003  15.599 -0.2752  0.1476 -0.1217
  337TMC3     C 5058   4.293   1.760  15.899 -0.0512  0.5549 -0.1279
  337TMC3     O 5059   4.396   1.803  15.946 -0.5783 -0.1395  0.4830
  337TMC3     H 5060   4.029   1.809  15.850 -1.0719  0.0720 -0.7047
  337TMC3    H1 5061   4.420   1.899  15.704 -0.5907 -1.1148 -0.9659
  337TMC3    H2 5062   4.070   2.058  15.519 -4.0978 -3.0276 -0.0282
  337TMC3    C7 5063   4.345   2.050  15.511 -0.3829 -0.0116  0.4070
  337TMC3    C8 5064   3.908   1.992  15.729  0.0431  0.5641  0.0632
  337TMC3    O1 5065   4.457   2.004  15.510 -0.0818 -0.2077  0.0827
  337TMC3    O2 5066   3.871   2.001  15.846 -0.1558 -0.6188 -0.6681
  338MPD2     C 5067   4.427   1.682   0.764  0.1095 -0.0429  0.1678
  338MPD2    C1 5068   4.416   1.626   0.630 -0.0771  0.4329  1.0593
  338MPD2    C2 5069   4.305   1.557   0.591  0.2655 -0.3416  0.7652
  338MPD2    C3 5070   4.198   1.561   0.678 -0.4125  0.1334  0.1557
  338MPD2    C4 5071   4.201   1.620   0.801 -0.4837  1.1469 -0.1771
  338MPD2    C5 5072   4.312   1.682   0.841 -0.2707 -0.6965  0.3387
  338MPD2     H 5073   4.297   1.512   0.493 -3.7626  0.2168  0.8186
  338MPD2    H1 5074   4.119   1.624   0.871  0.6321  0.9178  1.1295
  338MPD2    H2 5075   4.511   1.738   0.803 -1.7385  4.5024 -2.4617
  338MPD2    H3 5076   4.308   1.736   0.935  0.0499 -0.5318  0.2587
  338MPD2     N 5077   4.088   1.491   0.627 -0.1721 -0.3582 -0.0062
  338MPD2    H5 5078   4.101   1.429   0.548 -1.0528 -0.3810 -0.1355
  338MPD2    N1 5079   4.518   1.629   0.537 -0.0245 -0.8268  0.1429
  338MPD2    H7 5080   4.496   1.581   0.450 -1.3078  1.4223 -0.7756
  339TMC3    C1 5081   3.887   1.399   0.600  0.1592 -0.3926  0.2713
  339TMC3    C2 5082   3.914   1.261   0.616  0.1870  0.2502 -0.0321
  339TMC3    C3 5083   3.855   1.177   0.530 -0.4097  0.7980 -1.1920
  339TMC3    C4 5084   3.810   1.449   0.502 -0.3378  0.2227 -0.4824
  339TMC3    C5 5085   3.763   1.360   0.412  0.1934  0.7009 -0.3038
  339TMC3    C6 5086   3.774   1.224   0.429 -0.2258  0.4731  0.2472
  339TMC3     C 5087   3.963   1.491   0.677  0.6152  0.0332 -0.0812
  339TMC3     O 5088   3.899   1.568   0.746 -0.0992  0.6347  0.4247
  339TMC3     H 5089   3.990   1.234   0.689 -0.2839 -1.3551 -0.1380
  339TMC3    H1 5090   3.801   1.555   0.484  2.0060  0.3325 -0.9754
  339TMC3    H2 5091   3.754   1.160   0.344 -0.0191 -0.2116  0.7163
  339TMC3    C7 5092   3.801   1.411   0.281 -0.4655 -0.5493  0.1593
  339TMC3    C8 5093   3.876   1.038   0.531  0.1466 -0.8676 -0.1504
  339TMC3    O1 5094   3.908   1.469   0.279  0.0945  0.3466  0.1854
  339TMC3    O2 5095   3.862   0.981   0.423 -0.1847  0.5820  0.3166
  340MPD2     C 5096   4.259   3.368   9.290 -0.2031  0.1884 -0.2769
  340MPD2    C1 5097   4.253   3.286   9.403 -0.4022 -0.2743 -0.3978
  340MPD2    C2 5098   4.330   3.333   9.514 -0.8493  0.3416  0.0403
  340MPD2    C3 5099   4.400   3.452   9.509  0.2319 -0.2415 -0.5919
  340MPD2    C4 5100   4.406   3.528   9.390  0.2833 -0.0048 -0.5753
  340MPD2    C5 5101   4.338   3.483   9.283 -0.1925  0.4646 -0.0184
  340MPD2     H 5102   4.314   3.286   9.611  0.3711  1.4314  0.7610
  340MPD2    H1 5103   4.460   3.621   9.378  0.8808 -0.6296 -2.7489
  340MPD2    H2 5104   4.210   3.332   9.200  1.4220 -0.8618 -0.7552
  340MPD2    H3 5105   4.343   3.544   9.194 -2.6023  1.9357  0.8473
  340MPD2     N 5106   4.476   3.502   9.620 -0.4459  0.2157  0.0495
  340MPD2    H5 5107   4.524   3.590   9.602 -0.4333 -0.1418 -1.6620
  340MPD2    N1 5108   4.170   3.172   9.405  0.5782 -0.8050  0.1087
  340MPD2    H7 5109   4.125   3.142   9.320  1.0200 -0.2541 -0.3223
  341TMC3    C1 5110   4.048   2.986   9.481  0.0708 -0.0318 -0.4255
  341TMC3    C2 5111   3.939   3.032   9.420  1.0924  0.6869 -1.4748
  341TMC3    C3 5112   3.836   2.948   9.393 -0.4675  0.0496  0.3682
  341TMC3    C4 5113   4.062   2.854   9.519  0.2081  0.2950  0.4000
  341TMC3    C5 5114   3.951   2.779   9.499 -0.0467  0.2396  0.1597
  341TMC3    C6 5115   3.835   2.819   9.440 -0.2050 -0.2162  0.3035
  341TMC3     C 5116   4.155   3.085   9.514  0.4167 -0.2548 -0.5826
  341TMC3     O 5117   4.207   3.069   9.619 -0.3068  0.5448  0.2102
  341TMC3     H 5118   3.933   3.139   9.406  0.8168  0.8148 -0.3356
  341TMC3    H1 5119   4.145   2.812   9.576  1.0801  0.1861 -0.9539
  341TMC3    H2 5120   3.746   2.761   9.420 -0.1304  0.1620 -1.1130
  341TMC3    C7 5121   3.960   2.649   9.560 -0.0484  0.1891 -0.6032
  341TMC3    C8 5122   3.713   2.985   9.327  0.2238  0.1101  0.2242
  341TMC3    O1 5123   4.067   2.594   9.579 -0.3051 -0.5513  0.0499
  341TMC3    O2 5124   3.651   2.904   9.259  0.2769 -0.4220 -0.5252
  342MPD2     C 5125   2.813   2.256  17.634 -0.3855  0.1289  1.0415
  342MPD2    C1 5126   2.879   2.269  17.516  0.7245 -0.5104  0.5705
  342MPD2    C2 5127   2.921   2.397  17.474 -0.1385  0.0126  0.0302
  342MPD2    C3 5128   2.904   2.508  17.550 -0.5846 -0.4558 -0.1215
  342MPD2    C4 5129   2.850   2.492  17.675 -0.0617 -0.6402  0.5983
  342MPD2    C5 5130   2.800   2.370   0.025 -0.6588 -0.8447  0.2389
  342MPD2     H 5131   2.986   2.404  17.388 -1.2715  1.2008 -0.7417
  342MPD2    H1 5132   2.843   2.580   0.055  0.7279 -0.1343 -0.0157
  342MPD2    H2 5133   2.766   2.169  17.678 -0.0264 -1.2913 -1.3666
  342MPD2    H3 5134   2.774   2.351   0.129  2.1014 -0.3327  1.0298
  342MPD2     N 5135   2.934   2.635  17.503 -0.0332  0.0514  0.5291
  342MPD2    H5 5136   2.930   2.719  17.560  0.0386  0.5424 -0.1925
  342MPD2    N1 5137   2.918   2.164  17.432 -0.8307  0.2213 -0.2814
  342MPD2    H7 5138   2.937   2.193  17.337 -0.5176  1.7028  0.2455
  343TMC3    C1 5139   2.905   1.939  17.351 -0.3626 -0.0132  0.6754
  343TMC3    C2 5140   2.944   1.982  17.226 -0.4030  0.5856  0.1449
  343TMC3    C3 5141   2.941   1.892  17.121  0.9336 -0.6594  0.0697
  343TMC3    C4 5142   2.869   1.812  17.372 -0.3109  0.1708 -0.0751
  343TMC3    C5 5143   2.866   1.720  17.270 -0.0405  0.2785 -0.3898
  343TMC3    C6 5144   2.900   1.760  17.145 -0.6598 -0.4020  0.7328
  343TMC3     C 5145   2.893   2.031  17.463 -0.5735  0.0119 -0.0309
  343TMC3     O 5146   2.866   1.987  17.573  0.6561  0.5875 -0.1985
  343TMC3     H 5147   2.989   2.080  17.216 -1.6959  1.2276  0.6262
  343TMC3    H1 5148   2.817   1.788  17.464 -0.1279 -2.8953 -0.7785
  343TMC3    H2 5149   2.894   1.682  17.069 -1.6986  2.1747 -1.8260
  343TMC3    C7 5150   2.809   1.591  17.292 -0.2326 -0.2310  0.0747
  343TMC3    C8 5151   2.970   1.946  16.986  0.4349 -1.3627 -0.2010
  343TMC3    O1 5152   2.742   1.548  17.203 -0.6828  0.0365  0.1769
  343TMC3    O2 5153   2.941   2.065  16.980 -0.8806  0.2350 -0.7721
  344MPD2     C 5154   2.914   1.887  10.626  0.6439 -0.7038 -0.4376
  344MPD2    C1 5155   2.983   1.800  10.545  0.3425  0.7424 -0.6039
  344MPD2    C2 5156   3.040   1.853  10.429 -0.3428  0.2267  0.0829
  344MPD2    C3 5157   3.026   1.990  10.398  0.2974 -0.1834 -0.6485
  344MPD2    C4 5158   2.936   2.068  10.470 -0.6303 -0.2017  0.1249
  344MPD2    C5 5159   2.886   2.014  10.582 -0.9770 -0.6416 -0.0520
  344MPD2     H 5160   3.091   1.786  10.360 -0.3262  0.3224  0.0038
  344MPD2    H1 5161   2.925   2.173  10.445 -0.7241 -0.0137  0.9439
  344MPD2    H2 5162   2.857   1.846  10.709 -0.0385 -0.4420 -0.7795
  344MPD2    H3 5163   2.807   2.070  10.632 -1.4029 -0.8577 -0.4828
  344MPD2     N 5164   3.093   2.050  10.291  0.2144 -0.2148 -0.6291
  344MPD2    H5 5165   3.085   2.151  10.295  1.9288 -0.1182  0.5778
  344MPD2    N1 5166   2.986   1.662  10.574 -0.1981  0.1316 -0.1906
  344MPD2    H7 5167   3.029   1.597  10.510 -0.2012 -1.3217  1.2743
  345TMC3    C1 5168   3.225   2.090  10.107 -0.3876 -0.0245  0.2111
  345TMC3    C2 5169   3.285   2.196  10.168  0.1148  0.3451 -0.1182
  345TMC3    C3 5170   3.338   2.298  10.091 -0.1903  0.1108 -0.1074
  345TMC3    C4 5171   3.209   2.088   9.972 -0.3047  0.5050  0.3088
  345TMC3    C5 5172   3.264   2.189   9.897  0.1358  0.4695  0.7401
  345TMC3    C6 5173   3.339   2.287   9.956  0.1652 -0.6212 -0.2348
  345TMC3     C 5174   3.158   1.989  10.191  0.4495 -0.3346 -0.7230
  345TMC3     O 5175   3.149   1.876  10.149 -0.0565  0.3599 -0.2341
  345TMC3     H 5176   3.304   2.196  10.275  0.1785  1.1198 -0.1320
  345TMC3    H1 5177   3.144   2.007   9.941 -1.5717  1.6335  0.0223
  345TMC3    H2 5178   3.378   2.369   9.897  1.2435  0.3189  1.7770
  345TMC3    C7 5179   3.177   2.237   9.791 -0.5191  0.4874  0.2780
  345TMC3    C8 5180   3.315   2.436  10.145  0.5028  0.5030  0.0919
  345TMC3    O1 5181   3.178   2.360   9.778  0.6157  0.4721  0.5251
  345TMC3    O2 5182   3.332   2.531  10.070  0.0392  0.1878 -0.2236
  346MPD2     C 5183   3.696   3.503  14.042  0.3001 -0.5363  0.5208
  346MPD2    C1 5184   3.609   3.602  14.001 -0.2771  0.2906 -0.1779
  346MPD2    C2 5185   3.629   3.735  14.046 -0.1340  0.6282 -0.3009
  346MPD2    C3 5186   3.730   3.768  14.129  0.3061 -0.9011  0.5452
  346MPD2    C4 5187   3.824   3.670  14.161  0.2177 -0.0270  0.1796
  346MPD2    C5 5188   3.799   3.536  14.125 -0.3274  0.4000  0.2787
  346MPD2     H 5189   3.567   3.818  14.014 -1.2993 -0.1609 -0.1121
  346MPD2    H1 5190   3.918   3.693  14.211 -0.0951  4.5674 -1.3660
  346MPD2    H2 5191   3.687   3.401  14.005 -0.2897 -0.8544  1.5471
  346MPD2    H3 5192   3.876   3.463  14.147  1.0572  1.6140 -0.6141
  346MPD2     N 5193   3.750   3.906  14.152 -0.2426  0.2694  0.5619
  346MPD2    H5 5194   3.683   3.975  14.119 -0.6151  0.4176  1.6492
  346MPD2    N1 5195   3.503   3.571  13.909  0.2707 -0.3561 -0.2390
  346MPD2    H7 5196   3.499   3.479  13.866  1.4895  0.6061 -2.4259
  347TMC3    C1 5197   3.885   4.089  14.194 -0.8346 -0.3580 -0.3708
  347TMC3    C2 5198   3.819   4.144  14.091 -0.0237  0.2089  1.0995
  347TMC3    C3 5199   3.886   4.206  13.986 -0.4979  0.3480 -0.2152
  347TMC3    C4 5200   4.019   4.113  14.208  0.3689  0.4199  0.1209
  347TMC3    C5 5201   4.081   4.175  14.109 -0.4236 -0.7087 -0.2780
  347TMC3    C6 5202   4.021   4.218  13.994 -0.3967 -0.1202 -0.3155
  347TMC3     C 5203   3.849   3.951  14.232 -0.4400  0.5448 -0.3729
  347TMC3     O 5204   3.919   3.892  14.313  0.0341  0.3885 -0.2477
  347TMC3     H 5205   3.711   4.148  14.086 -0.1390 -2.0490  1.6165
  347TMC3    H1 5206   4.083   4.055  14.274 -0.6728  1.1082  1.7537
  347TMC3    H2 5207   4.088   4.240  13.912  0.4068 -1.4387 -0.0156
  347TMC3    C7 5208   4.210   4.222  14.141 -0.3856  0.2686 -0.5300
  347TMC3    C8 5209   3.840   4.167  13.861 -0.1913  0.2324  0.3891
  347TMC3    O1 5210   4.280   4.160  14.219 -0.3335 -0.2196 -0.8095
  347TMC3    O2 5211   3.927   4.148  13.776  0.5315 -0.0856  0.4402
  348MPD2     C 5212   1.598   2.813  12.085 -0.2998 -0.6273  0.0063
  348MPD2    C1 5213   1.668   2.932  12.079  0.2356  0.3664  0.0262
  348MPD2    C2 5214   1.607   3.038  12.017 -0.1743  0.6662  0.1011
  348MPD2    C3 5215   1.492   3.023  11.950 -0.2346  0.2353  0.2805
  348MPD2    C4 5216   1.416   2.912  11.970 -0.0648 -0.6673 -0.3135
  348MPD2    C5 5217   1.477   2.807  12.037  0.5679  0.7659  0.5122
  348MPD2     H 5218   1.650   3.136  12.032  0.9265  0.2558 -0.3643
  348MPD2    H1 5219   1.315   2.889  11.938 -0.1115  0.8737 -1.2809
  348MPD2    H2 5220   1.643   2.726  12.132  0.1021  1.2287  3.0691
  348MPD2    H3 5221   1.428   2.711  12.046 -0.7978  1.3188 -0.9762
  348MPD2     N 5222   1.451   3.138  11.882  0.3581  0.3497 -0.0942
  348MPD2    H5 5223   1.508   3.222  11.886  0.6388  0.2260 -1.1951
  348MPD2    N1 5224   1.792   2.958  12.147  0.1433  0.4746 -0.4946
  348MPD2    H7 5225   1.846   3.037  12.114 -1.7703  1.9090 -0.2209
  349TMC3    C1 5226   1.993   2.849  12.217 -0.4061  0.0532  0.2887
  349TMC3    C2 5227   2.007   2.713  12.230  0.3531  0.2130  0.2258
  349TMC3    C3 5228   2.093   2.653  12.138 -0.0550 -0.1388  0.0370
  349TMC3    C4 5229   2.055   2.922  12.118 -0.3360  0.1642  0.1888
  349TMC3    C5 5230   2.136   2.859  12.027  0.2465 -0.5004  0.6334
  349TMC3    C6 5231   2.159   2.724  12.043  0.1145 -0.2146 -0.1036
  349TMC3     C 5232   1.849   2.875  12.243  0.3958  0.0930 -0.1626
  349TMC3     O 5233   1.786   2.798  12.305  0.1252 -0.2944 -0.3349
  349TMC3     H 5234   1.954   2.646  12.297 -1.6786 -0.4904 -2.0871
  349TMC3    H1 5235   2.050   3.030  12.119  0.6058  0.2082  0.1974
  349TMC3    H2 5236   2.207   2.669  11.963  0.4584  0.6604 -0.5002
  349TMC3    C7 5237   2.128   2.914  11.895  0.0587 -0.2032  0.0318
  349TMC3    C8 5238   2.085   2.503  12.138  0.1272  0.2356  0.0336
  349TMC3    O1 5239   2.062   2.852  11.814  0.4072  0.7346  0.0906
  349TMC3    O2 5240   1.992   2.449  12.207 -0.1703  0.0594  1.1582
  350MPD2     C 5241   0.650   0.444   9.775 -0.3183 -0.0917 -0.3755
  350MPD2    C1 5242   0.578   0.484   9.883 -0.2447  0.0368 -0.3295
  350MPD2    C2 5243   0.607   0.610   9.939 -0.0358  0.0370 -0.5950
  350MPD2    C3 5244   0.701   0.700   9.882  0.7030  0.6426  0.3972
  350MPD2    C4 5245   0.764   0.663   9.766 -0.0131  0.5093 -0.5843
  350MPD2    C5 5246   0.739   0.532   9.712 -0.2001 -0.0344  0.5693
  350MPD2     H 5247   0.542   0.642  10.019  0.3090 -0.8510  0.0338
  350MPD2    H1 5248   0.841   0.725   9.721  0.0638 -0.6699 -2.1160
  350MPD2    H2 5249   0.636   0.340   9.747  1.5817 -0.8194  1.3733
  350MPD2    H3 5250   0.800   0.490   9.632  0.7037  1.4319  0.4772
  350MPD2     N 5251   0.719   0.824   9.939  0.6130 -0.0805 -0.2240
  350MPD2    H5 5252   0.661   0.838  10.021 -0.6718  1.7663 -1.4367
  350MPD2    N1 5253   0.490   0.394   9.954  0.1555  0.3377 -0.2233
  350MPD2    H7 5254   0.453   0.426  10.043  0.2257  2.3876 -0.9275
  351TMC3    C1 5255   0.411   0.189  10.029 -0.1821  0.1861  0.3735
  351TMC3    C2 5256   0.460   0.061  10.036  0.0765  0.0672  0.1085
  351TMC3    C3 5257   0.490   0.009  10.164  0.2238 -0.2667 -0.2068
  351TMC3    C4 5258   0.363   0.243  10.138 -0.0994  0.8887  0.4490
  351TMC3    C5 5259   0.367   0.182  10.261 -0.2375  0.0547 -0.3857
  351TMC3    C6 5260   0.432   0.063  10.271 -0.3385  0.4058 -1.2851
  351TMC3     C 5261   0.460   0.267   9.921 -0.5319  0.0869  0.2236
  351TMC3     O 5262   0.485   0.208   9.817 -0.1664  0.0273  0.2325
  351TMC3     H 5263   0.497   0.009   9.948 -0.7577 -0.1787 -0.1024
  351TMC3    H1 5264   0.323   0.344  10.128 -0.3608  0.7014 -0.3404
  351TMC3    H2 5265   0.440   0.019  10.370 -0.8052 -0.6012 -1.7041
  351TMC3    C7 5266   0.358   0.272  10.374 -0.0756 -0.4695 -0.2559
  351TMC3    C8 5267   0.621   4.665  10.162 -0.4784  0.4095  0.4037
  351TMC3    O1 5268   0.364   0.392  10.353 -0.6320  0.1343  0.0267
  351TMC3    O2 5269   0.691   4.697  10.066 -0.3617 -0.2044 -0.1943
  352MPD2     C 5270   4.559   3.216   0.749 -0.1031 -0.6406  0.1248
  352MPD2    C1 5271   4.498   3.296   0.844 -0.0685  0.3846 -0.0233
  352MPD2    C2 5272   4.526   3.268   0.977  0.4502  0.0535 -0.3593
  352MPD2    C3 5273   4.601   3.157   1.015  0.5484 -0.4186 -0.3026
  352MPD2    C4 5274   4.667   3.086   0.926 -0.1901 -0.3059  0.1757
  352MPD2    C5 5275   4.640   3.112   0.793 -0.3231  0.3127  0.3977
  352MPD2     H 5276   4.507   3.342   1.055  0.6467 -0.3930  0.1104
  352MPD2    H1 5277   0.023   3.015   0.956  2.1453  1.4801 -1.4739
  352MPD2    H2 5278   4.538   3.219   0.643  0.6264  1.7125  0.0509
  352MPD2    H3 5279   4.672   3.040   0.720  1.3775  2.5070 -1.0223
  352MPD2     N 5280   4.624   3.131   1.153  0.4377  0.2353  0.8378
  352MPD2    H5 5281   4.675   3.048   1.180  1.2666  0.6130  0.4411
  352MPD2    N1 5282   4.428   3.411   0.800  0.3133 -0.7915 -0.1770
  352MPD2    H7 5283   4.418   3.418   0.699  0.2945  1.0717 -0.0380
  353TMC3    C1 5284   4.612   3.124   1.377  0.3100 -0.2760 -0.0694
  353TMC3    C2 5285   0.011   3.046   1.384 -0.3098  0.0631 -0.9187
  353TMC3    C3 5286   0.034   2.979   1.499 -0.2475  0.3578  0.3659
  353TMC3    C4 5287   4.516   3.108   1.474 -0.2335 -0.5180  0.2013
  353TMC3    C5 5288   4.541   3.033   1.589  0.0130 -0.4770 -0.2304
  353TMC3    C6 5289   4.666   2.969   1.603  0.0683  0.8105 -0.3713
  353TMC3     C 5290   4.584   3.204   1.264  0.6166 -0.7752  0.0213
  353TMC3     O 5291   4.518   3.307   1.271  0.3354 -0.1938 -0.1677
  353TMC3     H 5292   0.093   3.061   1.315 -0.6843  3.2040 -0.6597
  353TMC3    H1 5293   4.421   3.160   1.467 -0.3568 -0.8462 -0.5292
  353TMC3    H2 5294   4.698   2.918   1.692  3.1715 -1.6796 -2.9270
  353TMC3    C7 5295   4.422   2.979   1.648  0.1163  0.2199 -0.5954
  353TMC3    C8 5296   0.130   2.880   1.501  0.1290 -0.2075  0.6461
  353TMC3    O1 5297   4.313   3.011   1.602 -0.2280  0.6648  0.5215
  353TMC3    O2 5298   0.199   2.872   1.602  0.2213 -0.0384 -0.0365
  354TMC3    C1 5299   0.867   4.470  13.191 -0.1247  0.1559 -1.1776
  354TMC3    C2 5300   0.812   4.590  13.148  0.0510 -0.2360 -0.4140
  354TMC3    C3 5301   0.878   4.661  13.049 -0.5309 -0.0579 -0.0424
  354TMC3    C4 5302   0.992   4.436  13.144  0.0883 -0.3139 -0.0842
  354TMC3    C5 5303   1.043   4.500  13.038 -0.3242 -1.3085  0.0772
  354TMC3    C6 5304   0.981   4.606  12.980  0.2896 -0.1350 -0.6432
  354TMC3     C 5305   0.830   4.426  13.328 -0.2472 -0.6826  0.0147
  354TMC3     O 5306   0.713   4.413  13.361  0.0931 -0.5398  0.2283
  354TMC3     H 5307   0.727   4.631  13.200 -0.4280 -1.7042 -0.0263
  354TMC3    H1 5308   1.026   4.334  13.159 -1.8402 -1.1422 -1.3153
  354TMC3    H2 5309   1.026   4.663  12.900  0.7582  1.4264  0.7372
  354TMC3    C7 5310   1.153   4.434  12.960  0.0982  0.2048 -0.0378
  354TMC3    C8 5311   0.811   0.050  12.987 -0.1511 -0.1847  0.1362
  354TMC3    O1 5312   1.201   4.329  13.004  0.3545 -0.4809  0.1098
  354TMC3    O2 5313   0.814   0.040  12.868  0.0814  0.7461  0.2220
  355MPD2     C 5314   0.580   0.588  11.641  0.2164 -0.3065  0.3808
  355MPD2    C1 5315   0.633   0.634  11.519  0.5414  0.1459 -0.1747
  355MPD2    C2 5316   0.770   0.629  11.500  0.6705 -0.4217  0.2671
  355MPD2    C3 5317   0.860   0.598  11.600  0.1701  0.5976  0.1634
  355MPD2    C4 5318   0.804   0.555  11.722  0.6489 -0.0164  0.4782
  355MPD2    C5 5319   0.669   0.557  11.743 -0.6586 -0.2566 -0.5913
  355MPD2     H 5320   0.806   0.640  11.398  1.2112  2.2632  0.7422
  355MPD2    H1 5321   0.866   0.541  11.809 -1.1948  0.1409  1.8141
  355MPD2    H2 5322   0.474   0.582  11.663  0.3981 -0.6243  1.1464
  355MPD2    H3 5323   0.633   0.548  11.845 -1.0230  1.0269 -0.6045
  355MPD2     N 5324   1.003   0.618  11.590 -0.3253 -0.0956 -0.4903
  355MPD2    H5 5325   1.058   0.606  11.675  0.4988  1.2896 -0.8326
  355MPD2    N1 5326   0.536   0.658  11.419 -0.3725 -0.8365  0.0482
  355MPD2    H7 5327   0.442   0.626  11.441 -0.8572  1.2827  1.1079
  356TMC3    C1 5328   1.213   0.702  11.535 -0.1826  0.4545  0.6532
  356TMC3    C2 5329   1.314   0.711  11.443  0.7218  0.5188  0.5852
  356TMC3    C3 5330   1.439   0.735  11.491  0.3441  0.0939  0.6724
  356TMC3    C4 5331   1.239   0.732  11.669  0.3626 -0.9760  0.4561
  356TMC3    C5 5332   1.362   0.759  11.713 -0.1865 -0.3421 -0.0495
  356TMC3    C6 5333   1.464   0.756  11.619 -0.0434 -0.4090 -0.2525
  356TMC3     C 5334   1.078   0.664  11.486  0.5678 -0.2283 -0.3586
  356TMC3     O 5335   1.048   0.681  11.367  0.8652 -0.1320 -0.1651
  356TMC3     H 5336   1.290   0.696  11.338  2.0578  4.4127 -0.2410
  356TMC3    H1 5337   1.156   0.721  11.737 -1.6314  0.1970 -1.8286
  356TMC3    H2 5338   1.560   0.777  11.664 -0.3891  0.5137  0.0565
  356TMC3    C7 5339   1.374   0.812  11.846  0.5107 -0.5107  0.1605
  356TMC3    C8 5340   1.541   0.730  11.385 -0.4212 -0.0046  1.1438
  356TMC3    O1 5341   1.286   0.796  11.930 -0.8194 -0.3208  0.2421
  356TMC3    O2 5342   1.518   0.678  11.277  0.3119  0.2792 -0.4602
  357MPD2     C 5343   2.195   0.603   1.322  0.5400  0.4891  0.3101
  357MPD2    C1 5344   2.104   0.497   1.314  0.2615  0.7837 -0.6772
  357MPD2    C2 5345   1.981   0.522   1.361  0.3868 -0.0230  0.2935
  357MPD2    C3 5346   1.942   0.642   1.411  0.1990  0.4856  0.8136
  357MPD2    C4 5347   2.028   0.743   1.422 -0.9958 -0.0931 -0.5699
  357MPD2    C5 5348   2.156   0.716   1.391 -0.2969  0.3283  0.1397
  357MPD2     H 5349   1.905   0.446   1.347  0.1768  0.2926 -0.2913
  357MPD2    H1 5350   1.997   0.834   1.472  0.1554 -0.3038  0.5302
  357MPD2    H2 5351   2.299   0.588   1.292  0.6261  0.2368  0.7389
  357MPD2    H3 5352   2.237   0.786   1.410 -0.5133  0.9058 -1.0456
  357MPD2     N 5353   1.811   0.674   1.453 -0.6925  0.3393 -0.4343
  357MPD2    H5 5354   1.791   0.773   1.460  0.0628  0.4259  0.5927
  357MPD2    N1 5355   2.135   0.375   1.246 -0.1420  0.5422 -0.4744
  357MPD2    H7 5356   2.231   0.350   1.226 -0.1184 -1.4448  2.2531
  358TMC3    C1 5357   2.115   0.162   1.154  0.1291  0.0666 -0.1950
  358TMC3    C2 5358   2.047   0.092   1.063 -0.0917  0.1826  0.0430
  358TMC3    C3 5359   2.070   4.673   1.056  0.0808 -0.2582 -0.6639
  358TMC3    C4 5360   2.211   0.100   1.233  0.2960 -0.7949 -0.1319
  358TMC3    C5 5361   2.238   4.689   1.204  0.3856 -0.9779 -1.0333
  358TMC3    C6 5362   2.162   4.613   1.128  0.4343 -0.4457  0.4781
  358TMC3     C 5363   2.047   0.277   1.210 -0.1221 -0.3650 -0.5464
  358TMC3     O 5364   1.924   0.271   1.205 -0.1734  0.2235 -0.3308
  358TMC3     H 5365   1.968   0.135   1.002  0.9509  0.3483 -1.2071
  358TMC3    H1 5366   2.252   0.160   1.314  0.0449 -1.4957  0.5153
  358TMC3    H2 5367   2.211   4.522   1.094  1.8513  1.8208 -3.5040
  358TMC3    C7 5368   2.352   4.626   1.282  0.2192  0.6249 -0.5546
  358TMC3    C8 5369   2.000   4.606   0.947 -0.4092 -0.2956 -0.0092
  358TMC3    O1 5370   2.380   4.514   1.253 -0.0598 -0.3472  0.1088
  358TMC3    O2 5371   1.959   4.678   0.859 -0.9757  0.3218 -0.1011
  359MPD2     C 5372   1.728   4.163  12.847 -0.0752  0.4200  0.1876
  359MPD2    C1 5373   1.712   4.057  12.767 -0.0473 -0.0508  0.1633
  359MPD2    C2 5374   1.608   3.979  12.779 -0.9602  0.4284 -0.0297
  359MPD2    C3 5375   1.510   3.994  12.873 -0.2622  0.2319 -0.6334
  359MPD2    C4 5376   1.523   4.105  12.952  0.4714 -0.1708  0.1526
  359MPD2    C5 5377   1.631   4.187  12.938 -0.1450  0.1200  0.1960
  359MPD2     H 5378   1.593   3.895  12.713  0.8790  0.0407  0.0512
  359MPD2    H1 5379   1.454   4.137  13.029  1.7422 -0.3282  1.3600
  359MPD2    H2 5380   1.817   4.226  12.840  0.1578  0.0186 -0.4270
  359MPD2    H3 5381   1.644   4.272  13.004  2.1296  1.0242 -1.3944
  359MPD2     N 5382   1.384   3.938  12.859  0.5987 -0.1762 -0.2137
  359MPD2    H5 5383   1.307   3.966  12.920  0.7423  1.0889 -0.6106
  359MPD2    N1 5384   1.800   4.029  12.659  0.0157 -0.2502  0.1160
  359MPD2    H7 5385   1.778   3.939  12.617 -2.2135  0.8872 -1.1495
  360TMC3    C1 5386   1.901   4.072  12.472  0.1043 -0.3985  0.0072
  360TMC3    C2 5387   2.004   4.125  12.404 -0.3391 -0.5978  1.7400
  360TMC3    C3 5388   2.028   4.078  12.280 -0.1915 -0.1761 -0.3330
  360TMC3    C4 5389   1.799   3.997  12.407  0.0961 -0.8530  0.0118
  360TMC3    C5 5390   1.811   3.980  12.277  0.5531  0.0040  0.9363
  360TMC3    C6 5391   1.926   4.008  12.211  0.3219 -0.2108  0.2549
  360TMC3     C 5392   1.884   4.118  12.604  0.0967 -0.6962 -0.1298
  360TMC3     O 5393   1.934   4.224  12.644 -0.1282  0.2884  0.6236
  360TMC3     H 5394   2.095   4.147  12.458  0.5466 -1.3388  0.5498
  360TMC3    H1 5395   1.707   3.974  12.459  0.1829  0.2766  0.6501
  360TMC3    H2 5396   1.939   3.992  12.104  0.6673  0.9618  0.1224
  360TMC3    C7 5397   1.700   3.920  12.199  0.1351 -0.1088  0.3256
  360TMC3    C8 5398   2.129   4.143  12.207  0.5663  0.0963 -0.4314
  360TMC3    O1 5399   1.619   3.873  12.282  0.1865  0.3569  0.3775
  360TMC3    O2 5400   2.144   4.264  12.218 -0.2255 -0.3974  0.5071
  361MPD2     C 5401   3.247   2.521  16.557  0.0038  0.8371  0.5245
  361MPD2    C1 5402   3.343   2.595  16.623 -0.3308 -0.4895 -0.1210
  361MPD2    C2 5403   3.447   2.535  16.689  0.4198 -0.2628  0.2062
  361MPD2    C3 5404   3.476   2.398  16.665  0.0507  0.5229 -0.5953
  361MPD2    C4 5405   3.387   2.322  16.587 -0.3506 -0.2168 -0.4353
  361MPD2    C5 5406   3.275   2.384  16.538 -0.0264  0.1468  0.4893
  361MPD2     H 5407   3.518   2.597  16.743  1.6441 -1.3356 -0.1691
  361MPD2    H1 5408   3.409   2.217  16.573  3.1793  0.5802 -0.9695
  361MPD2    H2 5409   3.159   2.563  16.512 -0.0854  2.1581  1.9212
  361MPD2    H3 5410   3.195   2.329  16.489  0.7801 -0.2565 -0.3763
  361MPD2     N 5411   3.597   2.332  16.709 -0.0934  0.6138  0.4050
  361MPD2    H5 5412   3.614   2.237  16.678  1.4611  0.7067  0.9250
  361MPD2    N1 5413   3.330   2.734  16.644  0.4031 -0.3560 -0.4197
  361MPD2    H7 5414   3.387   2.780  16.714 -0.3717  1.9217 -1.2732
  362TMC3    C1 5415   3.219   2.938  16.623 -0.4544 -0.3791  0.2376
  362TMC3    C2 5416   3.223   2.945  16.760 -0.8396 -0.1105 -0.1800
  362TMC3    C3 5417   3.183   3.070  16.812 -0.0051 -0.2893 -0.0292
  362TMC3    C4 5418   3.156   3.034  16.545  0.1422 -0.1988 -0.5772
  362TMC3    C5 5419   3.102   3.138  16.609  0.0667 -0.5832  0.0323
  362TMC3    C6 5420   3.126   3.171  16.742  0.1450 -0.6944  1.2295
  362TMC3     C 5421   3.251   2.811  16.564 -0.0567  0.4638 -0.8347
  362TMC3     O 5422   3.199   2.787  16.457  0.0071  0.1238 -0.5200
  362TMC3     H 5423   3.261   2.876  16.835 -0.2323  1.1084  0.6309
  362TMC3    H1 5424   3.141   3.016  16.439 -2.6773 -0.7449 -0.0685
  362TMC3    H2 5425   3.076   3.259  16.783 -0.7864 -1.2665  1.3213
  362TMC3    C7 5426   3.010   3.218  16.540  0.5191  0.1937  0.3707
  362TMC3    C8 5427   3.214   3.102  16.955  0.1364 -0.0043  0.1761
  362TMC3    O1 5428   3.025   3.338  16.558 -0.6760 -1.0138  0.3228
  362TMC3    O2 5429   3.314   3.050  17.008  0.0708 -0.3496  0.0188
  363TMC3    C1 5430   2.036   0.134   9.693 -0.1529  0.2103  0.1248
  363TMC3    C2 5431   1.937   0.055   9.738  0.9971  0.2581  0.5631
  363TMC3    C3 5432   1.814   0.108   9.781  0.1604  0.0009 -0.0453
  363TMC3    C4 5433   2.027   0.265   9.705  0.3396 -0.6752  0.9993
  363TMC3    C5 5434   1.905   0.323   9.737 -0.1163 -0.3600 -0.1402
  363TMC3    C6 5435   1.792   0.244   9.767  0.4048  0.3286 -0.4428
  363TMC3     C 5436   2.169   0.073   9.662 -0.1156  0.1546 -0.2335
  363TMC3     O 5437   2.271   0.139   9.658  0.4338  0.2664 -0.1913
  363TMC3     H 5438   1.955   4.670   9.758 -2.7821 -1.2637 -4.0318
  363TMC3    H1 5439   2.107   0.327   9.667  0.8444 -0.3594  2.5849
  363TMC3    H2 5440   1.694   0.286   9.784  0.6279  1.0180 -0.8541
  363TMC3    C7 5441   1.874   0.458   9.704  0.2874 -0.7766 -0.5670
  363TMC3    C8 5442   1.716   0.037   9.865  0.8253  0.3814  0.0245
  363TMC3    O1 5443   1.757   0.486   9.684  0.3042 -0.0888 -0.6050
  363TMC3    O2 5444   1.635   0.101   9.937 -0.3293  0.6242 -0.1767
  364MPD2     C 5445   0.185   4.257  10.479 -0.7046  0.4393  0.1530
  364MPD2    C1 5446   0.260   4.180  10.398 -0.1644  0.1752 -0.7261
  364MPD2    C2 5447   0.345   4.084  10.458  0.3016  0.1334  0.0976
  364MPD2    C3 5448   0.349   4.064  10.592  0.0810 -0.1833  0.0502
  364MPD2    C4 5449   0.269   4.146  10.668 -0.3291 -0.3405  0.2034
  364MPD2    C5 5450   0.184   4.239  10.614  0.4766  0.3769 -0.5536
  364MPD2     H 5451   0.403   4.024  10.390 -0.3294 -1.0815  0.6371
  364MPD2    H1 5452   0.292   4.147  10.774 -0.7162  0.8186  0.2771
  364MPD2    H2 5453   0.128   4.339  10.438  0.3832  1.0882 -0.0523
  364MPD2    H3 5454   0.126   4.305  10.677 -0.2712  0.5296 -1.3948
  364MPD2     N 5455   0.433   3.964  10.652 -0.1494  0.4910  0.3632
  364MPD2    H5 5456   0.415   3.935  10.748 -0.4720 -1.5410 -0.3107
  364MPD2    N1 5457   0.275   4.231  10.268  0.2990  0.2320 -0.1473
  364MPD2    H7 5458   0.251   4.328  10.250  1.2165 -0.1113 -3.2344
  365TMC3    C1 5459   0.351   4.238  10.041  0.1033  0.5933  0.4208
  365TMC3    C2 5460   0.440   4.188   9.956  0.3547 -0.5409  0.3617
  365TMC3    C3 5461   0.454   4.256   9.840 -0.1074 -0.2535 -0.2056
  365TMC3    C4 5462   0.291   4.358  10.021  0.1016  0.5295 -0.6094
  365TMC3    C5 5463   0.311   4.425   9.902 -0.8565 -0.2066  0.8503
  365TMC3    C6 5464   0.411   4.385   9.815  0.5805 -0.4663  0.3419
  365TMC3     C 5465   0.338   4.165  10.164 -0.3548 -0.2258  0.7862
  365TMC3     O 5466   0.368   4.046  10.162  0.3207  0.3146  0.1918
  365TMC3     H 5467   0.491   4.093   9.969  1.2263 -0.0746  0.3904
  365TMC3    H1 5468   0.217   4.401  10.087 -1.3015 -2.2663 -0.3507
  365TMC3    H2 5469   0.419   4.439   9.721  0.7909 -1.9716 -0.5106
  365TMC3    C7 5470   0.250   4.550   9.869 -0.3413  0.0059 -0.8074
  365TMC3    C8 5471   0.502   4.185   9.720  0.4088  0.5424  0.0703
  365TMC3    O1 5472   0.260   4.590   9.756  0.0946  0.1109  0.0923
  365TMC3    O2 5473   0.547   4.261   9.632 -0.1263 -0.1057 -0.3086
  366MPD2     C 5474   3.642   0.574  15.429  0.3430 -0.7453  0.1365
  366MPD2    C1 5475   3.647   0.647  15.314 -0.2145 -0.5693 -1.4687
  366MPD2    C2 5476   3.668   0.593  15.190  0.6726 -0.0189 -0.1168
  366MPD2    C3 5477   3.710   0.462  15.180 -0.7276 -0.4865  0.0728
  366MPD2    C4 5478   3.704   0.381  15.296  0.5406 -0.3476 -0.0485
  366MPD2    C5 5479   3.672   0.439  15.415 -0.2758 -0.1666  0.1233
  366MPD2     H 5480   3.685   0.661  15.108 -0.8785 -1.3334 -1.5311
  366MPD2    H1 5481   3.748   0.282  15.293  0.8994 -0.1695 -0.6799
  366MPD2    H2 5482   3.619   0.608  15.529 -1.7597 -2.9027  0.3876
  366MPD2    H3 5483   3.671   0.375  15.502 -0.5737 -0.7069 -0.2804
  366MPD2     N 5484   3.783   0.414  15.073  0.4172  0.6716  0.3626
  366MPD2    H5 5485   3.838   0.331  15.094 -1.3552 -0.2809  1.1624
  366MPD2    N1 5486   3.646   0.789  15.319 -0.4440  0.1070 -0.0903
  366MPD2    H7 5487   3.631   0.843  15.235 -1.1226  0.1801  0.0852
  367TMC3    C1 5488   3.720   0.993  15.373  0.3090  0.0304 -0.6510
  367TMC3    C2 5489   3.847   1.037  15.405  0.4420  0.0445  0.4042
  367TMC3    C3 5490   3.868   1.172  15.383 -0.3828  0.0826  0.4550
  367TMC3    C4 5491   3.616   1.070  15.313 -0.1195 -0.2091  0.6407
  367TMC3    C5 5492   3.644   1.200  15.287  0.3930 -0.7751 -0.2724
  367TMC3    C6 5493   3.768   1.251  15.321  0.2558  0.4302 -0.0786
  367TMC3     C 5494   3.682   0.864  15.428 -0.4554 -0.4630  1.0882
  367TMC3     O 5495   3.728   0.827  15.533 -0.6063 -0.5597  0.2531
  367TMC3     H 5496   3.911   0.986  15.476 -2.1769 -1.7259  1.4924
  367TMC3    H1 5497   3.515   1.033  15.305 -1.3413  2.4597  3.3578
  367TMC3    H2 5498   3.782   1.359  15.314 -0.8552  0.5136 -0.9996
  367TMC3    C7 5499   3.550   1.285  15.221 -0.5201  0.7248  0.1801
  367TMC3    C8 5500   4.000   1.223  15.417  0.4000  0.4450  0.2812
  367TMC3    O1 5501   3.583   1.401  15.223 -0.2268  0.1682 -0.6734
  367TMC3    O2 5502   4.078   1.135  15.449  0.7855  0.0310  0.4898
  368MPD2     C 5503   0.076   2.987  13.303  0.3002  0.0603 -0.3620
  368MPD2    C1 5504   0.114   3.017  13.177  0.2727  0.2603 -0.4963
  368MPD2    C2 5505   0.247   3.027  13.146 -0.4619 -0.3426 -0.1444
  368MPD2    C3 5506   0.342   3.001  13.245 -0.5274 -0.1306  0.1325
  368MPD2    C4 5507   0.297   2.967  13.370 -0.1082 -0.4279 -0.1495
  368MPD2    C5 5508   0.162   2.975  13.406  0.5831  0.0862  0.2307
  368MPD2     H 5509   0.276   3.065  13.048  2.2337 -0.4843  0.6035
  368MPD2    H1 5510   0.367   2.933  13.445 -2.0139 -3.0419  0.4051
  368MPD2    H2 5511   4.690   2.991  13.327 -0.1198 -0.2923 -2.1841
  368MPD2    H3 5512   0.122   2.953  13.505  1.0271 -0.7122  0.2348
  368MPD2     N 5513   0.479   2.999  13.222  0.0479  0.5367  0.1875
  368MPD2    H5 5514   0.547   2.980  13.295 -0.0383  2.6138  0.8197
  368MPD2    N1 5515   0.011   3.027  13.082 -0.2516  0.6547  0.2309
  368MPD2    H7 5516   4.637   3.002  13.109 -0.8155  1.3125 -1.1401
  369TMC3    C1 5517   4.623   3.067  12.884 -0.4976 -0.3653 -0.4409
  369TMC3    C2 5518   4.599   3.155  12.787 -0.3293  1.0671 -0.4424
  369TMC3    C3 5519   4.478   3.155  12.723 -0.4412  0.6634 -0.3058
  369TMC3    C4 5520   4.537   2.962  12.913  0.1330  0.9045  1.3055
  369TMC3    C5 5521   4.419   2.966  12.851  0.2569 -0.4647  0.1444
  369TMC3    C6 5522   4.388   3.058  12.757 -0.9463 -0.6722  0.4212
  369TMC3     C 5523   0.028   3.071  12.951 -0.4038  0.2779  1.0564
  369TMC3     O 5524   0.115   3.125  12.888 -0.2467 -0.4806  0.0088
  369TMC3     H 5525   4.662   3.240  12.762  0.4519  0.3536 -0.8815
  369TMC3    H1 5526   4.561   2.876  12.974  1.7935  1.6906  1.7816
  369TMC3    H2 5527   4.293   3.058  12.704  1.0821  1.9082 -3.1444
  369TMC3    C7 5528   4.322   2.866  12.903  0.2121  0.3659  0.2833
  369TMC3    C8 5529   4.446   3.276  12.656 -0.2165  0.3840  0.2325
  369TMC3    O1 5530   4.344   2.819  13.012 -0.7764  0.4924  0.4860
  369TMC3    O2 5531   4.534   3.351  12.620 -0.2342 -0.1208  0.4876
  370TMC3    C1 5532   4.492   3.763  16.202  1.0345 -0.6850 -0.1873
  370TMC3    C2 5533   4.429   3.696  16.305 -0.2850 -0.0209 -0.0904
  370TMC3    C3 5534   4.354   3.587  16.270  0.1613 -0.3080  0.4525
  370TMC3    C4 5535   4.463   3.729  16.073  0.3613 -0.5557 -0.1788
  370TMC3    C5 5536   4.388   3.620  16.044  0.4271 -0.0024  0.1352
  370TMC3    C6 5537   4.337   3.534  16.142 -0.6061 -0.4430  0.0008
  370TMC3     C 5538   4.626   3.826  16.226  0.2038  0.3997 -0.0301
  370TMC3     O 5539   4.670   3.808  16.339  0.0946 -0.6700  0.1911
  370TMC3     H 5540   4.442   3.725  16.409  0.2655  1.5205 -0.5958
  370TMC3    H1 5541   4.506   3.763  15.979  0.0968  1.0527  0.2809
  370TMC3    H2 5542   4.270   3.455  16.109 -1.1459 -0.4416  1.1139
  370TMC3    C7 5543   4.405   3.559  15.917  0.2176 -0.2041  0.6692
  370TMC3    C8 5544   4.308   3.505  16.373 -0.0075 -0.4539  0.5308
  370TMC3    O1 5545   4.393   3.631  15.816  0.1245  0.4551 -0.5797
  370TMC3    O2 5546   4.275   3.391  16.339  0.3733 -0.7327  0.0727
  371TMC3    C1 5547   0.813   2.128  15.242 -0.2240 -0.4844 -0.0684
  371TMC3    C2 5548   0.688   2.087  15.214  0.4671  0.4697  0.0978
  371TMC3    C3 5549   0.596   2.174  15.161  0.9736 -0.2075  0.3530
  371TMC3    C4 5550   0.855   2.243  15.180  0.2340 -0.2481 -0.0149
  371TMC3    C5 5551   0.759   2.331  15.132 -0.8638  0.5718  0.1220
  371TMC3    C6 5552   0.627   2.302  15.127 -0.2830  0.3093 -0.4789
  371TMC3     C 5553   0.900   2.061  15.331  0.0584  0.0902 -0.3093
  371TMC3     O 5554   1.019   2.079  15.324  0.0940  0.1762 -0.2298
  371TMC3     H 5555   0.660   1.985  15.235  0.1833  0.4820 -0.2169
  371TMC3    H1 5556   0.955   2.280  15.202 -0.0701  1.7783 -2.0362
  371TMC3    H2 5557   0.564   2.368  15.069 -1.7381 -2.3524 -1.9194
  371TMC3    C7 5558   0.801   2.442  15.053 -0.0415  0.1724  0.1181
  371TMC3    C8 5559   0.455   2.142  15.176 -0.2906  0.3153  0.4094
  371TMC3    O1 5560   0.719   2.506  14.989 -0.5653 -0.5416  0.3388
  371TMC3    O2 5561   0.430   2.026  15.160  0.5277  0.5270 -0.2536
  372MPD2     C 5562   4.569   3.438  12.950  0.2501 -0.0611  0.1500
  372MPD2    C1 5563   4.672   3.414  13.044 -0.0421 -0.2277  0.4011
  372MPD2    C2 5564   4.638   3.350  13.165 -0.3314  0.0081 -0.2944
  372MPD2    C3 5565   4.512   3.290  13.174 -0.9056  0.4619 -0.3261
  372MPD2    C4 5566   4.416   3.301  13.077  0.0464 -0.1249 -0.0204
  372MPD2    C5 5567   4.445   3.394  12.976  0.2898 -0.1247 -0.1535
  372MPD2     H 5568   4.716   3.333  13.239  0.5509 -1.4282 -1.5733
  372MPD2    H1 5569   4.314   3.264  13.075  0.0938 -0.0947 -2.8172
  372MPD2    H2 5570   4.576   3.513  12.872 -0.4402 -0.4883 -0.3185
  372MPD2    H3 5571   4.368   3.426  12.907 -1.0693 -0.8897  1.0038
  372MPD2     N 5572   4.493   3.207  13.287  0.5763  0.4034 -0.7617
  372MPD2    H5 5573   4.571   3.204  13.352 -1.0581 -0.1703  1.1499
  372MPD2    N1 5574   0.084   3.460  13.024 -0.4395 -0.6745  0.1642
  372MPD2    H7 5575   0.147   3.434  13.100 -0.5499 -2.4031 -0.3435
  373TMC3    C1 5576   4.431   3.016  13.400  0.2812 -0.6542  0.0199
  373TMC3    C2 5577   4.490   3.059  13.518 -0.3840  0.1276 -0.4595
  373TMC3    C3 5578   4.517   2.962  13.605  0.2501 -0.2656  0.3139
  373TMC3    C4 5579   4.409   2.879  13.379 -0.3090  0.5521  0.5566
  373TMC3    C5 5580   4.446   2.783  13.475  0.1722 -0.2754  0.0815
  373TMC3    C6 5581   4.506   2.826  13.595  0.0384  0.2921 -0.1299
  373TMC3     C 5582   4.409   3.102  13.292 -0.1695 -0.6799 -0.1672
  373TMC3     O 5583   4.324   3.065  13.213 -0.4934 -0.0821  0.4638
  373TMC3     H 5584   4.511   3.164  13.534  1.8925 -0.3684 -0.1842
  373TMC3    H1 5585   4.361   2.857  13.284  0.9942  0.3248 -0.0392
  373TMC3    H2 5586   4.557   2.757  13.661  0.3040  0.3371 -0.2871
  373TMC3    C7 5587   4.496   2.666  13.410 -1.2156  0.0199  0.6998
  373TMC3    C8 5588   4.607   3.010  13.697  0.1185  0.1556 -0.2139
  373TMC3    O1 5589   4.469   2.638  13.294 -0.6234 -0.6694 -0.3264
  373TMC3    O2 5590   4.646   3.125  13.691 -0.0218 -0.5582  0.1152
  374TMC3    C1 5591   1.132   3.042   9.758  0.7914  0.3037 -0.0735
  374TMC3    C2 5592   1.136   3.162   9.816 -0.3393 -0.9071 -0.2225
  374TMC3    C3 5593   1.128   3.273   9.738  0.0570 -0.0853  0.1805
  374TMC3    C4 5594   1.121   3.028   9.620  0.7992 -0.1103 -0.3925
  374TMC3    C5 5595   1.116   3.145   9.549  0.1567 -0.3867  0.2956
  374TMC3    C6 5596   1.110   3.272   9.604 -0.7750  0.5176 -0.8424
  374TMC3     C 5597   1.164   2.925   9.840  0.7071  0.8683 -0.6107
  374TMC3     O 5598   1.234   2.950   9.936 -0.0105 -0.4258  0.0769
  374TMC3     H 5599   1.164   3.166   9.921  1.1505  1.1081 -0.6886
  374TMC3    H1 5600   1.125   2.937   9.561 -1.1246 -0.5046  0.1037
  374TMC3    H2 5601   1.105   3.363   9.546 -0.4102 -0.0916 -1.8379
  374TMC3    C7 5602   1.106   3.128   9.409  0.9721  0.2724  0.1575
  374TMC3    C8 5603   1.154   3.408   9.798  0.3165 -0.0983  0.0194
  374TMC3    O1 5604   1.074   3.021   9.365 -0.0517 -0.8931 -0.1720
  374TMC3    O2 5605   1.179   3.497   9.722  0.0949 -0.2690 -1.0692
  375MPD2     C 5606   1.242   4.448  16.651 -0.6364  0.3808  0.6108
  375MPD2    C1 5607   1.138   4.372  16.601 -0.5752 -0.2851  0.4773
  375MPD2    C2 5608   1.160   4.280  16.496 -0.2122  0.8204 -0.1035
  375MPD2    C3 5609   1.288   4.276  16.441 -0.4367 -0.6272  0.0723
  375MPD2    C4 5610   1.390   4.345  16.497  0.3819 -0.5230  0.4372
  375MPD2    C5 5611   1.366   4.434  16.600 -0.0695  0.8832 -0.4132
  375MPD2     H 5612   1.077   4.226  16.453  1.0476  0.1984 -1.7661
  375MPD2    H1 5613   1.481   4.346  16.439  1.2910  1.5489  1.8991
  375MPD2    H2 5614   1.222   4.524  16.726  0.2075  1.1078  0.1089
  375MPD2    H3 5615   1.444   4.504  16.628 -0.7821  1.6519 -0.3469
  375MPD2     N 5616   1.313   4.200  16.331 -0.1539 -0.0942  0.0782
  375MPD2    H5 5617   1.406   4.179  16.299 -0.5133 -1.5953  0.0288
  375MPD2    N1 5618   1.006   4.388  16.649  0.5346 -0.3685  0.4402
  375MPD2    H7 5619   0.933   4.336  16.603  1.3614 -0.2750 -0.9742
  376TMC3    C1 5620   1.284   4.072  16.149 -0.8565  0.5296 -0.1602
  376TMC3    C2 5621   1.412   4.016  16.164 -0.4393  0.4254 -0.0913
  376TMC3    C3 5622   1.473   3.964  16.050  0.1812 -0.3765  0.6411
  376TMC3    C4 5623   1.230   4.094  16.026  0.5300  0.2099  1.0322
  376TMC3    C5 5624   1.297   4.057  15.918 -0.6221 -0.2604 -0.2590
  376TMC3    C6 5625   1.422   4.002  15.928 -0.3279  0.0041 -0.3627
  376TMC3     C 5626   1.219   4.137  16.260  0.3902 -0.0922 -0.4682
  376TMC3     O 5627   1.097   4.151  16.258 -0.3475  1.1659 -0.3758
  376TMC3     H 5628   1.458   4.005  16.261 -0.6329  1.2865  0.0956
  376TMC3    H1 5629   1.128   4.130  16.011 -0.0162 -0.8017  2.3283
  376TMC3    H2 5630   1.476   3.975  15.838  1.6640  0.2229  0.7672
  376TMC3    C7 5631   1.257   4.109  15.789 -0.2029 -0.4395 -0.1729
  376TMC3    C8 5632   1.620   3.951  16.050  0.1954  0.5573 -0.4518
  376TMC3    O1 5633   1.224   4.228  15.784  0.4128  0.3603 -0.5708
  376TMC3    O2 5634   1.680   3.976  15.947  0.2090 -0.8574 -0.3381
  377MPD2     C 5635   3.393   3.522  11.621 -0.0658  0.5748 -0.1569
  377MPD2    C1 5636   3.462   3.489  11.736  0.1368  0.4427  0.2544
  377MPD2    C2 5637   3.385   3.467  11.849 -0.4012 -0.1723  0.0378
  377MPD2    C3 5638   3.249   3.482  11.855  0.6169  0.1382  0.3957
  377MPD2    C4 5639   3.187   3.530  11.741 -0.0311  0.4275 -0.1903
  377MPD2    C5 5640   3.265   3.547  11.624 -0.0141  0.5840  0.6188
  377MPD2     H 5641   3.438   3.445  11.941  0.4061  1.2740 -0.0833
  377MPD2    H1 5642   3.083   3.560  11.746  0.4315  2.2176 -1.2446
  377MPD2    H2 5643   3.446   3.526  11.526 -0.7344 -1.4480 -0.6270
  377MPD2    H3 5644   3.221   3.584  11.532  3.2183 -1.4571 -1.7539
  377MPD2     N 5645   3.172   3.468  11.976  0.6353  0.2247 -0.4680
  377MPD2    H5 5646   3.076   3.501  11.971  0.6299 -0.2186 -3.3636
  377MPD2    N1 5647   3.605   3.489  11.739 -0.0160 -0.4011 -0.1893
  377MPD2    H7 5648   3.654   3.521  11.656  0.9462  0.0341  0.5525
  378TMC3    C1 5649   3.992   3.340  11.685  0.3906 -0.2053 -0.2654
  378TMC3    C2 5650   3.857   3.363  11.706 -0.3742 -0.2534 -0.2572
  378TMC3    C3 5651   3.825   3.453  11.807  0.0790 -0.3967 -0.0486
  378TMC3    C4 5652   4.088   3.403  11.752 -0.2364  0.3054 -0.6251
  378TMC3    C5 5653   4.048   3.474  11.870  0.0883 -0.3392 -0.2466
  378TMC3    C6 5654   3.915   3.490  11.900  0.1409  0.3389  0.3446
  378TMC3     C 5655   4.030   3.290  11.558  0.1879 -0.1154  0.3495
  378TMC3     O 5656   4.146   3.308  11.521  0.5116  0.1262  0.6655
  378TMC3     H 5657   3.779   3.310  11.653 -1.4759  0.5906  0.5083
  378TMC3    H1 5658   4.191   3.404  11.718  0.8126 -1.6590  2.5115
  378TMC3    H2 5659   3.884   3.526  11.998  0.0536  0.1271  0.3957
  378TMC3    C7 5660   4.153   3.518  11.962 -0.1493 -0.2203 -0.4855
  378TMC3    C8 5661   3.684   3.453  11.846 -0.6579 -0.2906  0.0964
  378TMC3    O1 5662   4.117   3.532  12.079  0.7131  0.2548  0.2780
  378TMC3    O2 5663   3.659   3.418  11.961  0.2304 -0.2973  0.2636
  379MPD2     C 5664   0.417   1.514  15.915 -0.2166  0.0705 -0.4215
  379MPD2    C1 5665   0.343   1.441  16.003 -0.4626 -0.5943 -0.5330
  379MPD2    C2 5666   0.400   1.414  16.132 -0.1867 -0.0250 -0.6569
  379MPD2    C3 5667   0.523   1.461  16.156  0.1237 -0.0241  0.0481
  379MPD2    C4 5668   0.592   1.539  16.069 -0.2350 -0.0917 -0.9177
  379MPD2    C5 5669   0.543   1.564  15.944  0.1351  0.2215  0.2338
  379MPD2     H 5670   0.347   1.357  16.207 -0.8289  0.2401 -0.9072
  379MPD2    H1 5671   0.695   1.565  16.093 -0.3740 -0.9470  0.6118
  379MPD2    H2 5672   0.381   1.529  15.814 -1.0783 -0.2998 -0.1686
  379MPD2    H3 5673   0.601   1.628  15.878  2.2632 -1.8464  0.1356
  379MPD2     N 5674   0.603   1.419  16.273 -0.8266 -0.8328  0.1110
  379MPD2    H5 5675   0.701   1.442  16.277 -1.1625  0.3303  1.6617
  379MPD2    N1 5676   0.221   1.385  15.964 -0.0605 -0.4258  0.3165
  379MPD2    H7 5677   0.193   1.410  15.870 -0.0781  0.5296  0.5720
  380TMC3    C1 5678   0.006   1.285  15.981 -0.0262 -0.4877 -0.4360
  380TMC3    C2 5679   4.677   1.158  15.992 -0.8608 -0.3820 -0.6227
  380TMC3    C3 5680   4.561   1.137  15.928 -0.4851 -0.3049 -0.3335
  380TMC3    C4 5681   4.666   1.384  15.909 -0.3287 -0.2588  1.1714
  380TMC3    C5 5682   4.542   1.350  15.843  0.6637 -0.0477  0.1816
  380TMC3    C6 5683   4.492   1.226  15.852 -0.3726 -0.0782  0.6308
  380TMC3     C 5684   0.139   1.303  16.039  0.2933 -0.2255 -0.3730
  380TMC3     O 5685   0.176   1.239  16.137  0.3284 -0.3289 -0.0010
  380TMC3     H 5686   4.717   1.072  16.044 -1.7125 -0.4138 -0.0209
  380TMC3    H1 5687   4.704   1.485  15.924  1.2409 -0.8452  1.0482
  380TMC3    H2 5688   4.391   1.199  15.821 -0.9955 -0.7333  3.1932
  380TMC3    C7 5689   4.495   1.444  15.751 -0.5779  0.0453 -0.2436
  380TMC3    C8 5690   4.518   0.999  15.903 -0.4519  0.4832 -0.4302
  380TMC3    O1 5691   4.552   1.549  15.743  0.0624  0.3359  0.2660
  380TMC3    O2 5692   4.523   0.910  15.990 -0.4023 -0.4186  0.3474
  381TMC3    C1 5693   4.380   2.733  16.170 -0.0173 -0.2522  0.7035
  381TMC3    C2 5694   4.393   2.861  16.131 -0.0611  0.2769  0.4201
  381TMC3    C3 5695   4.375   2.957  16.233  0.2056  0.0224  0.7579
  381TMC3    C4 5696   4.351   2.701  16.301  0.0453 -0.0918  0.6717
  381TMC3    C5 5697   4.328   2.800  16.394 -0.5551  0.4099 -0.6614
  381TMC3    C6 5698   4.347   2.933  16.363 -0.4374  0.0481 -0.1230
  381TMC3     C 5699   4.379   2.625  16.072 -0.1017 -0.4752  0.6266
  381TMC3     O 5700   4.376   2.507  16.107 -0.3990  0.3565  0.6005
  381TMC3     H 5701   4.455   2.881  16.044 -1.6086  0.6115 -0.5996
  381TMC3    H1 5702   4.343   2.597  16.330 -1.6916  0.4696  2.1889
  381TMC3    H2 5703   4.329   3.014  16.433  2.5942 -1.8314  2.8699
  381TMC3    C7 5704   4.332   2.752  16.531  0.0255 -0.2753 -0.9595
  381TMC3    C8 5705   4.444   3.080  16.192  0.2792 -0.2331 -0.1486
  381TMC3    O1 5706   4.383   2.644  16.552 -0.1131  0.4340 -0.0676
  381TMC3    O2 5707   4.464   3.107  16.073  0.3057 -0.2523 -0.2201
  382MPD2     C 5708   3.869   0.657  16.735 -0.2952 -0.4821  0.3535
  382MPD2    C1 5709   3.885   0.667  16.875  0.1722 -0.2632 -0.7054
  382MPD2    C2 5710   3.845   0.566  16.957 -0.7224 -0.2149 -0.1504
  382MPD2    C3 5711   3.795   0.450  16.900  0.6974 -0.4007  0.3098
  382MPD2    C4 5712   3.774   0.443  16.762 -0.5308  0.3084 -0.0682
  382MPD2    C5 5713   3.808   0.544  16.678 -0.5326  0.3289 -0.0915
  382MPD2     H 5714   3.863   0.580  17.063 -0.7791 -0.5282 -0.1006
  382MPD2    H1 5715   3.738   0.348  16.725 -1.7789  0.7984 -0.1173
  382MPD2    H2 5716   3.905   0.736  16.670 -1.1995 -1.0426 -0.8287
  382MPD2    H3 5717   3.800   0.533  16.571 -2.7103  1.4942 -0.0593
  382MPD2     N 5718   3.761   0.347  16.989 -0.2057  0.5290 -0.5435
  382MPD2    H5 5719   3.726   0.265  16.940  2.1557 -0.5917 -0.3326
  382MPD2    N1 5720   3.935   0.785  16.940 -0.0351 -0.1330 -0.1436
  382MPD2    H7 5721   3.965   0.775  17.036  0.8228 -2.9183 -0.7101
  383TMC3    C1 5722   3.703   0.232  17.184 -0.1029 -0.0744  0.2426
  383TMC3    C2 5723   3.602   0.166  17.125 -0.0687 -0.3708 -0.0275
  383TMC3    C3 5724   3.548   0.061  17.193 -0.1732  0.3315  0.5519
  383TMC3    C4 5725   3.745   0.199  17.309  0.0998  0.0054  0.0840
  383TMC3    C5 5726   3.690   0.094  17.374 -0.3320 -0.1089 -0.0387
  383TMC3    C6 5727   3.594   0.018  17.318 -0.5467 -0.0762  0.3675
  383TMC3     C 5728   3.769   0.346  17.127 -0.4096 -0.4414 -0.2087
  383TMC3     O 5729   3.816   0.425  17.207  0.4202  0.0816  0.2125
  383TMC3     H 5730   3.557   0.194  17.030 -0.2284  2.5592  0.9124
  383TMC3    H1 5731   3.828   0.251  17.355  2.1121 -1.3803 -1.9688
  383TMC3    H2 5732   3.570   4.644  17.366 -0.6014  0.5694  1.6055
  383TMC3    C7 5733   3.758   0.022  17.486  0.3626  0.0316 -0.2077
  383TMC3    C8 5734   3.421   4.720  17.134  0.6221  0.0168  0.6249
  383TMC3    O1 5735   3.695   4.652  17.545 -0.4839  0.4338 -0.2021
  383TMC3    O2 5736   3.391   0.043  17.025  0.4075 -0.1640 -0.1527
  384MPD2     C 5737   0.333   1.627  11.566  0.3155 -0.5262 -0.0189
  384MPD2    C1 5738   0.340   1.497  11.608  0.2152  0.2488 -0.0206
  384MPD2    C2 5739   0.354   1.396  11.514 -0.0091  0.1390  0.2075
  384MPD2    C3 5740   0.391   1.433  11.389 -0.9962  0.4009  0.3151
  384MPD2    C4 5741   0.400   1.559  11.355  0.7172  0.6179 -0.0516
  384MPD2    C5 5742   0.378   1.665  11.442 -0.0988  0.2871 -0.4738
  384MPD2     H 5743   0.358   1.293  11.548  1.2062 -0.0617 -0.5814
  384MPD2    H1 5744   0.430   1.589  11.255 -0.4784  1.0091 -0.2851
  384MPD2    H2 5745   0.314   1.702  11.642 -0.0739 -0.1073 -0.5312
  384MPD2    H3 5746   0.367   1.767  11.408  2.1625  0.5491 -0.4543
  384MPD2     N 5747   0.403   1.327  11.294  0.0524 -0.0599 -0.3327
  384MPD2    H5 5748   0.379   1.237  11.335  0.7889  0.2856  0.8336
  384MPD2    N1 5749   0.304   1.439  11.730 -0.0965 -0.3934  0.1315
  384MPD2    H7 5750   0.296   1.338  11.729  0.4578 -0.4050 -2.7203
  385TMC3    C1 5751   0.423   1.195  11.097 -0.0814 -0.8720  0.9702
  385TMC3    C2 5752   0.323   1.162  11.005 -0.1924  0.4164  0.6052
  385TMC3    C3 5753   0.247   1.052  11.041  0.5167 -0.2954 -0.1821
  385TMC3    C4 5754   0.448   1.112  11.201 -0.1382  0.3503  0.4226
  385TMC3    C5 5755   0.369   0.999  11.227 -0.1539  0.2816  0.2176
  385TMC3    C6 5756   0.249   0.986  11.155  0.2830 -0.3303 -0.3244
  385TMC3     C 5757   0.425   1.332  11.152  0.6227  0.6869 -0.0037
  385TMC3     O 5758   0.448   1.425  11.075 -0.2190 -0.0869  0.6004
  385TMC3     H 5759   0.292   1.220  10.919 -0.3798 -1.6505 -0.7095
  385TMC3    H1 5760   0.531   1.121  11.271 -0.5858 -2.9519  1.3857
  385TMC3    H2 5761   0.170   0.914  11.175 -0.7508  0.8167 -0.2781
  385TMC3    C7 5762   0.355   0.957  11.372 -0.0557 -0.6767 -0.7663
  385TMC3    C8 5763   0.186   0.977  10.933 -0.3476  0.3569 -0.0021
  385TMC3    O1 5764   0.423   1.026  11.448 -0.2150  0.0081  0.3178
  385TMC3    O2 5765   0.078   0.918  10.953  0.2743  0.1353 -0.0123
  386TMC3    C1 5766   0.658   3.610  11.587  0.7158  0.5281 -0.3860
  386TMC3    C2 5767   0.674   3.646  11.459 -0.2279  0.0996 -0.1637
  386TMC3    C3 5768   0.569   3.643  11.378 -0.1200 -0.7340 -0.1763
  386TMC3    C4 5769   0.533   3.598  11.642 -0.0930  0.3377 -0.2210
  386TMC3    C5 5770   0.424   3.613  11.553  0.3291 -0.1313 -1.1404
  386TMC3    C6 5771   0.439   3.637  11.423 -0.0406  0.1844  0.0372
  386TMC3     C 5772   0.765   3.621  11.682  0.0673 -0.2148 -0.2745
  386TMC3     O 5773   0.842   3.712  11.657 -0.0248 -0.0768  0.6040
  386TMC3     H 5774   0.775   3.638  11.420 -0.4259 -2.9879 -0.0340
  386TMC3    H1 5775   0.535   3.574  11.747 -1.6009  1.6304  0.0923
  386TMC3    H2 5776   0.353   3.654  11.359 -0.4688 -0.0244  0.5630
  386TMC3    C7 5777   0.300   3.616  11.619 -0.4476  0.2644 -0.0241
  386TMC3    C8 5778   0.595   3.583  11.245 -0.1219  0.1572  0.1092
  386TMC3    O1 5779   0.311   3.616  11.744  0.1385  1.1513  0.4919
  386TMC3    O2 5780   0.706   3.545  11.215 -0.0774  0.2466  0.0749
  387MPD2     C 5781   2.111   3.178   9.462 -0.5730 -0.5292 -0.2023
  387MPD2    C1 5782   2.201   3.162   9.567  0.3394  0.1024 -0.7493
  387MPD2    C2 5783   2.275   3.043   9.570  0.4272 -1.0274 -0.4998
  387MPD2    C3 5784   2.276   2.951   9.462  0.1526  0.4607 -0.3530
  387MPD2    C4 5785   2.180   2.972   9.362 -0.1819 -0.0617  0.6658
  387MPD2    C5 5786   2.096   3.081   9.368  0.4042 -0.1674  0.6070
  387MPD2     H 5787   2.343   3.029   9.654 -1.0122  0.2915  0.8760
  387MPD2    H1 5788   2.150   2.892   9.296 -1.7792  1.4183 -0.4064
  387MPD2    H2 5789   2.047   3.266   9.461 -0.7215 -0.6438 -1.7134
  387MPD2    H3 5790   2.010   3.086   9.302 -0.3749  2.2680  1.8096
  387MPD2     N 5791   2.376   2.857   9.456  0.7672 -0.2009 -0.0454
  387MPD2    H5 5792   2.435   2.852   9.539 -0.6917  0.8589  1.0580
  387MPD2    N1 5793   2.219   3.256   9.671 -0.2272  0.3783 -0.0628
  387MPD2    H7 5794   2.271   3.218   9.749 -0.2144  0.8808  0.1754
  388TMC3    C1 5795   2.259   3.472   9.762 -0.2174  0.3828  0.3290
  388TMC3    C2 5796   2.220   3.597   9.815  0.2403  0.3082  0.3573
  388TMC3    C3 5797   2.308   3.673   9.891 -0.4744 -0.6557  0.2211
  388TMC3    C4 5798   2.390   3.431   9.784 -0.3240  0.1280 -0.5093
  388TMC3    C5 5799   2.480   3.517   9.847 -0.8314 -0.0894  0.2686
  388TMC3    C6 5800   2.443   3.639   9.906 -0.7504 -0.7740 -0.5026
  388TMC3     C 5801   2.173   3.390   9.676  0.6138  0.6278 -0.2327
  388TMC3     O 5802   2.078   3.438   9.611 -0.5030 -0.0414 -0.4540
  388TMC3     H 5803   2.117   3.628   9.825 -0.4446 -1.3066 -1.6980
  388TMC3    H1 5804   2.419   3.328   9.767  0.4319  0.3573 -0.6262
  388TMC3    H2 5805   2.520   3.693   9.959 -0.9031 -1.5568  0.5210
  388TMC3    C7 5806   2.619   3.464   9.867 -0.6293  0.3466  0.2298
  388TMC3    C8 5807   2.247   3.792   9.955  0.1711  0.3685 -0.6158
  388TMC3    O1 5808   2.675   3.498   9.974  0.0318 -0.0349 -0.2703
  388TMC3    O2 5809   2.141   3.833   9.912  0.5266  0.4188  0.0481
  389MPD2     C 5810   2.030   1.974  11.023  0.2311  0.2111 -1.2834
  389MPD2    C1 5811   1.923   1.932  10.950  0.2595  0.1407  0.7181
  389MPD2    C2 5812   1.850   1.819  10.992 -0.5533 -0.5217  0.1006
  389MPD2    C3 5813   1.887   1.749  11.109 -0.3155 -0.2385  0.6785
  389MPD2    C4 5814   1.994   1.790  11.175  0.5707  0.8485 -0.3327
  389MPD2    C5 5815   2.064   1.900  11.134 -0.4642  0.3515  0.1865
  389MPD2     H 5816   1.765   1.775  10.941 -0.5676 -1.8133  1.2401
  389MPD2    H1 5817   2.035   1.740  11.262 -0.7096  1.4605  0.6155
  389MPD2    H2 5818   2.075   2.071  11.005 -0.0613  0.9574  2.0015
  389MPD2    H3 5819   2.142   1.928  11.204 -0.5735  0.2723  0.3409
  389MPD2     N 5820   1.812   1.632  11.135  0.3043 -0.6167  0.1219
  389MPD2    H5 5821   1.757   1.594  11.059  1.0893 -0.0620 -0.7200
  389MPD2    N1 5822   1.900   2.012  10.840 -0.2624 -0.0081  0.1972
  389MPD2    H7 5823   1.952   2.097  10.820 -0.1762 -0.0640  0.1848
  390TMC3    C1 5824   1.763   1.426  11.236  0.4638 -0.4650  0.2789
  390TMC3    C2 5825   1.787   1.319  11.330  0.2152  0.1266 -0.1092
  390TMC3    C3 5826   1.720   1.202  11.310  0.0734  0.2322 -0.6487
  390TMC3    C4 5827   1.680   1.403  11.124  0.6101 -0.5487  0.4880
  390TMC3    C5 5828   1.637   1.278  11.106  0.4078 -0.2362 -0.5565
  390TMC3    C6 5829   1.655   1.171  11.189  0.2660 -0.2208  0.0909
  390TMC3     C 5830   1.829   1.560  11.250  0.0223  0.1116  0.5103
  390TMC3     O 5831   1.895   1.577  11.355 -0.4700  0.7103  0.1558
  390TMC3     H 5832   1.836   1.350  11.422  0.8966  0.2826 -0.5254
  390TMC3    H1 5833   1.643   1.479  11.057  0.5976  1.7750  3.1138
  390TMC3    H2 5834   1.634   1.070  11.154 -0.3378  0.9982 -3.1044
  390TMC3    C7 5835   1.518   1.268  11.023  0.2463  0.2796  0.0048
  390TMC3    C8 5836   1.636   1.161  11.422 -1.2740  0.1547 -0.5610
  390TMC3    O1 5837   1.525   1.186  10.931  0.0367  0.1831 -0.1385
  390TMC3    O2 5838   1.672   1.195  11.531  0.2281 -0.5623 -0.1424
  391MPD2     C 5839   0.823   3.236  11.362 -0.0534 -0.3511  0.1179
  391MPD2    C1 5840   0.938   3.321  11.365  0.0885 -0.2214  0.6034
  391MPD2    C2 5841   0.986   3.356  11.239  0.4686 -0.5689  0.6500
  391MPD2    C3 5842   0.932   3.309  11.124  0.8795  0.4417  0.1647
  391MPD2    C4 5843   0.818   3.234  11.128 -0.1671 -0.0153 -0.3798
  391MPD2    C5 5844   0.759   3.193  11.250  0.6521 -0.5294  0.0485
  391MPD2     H 5845   1.081   3.406  11.226  0.2572 -0.4408 -0.4137
  391MPD2    H1 5846   0.778   3.203  11.032  0.9099  0.3007 -0.9312
  391MPD2    H2 5847   0.787   3.205  11.460 -0.7058  3.0650  0.9499
  391MPD2    H3 5848   0.668   3.135  11.252 -0.2892  0.8076 -3.5857
  391MPD2     N 5849   1.015   3.326  11.011 -0.1667 -0.0792  0.4348
  391MPD2    H5 5850   1.099   3.376  11.035  0.2591 -1.8749  2.6276
  391MPD2    N1 5851   1.011   3.342  11.488 -1.3330 -0.0878 -0.2168
  391MPD2    H7 5852   0.979   3.281  11.562  0.6325 -2.0427 -0.9841
  392TMC3    C1 5853   1.083   3.347  10.788  0.3051 -0.0892  0.0739
  392TMC3    C2 5854   1.037   3.373  10.657  0.7594  0.1170  0.9835
  392TMC3    C3 5855   1.120   3.450  10.580 -0.5195  0.7133  0.2059
  392TMC3    C4 5856   1.206   3.401  10.834 -0.4695 -0.3049  0.6407
  392TMC3    C5 5857   1.284   3.474  10.745 -0.0956  0.6274  0.4307
  392TMC3    C6 5858   1.236   3.504  10.617  0.1005  0.1449  0.1526
  392TMC3     C 5859   0.978   3.299  10.881 -0.1302 -0.0404 -0.8241
  392TMC3     O 5860   0.880   3.244  10.834  0.6293  0.0065 -0.0266
  392TMC3     H 5861   0.955   3.319  10.611  2.2830 -2.6501  1.5299
  392TMC3    H1 5862   1.246   3.368  10.929  0.6933 -0.9655 -0.0768
  392TMC3    H2 5863   1.294   3.558  10.543 -1.7814 -0.3406 -1.6555
  392TMC3    C7 5864   1.420   3.516  10.780 -0.4948 -0.0414 -0.1398
  392TMC3    C8 5865   1.095   3.436  10.439  0.3497  0.0252 -0.0976
  392TMC3    O1 5866   1.434   3.535  10.902 -0.2574  0.2752  0.4509
  392TMC3    O2 5867   1.048   3.331  10.397  0.0096  0.1056 -0.4520
  393TMC3    C1 5868   4.608   1.367  10.266  0.1532  0.5616 -0.1159
  393TMC3    C2 5869   4.481   1.385  10.308 -0.2578 -0.4958 -0.6062
  393TMC3    C3 5870   4.465   1.412  10.440 -0.0933 -0.0054 -0.1908
  393TMC3    C4 5871   4.718   1.366  10.356 -0.0468 -0.1319 -0.3089
  393TMC3    C5 5872   4.691   1.381  10.489  0.2740  0.1390 -0.1167
  393TMC3    C6 5873   4.567   1.415  10.533  0.1865 -0.6424  0.2962
  393TMC3     C 5874   4.626   1.369  10.122 -0.8369  0.5717  0.9306
  393TMC3     O 5875   4.522   1.350  10.059 -0.4341  0.5354  0.1854
  393TMC3     H 5876   4.397   1.385  10.239  0.5502  0.0200 -1.5871
  393TMC3    H1 5877   0.099   1.369  10.319  0.6304 -0.3899  1.4803
  393TMC3    H2 5878   4.553   1.432  10.639  0.5853 -0.6716  0.3544
  393TMC3    C7 5879   0.081   1.380  10.584  0.1127 -0.3364  0.7930
  393TMC3    C8 5880   4.341   1.468  10.488 -0.2774  0.0577 -0.6700
  393TMC3    O1 5881   0.067   1.449  10.684 -0.0509  0.9627 -0.0646
  393TMC3    O2 5882   4.255   1.494  10.400  0.0834 -0.4177  0.3222
  394TMC3    C1 5883   1.844   2.033  10.609 -0.2480 -0.3536  0.3619
  394TMC3    C2 5884   1.758   2.006  10.507 -0.4201 -0.3836  0.0206
  394TMC3    C3 5885   1.798   2.036  10.377  0.2580  0.0696  0.5316
  394TMC3    C4 5886   1.978   2.055  10.574  0.4989  0.5479  0.2322
  394TMC3    C5 5887   2.016   2.058  10.444 -0.1076  0.2652  0.1189
  394TMC3    C6 5888   1.925   2.060  10.339 -0.1676 -0.7689 -0.5573
  394TMC3     C 5889   1.812   1.978  10.740  0.0245  0.1430 -0.1207
  394TMC3     O 5890   1.721   1.897  10.746  0.2415 -0.4894 -0.3421
  394TMC3     H 5891   1.655   1.977  10.524 -0.4810  0.3172  0.8520
  394TMC3    H1 5892   2.053   2.058  10.652  1.2532 -0.8761 -0.4348
  394TMC3    H2 5893   1.953   2.075  10.235  2.0594 -0.7824  0.0383
  394TMC3    C7 5894   2.153   2.030  10.406 -0.1295 -0.0088  0.5071
  394TMC3    C8 5895   1.715   1.961  10.283  0.1472  0.7390  0.0489
  394TMC3    O1 5896   2.183   2.056  10.296 -0.4618 -0.5850  0.6342
  394TMC3    O2 5897   1.594   1.974  10.288 -0.0610 -0.0265 -0.0556
  395TMC3    C1 5898   1.809   4.388  14.316  0.4454  0.3404 -0.0452
  395TMC3    C2 5899   1.737   4.504  14.322 -0.0441  0.2050 -0.0498
  395TMC3    C3 5900   1.799   4.618  14.368 -0.0737  0.1708  0.6401
  395TMC3    C4 5901   1.946   4.379  14.343 -0.2713  0.0778 -0.2243
  395TMC3    C5 5902   2.006   4.498  14.364 -1.0769  0.2874 -0.2952
  395TMC3    C6 5903   1.935   4.611  14.379 -0.2270  0.1324 -0.3791
  395TMC3     C 5904   1.732   4.274  14.348 -0.1957 -0.0748 -0.5957
  395TMC3     O 5905   1.634   4.244  14.279  0.5762  0.1202 -0.5503
  395TMC3     H 5906   1.629   4.499  14.311 -0.0526 -0.6702  0.4201
  395TMC3    H1 5907   2.004   4.288  14.343  0.3887  0.4981 -0.9305
  395TMC3    H2 5908   1.990   4.701  14.407  1.0960 -1.1026  1.0457
  395TMC3    C7 5909   2.153   4.501  14.386  0.9338  0.5167 -0.2001
  395TMC3    C8 5910   1.737   4.692  14.472 -0.5643 -0.0233 -0.2146
  395TMC3    O1 5911   2.196   4.601  14.441 -0.1257 -0.1488 -0.7185
  395TMC3    O2 5912   1.798   0.073  14.510  0.1425 -0.8106  0.2416
  396MPD2     C 5913   1.947   0.046  16.915  0.4788 -1.2658  0.4051
  396MPD2    C1 5914   2.005   0.138  17.000 -0.6186 -0.0419 -0.5933
  396MPD2    C2 5915   2.038   0.266  16.945  0.4416 -0.3229  0.1225
  396MPD2    C3 5916   2.014   0.297  16.815  0.4457 -0.2293  0.3231
  396MPD2    C4 5917   1.957   0.202  16.735 -0.2916  0.1989  0.1552
  396MPD2    C5 5918   1.925   0.083  16.785 -0.4581  0.5785  0.0147
  396MPD2     H 5919   2.094   0.344  16.996  2.0915  0.3245 -2.6526
  396MPD2    H1 5920   1.948   0.212  16.627 -1.5083  3.1686  0.5447
  396MPD2    H2 5921   1.919   4.664  16.939 -1.1779 -0.3685  2.3099
  396MPD2    H3 5922   1.884   0.014  16.713  0.2632  1.4153 -1.1876
  396MPD2     N 5923   2.075   0.415  16.765 -0.0327  0.0429 -0.7432
  396MPD2    H5 5924   2.141   0.467  16.822  2.1360  0.5676 -3.7731
  396MPD2    N1 5925   2.015   0.099  17.134  0.3070 -0.1773  0.4932
  396MPD2    H7 5926   2.010   0.001  17.159  1.7452 -0.2698  0.4406
  397TMC3    C1 5927   2.079   0.122  17.349 -0.1538  0.2227  0.8968
  397TMC3    C2 5928   2.218   0.135  17.357  0.5504  0.2693  0.4362
  397TMC3    C3 5929   2.288   0.019  17.353  0.1678 -0.5296  0.7114
  397TMC3    C4 5930   2.029   4.715  17.346  0.1381  0.4126  0.9381
  397TMC3    C5 5931   2.101   4.606  17.381 -0.0992 -0.7026  0.5459
  397TMC3    C6 5932   2.235   4.623  17.397  0.8824  0.7870 -0.2863
  397TMC3     C 5933   2.044   0.196  17.234 -0.5184 -0.7916 -0.6098
  397TMC3     O 5934   2.059   0.317  17.224  0.1260  0.7209 -0.2264
  397TMC3     H 5935   2.265   0.226  17.321 -1.1144 -0.0403 -2.5037
  397TMC3    H1 5936   1.921   4.707  17.340 -0.0559  2.1427  2.1096
  397TMC3    H2 5937   2.297   4.535  17.385 -1.7113 -0.7371 -2.5758
  397TMC3    C7 5938   2.035   4.484  17.417  0.6177  0.2033  0.4955
  397TMC3    C8 5939   2.381   4.717  17.243 -0.3950  0.2011  0.2356
  397TMC3    O1 5940   1.918   4.478  17.389  0.3633 -0.1559 -0.3437
  397TMC3    O2 5941   2.361   4.624  17.172 -0.8591  0.3745 -0.7936
  398MPD2     C 5942   0.382   0.409   0.241 -0.5843 -0.0750 -0.1349
  398MPD2    C1 5943   0.497   0.327   0.240  0.8423  0.2716  0.4333
  398MPD2    C2 5944   0.618   0.391   0.268 -0.6905 -0.8076  0.3065
  398MPD2    C3 5945   0.630   0.525   0.298  0.5777  0.1946  0.5097
  398MPD2    C4 5946   0.509   0.597   0.305  0.2742 -0.3796 -0.1128
  398MPD2    C5 5947   0.388   0.541   0.267  0.8014  0.0935 -0.6839
  398MPD2     H 5948   0.711   0.338   0.250 -0.2088  1.3065 -3.5940
  398MPD2    H1 5949   0.510   0.700   0.338  0.1974 -0.9072  1.5384
  398MPD2    H2 5950   0.292   0.353   0.218 -1.7049  0.8365  2.0811
  398MPD2    H3 5951   0.292   0.592   0.275  0.8128 -0.1402  0.8584
  398MPD2     N 5952   0.757   0.584   0.314 -0.2022  0.1486 -0.0664
  398MPD2    H5 5953   0.840   0.526   0.301 -1.3844 -1.8357  1.2737
  398MPD2    N1 5954   0.490   0.188   0.205 -0.3549 -0.4748 -0.3992
  398MPD2    H7 5955   0.586   0.154   0.205 -0.0480  0.4431  1.7357
  399TMC3    C1 5956   0.432   4.697   0.137  1.0941 -0.4450 -0.0292
  399TMC3    C2 5957   0.566   4.660   0.139  0.0039 -0.0128  0.5562
  399TMC3    C3 5958   0.596   4.539   0.079 -0.2323 -0.1101 -1.0485
  399TMC3    C4 5959   0.331   4.623   0.075 -0.9618  0.1272  0.0124
  399TMC3    C5 5960   0.368   4.512   0.012  0.3656 -0.2014 -0.3944
  399TMC3    C6 5961   0.499   4.466   0.017  0.2104 -0.1344 -0.0117
  399TMC3     C 5962   0.389   0.107   0.178  0.3580  0.0965  0.0186
  399TMC3     O 5963   0.270   0.128   0.163 -0.5736  0.0660 -0.0496
  399TMC3     H 5964   0.630   4.695   0.219 -0.4435  0.7820  0.5672
  399TMC3    H1 5965   0.225   4.649   0.070 -0.4193  2.5417  0.8413
  399TMC3    H2 5966   0.524   4.377  17.643 -1.7222 -1.1887  0.8218
  399TMC3    C7 5967   0.263   4.421  17.660 -0.6490  0.0362 -0.3981
  399TMC3    C8 5968   0.732   4.486   0.076  0.2261  0.0707 -0.0126
  399TMC3    O1 5969   0.163   4.436   0.048 -0.1591 -0.7399 -0.0784
  399TMC3    O2 5970   0.747   4.362   0.073 -0.6617 -0.3133 -0.1808
  400TMC3    C1 5971   3.463   4.519  16.840 -0.2449  0.2041 -0.5657
  400TMC3    C2 5972   3.346   4.449  16.843  0.1017 -0.1854  0.1476
  400TMC3    C3 5973   3.252   4.459  16.737 -0.3634  0.4290  0.1434
  400TMC3    C4 5974   3.490   4.597  16.735 -0.4436 -0.0225  0.4812
  400TMC3    C5 5975   3.394   4.610  16.640  0.3131 -0.2663 -0.3106
  400TMC3    C6 5976   3.275   4.542  16.633  0.7420 -1.0732  0.6327
  400TMC3     C 5977   3.565   4.461  16.919 -0.1124  0.5696  0.5286
  400TMC3     O 5978   3.556   4.347  16.965  1.0718  0.3903 -0.1482
  400TMC3     H 5979   3.327   4.379  16.924 -2.3953 -0.2419 -0.4811
  400TMC3    H1 5980   3.579   4.659  16.727  0.1104 -0.9399 -0.4042
  400TMC3    H2 5981   3.208   4.567  16.551  2.3138 -2.1901 -0.9831
  400TMC3    C7 5982   3.390   0.007  16.560 -0.4588 -0.9249 -0.0356
  400TMC3    C8 5983   3.140   4.370  16.740  0.0150 -0.3768 -0.0043
  400TMC3    O1 5984   3.330   0.016  16.452 -0.2626 -0.1066  0.5864
  400TMC3    O2 5985   3.131   4.298  16.837 -0.2167 -0.1936  0.1697
  401MPD2     C 5986   2.484   3.594   1.340  0.6378 -0.0077  0.5099
  401MPD2    C1 5987   2.618   3.583   1.346  0.2113  0.1035 -0.1958
  401MPD2    C2 5988   2.676   3.457   1.322  0.1878 -0.1247  0.4794
  401MPD2    C3 5989   2.606   3.342   1.297  0.0032 -0.3393 -0.3612
  401MPD2    C4 5990   2.470   3.352   1.285  0.1560  0.4238  0.3503
  401MPD2    C5 5991   2.415   3.481   1.299  0.0193  0.1212  0.2325
  401MPD2     H 5992   2.784   3.444   1.320 -0.1553 -2.6945 -1.0505
  401MPD2    H1 5993   2.410   3.265   1.262  0.0647  0.3817  0.7425
  401MPD2    H2 5994   2.440   3.690   1.360  0.3341  0.2433 -1.3884
  401MPD2    H3 5995   2.309   3.499   1.280 -0.1710  0.2275  1.3838
  401MPD2     N 5996   2.693   3.226   1.278  0.1133 -0.0733  0.5432
  401MPD2    H5 5997   2.792   3.235   1.297  0.0120  1.5758  0.3185
  401MPD2    N1 5998   2.701   3.688   1.375  0.2310  0.3003  0.1922
  401MPD2    H7 5999   2.797   3.666   1.398 -0.5729 -3.5839 -0.3285
  402TMC3    C1 6000   2.749   2.994   1.247 -0.2788  1.2437  0.5114
  402TMC3    C2 6001   2.708   2.868   1.266  0.6007  0.1204 -0.2139
  402TMC3    C3 6002   2.782   2.766   1.219 -0.7140 -0.2718  0.2136
  402TMC3    C4 6003   2.863   3.021   1.178  0.5115 -0.4872 -0.0704
  402TMC3    C5 6004   2.926   2.921   1.120  0.2307 -0.5166 -0.1286
  402TMC3    C6 6005   2.897   2.790   1.158 -0.0200 -0.3549  0.4814
  402TMC3     C 6006   2.644   3.095   1.257  0.2231 -1.0527 -0.1548
  402TMC3     O 6007   2.529   3.060   1.264  0.7056 -0.0677  0.0843
  402TMC3     H 6008   2.612   2.848   1.314  1.8848  0.6020  2.5664
  402TMC3    H1 6009   2.893   3.123   1.154  1.6145 -0.9354 -0.6007
  402TMC3    H2 6010   2.968   2.711   1.138 -0.9287 -0.6846 -1.4025
  402TMC3    C7 6011   2.998   2.946   1.000 -0.7940  0.5932  0.5097
  402TMC3    C8 6012   2.739   2.627   1.265 -1.1281  0.2619 -0.8976
  402TMC3    O1 6013   3.053   3.056   1.002  0.2819 -0.0331  0.3818
  402TMC3    O2 6014   2.816   2.533   1.239 -0.0122 -0.2446 -0.5695
  403MPD2     C 6015   4.676   1.534  13.088  0.5961  0.0983 -0.4598
  403MPD2    C1 6016   4.664   1.490  13.213 -0.2862 -0.1072 -0.3281
  403MPD2    C2 6017   0.044   1.525  13.299 -0.3076  0.2385  0.2251
  403MPD2    C3 6018   0.145   1.619  13.269 -0.0075 -0.3819  0.0674
  403MPD2    C4 6019   0.147   1.661  13.137 -0.0877 -0.0165  0.4438
  403MPD2    C5 6020   0.056   1.618  13.048  0.1183  0.1824  0.4338
  403MPD2     H 6021   0.026   1.500  13.403 -2.0252 -1.9168 -0.5801
  403MPD2    H1 6022   0.222   1.727  13.096  0.4773 -0.0465  1.4426
  403MPD2    H2 6023   4.606   1.507  13.009  0.6302 -0.4508 -0.3021
  403MPD2    H3 6024   0.054   1.654  12.946  2.2249 -0.9879 -0.0154
  403MPD2     N 6025   0.236   1.670  13.364  0.4077  0.0478 -0.0103
  403MPD2    H5 6026   0.240   1.620  13.452 -0.6528  0.5157  0.3000
  403MPD2    N1 6027   4.555   1.403  13.236 -0.1389 -0.5656  0.1513
  403MPD2    H7 6028   4.500   1.380  13.154  0.8523 -1.9875 -0.1170
  404TMC3    C1 6029   4.412   1.259  13.346 -0.5429 -0.0827 -0.8715
  404TMC3    C2 6030   4.436   1.141  13.406  0.2983 -0.2462 -0.1507
  404TMC3    C3 6031   4.435   1.023  13.330 -0.0488  0.3256  0.6259
  404TMC3    C4 6032   4.367   1.257  13.210  0.0431  0.5915  0.3026
  404TMC3    C5 6033   4.368   1.143  13.133  0.4569 -0.9875  0.2537
  404TMC3    C6 6034   4.399   1.022  13.194  0.0549  0.3522 -0.2467
  404TMC3     C 6035   4.523   1.347  13.354 -0.0871  0.4279 -0.7847
  404TMC3     O 6036   4.590   1.341  13.457  0.2986  0.2115 -0.1689
  404TMC3     H 6037   4.471   1.151  13.508 -1.0918 -1.2893  0.4302
  404TMC3    H1 6038   4.336   1.346  13.156 -1.8625  0.2683  0.8354
  404TMC3    H2 6039   4.404   0.934  13.131 -0.6647  0.1580 -0.0186
  404TMC3    C7 6040   4.411   1.169  12.996  0.0945 -1.2577 -0.1515
  404TMC3    C8 6041   4.466   0.900  13.404 -0.5564  0.2163  0.2293
  404TMC3    O1 6042   4.472   1.278  12.983  0.0957 -0.1849  0.6855
  404TMC3    O2 6043   4.499   0.797  13.346 -0.0305  0.5881 -0.6929
  405MPD2     C 6044   0.193   1.975  14.920  0.1486  0.1915 -0.4486
  405MPD2    C1 6045   0.171   1.891  14.808  0.0216  0.4664 -0.2511
  405MPD2    C2 6046   0.174   1.955  14.692 -0.4706 -0.0999  0.2531
  405MPD2    C3 6047   0.185   2.094  14.675 -0.0676 -0.3270 -0.7653
  405MPD2    C4 6048   0.219   2.172  14.784 -0.4169  0.3178  0.3747
  405MPD2    C5 6049   0.224   2.107  14.905  0.5835  0.2913  0.2408
  405MPD2     H 6050   0.156   1.901  14.600  0.1219  1.4058 -0.7335
  405MPD2    H1 6051   0.237   2.279  14.786  0.8741  0.1149 -0.7884
  405MPD2    H2 6052   0.210   1.929  15.017  1.3118  1.7616  0.0939
  405MPD2    H3 6053   0.249   2.162  14.995 -3.5599  1.2722  0.7697
  405MPD2     N 6054   0.155   2.142  14.550 -0.1565  0.6219 -0.1521
  405MPD2    H5 6055   0.108   2.079  14.486 -0.3968  1.2944 -0.6281
  405MPD2    N1 6056   0.145   1.757  14.823  0.2944  0.6577  0.2131
  405MPD2    H7 6057   0.121   1.726  14.916 -0.4847 -2.3078 -0.9531
  406TMC3    C1 6058   4.597   2.337  14.303  0.0189 -0.7718 -0.3505
  406TMC3    C2 6059   4.610   2.243  14.203 -0.1175 -0.4866 -0.8728
  406TMC3    C3 6060   0.009   2.166  14.196  0.4720  0.2023  0.1310
  406TMC3    C4 6061   4.698   2.358  14.390  0.6241  0.3145 -0.3174
  406TMC3    C5 6062   0.097   2.286  14.382  0.4820  0.1735  0.2364
  406TMC3    C6 6063   0.113   2.185  14.290  0.4446  0.2238  0.4182
  406TMC3     C 6064   4.483   2.426  14.303 -0.3873  0.4649 -0.6396
  406TMC3     O 6065   4.497   2.543  14.332 -0.0923 -0.0793  0.7607
  406TMC3     H 6066   4.533   2.220  14.131  0.4931 -0.6580 -1.4696
  406TMC3    H1 6067   4.694   2.433  14.468  0.7112 -1.6234  1.5382
  406TMC3    H2 6068   0.210   2.136  14.292  0.2053 -0.2848 -0.4246
  406TMC3    C7 6069   0.161   2.271  14.514  0.7639 -0.0805  0.5712
  406TMC3    C8 6070   4.719   2.037  14.125 -0.2452  0.0398  0.1168
  406TMC3    O1 6071   0.201   2.367  14.581  0.0055  0.8648  0.0977
  406TMC3    O2 6072   4.652   2.029  14.022  0.8403  0.7771 -0.4671
  407MPD2     C 6073   2.254   2.311   9.303 -0.6874  0.1854 -0.2570
  407MPD2    C1 6074   2.239   2.444   9.280 -0.1919 -0.3613 -1.0183
  407MPD2    C2 6075   2.182   2.527   9.376 -0.4596 -0.4018 -0.1872
  407MPD2    C3 6076   2.155   2.477   9.501  0.1772 -0.2755 -0.3644
  407MPD2    C4 6077   2.173   2.343   9.523 -0.2730  0.1269  0.8907
  407MPD2    C5 6078   2.211   2.257   9.424  0.1371 -0.6487  0.1144
  407MPD2     H 6079   2.188   2.635   9.368 -2.2556 -0.3020 -0.1799
  407MPD2    H1 6080   2.143   2.297   9.617 -0.8346  4.0329  2.6119
  407MPD2    H2 6081   2.293   2.240   9.231  0.5963  0.2110  0.4219
  407MPD2    H3 6082   2.205   2.150   9.437 -1.3942 -0.6700 -0.8171
  407MPD2     N 6083   2.132   2.560   9.614 -0.3749 -0.6937 -0.4900
  407MPD2    H5 6084   2.136   2.516   9.705 -0.0151 -0.7078 -0.5140
  407MPD2    N1 6085   2.270   2.503   9.153 -0.0510  0.7943 -0.6420
  407MPD2    H7 6086   2.258   2.604   9.148 -2.9540  0.5185  0.9451
  408TMC3    C1 6087   2.392   2.552   8.956  0.3560  0.1002 -0.5007
  408TMC3    C2 6088   2.530   2.550   8.956  0.0470  0.0234 -0.4845
  408TMC3    C3 6089   2.587   2.672   8.936 -0.2827  0.2992 -0.2736
  408TMC3    C4 6090   2.319   2.670   8.950  0.5831  0.0032  0.1465
  408TMC3    C5 6091   2.389   2.786   8.922  0.3715  0.3913 -0.3178
  408TMC3    C6 6092   2.523   2.786   8.908 -0.8374 -0.1700  0.1626
  408TMC3     C 6093   2.340   2.450   9.046 -0.3498  0.2399 -0.1510
  408TMC3     O 6094   2.387   2.337   9.042  0.6065  0.6381 -0.1692
  408TMC3     H 6095   2.587   2.459   8.969  0.6997  0.3641 -0.9790
  408TMC3    H1 6096   2.212   2.672   8.966  0.3196  4.5525 -2.2567
  408TMC3    H2 6097   2.573   2.878   8.879 -1.2177 -0.0192 -0.0148
  408TMC3    C7 6098   2.319   2.918   8.917 -0.5561  0.1143  0.2063
  408TMC3    C8 6099   2.726   2.678   8.976 -0.1193 -0.1576 -0.5187
  408TMC3    O1 6100   2.379   3.016   8.879 -0.1122 -0.4962  0.2750
  408TMC3    O2 6101   2.772   2.567   8.992  0.0329  0.5554  1.1078
  409MPD2     C 6102   2.299   3.973  17.040  0.0875 -0.0773  0.1525
  409MPD2    C1 6103   2.421   4.014  17.098 -0.4618  0.4788  0.0453
  409MPD2    C2 6104   2.467   4.137  17.059 -0.4797  0.0995  0.1719
  409MPD2    C3 6105   2.402   4.222  16.968 -0.8013  0.0602 -0.3717
  409MPD2    C4 6106   2.284   4.176  16.917 -0.6694  0.2209  0.1681
  409MPD2    C5 6107   2.231   4.057  16.958  0.1925 -0.0666  0.2544
  409MPD2     H 6108   2.560   4.162  17.109  0.4555 -0.8830 -1.0850
  409MPD2    H1 6109   2.229   4.244  16.854 -1.2766  1.4578  2.0065
  409MPD2    H2 6110   2.254   3.880  17.071  2.7546 -1.6288 -0.6966
  409MPD2    H3 6111   2.134   4.030  16.918  0.2751  0.7331 -0.4894
  409MPD2     N 6112   2.445   4.354  16.935 -0.9453  0.2953  0.0254
  409MPD2    H5 6113   2.386   4.402  16.868  1.1027  2.5665 -0.1721
  409MPD2    N1 6114   2.499   3.935  17.182  0.3114 -0.1195  1.0379
  409MPD2    H7 6115   2.596   3.964  17.186  0.1362  0.3705  1.9546
  410TMC3    C1 6116   2.598   4.534  16.893  0.0414  0.1865  0.0756
  410TMC3    C2 6117   2.699   4.614  16.946 -0.2204  0.3525  0.2820
  410TMC3    C3 6118   2.800   4.658  16.865 -0.4923 -0.2967  0.0005
  410TMC3    C4 6119   2.599   4.520  16.758  0.3423  0.4758 -0.3622
  410TMC3    C5 6120   2.686   4.583  16.678  0.0222 -0.5893  0.8018
  410TMC3    C6 6121   2.787   4.650  16.733 -0.1652  0.7676 -0.6175
  410TMC3     C 6122   2.563   4.416  16.973 -0.1701 -0.8086  0.3686
  410TMC3     O 6123   2.647   4.367  17.045  0.3667  0.7613  0.5165
  410TMC3     H 6124   2.716   4.618  17.053  0.0438  2.3599  0.1702
  410TMC3    H1 6125   2.523   4.462  16.707 -0.9129  2.2810 -0.5377
  410TMC3    H2 6126   2.869   4.692  16.677 -0.9445 -0.2103 -2.5057
  410TMC3    C7 6127   2.636   4.615  16.543 -0.1415 -0.3365  0.2414
  410TMC3    C8 6128   2.935   4.629  16.909  0.0756 -0.0388  0.0575
  410TMC3    O1 6129   2.528   4.563  16.510 -0.0219 -0.1243  0.3017
  410TMC3    O2 6130   3.029   4.654  16.837  0.0225  0.7566 -0.1217
  411MPD2     C 6131   2.755   0.272  14.315 -0.4457 -0.7871 -0.0420
  411MPD2    C1 6132   2.644   0.330  14.263  1.0924 -0.0794 -0.1246
  411MPD2    C2 6133   2.539   0.243  14.230  0.0514  0.0671 -0.1862
  411MPD2    C3 6134   2.562   0.111  14.214  0.1008 -0.4770  0.2386
  411MPD2    C4 6135   2.691   0.056  14.232  0.2696  0.1045  0.0323
  411MPD2    C5 6136   2.779   0.137  14.297 -0.2888 -0.7859 -0.7139
  411MPD2     H 6137   2.446   0.297  14.217 -0.2353 -0.4947 -0.4551
  411MPD2    H1 6138   2.718   4.672  14.222  1.0523  0.0836  2.4138
  411MPD2    H2 6139   2.838   0.331  14.353 -0.1726 -1.4159  0.3366
  411MPD2    H3 6140   2.875   0.099  14.332  0.2245 -0.0693 -1.3428
  411MPD2     N 6141   2.464   0.024  14.166 -0.4732  0.4611 -0.4874
  411MPD2    H5 6142   2.482   4.645  14.152 -0.1411  0.1167  2.4008
  411MPD2    N1 6143   2.638   0.466  14.263 -0.0414 -0.4240 -0.1275
  411MPD2    H7 6144   2.708   0.517  14.316 -0.9817  0.5572  0.1756
  412TMC3    C1 6145   2.243   4.674  14.102 -0.3421 -0.0975  0.0295
  412TMC3    C2 6146   2.112   4.702  14.114 -0.1326 -0.3711  0.4040
  412TMC3    C3 6147   2.023   4.627  14.039  0.1055 -0.8544 -0.0014
  412TMC3    C4 6148   2.288   4.580  14.006  0.5434 -0.5755  0.0509
  412TMC3    C5 6149   2.195   4.512  13.934  0.6392 -0.6905 -0.9378
  412TMC3    C6 6150   2.062   4.529  13.959  0.4964  0.4600 -0.6171
  412TMC3     C 6151   2.332   0.057  14.168  0.0380  0.3450  0.2425
  412TMC3     O 6152   2.281   0.145  14.228  0.4194  0.3248  0.1569
  412TMC3     H 6153   2.069   0.062  14.173  1.1712  1.1415 -0.7185
  412TMC3    H1 6154   2.393   4.559  13.994  0.9487  0.9531  0.9100
  412TMC3    H2 6155   1.989   4.482  13.894 -0.0952  2.3525 -1.3276
  412TMC3    C7 6156   2.218   4.505  13.789 -0.3433  0.4070 -0.3912
  412TMC3    C8 6157   1.888   4.672  14.025 -0.1397 -0.3431 -0.4611
  412TMC3    O1 6158   2.138   4.451  13.717  0.3337 -0.3258 -0.0643
  412TMC3    O2 6159   1.874   0.070  14.057 -0.0442  0.5014  0.2847
  413MPD2     C 6160   3.932   2.654  15.091 -0.1211 -0.2718  0.1918
  413MPD2    C1 6161   3.965   2.647  14.957  0.1963 -0.3968  0.4463
  413MPD2    C2 6162   4.032   2.534  14.913  0.1454  0.1539  0.1950
  413MPD2    C3 6163   4.066   2.432  15.001 -0.7110  0.0663  0.1767
  413MPD2    C4 6164   4.024   2.434  15.132  0.2329  0.2598 -0.0426
  413MPD2    C5 6165   3.966   2.554  15.177  0.6772  0.2611  0.2269
  413MPD2     H 6166   4.069   2.534  14.811  1.6678  0.1588  0.7574
  413MPD2    H1 6167   4.045   2.353  15.201 -0.5999  0.5697  0.5677
  413MPD2    H2 6168   3.903   2.748  15.138  0.1405 -0.6112  1.0350
  413MPD2    H3 6169   3.944   2.559  15.283  1.3994  1.4550  0.3205
  413MPD2     N 6170   4.138   2.318  14.943  0.0687  0.0113  0.1256
  413MPD2    H5 6171   4.165   2.333  14.847  0.0497  1.0271  0.2708
  413MPD2    N1 6172   3.939   2.761  14.871 -0.0767 -0.0479  0.1896
  413MPD2    H7 6173   3.912   2.845  14.921 -0.3609  0.1220 -0.2526
  414TMC3    C1 6174   4.241   2.115  14.921 -0.1393  0.1743  1.2410
  414TMC3    C2 6175   4.337   2.045  14.981 -0.7348  0.1609 -0.2000
  414TMC3    C3 6176   4.443   1.997  14.909 -1.0270 -0.2805  0.1171
  414TMC3    C4 6177   4.256   2.151  14.790 -0.3690 -0.4116  0.7668
  414TMC3    C5 6178   4.361   2.102  14.726  0.1450 -0.1242 -0.4448
  414TMC3    C6 6179   4.456   2.015  14.775  0.7071  0.0151 -0.4920
  414TMC3     C 6180   4.160   2.198  15.007 -0.3807 -0.6150 -0.5301
  414TMC3     O 6181   4.130   2.157  15.119  0.2819  0.1104  0.8196
  414TMC3     H 6182   4.335   2.037  15.089  2.3311 -0.0457 -0.1430
  414TMC3    H1 6183   4.171   2.171  14.727  0.4224  2.5842  0.6584
  414TMC3    H2 6184   4.548   1.987  14.726  2.8928  1.5656  2.7141
  414TMC3    C7 6185   4.414   2.199  14.637 -0.4018 -0.5008  0.0633
  414TMC3    C8 6186   4.519   1.889  14.967  0.4007  0.2876  0.0904
  414TMC3    O1 6187   4.528   2.182  14.587 -0.1376  0.0477 -0.2152
  414TMC3    O2 6188   4.527   1.799  14.884  0.5060 -0.5227 -0.0204
  415TMC3    C1 6189   3.784   0.855   9.720  0.1597 -0.4434  0.7960
  415TMC3    C2 6190   3.891   0.921   9.670 -0.1190 -0.1622 -0.2323
  415TMC3    C3 6191   3.900   0.937   9.532 -0.4915  0.3432 -0.1074
  415TMC3    C4 6192   3.687   0.811   9.628 -0.0665  0.5379 -0.7753
  415TMC3    C5 6193   3.712   0.816   9.496  0.5323 -0.2403 -0.2709
  415TMC3    C6 6194   3.813   0.880   9.438 -0.4478 -0.0959  0.4388
  415TMC3     C 6195   3.763   0.828   9.857  0.5762  0.4609 -0.2942
  415TMC3     O 6196   3.662   0.764   9.873 -0.2635  0.1140 -0.3954
  415TMC3     H 6197   3.975   0.946   9.733  1.3175 -2.2222 -1.3527
  415TMC3    H1 6198   3.595   0.767   9.666  1.6423 -1.6288  0.9085
  415TMC3    H2 6199   3.826   0.894   9.331  0.4449 -0.4720  0.5006
  415TMC3    C7 6200   3.609   0.754   9.410  0.3575  0.1072 -0.0885
  415TMC3    C8 6201   4.030   0.969   9.468 -0.3513  0.2897  0.8499
  415TMC3    O1 6202   3.606   0.790   9.294  0.5667  0.3909 -0.5032
  415TMC3    O2 6203   4.031   0.974   9.344  0.5227 -0.1598 -0.2706
  416MPD2     C 6204   1.466   0.225  11.401 -0.3445  0.1780 -0.3072
  416MPD2    C1 6205   1.346   0.152  11.403  0.4085 -0.6712  0.2444
  416MPD2    C2 6206   1.357   0.016  11.382 -0.5958 -0.0523 -0.6828
  416MPD2    C3 6207   1.480   4.665  11.379  0.4026  0.1000  0.2892
  416MPD2    C4 6208   1.593   0.022  11.394 -0.3766  0.1455 -0.3914
  416MPD2    C5 6209   1.586   0.157  11.395 -0.0676 -0.4170 -0.8042
  416MPD2     H 6210   1.262   4.686  11.369 -0.4789 -0.6863  0.9001
  416MPD2    H1 6211   1.696   4.709  11.383  0.1691  1.5412  0.6195
  416MPD2    H2 6212   1.467   0.333  11.412 -0.2012  0.1795 -0.3272
  416MPD2    H3 6213   1.672   0.222  11.392 -1.0345  0.9303  0.9753
  416MPD2     N 6214   1.486   4.526  11.375  0.1219 -0.2581 -0.0988
  416MPD2    H5 6215   1.574   4.478  11.390  0.7434  1.2304  0.9737
  416MPD2    N1 6216   1.217   0.208  11.405 -0.0191 -0.2241  0.0525
  416MPD2    H7 6217   1.140   0.142  11.402  0.6437 -0.9087 -1.9392
  417TMC3    C1 6218   1.049   0.351  11.404 -0.0113  0.5994  0.2216
  417TMC3    C2 6219   1.005   0.281  11.518  0.4423  0.4667 -0.4101
  417TMC3    C3 6220   0.875   0.241  11.512 -0.1647  0.5863  0.2550
  417TMC3    C4 6221   0.967   0.381  11.298  0.0478  0.1130 -0.3091
  417TMC3    C5 6222   0.847   0.320  11.298  0.3024  0.0512 -0.4576
  417TMC3    C6 6223   0.802   0.237  11.398 -0.1261 -0.5830  0.7429
  417TMC3     C 6224   1.187   0.342  11.385 -0.3136 -0.1931 -0.4878
  417TMC3     O 6225   1.262   0.432  11.359  0.1106 -0.8991  0.6517
  417TMC3     H 6226   1.060   0.296  11.610 -0.4176 -0.7976  0.3088
  417TMC3    H1 6227   1.006   0.423  11.206 -1.0378  1.7403 -0.0261
  417TMC3    H2 6228   0.699   0.203  11.401  0.1232 -1.5272 -1.3998
  417TMC3    C7 6229   0.793   0.304  11.163 -0.6936  0.2514  0.1509
  417TMC3    C8 6230   0.817   0.210  11.641 -0.3988 -0.3687  0.0661
  417TMC3    O1 6231   0.821   0.402  11.101  0.4394  0.0999  0.2881
  417TMC3    O2 6232   0.706   0.251  11.660 -0.5306 -0.4049 -0.1723
  418TMC3    C1 6233   1.137   0.763   0.273  0.7093 -0.3351  0.1526
  418TMC3    C2 6234   1.017   0.705   0.303  0.0612 -0.3181 -0.0164
  418TMC3    C3 6235   0.902   0.763   0.259  0.0104 -0.0898  0.1496
  418TMC3    C4 6236   1.134   0.856   0.169  0.2754  0.1962  0.9622
  418TMC3    C5 6237   1.010   0.898   0.115 -0.1014  0.0624  0.3233
  418TMC3    C6 6238   0.899   0.850   0.160  0.3269 -0.0377  0.1071
  418TMC3     C 6239   1.215   0.800   0.383  0.0057  0.3243 -0.3787
  418TMC3     O 6240   1.274   0.909   0.374 -0.5748  0.1490  0.4066
  418TMC3     H 6241   1.005   0.654   0.398  0.0941 -1.5313 -0.6601
  418TMC3    H1 6242   1.212   0.930   0.157 -0.1092  0.3660 -0.5338
  418TMC3    H2 6243   0.807   0.892   0.119  0.9466  2.1847  0.9887
  418TMC3    C7 6244   1.009   1.024   0.057  0.0027  0.5615 -0.0089
  418TMC3    C8 6245   0.777   0.721   0.322  0.5614 -0.3725  0.3259
  418TMC3    O1 6246   0.919   1.098   0.106  0.1552 -0.0038 -0.1947
  418TMC3    O2 6247   0.695   0.812   0.345 -0.2207  0.1928 -0.2997
  419MPD2     C 6248   3.423   4.245  11.866 -0.5893  0.0719 -0.1405
  419MPD2    C1 6249   3.392   4.379  11.894 -0.5065 -0.4916 -0.1657
  419MPD2    C2 6250   3.340   4.398  12.024 -0.0190 -0.0990 -0.1435
  419MPD2    C3 6251   3.328   4.303  12.120  0.1762  0.2032 -0.1756
  419MPD2    C4 6252   3.360   4.177  12.085 -0.3792 -0.3240 -0.1960
  419MPD2    C5 6253   3.398   4.145  11.958 -0.7278 -0.1408  0.6692
  419MPD2     H 6254   3.312   4.500  12.046  0.1921  0.1299 -0.9284
  419MPD2    H1 6255   3.329   4.095  12.149  1.2988 -0.0796  0.9371
  419MPD2    H2 6256   3.452   4.214  11.766  2.7054  0.2669  0.7347
  419MPD2    H3 6257   3.403   4.041  11.929 -1.3261 -0.3119  1.1888
  419MPD2     N 6258   3.276   4.345  12.243  0.1682  0.0477 -0.2259
  419MPD2    H5 6259   3.236   4.439  12.244 -0.6246 -0.2809 -1.2950
  419MPD2    N1 6260   3.410   4.489  11.812  0.1372 -0.6157 -0.3335
  419MPD2    H7 6261   3.403   4.578  11.859  1.1786 -0.7086  0.0073
  420TMC3    C1 6262   3.221   4.350  12.474  0.8448 -0.3916  0.2668
  420TMC3    C2 6263   3.107   4.425  12.450  0.2285 -0.3947  0.0128
  420TMC3    C3 6264   3.057   4.494  12.563 -0.4187  0.2010  0.1699
  420TMC3    C4 6265   3.292   4.351  12.591 -0.7046 -0.4709 -0.2107
  420TMC3    C5 6266   3.243   4.419  12.694  0.4386 -0.0625  0.0844
  420TMC3    C6 6267   3.118   4.479  12.689  0.5372 -0.0786 -0.0500
  420TMC3     C 6268   3.278   4.279  12.366  0.2594 -0.7761 -0.3401
  420TMC3     O 6269   3.334   4.175  12.399  0.4568  1.0935  0.2073
  420TMC3     H 6270   3.061   4.410  12.353  1.1993 -1.4503 -0.2857
  420TMC3    H1 6271   3.386   4.298  12.592  1.2261  2.8978 -0.9751
  420TMC3    H2 6272   3.086   4.534  12.777  2.2515 -0.4930  0.8296
  420TMC3    C7 6273   3.311   4.444  12.817  0.1786  0.1143  0.3051
  420TMC3    C8 6274   2.930   4.559  12.544  0.2521  0.6092  0.4710
  420TMC3    O1 6275   3.243   4.457  12.919 -0.0071  0.0077  0.1045
  420TMC3    O2 6276   2.901   4.603  12.433  0.6724 -0.1926 -0.5189
  421TMC3    C1 6277   0.372   1.823  13.467  0.4905 -0.3787 -0.2719
  421TMC3    C2 6278   0.365   1.952  13.506 -0.2213  0.3601 -0.1443
  421TMC3    C3 6279   0.428   1.980  13.621 -0.1451 -0.9695  0.0745
  421TMC3    C4 6280   0.443   1.725  13.525  0.0008  0.1242 -0.7353
  421TMC3    C5 6281   0.503   1.761  13.643  0.2951  0.8210 -0.0479
  421TMC3    C6 6282   0.502   1.886  13.688  0.0362  0.2068 -0.2102
  421TMC3     C 6283   0.293   1.794  13.354  0.4287  0.3929 -0.3325
  421TMC3     O 6284   0.272   1.883  13.271  0.0706 -0.8299  0.0965
  421TMC3     H 6285   0.303   2.028  13.460  1.1341  1.5461 -0.0116
  421TMC3    H1 6286   0.449   1.622  13.492 -0.3387  0.2647 -1.2356
  421TMC3    H2 6287   0.545   1.913  13.785  0.3812  0.0563 -0.3228
  421TMC3    C7 6288   0.602   1.673  13.708 -0.1192  0.2239  0.3686
  421TMC3    C8 6289   0.344   2.066  13.700 -0.5837  0.5353 -0.8386
  421TMC3    O1 6290   0.702   1.728  13.744 -1.2984  0.0554 -0.3204
  421TMC3    O2 6291   0.225   2.057  13.671  0.4912  0.1100  0.0307
  422TMC3    C1 6292   2.363   2.490  12.388 -0.2383 -0.4312  0.2556
  422TMC3    C2 6293   2.329   2.618  12.420 -0.3167 -0.3543  0.6556
  422TMC3    C3 6294   2.209   2.646  12.475 -0.3325  0.0432 -0.1487
  422TMC3    C4 6295   2.296   2.384  12.445  0.3998  0.2087 -0.5120
  422TMC3    C5 6296   2.177   2.415  12.514  0.4235  0.2978  0.0981
  422TMC3    C6 6297   2.135   2.545  12.530 -0.6006 -0.1627  0.7467
  422TMC3     C 6298   2.459   2.475  12.277 -0.5379 -0.4405 -0.4705
  422TMC3     O 6299   2.497   2.576  12.224 -0.2485  0.7456 -0.1600
  422TMC3     H 6300   2.379   2.699  12.368 -1.9215  1.6445  2.2073
  422TMC3    H1 6301   2.331   2.284  12.423  1.2990  0.3870  0.0742
  422TMC3    H2 6302   2.046   2.568  12.588  0.4870  1.6092  1.6962
  422TMC3    C7 6303   2.087   2.303  12.541 -0.5301 -0.0207  0.3634
  422TMC3    C8 6304   2.182   2.789  12.493  0.2077 -0.3981 -0.6429
  422TMC3    O1 6305   2.116   2.206  12.471  0.5146  0.2076 -0.1566
  422TMC3    O2 6306   2.275   2.864  12.469  0.0095 -0.2643 -0.3305
  423MPD2     C 6307   4.013   3.667   0.278 -0.1002 -0.4180 -0.4555
  423MPD2    C1 6308   4.115   3.595   0.330 -0.7538 -0.8240  0.1848
  423MPD2    C2 6309   4.157   3.479   0.267 -0.1250  0.1683  0.5949
  423MPD2    C3 6310   4.112   3.442   0.144  0.4113  0.3016 -0.7739
  423MPD2    C4 6311   4.006   3.514   0.091  0.2264  0.3635  0.7156
  423MPD2    C5 6312   3.945   3.619   0.164 -0.6577 -0.6730 -0.1476
  423MPD2     H 6313   4.239   3.420   0.308 -0.2432  1.7424  3.1411
  423MPD2    H1 6314   3.974   3.491  17.673 -1.4327  3.8295  0.4451
  423MPD2    H2 6315   3.963   3.750   0.326 -0.9019 -1.1540 -0.0111
  423MPD2    H3 6316   3.867   3.673   0.112  0.7916  2.1375  0.6205
  423MPD2     N 6317   4.171   3.333   0.069 -0.4618 -0.2297 -0.1138
  423MPD2    H5 6318   4.122   3.318  17.664 -0.7595 -1.1467  0.2062
  423MPD2    N1 6319   4.175   3.626   0.453 -0.6544  0.3229  0.1270
  423MPD2    H7 6320   4.241   3.557   0.488  0.6980  2.1007  1.0420
  424TMC3    C1 6321   4.217   3.735   0.648  0.6224 -1.3843  0.8890
  424TMC3    C2 6322   4.263   3.618   0.702  0.2354 -0.0077  0.1612
  424TMC3    C3 6323   4.330   3.629   0.822  0.2923  0.2912  0.2134
  424TMC3    C4 6324   4.245   3.856   0.709 -0.2937 -0.5176  0.4916
  424TMC3    C5 6325   4.326   3.860   0.818  0.3561  1.0011 -0.1488
  424TMC3    C6 6326   4.370   3.748   0.873  0.6217 -0.5753 -0.4572
  424TMC3     C 6327   4.148   3.741   0.520 -0.4990 -0.1239 -0.5413
  424TMC3     O 6328   4.084   3.843   0.491 -0.4240  0.7928  0.0006
  424TMC3     H 6329   4.211   3.526   0.678  0.1691  0.2384 -0.6214
  424TMC3    H1 6330   4.196   3.941   0.663  1.0464  0.7311  1.3718
  424TMC3    H2 6331   4.431   3.746   0.963  0.3755 -1.5664 -0.3153
  424TMC3    C7 6332   4.291   3.962   0.916 -0.0846  0.2749  0.7469
  424TMC3    C8 6333   4.367   3.500   0.887 -0.1995 -0.5274 -0.5057
  424TMC3    O1 6334   4.229   4.058   0.870 -0.3125  0.6541 -0.5095
  424TMC3    O2 6335   4.370   3.507   1.012 -0.2808  0.4680 -0.3320
  425MPD2     C 6336   3.739   2.832  17.607 -0.1716  0.2241  0.0903
  425MPD2    C1 6337   3.700   2.749  17.506 -0.2757  0.8340  0.6876
  425MPD2    C2 6338   3.583   2.783  17.435  0.7646  1.3267  0.4239
  425MPD2    C3 6339   3.509   2.891  17.475 -0.1474  0.0968 -0.3207
  425MPD2    C4 6340   3.552   2.975  17.577  0.0329 -0.3029  0.2881
  425MPD2    C5 6341   3.668   2.944  17.641 -0.7710  0.2972 -0.6087
  425MPD2     H 6342   3.546   2.718  17.356  1.9173  1.9980 -0.6802
  425MPD2    H1 6343   3.507   3.071  17.600 -0.3135 -0.3969  0.0024
  425MPD2    H2 6344   3.826   2.820  17.671 -0.4269  1.1255  0.5977
  425MPD2    H3 6345   3.710   2.999   0.042 -0.0142  1.7816 -1.9477
  425MPD2     N 6346   3.381   2.909  17.412 -0.0391  0.3724  0.0391
  425MPD2    H5 6347   3.363   2.854  17.329 -0.3939  2.5403 -1.3374
  425MPD2    N1 6348   3.766   2.622  17.492  0.3865  0.8603 -0.5876
  425MPD2    H7 6349   3.831   2.599  17.565  0.2198 -0.8725 -0.9902
  426TMC3    C1 6350   3.733   2.395  17.415  0.4168 -0.4135 -0.4808
  426TMC3    C2 6351   3.707   2.319  17.301 -0.3962  0.1448  0.5044
  426TMC3    C3 6352   3.617   2.210  17.313  0.0029 -0.0314 -0.0351
  426TMC3    C4 6353   3.676   2.367  17.539 -0.5861 -0.8804 -0.4178
  426TMC3    C5 6354   3.590   2.263  17.537  0.0929 -0.2779 -0.0250
  426TMC3    C6 6355   3.556   2.180  17.431 -0.1837 -0.2703  0.1827
  426TMC3     C 6356   3.738   2.541  17.380 -0.6563  0.0031 -1.0872
  426TMC3     O 6357   3.689   2.569  17.274  0.0417 -0.6839 -0.0176
  426TMC3     H 6358   3.743   2.337  17.200  0.2099  1.3259  0.9286
  426TMC3    H1 6359   3.694   2.422  17.631  0.6456 -1.0304 -0.5664
  426TMC3    H2 6360   3.476   2.107  17.442 -2.4624  2.0810 -0.6194
  426TMC3    C7 6361   3.542   2.212  17.664  0.2868 -0.0998 -0.3805
  426TMC3    C8 6362   3.583   2.137  17.192  1.1786  0.3791  0.0669
  426TMC3    O1 6363   3.512   2.097  17.658  0.1944 -0.5123  0.3451
  426TMC3    O2 6364   3.665   2.135  17.103 -0.2340 -0.3759 -0.4140
  427MPD2     C 6365   1.722   0.759  14.744 -0.7491  0.1230 -0.1599
  427MPD2    C1 6366   1.699   0.682  14.855 -0.2810  0.5071  0.2224
  427MPD2    C2 6367   1.581   0.712  14.932  0.5009  0.6794 -0.2176
  427MPD2    C3 6368   1.497   0.816  14.894  0.1939 -0.3358  0.1462
  427MPD2    C4 6369   1.529   0.898  14.787  0.3878  0.0887  1.0001
  427MPD2    C5 6370   1.640   0.870  14.711  0.2359 -0.1873 -0.5610
  427MPD2     H 6371   1.553   0.650  15.017  2.0852 -2.3599 -1.9138
  427MPD2    H1 6372   1.467   0.978  14.749 -1.9329 -1.0480  2.3735
  427MPD2    H2 6373   1.809   0.740  14.682 -1.4735  1.7238 -1.6669
  427MPD2    H3 6374   1.668   0.944  14.637 -1.8828 -0.7910 -1.9672
  427MPD2     N 6375   1.370   0.847  14.955  0.5216 -0.0612 -0.5484
  427MPD2    H5 6376   1.321   0.925  14.912  1.2884  0.1739 -0.9919
  427MPD2    N1 6377   1.781   0.574  14.904 -0.2148  0.4709  0.0748
  427MPD2    H7 6378   1.765   0.533  14.995 -0.1670 -0.0705 -0.1597
  428TMC3    C1 6379   1.959   0.423  14.917 -0.3327  0.0531 -0.2677
  428TMC3    C2 6380   1.883   0.328  14.982 -0.5681  0.6301 -0.0533
  428TMC3    C3 6381   1.940   0.208  15.009 -0.0634  0.0148 -0.5657
  428TMC3    C4 6382   2.087   0.401  14.888  0.4398 -1.2657 -0.2756
  428TMC3    C5 6383   2.138   0.281  14.924  1.2407  0.1546  0.4606
  428TMC3    C6 6384   2.073   0.184  14.989  0.1120 -0.3837  0.1856
  428TMC3     C 6385   1.904   0.539  14.853 -0.5265  0.5777  0.2374
  428TMC3     O 6386   1.965   0.585  14.760  0.4244  0.4645 -0.0829
  428TMC3     H 6387   1.780   0.348  15.006 -0.1705  2.2314  0.3504
  428TMC3    H1 6388   2.145   0.481  14.844 -1.6922  0.3487 -0.1114
  428TMC3    H2 6389   2.117   0.092  15.025 -1.8164 -1.4609 -0.1735
  428TMC3    C7 6390   2.279   0.271  14.936  0.5808  0.5288  0.5999
  428TMC3    C8 6391   1.886   0.134  15.122 -0.0788 -1.0467 -0.0782
  428TMC3    O1 6392   2.322   0.228  15.042  0.1795 -0.2865  0.4884
  428TMC3    O2 6393   1.831   0.203  15.208  0.0155 -0.3361 -0.1634
  429MPD2     C 6394   3.076   0.435  17.669 -0.0739  0.1640  0.0838
  429MPD2    C1 6395   3.163   0.363  17.590  0.3470 -0.5840  0.0668
  429MPD2    C2 6396   3.209   0.423  17.474 -0.5187  0.6283  0.1871
  429MPD2    C3 6397   3.168   0.558  17.447  0.0759  0.1313 -0.1652
  429MPD2    C4 6398   3.076   0.622  17.524 -0.0234  0.9024 -0.6889
  429MPD2    C5 6399   3.024   0.553  17.629 -0.6663  0.0872  0.7365
  429MPD2     H 6400   3.273   0.360  17.413 -1.1594 -0.6007  0.7903
  429MPD2    H1 6401   3.040   0.722  17.505 -0.8056  0.9250  0.9345
  429MPD2    H2 6402   3.042   0.389   0.079 -0.0528 -0.9357 -0.4559
  429MPD2    H3 6403   2.956   0.603   0.013 -2.9582 -0.1645 -1.4208
  429MPD2     N 6404   3.226   0.608  17.325 -0.3959  0.9549  0.0683
  429MPD2    H5 6405   3.294   0.551  17.275  1.3975  1.8640  1.4693
  429MPD2    N1 6406   3.195   0.230  17.623  0.1712 -0.5451 -0.6682
  429MPD2    H7 6407   3.139   0.190   0.015 -0.9579 -0.4710 -1.4825
  430TMC3    C1 6408   3.244   0.737  17.122 -0.1739 -0.0322 -0.0590
  430TMC3    C2 6409   3.204   0.848  17.052 -0.0022 -0.4021 -0.4816
  430TMC3    C3 6410   3.276   0.866  16.935 -0.2022 -0.3502 -0.7911
  430TMC3    C4 6411   3.352   0.658  17.096  0.1651 -1.2456  0.1375
  430TMC3    C5 6412   3.406   0.679  16.978 -0.1941  0.9303 -0.2010
  430TMC3    C6 6413   3.383   0.791  16.896 -0.2362 -0.2261 -0.0468
  430TMC3     C 6414   3.183   0.722  17.255 -0.3607  0.2279  0.1108
  430TMC3     O 6415   3.090   0.794  17.282  0.2603  0.3206 -0.1940
  430TMC3     H 6416   3.101   0.880  17.055 -0.1971 -1.0738 -0.0477
  430TMC3    H1 6417   3.379   0.568  17.149  1.1542  0.5559  2.6949
  430TMC3    H2 6418   3.434   0.809  16.802  0.5911  0.7375  0.5826
  430TMC3    C7 6419   3.440   0.555  16.913 -0.4117  0.1820  0.6254
  430TMC3    C8 6420   3.197   0.894  16.814  0.2681 -0.0901  0.0670
  430TMC3    O1 6421   3.452   0.454  16.985 -0.4109 -0.5951  0.0036
  430TMC3    O2 6422   3.221   0.825  16.715  0.6577  0.3093  0.3067
  431MPD2     C 6423   3.560   0.375  12.310  0.5405 -0.7263 -0.0015
  431MPD2    C1 6424   3.615   0.433  12.193 -0.0535 -0.7664 -0.0625
  431MPD2    C2 6425   3.582   0.378  12.071  0.1323 -0.1565 -0.2997
  431MPD2    C3 6426   3.508   0.260  12.061  0.2308 -0.4472 -0.3318
  431MPD2    C4 6427   3.451   0.208  12.177 -0.6609  0.9217  0.3720
  431MPD2    C5 6428   3.472   0.277  12.294  0.0049 -0.5290  0.3695
  431MPD2     H 6429   3.641   0.415  11.988 -0.6553 -1.0740 -1.2783
  431MPD2    H1 6430   3.394   0.116  12.179 -1.0104  1.1394  0.3710
  431MPD2    H2 6431   3.582   0.403  12.412 -0.8175 -2.2340  0.7155
  431MPD2    H3 6432   3.422   0.230  12.378  1.6756 -1.6646  0.7425
  431MPD2     N 6433   3.482   0.196  11.938 -0.2132 -0.1325 -0.0930
  431MPD2    H5 6434   3.418   0.117  11.944 -0.0123 -0.2334  0.7445
  431MPD2    N1 6435   3.730   0.520  12.197 -0.2814 -0.1542 -0.7738
  431MPD2    H7 6436   3.778   0.544  12.111  0.6411  1.8947  0.3179
  432TMC3    C1 6437   3.513   0.135  11.708  0.0925 -0.2531  0.0632
  432TMC3    C2 6438   3.530   0.161  11.574  0.7525  0.0871 -0.6197
  432TMC3    C3 6439   3.530   0.061  11.484  0.7877 -0.2620  0.5226
  432TMC3    C4 6440   3.514   0.002  11.745 -0.0242  1.1178 -0.2053
  432TMC3    C5 6441   3.520   4.623  11.655  0.7900  0.0537 -0.0393
  432TMC3    C6 6442   3.526   4.655  11.528  0.1384 -0.7520  0.0861
  432TMC3     C 6443   3.530   0.235  11.812 -0.1958 -0.0449  0.0862
  432TMC3     O 6444   3.598   0.333  11.784 -0.2772 -0.3592 -0.8209
  432TMC3     H 6445   3.545   0.265  11.547 -0.7791  0.2877 -0.7257
  432TMC3    H1 6446   3.538   4.695  11.847  0.7305  2.7733  0.0467
  432TMC3    H2 6447   3.530   4.578  11.453  0.6567  0.1193 -0.7811
  432TMC3    C7 6448   3.474   4.490  11.684 -0.3253 -0.5564  0.4515
  432TMC3    C8 6449   3.601   0.090  11.362 -0.3069 -0.1226 -0.4373
  432TMC3    O1 6450   3.493   4.396  11.601 -0.5833  0.3090  0.7980
  432TMC3    O2 6451   3.594   0.022  11.263 -0.1599  0.1993 -0.7942
  433MPD2     C 6452   2.242   3.509  10.799  0.6907 -0.0030  0.2568
  433MPD2    C1 6453   2.155   3.431  10.877 -0.2111  0.4522 -0.8271
  433MPD2    C2 6454   2.181   3.431  11.019 -0.4334  0.2543  0.7005
  433MPD2    C3 6455   2.280   3.517  11.073 -0.9394  0.0926  0.0815
  433MPD2    C4 6456   2.349   3.603  10.984 -0.5755  0.1034 -0.3041
  433MPD2    C5 6457   2.330   3.597  10.851 -0.2146 -0.5095 -0.8217
  433MPD2     H 6458   2.129   3.365  11.087  0.1021 -1.1867 -0.2699
  433MPD2    H1 6459   2.421   3.674  11.024 -0.6190  0.8473 -1.5202
  433MPD2    H2 6460   2.250   3.521  10.692  1.5147  2.5603  0.5902
  433MPD2    H3 6461   2.392   3.661  10.790  0.0305  0.8276  0.8277
  433MPD2     N 6462   2.307   3.503  11.213 -0.5858  0.3205 -0.1638
  433MPD2    H5 6463   2.248   3.440  11.267 -0.6542  1.6680  1.3461
  433MPD2    N1 6464   2.068   3.341  10.811  0.1721 -0.3399 -0.6252
  433MPD2    H7 6465   2.081   3.328  10.711  1.1092 -0.2429 -0.5133
  434TMC3    C1 6466   1.910   3.164  10.814  0.5811  0.1270 -0.0367
  434TMC3    C2 6467   1.921   3.051  10.884  0.0808  0.1434 -0.4266
  434TMC3    C3 6468   1.882   2.933  10.828  0.3475  0.6459 -0.6801
  434TMC3    C4 6469   1.870   3.160  10.692 -0.3427 -0.2475  0.3187
  434TMC3    C5 6470   1.845   3.039  10.634 -0.6325 -0.0644 -0.6520
  434TMC3    C6 6471   1.855   2.919  10.697  0.4927  0.2301  0.4100
  434TMC3     C 6472   1.966   3.277  10.881  0.8273 -0.9650 -1.1510
  434TMC3     O 6473   1.940   3.273  11.000  0.3437 -0.1978 -0.3245
  434TMC3     H 6474   1.969   3.052  10.982  0.1706  1.0791 -0.4851
  434TMC3    H1 6475   1.878   3.254  10.639  0.9686 -0.4787  0.0939
  434TMC3    H2 6476   1.817   2.831  10.646  1.5435  0.2518 -0.4352
  434TMC3    C7 6477   1.834   3.030  10.490  0.3944  0.7385 -0.6076
  434TMC3    C8 6478   1.954   2.826  10.890 -0.0525  0.2424  0.4574
  434TMC3    O1 6479   1.753   3.102  10.432  0.3115  0.3065  0.1649
  434TMC3    O2 6480   1.936   2.808  11.009 -0.4771 -0.0136  0.2067
  435MPD2     C 6481   4.472   3.738  15.335  0.6441  0.6694  0.1874
  435MPD2    C1 6482   4.445   3.700  15.468 -0.2587 -0.2555 -0.6164
  435MPD2    C2 6483   4.544   3.630  15.535  0.4033 -0.1082  0.0060
  435MPD2    C3 6484   4.659   3.594  15.477 -0.1421 -0.5401  0.1879
  435MPD2    C4 6485   4.685   3.626  15.344 -0.6577 -0.3335 -0.3845
  435MPD2    C5 6486   4.589   3.699  15.274  0.2245  0.6900  0.9723
  435MPD2     H 6487   4.541   3.618  15.643  3.2514 -1.2684 -0.0439
  435MPD2    H1 6488   0.058   3.594  15.300  0.0715 -0.1305  0.9887
  435MPD2    H2 6489   4.398   3.784  15.271 -1.5186 -0.7253  1.6956
  435MPD2    H3 6490   4.608   3.729  15.171 -0.8424 -3.3928 -0.4136
  435MPD2     N 6491   0.032   3.519  15.555 -0.1768 -0.5299  0.0896
  435MPD2    H5 6492   0.022   3.514  15.656  1.8632 -2.3224  0.1843
  435MPD2    N1 6493   4.333   3.727  15.538  0.4281  0.5494 -0.2495
  435MPD2    H7 6494   4.325   3.696  15.634 -0.5726 -2.4695 -1.3263
  436TMC3    C1 6495   4.005   3.788  15.777 -0.8796  0.4014  0.8419
  436TMC3    C2 6496   4.117   3.782  15.703 -0.0601 -0.3183 -0.2789
  436TMC3    C3 6497   4.106   3.782  15.567 -0.0740  0.8946  0.0303
  436TMC3    C4 6498   3.880   3.803  15.726  0.2570  0.0745  0.5755
  436TMC3    C5 6499   3.872   3.801  15.591 -0.8570  0.8520 -0.8526
  436TMC3    C6 6500   3.986   3.799  15.508 -0.1150 -0.2885  0.0787
  436TMC3     C 6501   4.019   3.745  15.914  0.1975  0.3962  0.1353
  436TMC3     O 6502   4.112   3.667  15.935  0.1316 -0.5087 -0.3808
  436TMC3     H 6503   4.208   3.772  15.762  0.0496 -0.6335 -0.5008
  436TMC3    H1 6504   3.790   3.807  15.787  0.2475  0.8334  0.5092
  436TMC3    H2 6505   3.968   3.799  15.401  0.7933 -1.6841 -0.0736
  436TMC3    C7 6506   3.737   3.808  15.531 -0.3205 -0.5314  0.1296
  436TMC3    C8 6507   4.220   3.775  15.476  0.2026 -0.8134 -0.5435
  436TMC3    O1 6508   3.639   3.839  15.603  0.0201 -0.4899 -0.1117
  436TMC3    O2 6509   4.201   3.807  15.361  0.8652  0.0123 -0.2921
  437TMC3    C1 6510   2.931   0.637  12.230  0.7293 -0.4003  0.1109
  437TMC3    C2 6511   2.811   0.676  12.285  0.3524 -0.1316  0.6237
  437TMC3    C3 6512   2.771   0.802  12.264  0.0849  0.0697 -0.0726
  437TMC3    C4 6513   3.011   0.731  12.172  0.4827  0.7431  0.4026
  437TMC3    C5 6514   2.965   0.859  12.157  0.1145  0.3894  0.0200
  437TMC3    C6 6515   2.849   0.905  12.202  0.0235  0.1796  0.0822
  437TMC3     C 6516   2.987   0.520  12.288  0.4036  1.1137  0.1161
  437TMC3     O 6517   3.110   0.509  12.280 -0.8808  0.2026 -0.4021
  437TMC3     H 6518   2.740   0.607  12.329  0.1899 -0.3207  0.0615
  437TMC3    H1 6519   3.106   0.699  12.128  0.5731  0.6835  0.6430
  437TMC3    H2 6520   2.812   1.002  12.171 -0.9137 -0.4674 -0.8517
  437TMC3    C7 6521   3.051   0.955  12.076  0.1880  0.6987  0.2562
  437TMC3    C8 6522   2.662   0.852  12.342 -0.6503 -0.4884  0.1432
  437TMC3    O1 6523   2.989   1.036  12.009 -0.4957 -0.0445 -0.1554
  437TMC3    O2 6524   2.583   0.767  12.378 -0.0249 -0.4008 -0.2233
  438MPD2     C 6525   0.876   1.421  16.817 -0.0539  0.1523 -0.2222
  438MPD2    C1 6526   0.983   1.347  16.848  0.6460  0.1915 -0.7015
  438MPD2    C2 6527   0.986   1.287  16.971 -1.0505  0.6031 -0.2490
  438MPD2    C3 6528   0.878   1.298  17.060 -0.3285  0.5505  0.8882
  438MPD2    C4 6529   0.773   1.389  17.030 -0.3144  0.5337 -0.2849
  438MPD2    C5 6530   0.776   1.451  16.904 -0.4162 -0.5630 -0.1923
  438MPD2     H 6531   1.077   1.232  16.991 -1.4382  0.3929  0.9476
  438MPD2    H1 6532   0.706   1.425  17.108 -1.4615 -1.9830 -0.0789
  438MPD2    H2 6533   0.881   1.487  16.731 -2.8066  1.0496  0.3132
  438MPD2    H3 6534   0.691   1.515  16.881  0.2347 -0.3081 -1.8707
  438MPD2     N 6535   0.858   1.216  17.169  0.7293 -0.2081  0.2741
  438MPD2    H5 6536   0.771   1.237  17.219  0.3036  0.4388 -0.7332
  438MPD2    N1 6537   1.100   1.344  16.774 -0.9444 -0.1703 -0.4590
  438MPD2    H7 6538   1.166   1.277  16.813  0.6275  3.3810  2.9671
  439TMC3    C1 6539   1.234   1.326  16.585  0.5405  0.1225  0.1853
  439TMC3    C2 6540   1.239   1.309  16.450  1.0184  0.2891 -0.2925
  439TMC3    C3 6541   1.353   1.245  16.402 -0.3900  0.2639  0.3687
  439TMC3    C4 6542   1.341   1.302  16.669 -0.3019 -0.3535  0.3422
  439TMC3    C5 6543   1.447   1.226  16.621  0.2292  0.4902  0.0313
  439TMC3    C6 6544   1.449   1.203  16.483 -0.1556  0.5137 -0.4353
  439TMC3     C 6545   1.113   1.380  16.641 -0.1265  0.3408 -0.1065
  439TMC3     O 6546   1.044   1.444  16.562 -0.1743  0.1154 -0.1658
  439TMC3     H 6547   1.166   1.353  16.382 -2.5410 -1.8337  2.1297
  439TMC3    H1 6548   1.347   1.346  16.768  0.5548  0.8565 -0.2557
  439TMC3    H2 6549   1.543   1.172  16.439 -0.7152 -0.7093 -0.7707
  439TMC3    C7 6550   1.560   1.195  16.706  0.1061 -0.3071 -0.4578
  439TMC3    C8 6551   1.369   1.218  16.256 -0.0664 -0.5862  0.1891
  439TMC3    O1 6552   1.559   1.239  16.819  0.1558  0.5957  0.0356
  439TMC3    O2 6553   1.482   1.208  16.213  0.2273  0.2874  0.9887
  440MPD2     C 6554   3.710   1.019  14.966  0.2426 -0.2984  0.3078
  440MPD2    C1 6555   3.768   1.145  14.973  0.2012  0.2276  0.0958
  440MPD2    C2 6556   3.896   1.147  15.025  0.1889  0.2221 -0.3845
  440MPD2    C3 6557   3.962   1.040  15.080  0.6730  0.1741 -0.4609
  440MPD2    C4 6558   3.896   0.924  15.081  0.8642  0.1465 -0.1547
  440MPD2    C5 6559   3.772   0.906  15.013  1.1495 -0.3242 -0.4644
  440MPD2     H 6560   3.937   1.247  15.022  0.2049  0.1958 -1.2605
  440MPD2    H1 6561   3.939   0.833  15.122  1.2272  0.3218 -0.1457
  440MPD2    H2 6562   3.610   1.009  14.926  0.4015 -1.6478  0.2469
  440MPD2    H3 6563   3.727   0.810  14.993 -1.8862  1.2765 -1.2788
  440MPD2     N 6564   4.093   1.040  15.135  0.3414  0.0998  0.6788
  440MPD2    H5 6565   4.121   0.952  15.177  0.4992  0.1042  0.5843
  440MPD2    N1 6566   3.713   1.268  14.925 -0.0508  0.0175 -0.8523
  440MPD2    H7 6567   3.758   1.353  14.958  1.7033 -0.5526 -1.7842
  441TMC3    C1 6568   4.308   1.120  15.187  0.5961 -0.2923  0.2065
  441TMC3    C2 6569   4.393   1.226  15.198  1.0171  0.0329  0.2748
  441TMC3    C3 6570   4.517   1.205  15.248  0.0890  0.4896  0.1364
  441TMC3    C4 6571   4.346   1.001  15.228 -0.0563  0.4484  0.5824
  441TMC3    C5 6572   4.464   0.977  15.291 -0.3927  0.0874 -0.5024
  441TMC3    C6 6573   4.554   1.078  15.295  0.3054 -0.1178  0.5584
  441TMC3     C 6574   4.177   1.148  15.126 -0.2632  0.4068 -0.6861
  441TMC3     O 6575   4.163   1.254  15.062 -0.4525 -0.1759 -0.3534
  441TMC3     H 6576   4.354   1.326  15.186  2.6052  0.6997  0.6714
  441TMC3    H1 6577   4.280   0.916  15.239 -0.7455  0.8920 -0.2038
  441TMC3    H2 6578   4.652   1.060  15.338  0.5152  0.1527  0.1899
  441TMC3    C7 6579   4.513   0.843  15.266  0.1655 -0.1332 -0.6636
  441TMC3    C8 6580   4.592   1.316  15.291 -0.3373  0.0570 -0.3471
  441TMC3    O1 6581   4.585   0.842  15.166  0.2245 -0.3501 -0.3059
  441TMC3    O2 6582   4.698   1.300  15.352  0.1266 -0.2785  0.6067
  442MPD2     C 6583   2.910   2.663  16.311  0.0157  0.0484  1.1724
  442MPD2    C1 6584   2.853   2.592  16.414  0.1830  0.1583 -0.0493
  442MPD2    C2 6585   2.820   2.456  16.399  0.0251 -0.3799 -0.2598
  442MPD2    C3 6586   2.850   2.392  16.279  0.6035 -0.1822 -0.7344
  442MPD2    C4 6587   2.901   2.463  16.169  0.2067  0.0511 -0.2982
  442MPD2    C5 6588   2.937   2.596  16.194 -0.2585  0.5441  0.1834
  442MPD2     H 6589   2.785   2.394  16.481 -1.0523 -2.1540 -2.0553
  442MPD2    H1 6590   2.921   2.417  16.073  2.4194 -0.6254  0.4980
  442MPD2    H2 6591   2.945   2.764  16.330 -0.7556  0.7134 -0.9078
  442MPD2    H3 6592   2.975   2.653  16.110 -0.7838  0.1937 -0.2952
  442MPD2     N 6593   2.826   2.250  16.260 -0.2524 -0.2259  0.0381
  442MPD2    H5 6594   2.854   2.217  16.169  0.8780 -1.5929  0.8719
  442MPD2    N1 6595   2.845   2.652  16.549  0.2269  0.1860  0.6443
  442MPD2    H7 6596   2.819   2.602  16.634  0.1339 -3.4548 -1.5677
  443TMC3    C1 6597   2.832   2.811  16.715 -0.1178 -0.6857  0.0265
  443TMC3    C2 6598   2.739   2.912  16.729 -0.4396  0.2127  0.1428
  443TMC3    C3 6599   2.634   2.892  16.802 -0.1646  0.0432 -0.5720
  443TMC3    C4 6600   2.834   2.702  16.797 -0.2826 -0.1075 -0.3076
  443TMC3    C5 6601   2.738   2.702  16.898 -0.1884 -0.3370 -0.4520
  443TMC3    C6 6602   2.637   2.793  16.898  0.1735 -0.5145 -0.0212
  443TMC3     C 6603   2.874   2.784  16.580  0.1176 -0.5736 -0.8959
  443TMC3     O 6604   2.899   2.880  16.511  0.2442  0.3174  0.5081
  443TMC3     H 6605   2.756   3.007  16.680 -1.9685 -0.2516 -1.2796
  443TMC3    H1 6606   2.918   2.633  16.793 -0.5656 -0.5075  0.8575
  443TMC3    H2 6607   2.550   2.792  16.962 -0.4559  2.5780 -0.8033
  443TMC3    C7 6608   2.724   2.591  16.986  0.9107  0.3937 -0.0712
  443TMC3    C8 6609   2.518   2.888  16.720  0.6246 -0.3585  0.4046
  443TMC3    O1 6610   2.787   2.485  16.967 -0.6541  0.4637  0.2384
  443TMC3    O2 6611   2.448   2.792  16.734  0.0485 -0.5012 -0.0438
  444MPD2     C 6612   3.035   1.986  16.698  1.1827 -0.2082  0.0386
  444MPD2    C1 6613   3.029   1.869  16.761 -0.4145  0.4628 -0.8742
  444MPD2    C2 6614   3.039   1.751  16.686  0.1608  0.3607 -0.3322
  444MPD2    C3 6615   3.056   1.750  16.547 -0.0790 -0.2671  0.4648
  444MPD2    C4 6616   3.056   1.877  16.493  0.3941 -0.0336 -0.1630
  444MPD2    C5 6617   3.048   1.991  16.562 -0.7092  0.1956  0.2738
  444MPD2     H 6618   3.030   1.652  16.731 -2.7069  0.7472 -0.0492
  444MPD2    H1 6619   3.074   1.891  16.388  0.6624  1.3966  0.0785
  444MPD2    H2 6620   3.028   2.080  16.751  0.2542 -0.3766  0.2129
  444MPD2    H3 6621   3.051   2.084  16.507 -0.1723  0.1779  0.2746
  444MPD2     N 6622   3.057   1.633  16.467  0.4421  0.2441 -0.1233
  444MPD2    H5 6623   3.028   1.646  16.371 -0.2400  0.1697  0.0708
  444MPD2    N1 6624   3.005   1.855  16.897 -0.4897  0.0421 -0.1273
  444MPD2    H7 6625   3.026   1.761  16.930  0.2006 -0.5786 -2.3180
  445TMC3    C1 6626   3.056   1.400  16.402  0.2301 -0.8881  0.2885
  445TMC3    C2 6627   2.974   1.413  16.293 -0.4029 -0.0190  0.4699
  445TMC3    C3 6628   2.977   1.314  16.203 -0.7555  0.2634 -0.0760
  445TMC3    C4 6629   3.127   1.287  16.429  0.0661 -0.0763  0.1108
  445TMC3    C5 6630   3.128   1.189  16.336  0.2094 -0.3906 -0.0148
  445TMC3    C6 6631   3.059   1.207  16.213 -0.0003  0.7439  0.5812
  445TMC3     C 6632   3.059   1.501  16.514 -0.1706 -0.3298  0.3267
  445TMC3     O 6633   3.091   1.457  16.624  0.0114 -0.0468 -0.0653
  445TMC3     H 6634   2.906   1.497  16.291  0.8554  1.0458  2.0203
  445TMC3    H1 6635   3.183   1.272  16.521  0.4580  3.3356  0.4305
  445TMC3    H2 6636   3.060   1.123  16.145 -2.6072  1.4087 -0.2910
  445TMC3    C7 6637   3.245   1.101  16.323 -0.6125 -0.1332 -0.3312
  445TMC3    C8 6638   2.870   1.320  16.107  0.2450 -0.1955  0.3618
  445TMC3    O1 6639   3.268   1.041  16.220 -0.2097 -0.2018 -0.1078
  445TMC3    O2 6640   2.801   1.421  16.114  0.3071 -0.3516  0.3087
  446MPD2     C 6641   2.109   3.022  11.391  0.4288  1.0964  0.7323
  446MPD2    C1 6642   2.077   2.956  11.280 -0.2197  0.3005  0.3228
  446MPD2    C2 6643   2.166   2.957  11.171 -0.2862  0.2316 -0.0188
  446MPD2    C3 6644   2.293   3.012  11.192  0.2413  0.1641  0.3448
  446MPD2    C4 6645   2.321   3.074  11.307 -0.7829  0.4420  0.6818
  446MPD2    C5 6646   2.231   3.083  11.410 -0.3909 -0.5887 -0.4993
  446MPD2     H 6647   2.135   2.913  11.077 -0.4216  1.4530 -0.5469
  446MPD2    H1 6648   2.418   3.114  11.333  0.0225 -0.7594 -0.4583
  446MPD2    H2 6649   2.039   3.036  11.473  0.1372 -1.8525  0.9772
  446MPD2    H3 6650   2.245   3.148  11.496  0.6230 -2.3781  0.6722
  446MPD2     N 6651   2.388   2.987  11.092  0.9517 -0.6654 -0.4971
  446MPD2    H5 6652   2.358   2.940  11.007  1.4361 -2.3937  0.2685
  446MPD2    N1 6653   1.953   2.892  11.259 -0.5392  0.4611  1.0693
  446MPD2    H7 6654   1.953   2.832  11.177 -0.8302  2.7923 -0.6259
  447TMC3    C1 6655   2.598   2.964  10.979  0.9861  0.4727  0.8002
  447TMC3    C2 6656   2.538   2.965  10.857  0.3601 -0.0578  0.3065
  447TMC3    C3 6657   2.616   2.949  10.751  0.2209  0.7301 -0.2837
  447TMC3    C4 6658   2.728   2.934  11.004  0.7850 -0.5247  0.2995
  447TMC3    C5 6659   2.805   2.928  10.889 -0.5381  0.3476  0.2496
  447TMC3    C6 6660   2.751   2.934  10.767  0.7334 -0.5803  0.0458
  447TMC3     C 6661   2.525   2.998  11.102  0.0450  0.0825 -0.3972
  447TMC3     O 6662   2.596   3.032  11.196  0.4989  0.4664  0.1930
  447TMC3     H 6663   2.431   2.980  10.844  0.1869 -0.4324  1.2497
  447TMC3    H1 6664   2.781   2.950  11.098 -0.0618 -0.6593  0.8047
  447TMC3    H2 6665   2.812   2.924  10.678  0.1052 -0.5334 -0.3839
  447TMC3    C7 6666   2.933   2.875  10.902  0.1731  0.5910  0.6876
  447TMC3    C8 6667   2.550   2.889  10.637 -0.4140 -0.6708 -0.4146
  447TMC3    O1 6668   3.014   2.910  10.815  0.7279  0.0641 -0.5682
  447TMC3    O2 6669   2.434   2.923  10.614 -0.5136  0.0180  0.0274
  448TMC3    C1 6670   2.211   3.209  16.598 -0.3801 -0.7335 -0.4590
  448TMC3    C2 6671   2.127   3.101  16.594  0.2810 -0.0186 -0.0577
  448TMC3    C3 6672   2.119   3.022  16.710 -0.2029 -0.4952 -0.9181
  448TMC3    C4 6673   2.291   3.240  16.703  0.3947  0.8168 -0.1756
  448TMC3    C5 6674   2.272   3.162  16.818  0.2077 -0.2652  0.5148
  448TMC3    C6 6675   2.196   3.047  16.823  0.1568  0.1347 -0.5892
  448TMC3     C 6676   2.224   3.289  16.479  0.2504  0.4583 -0.7965
  448TMC3     O 6677   2.161   3.250  16.382  0.4730  0.4895 -0.3578
  448TMC3     H 6678   2.056   3.093  16.512  0.0623  0.7633  0.0547
  448TMC3    H1 6679   2.355   3.327  16.709  0.7739  0.4933  0.4985
  448TMC3    H2 6680   2.174   2.975  16.902  1.5958 -0.2238 -0.5182
  448TMC3    C7 6681   2.322   3.216  16.943  0.4860  0.1824 -0.9082
  448TMC3    C8 6682   2.050   2.897  16.696  0.1575  0.6962 -0.0005
  448TMC3    O1 6683   2.432   3.258  16.931 -0.5077 -0.0418 -0.2568
  448TMC3    O2 6684   2.088   2.809  16.771  0.7315  0.0598 -0.2168
  449MPD2     C 6685   2.063   1.352  13.193  0.1550 -0.7447 -0.0793
  449MPD2    C1 6686   1.965   1.257  13.205  0.1893  0.1511  0.0787
  449MPD2    C2 6687   1.869   1.273  13.292  0.9216  0.6961 -0.2863
  449MPD2    C3 6688   1.859   1.387  13.374  0.4088  0.4486 -0.1790
  449MPD2    C4 6689   1.947   1.484  13.352 -0.9066  0.0666  0.0042
  449MPD2    C5 6690   2.039   1.473  13.254 -0.3415 -0.3260 -0.0009
  449MPD2     H 6691   1.799   1.191  13.306  0.6063  0.9327 -0.4834
  449MPD2    H1 6692   1.932   1.584  13.392 -4.0317 -0.1427 -0.6621
  449MPD2    H2 6693   2.147   1.349  13.126  0.8524  3.2123  0.6245
  449MPD2    H3 6694   2.108   1.555  13.234 -3.0258  1.2426 -2.7799
  449MPD2     N 6695   1.746   1.392  13.458 -0.1384  0.3311 -0.2145
  449MPD2    H5 6696   1.683   1.312  13.462 -2.4268  2.2170  0.9810
  449MPD2    N1 6697   1.964   1.142  13.126  0.5264  0.0876 -0.3536
  449MPD2    H7 6698   1.870   1.107  13.116 -0.1688  1.4587  1.3920
  450TMC3    C1 6699   1.993   0.992  12.962 -0.5217 -0.1153  0.1821
  450TMC3    C2 6700   2.051   0.872  12.990  0.6693 -0.2699 -0.3554
  450TMC3    C3 6701   1.979   0.756  12.988  0.5297 -0.0305  0.1130
  450TMC3    C4 6702   1.855   1.001  12.948  0.3110  0.7666  0.7059
  450TMC3    C5 6703   1.778   0.886  12.972 -0.1748  0.0286  0.3068
  450TMC3    C6 6704   1.836   0.767  13.001 -0.1877  0.5835  0.0163
  450TMC3     C 6705   2.060   1.097  13.036 -0.0521  0.7212  0.4543
  450TMC3     O 6706   2.180   1.108  13.043  0.4579  0.3745 -0.1840
  450TMC3     H 6707   2.154   0.864  13.024  0.3919  2.5377  1.1245
  450TMC3    H1 6708   1.818   1.099  12.920  0.6563  1.4443  2.6565
  450TMC3    H2 6709   1.773   0.679  13.000  1.9492 -0.9445 -1.0217
  450TMC3    C7 6710   1.681   0.921  13.072 -0.3047 -0.1496 -0.6160
  450TMC3    C8 6711   2.033   0.632  12.937 -0.2903  0.0890  0.3029
  450TMC3    O1 6712   1.718   1.024  13.127  0.1848 -0.1752 -0.5796
  450TMC3    O2 6713   1.965   0.528  12.941  0.0548 -0.0816 -0.2600
  451MPD2     C 6714   4.088   4.506   1.535  0.3317 -0.5894  0.2378
  451MPD2    C1 6715   4.132   4.553   1.414 -0.2874 -0.0718  0.2742
  451MPD2    C2 6716   4.256   4.512   1.361  0.4529 -0.1202 -0.2124
  451MPD2    C3 6717   4.346   4.436   1.436  0.1231  0.7095 -0.7549
  451MPD2    C4 6718   4.306   4.409   1.565  0.2241  0.5401  0.2215
  451MPD2    C5 6719   4.183   4.444   1.613 -0.7699  0.2335  0.7925
  451MPD2     H 6720   4.294   4.536   1.262  0.5077 -1.5581 -0.5429
  451MPD2    H1 6721   4.370   4.359   1.637 -0.0955 -2.0775 -1.3290
  451MPD2    H2 6722   3.998   4.546   1.579  1.1001  1.7440 -0.3117
  451MPD2    H3 6723   4.156   4.422   1.716  0.1528 -2.0766  0.5484
  451MPD2     N 6724   4.469   4.375   1.384 -0.1444  0.1156  1.1373
  451MPD2    H5 6725   4.521   4.321   1.452  0.0155 -0.9630  0.1500
  451MPD2    N1 6726   4.039   4.634   1.340  0.0966  0.0789 -0.3370
  451MPD2    H7 6727   3.952   4.657   1.386  0.8466 -1.4154  1.8353
  452TMC3    C1 6728   4.598   4.262   1.236 -0.4561 -0.8048  0.4429
  452TMC3    C2 6729   4.707   4.253   1.323  0.0948  0.5282 -0.5874
  452TMC3    C3 6730   0.064   4.137   1.326  0.6350  0.2577  0.2771
  452TMC3    C4 6731   4.589   4.176   1.128  0.4935  0.4825  0.3308
  452TMC3    C5 6732   4.683   4.075   1.123 -0.0441 -0.3208 -0.5352
  452TMC3    C6 6733   0.058   4.046   1.218 -0.7413 -0.0130 -0.7344
  452TMC3     C 6734   4.497   4.360   1.252 -0.4295 -0.4167  0.3632
  452TMC3     O 6735   4.433   4.393   1.155 -0.1113 -0.4470 -0.6800
  452TMC3     H 6736   4.701   4.312   1.414 -0.2201 -0.6915  0.1758
  452TMC3    H1 6737   4.507   4.186   1.058  0.1003  1.9709  1.0078
  452TMC3    H2 6738   0.128   3.963   1.214 -0.3885  0.3312 -2.0423
  452TMC3    C7 6739   4.675   3.992   1.005 -0.3655  0.2399 -0.0091
  452TMC3    C8 6740   0.134   4.082   1.441  0.0013 -0.5273 -0.3234
  452TMC3    O1 6741   4.626   4.047   0.907  0.2732  0.5786 -0.3219
  452TMC3    O2 6742   0.128   3.959   1.439 -0.7048  0.1024 -0.1029
  453TMC3    C1 6743   4.484   2.143  11.574 -0.1446 -0.0273 -0.6408
  453TMC3    C2 6744   4.362   2.110  11.625  0.0935 -0.1730 -0.1629
  453TMC3    C3 6745   4.270   2.053  11.539  0.8441 -0.0977  0.0033
  453TMC3    C4 6746   4.528   2.123  11.446 -0.4937  0.6536  0.1906
  453TMC3    C5 6747   4.432   2.067  11.367  0.1879  0.4723 -0.2817
  453TMC3    C6 6748   4.308   2.025  11.410 -0.0212  0.0386  0.6215
  453TMC3     C 6749   4.584   2.201  11.668 -0.2244 -0.5041 -0.0642
  453TMC3     O 6750   4.698   2.209  11.622 -0.0523  0.1298 -0.7824
  453TMC3     H 6751   4.347   2.098  11.732  1.1814 -1.7168 -0.1857
  453TMC3    H1 6752   4.619   2.171  11.410 -0.2877 -0.1559 -0.3632
  453TMC3    H2 6753   4.239   1.973  11.344 -1.5613  1.9001  0.7689
  453TMC3    C7 6754   4.454   2.090  11.223  0.2976  0.6581  1.0855
  453TMC3    C8 6755   4.181   1.959  11.606 -0.1280  0.4884  0.5045
  453TMC3    O1 6756   4.566   2.122  11.186 -0.6278  0.0331 -0.3224
  453TMC3    O2 6757   4.080   2.004  11.663  0.0343  0.2937  0.4317
  454MPD2     C 6758   3.824   1.451  16.075 -0.4715 -0.8432  0.1290
  454MPD2    C1 6759   3.736   1.549  16.022  0.7657 -0.3551  0.1969
  454MPD2    C2 6760   3.734   1.665  16.087  0.2634 -0.3743  0.3834
  454MPD2    C3 6761   3.786   1.692  16.213  0.0171 -0.3037  0.5599
  454MPD2    C4 6762   3.861   1.588  16.270  0.2460  0.3909 -0.5093
  454MPD2    C5 6763   3.882   1.468  16.202  0.5616 -0.4620 -0.3285
  454MPD2     H 6764   3.666   1.738  16.045  1.0509  1.1760  1.8084
  454MPD2    H1 6765   3.894   1.598  16.373  0.8116  0.0945 -0.6623
  454MPD2    H2 6766   3.849   1.351  16.039  1.5793  0.1920 -1.3027
  454MPD2    H3 6767   3.951   1.392  16.236  1.7510  0.4495 -0.6732
  454MPD2     N 6768   3.755   1.804  16.286 -0.3781 -0.4934 -0.3093
  454MPD2    H5 6769   3.749   1.785  16.386  2.6712  0.9090  0.1457
  454MPD2    N1 6770   3.650   1.531  15.908  0.1326  0.1080  0.3272
  454MPD2    H7 6771   3.574   1.598  15.910  1.5706  1.7471  0.7614
  455TMC3    C1 6772   3.597   1.966  16.311 -0.0853 -0.4710 -0.5096
  455TMC3    C2 6773   3.619   1.959  16.445  0.0955  0.2851  0.5827
  455TMC3    C3 6774   3.517   1.918  16.526  0.2692  0.2967  0.1085
  455TMC3    C4 6775   3.472   1.942  16.255 -0.0737 -0.1295 -0.7813
  455TMC3    C5 6776   3.371   1.899  16.336  0.8645  0.0351  0.6604
  455TMC3    C6 6777   3.391   1.883  16.470  0.2674  0.3676  0.1595
  455TMC3     C 6778   3.702   1.918  16.227 -0.1833  0.6521  0.2687
  455TMC3     O 6779   3.717   1.968  16.114  0.4517  0.4756  0.0921
  455TMC3     H 6780   3.716   1.984  16.486 -0.1384  0.8894  0.7689
  455TMC3    H1 6781   3.469   1.928  16.147 -0.2220  1.7563 -1.0272
  455TMC3    H2 6782   3.309   1.836  16.524 -1.0233  2.2098 -0.1767
  455TMC3    C7 6783   3.298   1.787  16.264 -0.0431  0.1471 -0.0680
  455TMC3    C8 6784   3.533   1.955  16.669  0.3716  0.3376 -0.0170
  455TMC3    O1 6785   3.213   1.823  16.181  0.3322  0.5959  0.0120
  455TMC3    O2 6786   3.607   2.043  16.707 -1.0418 -0.4753 -0.3804
  456MPD2     C 6787   1.506   1.607  16.325  0.5829  0.1003 -0.5758
  456MPD2    C1 6788   1.602   1.560  16.405 -0.5779  0.5115 -0.2950
  456MPD2    C2 6789   1.648   1.643  16.510 -0.5972 -0.1460  1.3431
  456MPD2    C3 6790   1.593   1.769  16.522  0.5050  0.3633  0.6391
  456MPD2    C4 6791   1.493   1.812  16.442  0.5139  0.1297 -0.4098
  456MPD2    C5 6792   1.451   1.735  16.342  0.5822  0.4048  0.4515
  456MPD2     H 6793   1.731   1.601  16.565  0.1353 -0.9008 -0.3236
  456MPD2    H1 6794   1.441   1.906  16.455 -4.0497 -2.5622  0.6299
  456MPD2    H2 6795   1.464   1.544  16.247  0.6637  0.1537 -0.6624
  456MPD2    H3 6796   1.365   1.778  16.291  0.0044  0.1695  1.2312
  456MPD2     N 6797   1.646   1.862  16.625 -0.2450 -0.3265  0.3709
  456MPD2    H5 6798   1.704   1.820  16.696  0.7428  0.5502  0.0914
  456MPD2    N1 6799   1.663   1.442  16.369 -0.5873  0.2188  0.4818
  456MPD2    H7 6800   1.631   1.400  16.282 -0.3482  2.3951 -0.6538
  457TMC3    C1 6801   1.715   2.060  16.719 -0.0156  0.3324 -0.1211
  457TMC3    C2 6802   1.755   2.182  16.679 -0.5090  0.9611 -0.6212
  457TMC3    C3 6803   1.815   2.255  16.779  0.2399 -0.1381 -0.0596
  457TMC3    C4 6804   1.704   2.028  16.856 -0.0479  0.0400  0.8549
  457TMC3    C5 6805   1.761   2.107  16.947  0.3429 -0.1300 -0.1708
  457TMC3    C6 6806   1.824   2.227  16.907  0.1665  0.1138  0.4970
  457TMC3     C 6807   1.635   1.994  16.623  1.0932  0.3315  0.3870
  457TMC3     O 6808   1.587   2.061  16.530 -0.8623  0.3346 -0.1557
  457TMC3     H 6809   1.765   2.200  16.573  1.4209  1.9804 -0.2441
  457TMC3    H1 6810   1.655   1.933  16.871  0.0904 -0.0258  0.8854
  457TMC3    H2 6811   1.879   2.292  16.975  0.7278 -0.8507  0.9693
  457TMC3    C7 6812   1.752   2.081  17.089  0.3220 -0.8496  1.1978
  457TMC3    C8 6813   1.864   2.393  16.736  0.4420 -0.1788  0.3857
  457TMC3    O1 6814   1.699   1.971  17.114  0.0330 -0.3908 -0.1481
  457TMC3    O2 6815   1.935   2.454  16.817 -0.2743  0.9566 -0.2516
  458MPD2     C 6816   3.494   1.209  11.987  0.6944 -0.0704 -0.2973
  458MPD2    C1 6817   3.524   1.109  12.073 -0.5468 -0.1807 -0.7006
  458MPD2    C2 6818   3.419   1.028  12.108 -0.0177  0.4194 -0.1778
  458MPD2    C3 6819   3.293   1.034  12.052  1.1502  0.1716  0.0474
  458MPD2    C4 6820   3.268   1.138  11.961 -0.1937 -0.4449 -0.8678
  458MPD2    C5 6821   3.369   1.221  11.933 -0.4356 -0.1542  0.2024
  458MPD2     H 6822   3.428   0.949  12.182  2.9347  0.1427 -0.8095
  458MPD2    H1 6823   3.175   1.138  11.906 -1.5514  0.1917  1.4709
  458MPD2    H2 6824   3.563   1.282  11.948  1.2722 -1.0868 -1.1910
  458MPD2    H3 6825   3.348   1.295  11.856  3.0636  0.0711 -0.5208
  458MPD2     N 6826   3.188   0.947  12.104  0.3637  0.3663 -0.0479
  458MPD2    H5 6827   3.213   0.874  12.171  0.2661 -0.3132 -0.7588
  458MPD2    N1 6828   3.657   1.105  12.132 -0.4614  0.2268 -0.6823
  458MPD2    H7 6829   3.716   1.176  12.088  1.2380 -0.6110  0.2624
  459TMC3    C1 6830   3.829   1.056  12.280  0.5927 -0.0806 -0.1985
  459TMC3    C2 6831   3.907   1.150  12.221 -0.2151 -0.5645  0.1377
  459TMC3    C3 6832   3.983   1.231  12.302  0.2290 -0.0464 -0.1464
  459TMC3    C4 6833   3.826   1.040  12.420 -0.6727 -0.1471  0.5594
  459TMC3    C5 6834   3.913   1.119  12.493  0.6762 -0.3523  0.2234
  459TMC3    C6 6835   3.992   1.221  12.441 -0.4382  0.4880  0.2727
  459TMC3     C 6836   3.699   1.022  12.233 -0.3434  0.5863 -0.1683
  459TMC3     O 6837   3.643   0.926  12.289 -0.6557  0.0732 -0.2456
  459TMC3     H 6838   3.890   1.169  12.115  0.2326 -1.6009 -0.1142
  459TMC3    H1 6839   3.755   0.974  12.468  0.4422 -2.5425 -1.0761
  459TMC3    H2 6840   4.051   1.286  12.505  0.7460 -0.0235 -0.2945
  459TMC3    C7 6841   3.931   1.070  12.632  0.6015  0.5100  0.5590
  459TMC3    C8 6842   4.107   1.270  12.237 -0.2257 -0.3630  0.4882
  459TMC3    O1 6843   3.891   0.959  12.651 -0.0759 -0.2865 -0.2718
  459TMC3    O2 6844   4.179   1.179  12.195 -0.6316  0.8727  0.0547
  460MPD2     C 6845   2.658   2.625  10.418  0.0519 -0.7691  0.3616
  460MPD2    C1 6846   2.577   2.730  10.448  0.2194 -0.0616  0.3465
  460MPD2    C2 6847   2.485   2.782  10.356  0.4337  0.0813 -0.3022
  460MPD2    C3 6848   2.476   2.722  10.233 -0.0233  0.5578 -0.2748
  460MPD2    C4 6849   2.561   2.617  10.203 -0.3113  0.3983  0.3845
  460MPD2    C5 6850   2.647   2.565  10.299  0.8582  0.2751  0.1232
  460MPD2     H 6851   2.430   2.874  10.370  1.5633  0.7855 -0.4774
  460MPD2    H1 6852   2.553   2.558  10.112 -1.0713  0.8924  0.1312
  460MPD2    H2 6853   2.721   2.591  10.499  1.7236 -0.2734 -0.7337
  460MPD2    H3 6854   2.702   2.479  10.263 -0.7807 -0.1436 -1.3912
  460MPD2     N 6855   2.370   2.770  10.146 -0.1546  0.7688  0.2635
  460MPD2    H5 6856   2.319   2.855  10.169 -1.8014  0.1350 -1.0685
  460MPD2    N1 6857   2.620   2.797  10.568 -0.1610  0.1542 -0.5123
  460MPD2    H7 6858   2.706   2.766  10.612 -2.0364 -0.4204  2.7888
  461TMC3    C1 6859   2.228   2.765   9.950 -0.7953 -0.5994 -0.2497
  461TMC3    C2 6860   2.225   2.715   9.825 -0.2639 -0.2923 -0.7022
  461TMC3    C3 6861   2.133   2.766   9.740  0.1277  0.2181 -0.0807
  461TMC3    C4 6862   2.150   2.869   9.996 -0.2112 -0.2489 -0.9454
  461TMC3    C5 6863   2.052   2.914   9.910  0.3544 -0.0788  0.1079
  461TMC3    C6 6864   2.041   2.868   9.780  0.3698  0.0133  0.3291
  461TMC3     C 6865   2.325   2.703  10.040  0.5151 -0.7542 -0.1834
  461TMC3     O 6866   2.358   2.589   9.999  0.2305  0.0475  0.1548
  461TMC3     H 6867   2.303   2.645   9.799 -2.0615 -2.6336  0.1869
  461TMC3    H1 6868   2.150   2.899  10.100  3.0648  3.2518 -1.9537
  461TMC3    H2 6869   1.968   2.911   9.712  0.4493  1.6233  1.2527
  461TMC3    C7 6870   1.990   3.049   9.927 -0.3550 -0.3430  0.8543
  461TMC3    C8 6871   2.100   2.693   9.612 -0.2395  0.1820 -0.4066
  461TMC3    O1 6872   1.922   3.094   9.837  0.3453 -0.4912 -0.6957
  461TMC3    O2 6873   2.032   2.753   9.532  0.4631 -0.2328  0.4984
  462TMC3    C1 6874   3.527   0.090   0.441  0.3295 -0.0089 -0.1567
  462TMC3    C2 6875   3.641   0.010   0.457 -0.4702  0.5685  0.6170
  462TMC3    C3 6876   3.630   4.641   0.557  0.3685  0.4307  0.5422
  462TMC3    C4 6877   3.402   0.054   0.491  0.1886  0.0263  0.2845
  462TMC3    C5 6878   3.394   4.681   0.583 -0.7594  0.1735  0.0920
  462TMC3    C6 6879   3.516   4.630   0.630  0.0367 -0.4343  0.8927
  462TMC3     C 6880   3.513   0.184   0.325 -0.7423  0.2956 -0.0248
  462TMC3     O 6881   3.406   0.246   0.306 -0.3230  0.1459 -0.6371
  462TMC3     H 6882   3.732   0.031   0.402 -0.8717 -0.4865 -0.4513
  462TMC3    H1 6883   3.319   0.123   0.490  1.6752  1.8063 -0.6836
  462TMC3    H2 6884   3.511   4.534   0.682  0.7232 -0.6394  0.5731
  462TMC3    C7 6885   3.284   4.581   0.575  0.0936  0.0431  0.0597
  462TMC3    C8 6886   3.715   4.529   0.551 -0.1198  0.3800 -1.6520
  462TMC3    O1 6887   3.296   4.477   0.637 -0.6495 -0.5302  0.6389
  462TMC3    O2 6888   3.734   4.479   0.664 -0.6085  0.0745  0.3912
  463MPD2     C 6889   4.624   3.170   1.993 -0.7446  0.2421 -0.3478
  463MPD2    C1 6890   4.565   3.233   1.881 -0.4753 -0.2991  0.1149
  463MPD2    C2 6891   4.658   3.277   1.788  0.2510 -0.2790  0.2685
  463MPD2    C3 6892   0.074   3.252   1.793  0.7043 -0.0240  0.0481
  463MPD2    C4 6893   0.123   3.187   1.901  0.1461 -0.5745  0.3794
  463MPD2    C5 6894   0.042   3.156   2.012 -0.5152  0.3031 -0.2720
  463MPD2     H 6895   4.620   3.332   1.703  0.9680 -1.0654 -0.5567
  463MPD2    H1 6896   0.230   3.170   1.909  0.3572  0.2776 -0.8073
  463MPD2    H2 6897   4.563   3.139   2.078 -0.3625  1.7513  0.4704
  463MPD2    H3 6898   0.076   3.118   2.108  1.5583 -1.7858 -1.8379
  463MPD2     N 6899   0.160   3.274   1.685  0.4901  0.3985  0.0109
  463MPD2    H5 6900   0.252   3.233   1.702  0.5777  0.6457  0.1307
  463MPD2    N1 6901   4.422   3.250   1.864  0.6751 -0.1788 -1.0157
  463MPD2    H7 6902   4.399   3.306   1.783 -2.1272  1.3687  0.8350
  464TMC3    C1 6903   4.190   3.221   1.884 -0.5413 -0.6532  0.0757
  464TMC3    C2 6904   4.154   3.333   1.822 -0.2361  0.1820 -0.0957
  464TMC3    C3 6905   4.022   3.341   1.777 -0.2424  0.5039 -0.7223
  464TMC3    C4 6906   4.107   3.122   1.915  0.4294  0.1492  0.5263
  464TMC3    C5 6907   3.979   3.130   1.857  0.6713  0.4536 -0.7347
  464TMC3    C6 6908   3.933   3.241   1.798  0.0809 -0.5177 -0.5516
  464TMC3     C 6909   4.321   3.206   1.947  0.9467  0.0454  0.0712
  464TMC3     O 6910   4.329   3.138   2.048  0.2219 -0.1177 -0.0592
  464TMC3     H 6911   4.217   3.422   1.824  0.9706 -0.6743  0.0541
  464TMC3    H1 6912   4.133   3.029   1.963 -0.9022 -1.0964 -1.1791
  464TMC3    H2 6913   3.833   3.244   1.755 -0.8136  4.0241  1.8342
  464TMC3    C7 6914   3.872   3.032   1.905  0.5189 -0.7893  0.5883
  464TMC3    C8 6915   3.974   3.468   1.730  0.1291  0.2209  0.1225
  464TMC3    O1 6916   3.873   2.987   2.021 -0.6106 -0.4149  0.1484
  464TMC3    O2 6917   4.050   3.547   1.675  0.2344  0.4398  0.1925
  465MPD2     C 6918   0.881   1.731  16.729  0.4325  0.3780  0.0073
  465MPD2    C1 6919   0.815   1.787  16.828 -0.1446 -0.3671  0.5078
  465MPD2    C2 6920   0.683   1.819  16.824  0.3962 -0.1145 -0.4318
  465MPD2    C3 6921   0.611   1.792  16.708 -0.3939 -0.6956  0.2965
  465MPD2    C4 6922   0.676   1.733  16.608 -0.2679 -0.2976 -0.7836
  465MPD2    C5 6923   0.815   1.703  16.611 -0.2479  0.5070 -0.3661
  465MPD2     H 6924   0.636   1.866  16.909 -1.4491  1.4170 -2.2924
  465MPD2    H1 6925   0.626   1.696  16.519  1.2288 -0.7816 -1.4273
  465MPD2    H2 6926   0.982   1.692  16.738  0.7914  1.0232 -1.2164
  465MPD2    H3 6927   0.853   1.651  16.525  0.3926  0.6992 -0.1988
  465MPD2     N 6928   0.475   1.805  16.705  0.2707 -0.4072  0.1584
  465MPD2    H5 6929   0.430   1.836  16.791 -2.0839 -1.1834 -0.7866
  465MPD2    N1 6930   0.891   1.832  16.940 -0.0233  0.0364 -0.3929
  465MPD2    H7 6931   0.835   1.865  17.018 -0.5581 -3.2951  0.6172
  466TMC3    C1 6932   0.097   1.896  16.783  0.2565  0.2071  0.2694
  466TMC3    C2 6933   0.030   1.973  16.689 -0.4829  0.6642 -0.1646
  466TMC3    C3 6934   0.077   1.972  16.559 -1.2173  0.1764 -0.1273
  466TMC3    C4 6935   0.210   1.825  16.759  0.5941 -0.5137 -0.9059
  466TMC3    C5 6936   0.252   1.828  16.633 -0.0076 -0.3397  0.1757
  466TMC3    C6 6937   0.188   1.895  16.527 -0.1020  0.3198  0.2949
  466TMC3     C 6938   0.082   1.922  16.923 -0.9537  0.3892  0.0421
  466TMC3     O 6939   0.175   1.904  17.000  0.1524  0.9290 -0.6213
  466TMC3     H 6940   4.656   2.024  16.706 -0.5281  0.2590  0.8423
  466TMC3    H1 6941   0.260   1.772  16.840 -1.8889 -2.4620 -0.6899
  466TMC3    H2 6942   0.241   1.914  16.434 -0.5910  0.5614  0.0635
  466TMC3    C7 6943   0.392   1.794  16.599 -0.1365  0.5353  0.4071
  466TMC3    C8 6944   0.049   2.086  16.467  0.0145 -0.3615  0.3759
  466TMC3    O1 6945   0.421   1.761  16.484  0.2875 -0.1129 -0.1090
  466TMC3    O2 6946   0.037   2.064  16.349  0.5441 -0.4086 -0.8600
  467TMC3    C1 6947   1.232   0.770  13.567  0.0583 -0.0260  0.1453
  467TMC3    C2 6948   1.189   0.874  13.654 -0.2051 -0.5848  0.0694
  467TMC3    C3 6949   1.057   0.897  13.666  0.2624 -0.5691 -0.7926
  467TMC3    C4 6950   1.141   0.675  13.516  0.3360 -1.0164 -0.8898
  467TMC3    C5 6951   1.009   0.701  13.559  0.5636  0.4351 -0.0438
  467TMC3    C6 6952   0.960   0.809  13.619  0.4894  0.4424 -0.1888
  467TMC3     C 6953   1.373   0.753  13.550  0.1374 -0.1115  0.5527
  467TMC3     O 6954   1.439   0.795  13.643 -0.1301  0.2178 -0.4589
  467TMC3     H 6955   1.263   0.940  13.698 -1.6426  0.6657  0.5858
  467TMC3    H1 6956   1.166   0.584  13.463 -0.2331 -1.4249 -0.4566
  467TMC3    H2 6957   0.853   0.813  13.633  0.3528  1.5989 -1.5890
  467TMC3    C7 6958   0.907   0.599  13.516 -0.3808 -0.1507 -0.0596
  467TMC3    C8 6959   1.031   1.034  13.621 -0.2923  0.3020  0.0639
  467TMC3    O1 6960   0.947   0.529  13.425 -0.4985 -0.7943 -0.2070
  467TMC3    O2 6961   1.120   1.116  13.611  0.0767 -0.1573 -0.4626
  468MPD2     C 6962   4.390   3.482  10.180  0.5197  0.3509  1.1689
  468MPD2    C1 6963   4.497   3.425  10.256  0.1255 -0.5642 -0.0959
  468MPD2    C2 6964   4.500   3.286  10.278 -0.5725  0.9086 -0.0411
  468MPD2    C3 6965   4.389   3.208  10.238  0.6445 -0.0183  0.3458
  468MPD2    C4 6966   4.285   3.266  10.162 -0.2029  0.0790  0.6144
  468MPD2    C5 6967   4.293   3.401  10.132  0.9566 -0.1365 -0.2695
  468MPD2     H 6968   4.584   3.242  10.329 -0.2561  0.8363 -0.6284
  468MPD2    H1 6969   4.205   3.209  10.118  0.5483 -0.5097  0.0241
  468MPD2    H2 6970   4.383   3.589  10.167 -1.1797 -0.0764 -1.2765
  468MPD2    H3 6971   4.211   3.450  10.081  0.0651 -0.7467  0.5693
  468MPD2     N 6972   4.382   3.070  10.260  0.4048  0.3027  0.3936
  468MPD2    H5 6973   4.304   3.021  10.217  1.1802 -0.6033  0.0137
  468MPD2    N1 6974   4.614   3.490  10.290 -0.0247 -0.0180  0.8457
  468MPD2    H7 6975   4.683   3.443  10.347 -0.2306  0.7380  1.7315
  469TMC3    C1 6976   0.009   3.679  10.356  0.2106 -0.0690 -0.2762
  469TMC3    C2 6977   0.105   3.603  10.420 -0.3440  0.1049  0.4312
  469TMC3    C3 6978   0.148   3.649  10.540 -0.6060  0.0712  0.2469
  469TMC3    C4 6979   4.692   3.803  10.399 -0.1509  0.1345 -0.2887
  469TMC3    C5 6980   0.018   3.841  10.520 -0.7904  0.2835  0.2842
  469TMC3    C6 6981   0.118   3.777  10.584 -0.0096 -0.3621 -0.3199
  469TMC3     C 6982   4.639   3.625  10.255  0.4966  0.4985 -0.5614
  469TMC3     O 6983   4.574   3.706  10.185 -0.1359 -0.2932  0.6214
  469TMC3     H 6984   0.129   3.506  10.378 -0.4914 -0.2444  1.1484
  469TMC3    H1 6985   4.613   3.855  10.347  0.5966 -0.0643 -1.6308
  469TMC3    H2 6986   0.165   3.818  10.673 -0.3330 -0.6734 -0.0051
  469TMC3    C7 6987   4.671   3.962  10.580  0.4053  0.1362 -0.9203
  469TMC3    C8 6988   0.249   3.560  10.601  0.2253 -0.0339  1.0626
  469TMC3    O1 6989   4.593   4.018  10.510  0.7532 -0.0146  0.0035
  469TMC3    O2 6990   0.287   3.469  10.529  0.1925 -0.2595 -0.2623
  470TMC3    C1 6991   2.777   4.278   0.562  0.5793 -0.3742  0.0180
  470TMC3    C2 6992   2.752   4.416   0.577  0.2318 -0.2505  0.6736
  470TMC3    C3 6993   2.840   4.484   0.654  0.1102 -0.0600  0.1838
  470TMC3    C4 6994   2.884   4.208   0.613 -0.1538  0.0325 -0.3137
  470TMC3    C5 6995   2.963   4.278   0.689  0.2648 -0.0757  0.7455
  470TMC3    C6 6996   2.945   4.417   0.711 -0.1091 -0.6612 -0.0332
  470TMC3     C 6997   2.679   4.205   0.488  0.5762  0.6734  0.0256
  470TMC3     O 6998   2.599   4.264   0.410 -0.6256  0.1752  0.1381
  470TMC3     H 6999   2.660   4.455   0.536  1.3389  0.6282 -0.9761
  470TMC3    H1 7000   2.904   4.102   0.601 -0.0864 -0.1855  1.6756
  470TMC3    H2 7001   3.004   4.472   0.783 -2.5653 -4.0472  4.5951
  470TMC3    C7 7002   3.085   4.212   0.736  0.0947 -0.0121  0.6031
  470TMC3    C8 7003   2.804   4.616   0.707 -0.3851  0.0032 -0.2005
  470TMC3    O1 7004   3.147   4.144   0.655  0.1523 -0.3930  0.0664
  470TMC3    O2 7005   2.882   4.669   0.786 -0.3192  0.0298  0.4327
  471MPD2     C 7006   2.841   1.119  16.521  0.1939 -0.4464 -0.1684
  471MPD2    C1 7007   2.917   1.009  16.499 -0.3473 -0.3020  0.0601
  471MPD2    C2 7008   3.012   0.976  16.589 -0.0315 -0.4895  0.0050
  471MPD2    C3 7009   3.035   1.044  16.707 -0.2906  0.2682 -0.6065
  471MPD2    C4 7010   2.959   1.156  16.727  0.6189  0.4375  0.1956
  471MPD2    C5 7011   2.880   1.200  16.625  0.7944  0.3743 -0.0059
  471MPD2     H 7012   3.056   0.878  16.579 -0.5912 -0.4956 -2.3632
  471MPD2    H1 7013   2.976   1.217  16.815  2.3711 -0.5061  0.5166
  471MPD2    H2 7014   2.767   1.167  16.458 -0.8368 -1.3809  0.3166
  471MPD2    H3 7015   2.824   1.291  16.644 -2.7565 -1.9240  0.5069
  471MPD2     N 7016   3.121   1.008  16.815  0.4083  0.5205  0.0657
  471MPD2    H5 7017   3.123   1.076  16.891 -0.6203  1.1245 -0.4379
  471MPD2    N1 7018   2.900   0.928  16.385  0.6335  0.6615 -0.1320
  471MPD2    H7 7019   2.960   0.847  16.378 -2.0255 -1.3811  0.7426
  472TMC3    C1 7020   2.787   0.843  16.197  0.2536  0.0510  0.3443
  472TMC3    C2 7021   2.695   0.864  16.098 -1.1418  0.4820 -0.9167
  472TMC3    C3 7022   2.656   0.761  16.022 -0.3458 -0.1844 -0.1825
  472TMC3    C4 7023   2.829   0.714  16.235 -0.8840 -0.1810  0.1216
  472TMC3    C5 7024   2.773   0.617  16.166 -0.3013 -0.0654  0.0865
  472TMC3    C6 7025   2.691   0.635  16.059 -0.5193 -0.2886  0.1464
  472TMC3     C 7026   2.795   0.951  16.294 -0.4379  0.3761 -0.6688
  472TMC3     O 7027   2.717   1.050  16.287  0.2976  0.5305 -0.7454
  472TMC3     H 7028   2.663   0.966  16.079  0.9298  1.5031  1.1444
  472TMC3    H1 7029   2.884   0.688  16.325 -0.8092  1.3468  0.5154
  472TMC3    H2 7030   2.648   0.551  16.005  0.7928  0.9592 -2.8914
  472TMC3    C7 7031   2.764   0.487  16.240 -0.1138  0.1224 -0.2659
  472TMC3    C8 7032   2.520   0.755  15.987  0.2511  0.1291 -0.2546
  472TMC3    O1 7033   2.801   0.490  16.355  0.3508 -0.0055  0.2763
  472TMC3    O2 7034   2.491   0.759  15.870  0.3642 -0.3400 -0.6481
  473MPD2     C 7035   2.751   2.441  13.993 -0.1982  0.5577  0.1384
  473MPD2    C1 7036   2.733   2.528  13.882 -0.5645 -0.0100 -0.8873
  473MPD2    C2 7037   2.760   2.662  13.890  0.0057 -1.3893  0.6847
  473MPD2    C3 7038   2.809   2.719  14.005  0.3868 -0.1068  0.2409
  473MPD2    C4 7039   2.842   2.634  14.115  0.4174  0.1847 -0.1785
  473MPD2    C5 7040   2.801   2.499  14.107  0.0781  0.2946  0.0965
  473MPD2     H 7041   2.747   2.719  13.799 -0.0776 -1.9517  0.3484
  473MPD2    H1 7042   2.896   2.667  14.203  0.0892 -1.8067  0.7845
  473MPD2    H2 7043   2.742   2.333  13.987  0.7755  0.4664  0.3419
  473MPD2    H3 7044   2.817   2.433  14.191  0.1744 -0.4735 -0.5322
  473MPD2     N 7045   2.839   2.857  14.016 -0.4899  0.2143 -0.3079
  473MPD2    H5 7046   2.886   2.891  14.099 -1.8787 -2.4045  1.5344
  473MPD2    N1 7047   2.707   2.466  13.754  0.9577  0.7057  0.3785
  473MPD2    H7 7048   2.705   2.524  13.671 -0.2344  0.2490  0.0811
  474TMC3    C1 7049   2.836   3.084  13.958 -0.7638  0.5343  0.5610
  474TMC3    C2 7050   2.803   3.180  13.863  0.2080 -0.4000  0.0488
  474TMC3    C3 7051   2.845   3.305  13.892 -0.1057  0.3102 -0.0046
  474TMC3    C4 7052   2.923   3.112  14.062 -0.0631 -0.4860 -0.1721
  474TMC3    C5 7053   2.952   3.240  14.090  0.0388 -0.1225 -0.4023
  474TMC3    C6 7054   2.910   3.343  14.010  0.1341 -0.1408  0.2475
  474TMC3     C 7055   2.801   2.948  13.923  1.4486  0.1249  0.6992
  474TMC3     O 7056   2.740   2.941  13.822 -0.0149  0.0837  0.2227
  474TMC3     H 7057   2.749   3.151  13.773 -3.2782 -1.1363  2.3619
  474TMC3    H1 7058   2.959   3.032  14.125  0.0872  0.3645  0.8224
  474TMC3    H2 7059   2.925   3.443  14.049  1.0692  0.2335 -1.0605
  474TMC3    C7 7060   3.026   3.265  14.211 -0.1750 -0.0470 -0.4190
  474TMC3    C8 7061   2.814   3.405  13.791  0.0878 -0.3669  0.5600
  474TMC3    O1 7062   3.086   3.168  14.249 -0.1727 -0.7654  0.2147
  474TMC3    O2 7063   2.769   3.360  13.683 -0.2719 -0.7299  0.3662
  475MPD2     C 7064   0.573   1.332  10.609 -0.1056  0.0224 -0.4110
  475MPD2    C1 7065   0.532   1.253  10.505  0.1556 -0.1109 -0.4402
  475MPD2    C2 7066   0.401   1.240  10.478  0.0790 -0.2054  0.0273
  475MPD2    C3 7067   0.311   1.301  10.571 -0.8661 -0.4924 -0.7690
  475MPD2    C4 7068   0.353   1.356  10.688  0.8271 -0.6490 -0.4848
  475MPD2    C5 7069   0.484   1.372  10.707  0.4830 -0.4450  0.3757
  475MPD2     H 7070   0.361   1.176  10.401  0.5817 -0.0904 -0.3310
  475MPD2    H1 7071   0.281   1.410  10.747  0.9282  0.8782 -1.7591
  475MPD2    H2 7072   0.675   1.368  10.615 -1.1214  2.6602  0.8787
  475MPD2    H3 7073   0.528   1.440  10.779 -2.1163 -0.8500  2.3757
  475MPD2     N 7074   0.180   1.298  10.532 -0.3683  0.2403  0.2975
  475MPD2    H5 7075   0.169   1.250  10.444  0.2578  1.5003 -0.4743
  475MPD2    N1 7076   0.635   1.205  10.417  0.5820  0.7620 -0.1754
  475MPD2    H7 7077   0.727   1.223  10.455  0.0656 -1.2902  2.0511
  476TMC3    C1 7078   0.733   1.099  10.230  0.2047  0.0269 -0.3007
  476TMC3    C2 7079   0.707   1.025  10.117  0.2933 -0.4105 -1.1922
  476TMC3    C3 7080   0.797   1.027  10.014 -0.4170 -0.0029 -0.3448
  476TMC3    C4 7081   0.838   1.183  10.236 -0.1190  0.4461  0.3393
  476TMC3    C5 7082   0.921   1.182  10.127 -0.0160  0.3373  0.5051
  476TMC3    C6 7083   0.901   1.112  10.010 -0.7832 -0.0674 -0.5910
  476TMC3     C 7084   0.609   1.135  10.296 -0.7123  0.4249 -1.2381
  476TMC3     O 7085   0.500   1.123  10.236 -0.1236  0.1672 -0.1707
  476TMC3     H 7086   0.611   0.976  10.104 -0.1201  0.5059 -1.5805
  476TMC3    H1 7087   0.858   1.255  10.315 -0.6448  3.5622 -2.3583
  476TMC3    H2 7088   0.949   1.146   9.919  1.4651 -1.0699  0.2202
  476TMC3    C7 7089   1.054   1.233  10.143  0.7050 -0.8350 -0.3466
  476TMC3    C8 7090   0.806   0.929   9.907  0.3927  0.1934  0.4011
  476TMC3    O1 7091   1.128   1.208  10.048 -0.0926 -0.4527 -0.5929
  476TMC3    O2 7092   0.899   0.940   9.830  0.2176 -0.2918 -0.4117
  477MPD2     C 7093   2.821   2.271  11.258  0.6480  0.0875 -0.3364
  477MPD2    C1 7094   2.782   2.244  11.388 -0.9217 -0.5468  0.1031
  477MPD2    C2 7095   2.883   2.201  11.480  0.1106  0.3671  0.2342
  477MPD2    C3 7096   3.015   2.203  11.449 -0.1986  0.0538  0.0577
  477MPD2    C4 7097   3.049   2.241  11.322  0.4502  0.4308 -0.0309
  477MPD2    C5 7098   2.951   2.263  11.230 -0.4910  0.6906 -0.3612
  477MPD2     H 7099   2.866   2.173  11.583 -0.8970 -2.3221 -0.6636
  477MPD2    H1 7100   3.152   2.241  11.289  0.6183  0.0347  0.4936
  477MPD2    H2 7101   2.752   2.297  11.178  1.0703 -1.2877 -1.1298
  477MPD2    H3 7102   2.975   2.273  11.125 -0.8136 -0.7967 -0.5777
  477MPD2     N 7103   3.111   2.151  11.543  0.2766 -0.3617 -0.0606
  477MPD2    H5 7104   3.078   2.121  11.634 -1.9194  1.5694 -0.2153
  477MPD2    N1 7105   2.645   2.265  11.419 -0.1070  0.7566 -0.8132
  477MPD2    H7 7106   2.595   2.305  11.340  0.7601  0.3695 -1.5591
  478TMC3    C1 7107   2.462   2.321  11.533  0.3427 -0.1473  0.1708
  478TMC3    C2 7108   2.433   2.405  11.636 -0.3579  0.5285 -0.0816
  478TMC3    C3 7109   2.387   2.531  11.598 -0.5242 -0.8107 -0.0895
  478TMC3    C4 7110   2.428   2.353  11.406 -0.0716  0.6104  0.8829
  478TMC3    C5 7111   2.362   2.469  11.376 -0.7649 -0.2069 -0.5023
  478TMC3    C6 7112   2.342   2.559  11.471 -0.2416  0.1515  0.2647
  478TMC3     C 7113   2.589   2.256  11.546 -0.0700 -0.0967  0.0219
  478TMC3     O 7114   2.647   2.232  11.651 -0.3637 -0.3145 -0.6135
  478TMC3     H 7115   2.482   2.390  11.731 -0.1426  0.5573 -0.1872
  478TMC3    H1 7116   2.439   2.285  11.322  1.6212  0.0750  1.5218
  478TMC3    H2 7117   2.309   2.659  11.445  0.5804 -0.2319 -2.3114
  478TMC3    C7 7118   2.409   2.526  11.251  0.2673  0.0552  0.5053
  478TMC3    C8 7119   2.395   2.628  11.708  0.2779 -0.8974 -0.4605
  478TMC3    O1 7120   2.516   2.486  11.214  0.6050  0.8629 -0.4764
  478TMC3    O2 7121   2.374   2.588  11.823 -0.1437  0.2715 -0.1763
  479MPD2     C 7122   2.525   0.389  14.693  0.4816 -1.0008  0.9007
  479MPD2    C1 7123   2.483   0.346  14.818 -0.1137 -0.0712  0.3682
  479MPD2    C2 7124   2.580   0.329  14.913  0.2224 -0.1225  0.5088
  479MPD2    C3 7125   2.709   0.362  14.888 -0.2281 -0.1769 -0.1039
  479MPD2    C4 7126   2.749   0.390  14.760  0.0503  0.2780  0.6109
  479MPD2    C5 7127   2.658   0.403  14.666  0.2653  0.2624  0.4973
  479MPD2     H 7128   2.544   0.302  15.012 -2.2554  1.0477 -0.0606
  479MPD2    H1 7129   2.847   0.429  14.735 -0.0628 -1.7492 -2.8790
  479MPD2    H2 7130   2.457   0.404  14.610  2.8231  1.1167 -0.6425
  479MPD2    H3 7131   2.689   0.426  14.564 -0.9553  0.5296  0.1847
  479MPD2     N 7132   2.820   0.360  14.980  0.0396 -0.3933  0.2208
  479MPD2    H5 7133   2.909   0.382  14.938 -1.3515  2.0363 -1.4812
  479MPD2    N1 7134   2.345   0.328  14.829  0.2583 -0.1739  0.3067
  479MPD2    H7 7135   2.289   0.351  14.748  1.3931  1.6379  0.0459
  480TMC3    C1 7136   2.577   0.278  15.388  0.0447  0.6562  0.1019
  480TMC3    C2 7137   2.498   0.388  15.368 -0.1670  0.6603  0.2116
  480TMC3    C3 7138   2.525   0.474  15.266 -0.3977  0.6160 -0.4884
  480TMC3    C4 7139   2.684   0.247  15.304 -0.0871 -0.0167  0.6789
  480TMC3    C5 7140   2.701   0.334  15.199 -0.2572  0.5671  0.2707
  480TMC3    C6 7141   2.636   0.451  15.188  0.0975 -0.2429 -0.3711
  480TMC3     C 7142   2.549   0.183  15.500  0.8352  0.0226 -0.7031
  480TMC3     O 7143   2.617   0.082  15.507 -0.0677  0.1146 -0.5408
  480TMC3     H 7144   2.399   0.377  15.410 -1.2746  0.7908 -2.3821
  480TMC3    H1 7145   2.750   0.161  15.308 -0.2732 -0.1269  1.5005
  480TMC3    H2 7146   2.680   0.518  15.115 -1.6734  1.0115 -0.2973
  480TMC3    C7 7147   2.823   0.318  15.111 -0.4917  0.6075  0.6079
  480TMC3    C8 7148   2.416   0.551  15.212  0.0448 -0.0327 -0.8967
  480TMC3    O1 7149   2.926   0.297  15.179 -0.0930 -0.3495 -0.2217
  480TMC3    O2 7150   2.317   0.560  15.279 -0.0439  0.0438  0.5355
  481MPD2     C 7151   3.953   4.607  13.934  0.0612  0.1064 -0.2330
  481MPD2    C1 7152   3.832   4.541  13.957  0.8406 -0.6429  0.3808
  481MPD2    C2 7153   3.801   4.501  14.084 -0.2097 -0.0329  0.0480
  481MPD2    C3 7154   3.895   4.494  14.185 -0.2523 -0.5396  1.0785
  481MPD2    C4 7155   4.013   4.561  14.154  0.7517 -0.0549  1.2548
  481MPD2    C5 7156   4.039   4.625  14.034  0.9896 -0.5910  0.4738
  481MPD2     H 7157   3.703   4.467  14.117 -0.2349 -1.6952 -1.7274
  481MPD2    H1 7158   4.102   4.547  14.215  0.1726  0.4437  2.2296
  481MPD2    H2 7159   3.971   4.665  13.844  0.7515  1.3992  0.7451
  481MPD2    H3 7160   4.134   4.674  14.023  1.2664 -0.8655  1.6052
  481MPD2     N 7161   3.885   4.441  14.311 -0.2134 -0.1191  0.3861
  481MPD2    H5 7162   3.966   4.439  14.372  0.7043  1.2167 -0.7918
  481MPD2    N1 7163   3.736   4.542  13.850  0.0752  0.2041  0.3713
  481MPD2    H7 7164   3.754   4.607  13.774 -0.6728  0.1868  0.1812
  482TMC3    C1 7165   3.553   4.505  13.729 -0.4202  0.3061  0.1461
  482TMC3    C2 7166   3.415   4.485  13.733 -0.1242  0.8968  0.0111
  482TMC3    C3 7167   3.349   4.456  13.615 -0.8885 -0.0263 -0.4272
  482TMC3    C4 7168   3.627   4.494  13.616 -0.1159  0.1252  0.1306
  482TMC3    C5 7169   3.557   4.441  13.507  0.3561  0.0064 -0.6138
  482TMC3    C6 7170   3.420   4.426  13.498  0.2156  0.2959  0.1401
  482TMC3     C 7171   3.609   4.490  13.858  0.6217  0.7536  0.1038
  482TMC3     O 7172   3.560   4.412  13.937  0.8523  0.0383 -0.5111
  482TMC3     H 7173   3.350   4.501  13.819 -0.1946  2.7794 -0.3884
  482TMC3    H1 7174   3.735   4.500  13.611 -0.1522  0.3986 -0.2563
  482TMC3    H2 7175   3.373   4.376  13.414  0.5409  1.3544 -0.6672
  482TMC3    C7 7176   3.632   4.444  13.383 -0.1630 -0.3447 -0.4507
  482TMC3    C8 7177   3.228   4.377  13.628 -0.3428  0.5696 -0.3912
  482TMC3    O1 7178   3.752   4.458  13.390  0.0098  0.2050 -0.4654
  482TMC3    O2 7179   3.203   4.330  13.735  0.0756 -0.3890  0.5867
  483TMC3    C1 7180   2.780   3.896   1.347  0.0154  0.3281 -0.4790
  483TMC3    C2 7181   2.825   3.932   1.220 -0.0402 -0.3113  0.2876
  483TMC3    C3 7182   2.958   3.944   1.202 -0.4617 -0.0339  0.3162
  483TMC3    C4 7183   2.865   3.874   1.450  0.0676 -0.3001 -0.5100
  483TMC3    C5 7184   2.997   3.910   1.431  0.0606  0.7346 -0.0170
  483TMC3    C6 7185   3.043   3.947   1.305 -0.3767  0.2615 -0.0908
  483TMC3     C 7186   2.663   3.820   1.345  0.8041 -0.4044 -1.0843
  483TMC3     O 7187   2.565   3.861   1.283 -0.0951  0.1359 -0.6166
  483TMC3     H 7188   2.759   3.933   1.134  0.0194 -0.1029  0.2442
  483TMC3    H1 7189   2.834   3.831   1.544 -0.3185 -1.1921 -1.0412
  483TMC3    H2 7190   3.148   3.967   1.290 -0.7399  2.6690  0.6397
  483TMC3    C7 7191   3.091   3.864   1.522  0.1981 -0.3660 -0.5861
  483TMC3    C8 7192   3.017   3.937   1.066 -0.7567  0.1096 -0.1959
  483TMC3    O1 7193   3.192   3.806   1.478  0.6330  0.3264  0.1388
  483TMC3    O2 7194   2.958   3.988   0.976 -0.3447  0.1848  0.3749
  484MPD2     C 7195   4.272   1.600  12.298  0.1437 -0.1851  0.0085
  484MPD2    C1 7196   4.265   1.468  12.258  0.1892  0.5424 -0.2322
  484MPD2    C2 7197   4.385   1.407  12.213  0.6170  0.0126 -0.2798
  484MPD2    C3 7198   4.500   1.483  12.196  0.1397  0.2716  0.8084
  484MPD2    C4 7199   4.507   1.610  12.247  0.6469  0.2205 -0.2815
  484MPD2    C5 7200   4.390   1.676  12.289 -0.1225 -0.3457 -0.1506
  484MPD2     H 7201   4.376   1.301  12.191 -3.4175  0.1988  0.4843
  484MPD2    H1 7202   4.602   1.662  12.240  1.6395 -1.4391  0.6376
  484MPD2    H2 7203   4.179   1.646  12.328  0.9589  0.6592  1.2574
  484MPD2    H3 7204   4.381   1.774  12.335 -1.4842  0.0296 -1.1807
  484MPD2     N 7205   4.619   1.434  12.131  0.2420 -0.3967 -0.3435
  484MPD2    H5 7206   4.686   1.510  12.121  2.7291 -2.7707 -1.8396
  484MPD2    N1 7207   4.138   1.403  12.277 -0.6362  0.1096  0.0728
  484MPD2    H7 7208   4.060   1.447  12.325  1.0253  0.1789  2.7069
  485TMC3    C1 7209   0.074   1.299  12.053 -0.1150  0.4578  0.0576
  485TMC3    C2 7210   0.139   1.175  12.041 -0.0702 -0.5097 -0.1563
  485TMC3    C3 7211   0.261   1.168  11.978 -0.5778  0.0963  0.5264
  485TMC3    C4 7212   0.130   1.413  12.007 -0.1940 -0.0789 -0.1495
  485TMC3    C5 7213   0.261   1.411  11.956  0.1125 -0.3433  0.2767
  485TMC3    C6 7214   0.327   1.289  11.950  0.9281  0.1272  0.3995
  485TMC3     C 7215   4.657   1.302  12.101  0.2622  0.3044 -0.4012
  485TMC3     O 7216   4.589   1.201  12.095  0.3515  0.3250 -0.3567
  485TMC3     H 7217   0.096   1.089  12.090 -1.7342  1.2981  1.5279
  485TMC3    H1 7218   0.072   1.503  11.994 -3.4790 -1.9476  1.7226
  485TMC3    H2 7219   0.425   1.271  11.907  0.8462  1.5813 -0.3823
  485TMC3    C7 7220   0.282   1.504  11.846 -0.6933 -0.2067 -0.2997
  485TMC3    C8 7221   0.263   1.084  11.857  0.0757 -0.2704  0.9532
  485TMC3    O1 7222   0.268   1.622  11.869  0.2380  0.5701  0.0657
  485TMC3    O2 7223   0.279   1.154  11.754  0.3335 -0.9069 -0.5490
  486MPD2     C 7224   1.651   0.678  12.557  0.2632  0.7720  0.6362
  486MPD2    C1 7225   1.578   0.601  12.471 -1.3174  0.0305 -0.0055
  486MPD2    C2 7226   1.450   0.648  12.433  0.3884 -0.2790 -0.0204
  486MPD2    C3 7227   1.403   0.770  12.483 -0.0453 -0.4263 -0.6080
  486MPD2    C4 7228   1.485   0.845  12.565 -0.2364 -0.2320 -0.3790
  486MPD2    C5 7229   1.611   0.803  12.597 -0.6525  0.1461 -0.1620
  486MPD2     H 7230   1.380   0.589  12.375  0.8771  0.8415 -1.7376
  486MPD2    H1 7231   1.465   0.946  12.601  0.9089  0.1157 -0.7308
  486MPD2    H2 7232   1.743   0.638  12.598  1.3079  1.2907 -1.2122
  486MPD2    H3 7233   1.673   0.863  12.663 -2.9388  1.6589  0.6232
  486MPD2     N 7234   1.270   0.812  12.444 -0.0025 -0.4141 -0.0420
  486MPD2    H5 7235   1.227   0.757  12.371  0.6076 -1.0395  0.0636
  486MPD2    N1 7236   1.627   0.471  12.451 -0.5923 -0.2972 -0.1556
  486MPD2    H7 7237   1.711   0.452  12.504  1.0396  3.6328 -1.3621
  487TMC3    C1 7238   1.595   0.243  12.406  0.5453  0.6445  0.7996
  487TMC3    C2 7239   1.530   0.140  12.333  0.0764  0.0079  0.2289
  487TMC3    C3 7240   1.561   0.010  12.357 -0.3625  0.4569  0.8789
  487TMC3    C4 7241   1.683   0.220  12.509  0.4057 -0.8295 -0.3119
  487TMC3    C5 7242   1.697   0.088  12.540 -0.0641  0.7998 -0.3539
  487TMC3    C6 7243   1.657   4.701  12.454  0.2617  0.2044 -0.2882
  487TMC3     C 7244   1.565   0.378  12.374 -0.7624 -0.1951 -0.3193
  487TMC3     O 7245   1.489   0.402  12.278  0.2763  0.1153 -0.9259
  487TMC3     H 7246   1.452   0.161  12.260 -2.2539 -1.4157  2.3250
  487TMC3    H1 7247   1.701   0.295  12.585 -0.1013 -2.4392  1.4031
  487TMC3    H2 7248   1.663   4.601  12.495  0.7129  0.6636  0.7594
  487TMC3    C7 7249   1.661   0.064  12.678 -0.1720  0.4503 -0.4022
  487TMC3    C8 7250   1.433   4.669  12.404  0.0081  0.8643 -0.5699
  487TMC3    O1 7251   1.756   0.044  12.759 -0.5710  0.1522 -0.6433
  487TMC3    O2 7252   1.338   0.020  12.430 -0.9903  0.1621 -0.6896
  488MPD2     C 7253   2.320   1.798  16.447 -0.2664 -0.7301 -0.1043
  488MPD2    C1 7254   2.377   1.914  16.496  0.1179  0.0195  0.0008
  488MPD2    C2 7255   2.421   1.917  16.630 -0.3392 -1.0559 -0.3265
  488MPD2    C3 7256   2.399   1.806  16.718 -0.1868  0.4109 -0.0345
  488MPD2    C4 7257   2.346   1.689  16.660 -0.8562  0.0929  0.4552
  488MPD2    C5 7258   2.305   1.686  16.526 -0.7163 -0.1901  0.1508
  488MPD2     H 7259   2.464   2.005  16.676 -3.5238  0.8946 -1.1338
  488MPD2    H1 7260   2.325   1.597  16.714 -0.1482 -0.9829 -1.1187
  488MPD2    H2 7261   2.270   1.792  16.351 -1.5318 -0.7043  0.5514
  488MPD2    H3 7262   2.267   1.595  16.482 -0.5346  0.1630 -0.7377
  488MPD2     N 7263   2.454   1.819  16.844 -0.6402 -0.3769  0.0144
  488MPD2    H5 7264   2.500   1.907  16.867 -0.5021 -0.9972  2.1711
  488MPD2    N1 7265   2.399   2.028  16.414  0.2006 -0.2815 -0.3611
  488MPD2    H7 7266   2.408   2.115  16.465 -0.1880 -0.5640  0.1970
  489TMC3    C1 7267   2.461   1.801  17.080 -0.1715 -0.3026  0.0280
  489TMC3    C2 7268   2.542   1.911  17.071  0.6976  0.3745 -0.2753
  489TMC3    C3 7269   2.573   1.973  17.193 -0.9150 -0.4465  0.0220
  489TMC3    C4 7270   2.415   1.749  17.196 -0.5640 -0.3369  0.2663
  489TMC3    C5 7271   2.450   1.807  17.313 -0.1586  0.0002 -0.2857
  489TMC3    C6 7272   2.536   1.916  17.313  0.5672 -1.1087  0.2064
  489TMC3     C 7273   2.410   1.742  16.954  0.0994  0.0229 -0.1328
  489TMC3     O 7274   2.336   1.643  16.953  0.0384  0.3467 -0.1989
  489TMC3     H 7275   2.581   1.949  16.977 -2.7982 -2.7271 -2.9755
  489TMC3    H1 7276   2.360   1.656  17.190  0.3799 -0.8102 -1.2998
  489TMC3    H2 7277   2.581   1.950  17.406  0.3540 -0.4568  0.0741
  489TMC3    C7 7278   2.415   1.757  17.446  0.0189 -0.9682 -0.3650
  489TMC3    C8 7279   2.611   2.112  17.183  0.0900  0.3097 -0.5220
  489TMC3    O1 7280   2.485   1.800  17.533 -0.2538  0.4965 -0.8378
  489TMC3    O2 7281   2.654   2.161  17.078  0.4688  0.2641 -0.1349
  490MPD2     C 7282   3.361   1.315  17.020 -0.4434 -0.1368  0.2940
  490MPD2    C1 7283   3.318   1.349  17.144  0.4600  0.6552  0.5572
  490MPD2    C2 7284   3.385   1.442  17.221 -0.0626  0.2917  0.2889
  490MPD2    C3 7285   3.499   1.504  17.174 -0.4883  0.0250  0.0560
  490MPD2    C4 7286   3.538   1.474  17.048  0.9666  0.2076  0.1177
  490MPD2    C5 7287   3.473   1.379  16.973 -0.0647 -0.4111  0.2206
  490MPD2     H 7288   3.362   1.446  17.327  0.3254 -0.4952  0.4033
  490MPD2    H1 7289   3.635   1.508  17.014  2.1971 -2.6781  0.7203
  490MPD2    H2 7290   3.321   1.231  16.963 -1.0345 -0.2728  0.9065
  490MPD2    H3 7291   3.517   1.347  16.879  2.6073  3.6055  0.0837
  490MPD2     N 7292   3.569   1.600  17.251 -0.1331 -0.0814  0.0178
  490MPD2    H5 7293   3.648   1.652  17.213  1.0168 -0.5338  1.7658
  490MPD2    N1 7294   3.204   1.281  17.204 -0.2181 -0.5076 -0.1338
  490MPD2    H7 7295   3.181   1.292  17.303  1.7276 -0.8293  0.3633
  491TMC3    C1 7296   2.996   1.162  17.222 -0.3994 -0.1843  0.1174
  491TMC3    C2 7297   3.019   1.085  17.330 -0.0700 -0.2980 -0.3420
  491TMC3    C3 7298   2.920   1.013  17.385  0.3097  0.3573  0.0275
  491TMC3    C4 7299   2.873   1.157  17.156 -0.3761  0.1335 -0.6043
  491TMC3    C5 7300   2.776   1.074  17.214  0.5292 -0.5578  0.0838
  491TMC3    C6 7301   2.801   1.005  17.327  0.5597  0.1503  0.6668
  491TMC3     C 7302   3.109   1.211  17.135 -0.9795 -0.1049  0.4183
  491TMC3     O 7303   3.088   1.189  17.015 -0.5175  0.0039 -0.4198
  491TMC3     H 7304   3.122   1.086  17.365  0.6754  0.5566 -2.5520
  491TMC3    H1 7305   2.865   1.197  17.056 -1.8306  1.8196  0.1846
  491TMC3    H2 7306   2.731   0.933  17.369 -1.2972  1.1068 -0.7749
  491TMC3    C7 7307   2.653   1.046  17.145  0.1568  0.4713 -0.6493
  491TMC3    C8 7308   2.913   0.994  17.527  0.1759  0.4653 -0.0715
  491TMC3    O1 7309   2.614   0.931  17.139  0.4625  0.0557  0.4071
  491TMC3    O2 7310   2.846   0.899  17.569 -0.3260 -0.5974  0.0535
  492MPD2     C 7311   3.178   1.301  11.265  0.1331 -0.4563 -0.4851
  492MPD2    C1 7312   3.077   1.246  11.187  0.0428 -0.4980 -0.1381
  492MPD2    C2 7313   2.982   1.174  11.256 -0.3004  0.5431 -0.1107
  492MPD2    C3 7314   3.010   1.121  11.383 -0.1823 -0.8771 -0.0259
  492MPD2    C4 7315   3.125   1.167  11.450 -0.1337  0.0262  0.1113
  492MPD2    C5 7316   3.203   1.257  11.388  0.2388 -0.3155 -0.7128
  492MPD2     H 7317   2.888   1.159  11.204 -0.2546 -0.3046  0.0523
  492MPD2    H1 7318   3.128   1.148  11.557  0.4995  0.4581  0.1702
  492MPD2    H2 7319   3.240   1.375  11.216 -0.6837  1.3362  1.1924
  492MPD2    H3 7320   3.285   1.309  11.436  0.1280 -2.6931  2.0704
  492MPD2     N 7321   2.917   1.046  11.460  0.4541 -0.0614  0.2411
  492MPD2    H5 7322   2.942   1.016  11.554  0.4453  0.0890  0.2912
  492MPD2    N1 7323   3.064   1.282  11.052 -0.0445 -0.2281 -0.0060
  492MPD2    H7 7324   3.119   1.363  11.025 -0.5335 -0.0349 -0.4178
  493TMC3    C1 7325   2.991   1.269  10.833  0.2986  0.0734  0.0130
  493TMC3    C2 7326   3.014   1.405  10.812  0.1052 -0.2427  0.5665
  493TMC3    C3 7327   2.978   1.457  10.696  0.1370  0.2014 -0.1904
  493TMC3    C4 7328   2.915   1.201  10.740 -0.1357  0.2866 -0.4260
  493TMC3    C5 7329   2.880   1.268  10.625  0.5100 -0.6141  0.3292
  493TMC3    C6 7330   2.923   1.392  10.590 -0.3159  0.5776 -0.3752
  493TMC3     C 7331   2.982   1.217  10.964  0.2738  0.5509 -0.3217
  493TMC3     O 7332   2.921   1.111  10.980 -0.0365 -0.5108 -0.3325
  493TMC3     H 7333   3.045   1.470  10.893  1.8788  0.3836 -0.6055
  493TMC3    H1 7334   2.899   1.096  10.758 -0.6477  0.3710 -0.3928
  493TMC3    H2 7335   2.876   1.437  10.504  0.2334  1.9050  0.0125
  493TMC3    C7 7336   2.745   1.237  10.584 -0.0050 -0.2102  0.0439
  493TMC3    C8 7337   2.962   1.603  10.690  0.1438 -0.3489 -0.3968
  493TMC3    O1 7338   2.692   1.298  10.495  0.2884 -0.1416  0.0117
  493TMC3    O2 7339   2.951   1.659  10.799  0.6904 -0.4064 -0.0892
  494TMC3    C1 7340   3.887   3.496   0.662  0.1318  0.1295 -0.3408
  494TMC3    C2 7341   3.934   3.394   0.743 -0.0707  0.0511  0.0807
  494TMC3    C3 7342   3.951   3.268   0.697  0.6586  0.1555  0.3172
  494TMC3    C4 7343   3.861   3.476   0.525 -0.4124  0.5179 -0.3831
  494TMC3    C5 7344   3.894   3.347   0.482 -0.2110  0.2125 -0.2251
  494TMC3    C6 7345   3.929   3.241   0.563 -0.3257 -0.3301  0.3626
  494TMC3     C 7346   3.869   3.628   0.722 -0.0517 -0.2056  0.0637
  494TMC3     O 7347   3.934   3.638   0.823  0.3393  0.2359 -0.0304
  494TMC3     H 7348   3.930   3.403   0.851  0.0904 -0.0058  0.0910
  494TMC3    H1 7349   3.860   3.562   0.458 -1.2588  0.5831 -0.2869
  494TMC3    H2 7350   3.937   3.143   0.519  1.3466 -0.2759  0.5737
  494TMC3    C7 7351   3.840   3.302   0.359  0.0323  0.0727 -0.3076
  494TMC3    C8 7352   4.007   3.167   0.784  0.4993  0.4476  0.2600
  494TMC3    O1 7353   3.874   3.192   0.310  0.3451  0.0043 -0.5189
  494TMC3    O2 7354   3.985   3.052   0.754 -1.0260 -0.7945  0.0036
  495TMC3    C1 7355   2.542   0.671  14.226  0.1790 -0.2836 -0.1997
  495TMC3    C2 7356   2.443   0.729  14.152  0.4817  0.8027  0.6544
  495TMC3    C3 7357   2.336   0.780  14.218  0.5786 -0.4810 -0.4564
  495TMC3    C4 7358   2.547   0.683  14.360 -0.3680  0.1042 -0.1800
  495TMC3    C5 7359   2.440   0.743  14.426 -0.8045  0.4961  0.5791
  495TMC3    C6 7360   2.327   0.783  14.355 -0.1048  0.9340 -0.8489
  495TMC3     C 7361   2.558   0.538  14.185 -0.7146 -0.3783  0.1064
  495TMC3     O 7362   2.473   0.498  14.111  0.5495 -0.1128 -0.5944
  495TMC3     H 7363   2.448   0.740  14.045 -2.8939 -1.6393  0.2198
  495TMC3    H1 7364   2.622   0.641  14.426 -0.0776  2.3009  0.8831
  495TMC3    H2 7365   2.237   0.821  14.402 -0.2855 -0.9903  0.3494
  495TMC3    C7 7366   2.444   0.725  14.571  0.7737  0.0651  0.0807
  495TMC3    C8 7367   2.212   0.752  14.157  0.1334  0.5079  0.5631
  495TMC3    O1 7368   2.553   0.706  14.623  0.2081 -0.0229 -0.2827
  495TMC3    O2 7369   2.106   0.803  14.195 -0.2101 -0.6322 -0.0069
  496MPD2     C 7370   0.055   0.654  15.706  0.4150  0.0440 -0.4731
  496MPD2    C1 7371   4.709   0.551  15.650 -0.3013 -0.0107  0.3234
  496MPD2    C2 7372   4.617   0.482  15.733 -0.2972 -0.0363 -0.1542
  496MPD2    C3 7373   4.590   0.512  15.863 -0.3052  0.1655  0.2876
  496MPD2    C4 7374   4.648   0.626  15.913 -0.1260 -0.8124  0.2348
  496MPD2    C5 7375   0.018   0.695  15.834 -0.1887 -0.1396 -0.0852
  496MPD2     H 7376   4.579   0.391  15.688  2.0568 -0.7794 -0.6800
  496MPD2    H1 7377   4.631   0.655  16.016  2.3297  0.7357  0.1918
  496MPD2    H2 7378   0.123   0.719  15.653 -1.6866  2.7978  0.2109
  496MPD2    H3 7379   0.072   0.778  15.877  0.2257 -0.1429 -0.6014
  496MPD2     N 7380   4.497   0.435  15.942  0.5136 -0.6662  0.2135
  496MPD2    H5 7381   4.493   0.468  16.038 -1.2949  1.2203 -0.5020
  496MPD2    N1 7382   0.012   0.508  15.510 -0.2467 -0.4062  0.0214
  496MPD2    H7 7383   4.666   0.440  15.475  0.0037 -0.8227  0.3692
  497TMC3    C1 7384   4.314   0.287  15.997 -0.6855  0.3889  0.4523
  497TMC3    C2 7385   4.197   0.226  15.956 -0.5244 -0.1343 -0.0742
  497TMC3    C3 7386   4.110   0.171  16.048 -0.6626 -0.2010 -0.1324
  497TMC3    C4 7387   4.356   0.273  16.130  0.1056 -0.1241  0.1788
  497TMC3    C5 7388   4.270   0.209  16.217  0.0151 -0.2711  0.1728
  497TMC3    C6 7389   4.145   0.164  16.178 -0.1433 -0.4700 -0.1715
  497TMC3     C 7390   4.407   0.331  15.898  0.2944 -0.9145 -0.0892
  497TMC3     O 7391   4.396   0.288  15.784 -0.1136 -0.0734  0.0476
  497TMC3     H 7392   4.183   0.226  15.849 -1.7010 -1.3396  0.0780
  497TMC3    H1 7393   4.459   0.296  16.152  0.1881  0.0897 -0.4300
  497TMC3    H2 7394   4.079   0.108  16.244 -0.6451 -4.5943 -4.1930
  497TMC3    C7 7395   4.294   0.211  16.364  0.7330  0.7112 -0.6450
  497TMC3    C8 7396   3.984   0.135  15.991  0.2519  0.2280 -0.0955
  497TMC3    O1 7397   4.208   0.152  16.432 -0.6710 -0.1726  0.4024
  497TMC3    O2 7398   3.887   0.143  16.068  0.0624  0.1694 -0.0495
  498MPD2     C 7399   4.543   0.960   9.472 -0.6342  0.4519  0.1049
  498MPD2    C1 7400   4.497   0.953   9.605 -0.9196  0.1401  0.3506
  498MPD2    C2 7401   4.359   0.963   9.627 -0.7149 -0.5916 -0.4085
  498MPD2    C3 7402   4.273   0.964   9.524  0.0772 -0.2711  0.0781
  498MPD2    C4 7403   4.320   0.963   9.395 -0.0823  0.4551 -0.1208
  498MPD2    C5 7404   4.454   0.960   9.375  0.1954 -0.4389  0.3894
  498MPD2     H 7405   4.319   0.971   9.728  0.1977 -0.6582 -0.0357
  498MPD2    H1 7406   4.253   0.956   9.310  1.5082  0.9597 -1.4156
  498MPD2    H2 7407   4.647   0.975   9.445 -0.4238 -2.4646 -0.6391
  498MPD2    H3 7408   4.487   0.958   9.272 -0.0037 -2.6838  0.3633
  498MPD2     N 7409   4.136   0.955   9.554 -0.2964 -0.2786  0.3542
  498MPD2    H5 7410   4.121   0.949   9.655 -2.1409  0.2152  0.1154
  498MPD2    N1 7411   4.586   0.955   9.714  0.9141 -0.6515  0.2773
  498MPD2    H7 7412   4.531   0.968   9.798 -0.1496 -2.7709 -0.0822
  499TMC3    C1 7413   0.074   0.984   9.830  0.1939  0.1781  0.1553
  499TMC3    C2 7414   0.012   1.009   9.951  0.4794  1.1250 -0.4375
  499TMC3    C3 7415   0.100   1.051  10.053  0.3150 -0.5440 -0.1777
  499TMC3    C4 7416   0.212   1.007   9.812 -0.0092  0.4107  0.6315
  499TMC3    C5 7417   0.289   1.057   9.914  0.3077  0.3881  0.0564
  499TMC3    C6 7418   0.233   1.088  10.034  0.0826 -0.3738 -0.7852
  499TMC3     C 7419   0.007   0.948   9.707 -0.2851 -0.0429 -0.1714
  499TMC3     O 7420   0.073   0.922   9.606 -0.4445 -0.1960 -0.5456
  499TMC3     H 7421   4.637   0.964   9.976  2.1976 -2.5350 -0.5789
  499TMC3    H1 7422   0.259   0.990   9.716  0.0307 -0.4147  0.7987
  499TMC3    H2 7423   0.292   1.112  10.122 -0.4479  1.0583 -0.8150
  499TMC3    C7 7424   0.423   1.092   9.873  0.1833 -0.1029  0.1743
  499TMC3    C8 7425   0.051   1.057  10.193 -0.0888  0.0387  0.4929
  499TMC3    O1 7426   0.472   1.023   9.781 -0.3808  0.8065 -0.1845
  499TMC3    O2 7427   0.135   1.082  10.277  0.4034  0.0982  0.0542
  500MPD2     C 7428   2.428   2.043   9.882  0.0267  0.3671  0.2617
  500MPD2    C1 7429   2.318   2.099   9.941  0.3570  0.4265  1.3904
  500MPD2    C2 7430   2.195   2.094   9.874  0.0211  0.6485  0.6637
  500MPD2    C3 7431   2.184   2.034   9.750 -0.1829 -0.2006  0.7778
  500MPD2    C4 7432   2.294   1.974   9.695 -0.3465 -0.2299  0.6044
  500MPD2    C5 7433   2.418   1.992   9.751 -0.0801  0.2176 -0.2780
  500MPD2     H 7434   2.109   2.142   9.921 -1.3410 -0.3294 -0.8194
  500MPD2    H1 7435   2.286   1.925   9.598 -0.8435  0.8889  0.0687
  500MPD2    H2 7436   2.523   2.045   9.935  0.8830 -1.0408 -1.2513
  500MPD2    H3 7437   2.503   1.960   9.693  1.4047  0.0110  1.9958
  500MPD2     N 7438   2.060   2.013   9.688  0.8908  0.3094 -0.2284
  500MPD2    H5 7439   2.061   1.964   9.600 -1.6084 -0.3144  0.0915
  500MPD2    N1 7440   2.331   2.178  10.060  0.5308  0.0963  0.1855
  500MPD2    H7 7441   2.242   2.214  10.094  0.5224  0.3121 -0.0629
  501TMC3    C1 7442   2.424   2.278  10.259  0.0976 -0.6867 -0.1066
  501TMC3    C2 7443   2.315   2.360  10.260  0.6188  0.2471  0.2023
  501TMC3    C3 7444   2.285   2.426  10.377 -0.1443  0.0270  0.4966
  501TMC3    C4 7445   2.501   2.252  10.372 -0.1932 -0.0709  0.1952
  501TMC3    C5 7446   2.465   2.324  10.481  0.6026  0.6833 -0.7633
  501TMC3    C6 7447   2.366   2.415  10.488 -0.6734  0.4456 -0.9369
  501TMC3     C 7448   2.441   2.188  10.138  0.4769 -0.3371  1.2097
  501TMC3     O 7449   2.551   2.130  10.132  0.0212  0.1257  0.4603
  501TMC3     H 7450   2.255   2.377  10.172  0.8086 -1.2004 -0.2147
  501TMC3    H1 7451   2.590   2.192  10.358  0.3076  0.4611  1.1436
  501TMC3    H2 7452   2.351   2.472  10.579 -2.7672 -0.0118 -1.0093
  501TMC3    C7 7453   2.531   2.281  10.603  0.1376  0.1605  0.4642
  501TMC3    C8 7454   2.166   2.517  10.383 -0.3268 -0.1100 -0.3523
  501TMC3    O1 7455   2.650   2.257  10.595 -0.4629 -0.1643  0.0390
  501TMC3    O2 7456   2.151   2.574  10.492 -0.3492 -0.1304  0.2028
  502TMC3    C1 7457   1.604   1.738  15.166  0.2987 -0.0132 -0.0124
  502TMC3    C2 7458   1.550   1.832  15.087 -0.6602  0.4300 -0.0939
  502TMC3    C3 7459   1.416   1.868  15.101  0.2960 -0.3442  1.0495
  502TMC3    C4 7460   1.532   1.704  15.281 -0.4291  0.2193 -0.0316
  502TMC3    C5 7461   1.400   1.739  15.294  0.4654  0.2267  0.3761
  502TMC3    C6 7462   1.342   1.819  15.202  0.2697  0.2430  0.0129
  502TMC3     C 7463   1.737   1.696  15.143  0.1270 -0.5317 -0.0555
  502TMC3     O 7464   1.824   1.781  15.121 -0.0912 -0.5060 -0.1864
  502TMC3     H 7465   1.614   1.875  15.011 -0.9557 -0.9322 -1.1002
  502TMC3    H1 7466   1.578   1.644  15.358 -0.4482 -1.2573 -1.1720
  502TMC3    H2 7467   1.249   1.867  15.230  0.6105  0.1563  1.2681
  502TMC3    C7 7468   1.316   1.642  15.366  0.4856  0.1360  0.4425
  502TMC3    C8 7469   1.373   1.978  15.024 -0.6838 -0.8495  0.0639
  502TMC3    O1 7470   1.375   1.562  15.439  0.1262  0.8813 -0.1574
  502TMC3    O2 7471   1.452   2.057  14.978 -0.4334 -0.6013  0.2535
  503MPD2     C 7472   4.118   1.813  16.532  0.2966 -0.2287  0.2062
  503MPD2    C1 7473   4.118   1.827  16.667 -0.2270 -0.3408  0.6287
  503MPD2    C2 7474   4.158   1.722  16.752  0.4324 -0.2754 -0.4664
  503MPD2    C3 7475   4.198   1.609  16.694 -0.2045  0.4579 -0.7099
  503MPD2    C4 7476   4.188   1.592  16.564  0.9299 -0.9430  0.2691
  503MPD2    C5 7477   4.145   1.691  16.486 -0.1142  1.4447  0.2391
  503MPD2     H 7478   4.158   1.734  16.860 -0.5284 -2.1048 -0.2661
  503MPD2    H1 7479   4.214   1.498  16.518  0.8218 -0.5994 -0.4964
  503MPD2    H2 7480   4.086   1.884  16.456 -4.3078 -2.0862  0.4181
  503MPD2    H3 7481   4.142   1.684  16.377 -1.4137 -2.1630  0.4978
  503MPD2     N 7482   4.253   1.516  16.790  0.3748 -0.2325 -0.0438
  503MPD2    H5 7483   4.268   1.548  16.885 -2.1023 -2.6953  1.1938
  503MPD2    N1 7484   4.090   1.950  16.728 -0.2181 -0.2034 -0.2286
  503MPD2    H7 7485   4.104   1.950  16.829 -2.8648 -0.0218  0.1590
  504TMC3    C1 7486   4.367   1.333  16.873 -0.1084  0.4456  0.7481
  504TMC3    C2 7487   4.319   1.337  17.003 -0.2568 -0.5271 -0.2218
  504TMC3    C3 7488   4.397   1.305  17.109 -0.1194 -0.5934  0.2993
  504TMC3    C4 7489   4.483   1.268  16.852  0.4184  0.3527 -0.0052
  504TMC3    C5 7490   4.557   1.224  16.959  0.3708 -0.3591 -0.7137
  504TMC3    C6 7491   4.521   1.250  17.090 -0.0338  0.4770 -0.6083
  504TMC3     C 7492   4.312   1.400  16.756 -0.0766  0.2196 -0.5126
  504TMC3     O 7493   4.351   1.355  16.646  0.5868  0.7773 -0.3531
  504TMC3     H 7494   4.221   1.380  17.021  1.2735  1.4636  3.2369
  504TMC3    H1 7495   4.529   1.275  16.754  0.8701  2.3478  0.3567
  504TMC3    H2 7496   4.567   1.194  17.170 -2.6417 -0.9301 -0.1036
  504TMC3    C7 7497   4.696   1.188  16.930 -0.4936  0.2248 -0.6804
  504TMC3    C8 7498   4.339   1.289  17.234  0.5704 -0.4463 -0.2501
  504TMC3    O1 7499   0.012   1.144  16.823  0.1812 -0.1360 -0.0657
  504TMC3    O2 7500   4.215   1.285  17.237  0.3344 -0.3146 -0.1190
  505MPD2     C 7501   3.012   0.230  10.206  0.6378 -0.0498  0.1347
  505MPD2    C1 7502   3.114   0.154  10.150 -0.0191  0.2616  0.0450
  505MPD2    C2 7503   3.239   0.158  10.216 -0.4478  1.0420  0.1080
  505MPD2    C3 7504   3.262   0.218  10.335 -0.2031 -0.1655 -0.2115
  505MPD2    C4 7505   3.156   0.289  10.391 -0.4829 -0.3918  0.1056
  505MPD2    C5 7506   3.038   0.296  10.321 -0.0882  0.2807  0.0915
  505MPD2     H 7507   3.319   0.105  10.164 -1.4995 -1.4333  1.0375
  505MPD2    H1 7508   3.165   0.328  10.491 -1.9759  0.7332 -0.1987
  505MPD2    H2 7509   2.920   0.258  10.157  1.4416  0.2074 -1.2268
  505MPD2    H3 7510   2.961   0.355  10.369  1.0414  0.5921  1.5250
  505MPD2     N 7511   3.397   0.220  10.394 -0.4713 -0.3924  0.6918
  505MPD2    H5 7512   3.467   0.160  10.350 -0.2875  0.1843  0.1937
  505MPD2    N1 7513   3.093   0.089  10.027  0.5967  0.0637 -0.3756
  505MPD2    H7 7514   3.002   0.103   9.985 -0.8297 -0.7865  2.4999
  506TMC3    C1 7515   3.159   4.683   9.833 -0.6464  0.3546  0.6233
  506TMC3    C2 7516   3.130   0.066   9.746 -0.4836  0.0735  0.9170
  506TMC3    C3 7517   3.181   0.060   9.622 -0.8542  0.2630  0.1202
  506TMC3    C4 7518   3.229   4.581   9.783 -0.5664  0.6049  0.2200
  506TMC3    C5 7519   3.305   4.586   9.667 -0.1637 -0.9242 -0.2483
  506TMC3    C6 7520   3.267   4.680   9.577 -0.0232 -0.2395  0.4161
  506TMC3     C 7521   3.188   0.002   9.972  0.3485 -0.3853  0.1656
  506TMC3     O 7522   3.281   4.660  10.022 -0.7826 -0.6077 -0.1532
  506TMC3     H 7523   3.072   0.149   9.785 -1.9573  0.2616 -1.6741
  506TMC3    H1 7524   3.249   4.494   9.844  0.2109  1.8911  1.7886
  506TMC3    H2 7525   3.311   4.685   9.478 -0.4913  0.1797  0.2289
  506TMC3    C7 7526   3.444   4.563   9.672 -0.3212  1.0278  0.8485
  506TMC3    C8 7527   3.163   0.174   9.534 -0.5721  0.3102  0.2291
  506TMC3    O1 7528   3.511   4.565   9.571 -0.2343  0.6317 -0.7302
  506TMC3    O2 7529   3.077   0.165   9.447  0.3263 -0.3971 -0.2087
  507TMC3    C1 7530   4.604   1.446  14.768 -0.2153 -0.2290  0.0352
  507TMC3    C2 7531   4.611   1.383  14.647  0.9436 -0.6615  0.3212
  507TMC3    C3 7532   0.011   1.392  14.583 -0.3134  0.6266 -0.6922
  507TMC3    C4 7533   4.701   1.529  14.815 -0.2476 -0.0541 -0.1651
  507TMC3    C5 7534   0.097   1.540  14.744 -0.1699 -1.0500  0.3152
  507TMC3    C6 7535   0.119   1.462  14.632  0.2469 -0.2221  0.7835
  507TMC3     C 7536   4.474   1.455  14.841  1.3969  0.2243  0.2880
  507TMC3     O 7537   4.460   1.393  14.943 -0.3744  0.1448 -0.0623
  507TMC3     H 7538   4.527   1.337  14.597  0.7909 -1.5824  1.4208
  507TMC3    H1 7539   4.678   1.587  14.904  0.1023  1.1072 -0.8356
  507TMC3    H2 7540   0.209   1.437  14.577  0.9269 -1.3822  2.4142
  507TMC3    C7 7541   0.159   1.672  14.719  0.0900 -0.2358 -0.8906
  507TMC3    C8 7542   4.719   1.401  14.435  0.2443  0.0627 -0.2593
  507TMC3    O1 7543   0.212   1.683  14.611 -0.7352 -0.7557 -0.2336
  507TMC3    O2 7544   4.625   1.344  14.386  0.4631 -0.3618  0.5614
  508MPD2     C 7545   1.190   3.906  15.503 -0.5918 -0.3746  0.2499
  508MPD2    C1 7546   1.190   4.020  15.572 -0.6372  0.3571  0.4332
  508MPD2    C2 7547   1.153   4.133  15.507  0.2263 -0.9074  0.2669
  508MPD2    C3 7548   1.120   4.128  15.373 -0.3029  0.6633 -1.0644
  508MPD2    C4 7549   1.106   4.008  15.301  0.5874  0.3977 -0.8607
  508MPD2    C5 7550   1.136   3.898  15.371 -0.2686  0.2639  0.2988
  508MPD2     H 7551   1.146   4.227  15.562  1.5694  0.4413 -1.8754
  508MPD2    H1 7552   1.092   3.994  15.195 -1.2928  1.0256 -0.6985
  508MPD2    H2 7553   1.218   3.814  15.552  0.6262  0.4573  1.1047
  508MPD2    H3 7554   1.128   3.803  15.319  1.8332  0.6260 -0.6606
  508MPD2     N 7555   1.086   4.248  15.305 -0.2865  0.1764 -0.1018
  508MPD2    H5 7556   1.098   4.331  15.363  0.4161  1.0086 -1.4209
  508MPD2    N1 7557   1.243   4.015  15.700  0.3314  0.3380  0.3658
  508MPD2    H7 7558   1.268   3.921  15.730  1.5236  0.0096 -1.6809
  509TMC3    C1 7559   0.926   4.609  15.164 -0.0328 -0.4623  0.0174
  509TMC3    C2 7560   0.973   4.654  15.043  0.2430  0.0105 -0.0171
  509TMC3    C3 7561   1.064   4.576  14.974 -0.1618  0.2018 -0.2157
  509TMC3    C4 7562   0.961   4.484  15.209  0.3674 -0.3296 -0.4947
  509TMC3    C5 7563   1.047   4.412  15.134  0.4879 -0.2832 -0.2147
  509TMC3    C6 7564   1.100   4.449  15.017 -0.1686 -0.2334  0.2911
  509TMC3     C 7565   0.871   4.702  15.262  0.2017  0.0359  0.2953
  509TMC3     O 7566   0.844   4.667  15.379  0.2385 -0.0752  0.7046
  509TMC3     H 7567   0.947   0.028  14.996 -0.7004 -0.1255  0.2278
  509TMC3    H1 7568   0.900   4.442  15.288  0.5402  0.5858  0.1226
  509TMC3    H2 7569   1.173   4.392  14.960  0.1039  2.4632 -2.0510
  509TMC3    C7 7570   1.065   4.273  15.170 -0.0296 -0.4451  0.1475
  509TMC3    C8 7571   1.171   4.661  14.925 -0.0345  0.5835 -0.1157
  509TMC3    O1 7572   1.066   4.199  15.074 -0.2378 -0.3167 -0.4777
  509TMC3    O2 7573   1.194   4.663  14.804 -0.1180  0.1911 -0.1882
  510MPD2     C 7574   3.564   0.864  14.293 -0.2819 -0.3594 -0.0318
  510MPD2    C1 7575   3.612   0.837  14.421  0.3814  0.1567  0.4656
  510MPD2    C2 7576   3.743   0.873  14.441  0.2890 -0.2570  0.0006
  510MPD2    C3 7577   3.825   0.901  14.336  0.0626  0.2918  0.5606
  510MPD2    C4 7578   3.780   0.914  14.205 -0.1211 -0.1680 -0.9889
  510MPD2    C5 7579   3.650   0.897  14.186  0.7423 -1.2617  0.1721
  510MPD2     H 7580   3.785   0.870  14.541 -1.5450  1.2551  0.8230
  510MPD2    H1 7581   3.840   0.936  14.117  0.8284  0.6128 -0.1432
  510MPD2    H2 7582   3.464   0.828  14.270  0.3946 -1.4645 -1.2634
  510MPD2    H3 7583   3.595   0.900  14.093  1.9107  2.4012 -0.4025
  510MPD2     N 7584   3.966   0.918  14.360 -0.7558  0.4581  0.3090
  510MPD2    H5 7585   4.003   0.903  14.453 -0.2537 -0.7750 -0.0936
  510MPD2    N1 7586   3.528   0.801  14.527 -0.3474  0.0297  0.4973
  510MPD2    H7 7587   3.437   0.759  14.516 -1.9515  2.8121  3.5012
  511TMC3    C1 7588   3.470   0.773  14.752  0.3087 -0.5118 -0.1252
  511TMC3    C2 7589   3.437   0.834  14.867  0.7025 -0.2319 -0.2697
  511TMC3    C3 7590   3.390   0.747  14.963  0.0873 -0.3459  0.3940
  511TMC3    C4 7591   3.454   0.641  14.726 -0.0865 -0.3751  0.2102
  511TMC3    C5 7592   3.410   0.560  14.821 -0.3848  0.2922  0.2034
  511TMC3    C6 7593   3.368   0.611  14.943 -0.0143  0.4573  0.3778
  511TMC3     C 7594   3.542   0.848  14.655  0.1335  0.4749  0.4344
  511TMC3     O 7595   3.611   0.941  14.689  0.0486  0.0604 -0.5249
  511TMC3     H 7596   3.442   0.940  14.888 -1.6305  0.0352 -1.0082
  511TMC3    H1 7597   3.484   0.598  14.631 -2.2102  0.3680 -0.7986
  511TMC3    H2 7598   3.342   0.550  15.029 -1.4913  0.2588 -0.2102
  511TMC3    C7 7599   3.413   0.422  14.783  0.0163 -0.0059 -1.1342
  511TMC3    C8 7600   3.315   0.819  15.067  0.2450 -0.5290 -0.2589
  511TMC3    O1 7601   3.457   0.386  14.673 -0.8606 -0.3643 -0.0107
  511TMC3    O2 7602   3.364   0.922  15.120 -0.1458 -0.2058 -0.5428
  512TMC3    C1 7603   2.193   0.041  13.149  0.1905  0.2453 -0.5315
  512TMC3    C2 7604   2.261   4.698  13.248 -0.6527 -0.1799  0.2309
  512TMC3    C3 7605   2.296   4.567  13.225 -0.7681  0.3486 -0.6764
  512TMC3    C4 7606   2.153   4.691  13.030 -0.4154 -0.0655 -0.4662
  512TMC3    C5 7607   2.190   4.559  13.016  0.3375  0.6432  0.0640
  512TMC3    C6 7608   2.255   4.497  13.120 -0.0143 -0.1132  0.2451
  512TMC3     C 7609   2.160   0.178  13.152  0.1234  0.3677 -0.5643
  512TMC3     O 7610   2.054   0.220  13.112  0.0152 -0.1033  0.2122
  512TMC3     H 7611   2.293   0.031  13.337 -0.9794  0.4318 -0.0079
  512TMC3    H1 7612   2.084   0.011  12.958 -0.4029  2.3304  0.8352
  512TMC3    H2 7613   2.284   4.395  13.101  1.6741  0.8859 -2.6192
  512TMC3    C7 7614   2.182   4.496  12.882 -0.2384 -0.0455 -0.4222
  512TMC3    C8 7615   2.401   4.509  13.297 -0.3154  0.0014  0.8759
  512TMC3    O1 7616   2.150   4.582  12.799  0.0494  0.0373  0.0651
  512TMC3    O2 7617   2.398   4.385  13.303  0.2728 -0.0540 -0.4220
  513MPD2     C 7618   4.492   4.079  12.499  0.2969  0.2434 -0.5141
  513MPD2    C1 7619   4.507   4.197  12.433  0.3934 -0.1794 -0.5261
  513MPD2    C2 7620   4.409   4.297  12.452  0.0577  0.5038 -0.1634
  513MPD2    C3 7621   4.310   4.280  12.544 -0.0686  0.3248 -0.2324
  513MPD2    C4 7622   4.306   4.169  12.626 -0.4125  0.6854  0.1212
  513MPD2    C5 7623   4.394   4.068  12.594  0.0217 -0.2053  0.5873
  513MPD2     H 7624   4.410   4.395  12.406 -1.0554 -1.2786 -3.9565
  513MPD2    H1 7625   4.218   4.153  12.687 -1.8937 -1.3998 -2.5577
  513MPD2    H2 7626   4.559   3.995  12.489 -1.1625 -0.8629 -0.8968
  513MPD2    H3 7627   4.382   3.971  12.641 -1.0131  0.0991  0.9549
  513MPD2     N 7628   4.224   4.395  12.562  0.1996  0.2717 -0.0946
  513MPD2    H5 7629   4.243   4.468  12.494 -0.6577  0.7585  0.1890
  513MPD2    N1 7630   4.621   4.215  12.350 -0.1104 -0.5228 -0.3690
  513MPD2    H7 7631   4.674   4.131  12.325  1.1882 -0.1675  1.2136
  514TMC3    C1 7632   0.071   4.350  12.224 -0.8395 -0.7295 -0.5602
  514TMC3    C2 7633   0.064   4.287  12.103  0.2132 -0.0256 -0.1273
  514TMC3    C3 7634   0.088   4.363  11.989 -0.2634  0.0511  0.5152
  514TMC3    C4 7635   0.122   4.476  12.234 -0.2964 -0.2463  0.6531
  514TMC3    C5 7636   0.154   4.546  12.117 -0.5128 -0.1400  0.5527
  514TMC3    C6 7637   0.128   4.493  12.001  0.6956  0.2281 -0.1451
  514TMC3     C 7638   4.671   4.341  12.312 -0.1797 -0.7441 -0.1038
  514TMC3     O 7639   4.633   4.453  12.350 -0.0481  0.7324  0.2413
  514TMC3     H 7640   0.010   4.193  12.104 -1.1315  0.7022 -4.2554
  514TMC3    H1 7641   0.139   4.517  12.333  0.4641 -0.9389  0.8032
  514TMC3    H2 7642   0.161   4.555  11.918  1.4473 -0.3031 -0.2445
  514TMC3    C7 7643   0.103   4.682  12.123 -1.1361  0.3659 -0.7303
  514TMC3    C8 7644   0.011   4.328  11.872 -0.3360 -0.1751  0.4040
  514TMC3    O1 7645   0.123   0.031  12.022 -0.6259  0.1474 -0.1194
  514TMC3    O2 7646   4.683   4.216  11.866  0.0399 -0.3172  0.7677
  515MPD2     C 7647   2.716   2.342  14.697  0.3311  0.0513 -0.0334
  515MPD2    C1 7648   2.658   2.250  14.784  0.9003  0.2783 -0.4228
  515MPD2    C2 7649   2.742   2.181  14.874 -0.5178 -0.4146 -0.1612
  515MPD2    C3 7650   2.877   2.214  14.894  0.3730 -0.0560  0.7574
  515MPD2    C4 7651   2.935   2.302  14.805  0.3953  0.1739  0.9185
  515MPD2    C5 7652   2.852   2.368  14.708 -0.3865  0.4339 -0.1080
  515MPD2     H 7653   2.696   2.110  14.943  0.5926 -1.0750 -0.1066
  515MPD2    H1 7654   3.041   2.326  14.805  0.2647  0.7642  0.2748
  515MPD2    H2 7655   2.668   2.381  14.607  0.0256 -0.5414 -0.1342
  515MPD2    H3 7656   2.900   2.429  14.632  0.2412 -1.1000 -0.9473
  515MPD2     N 7657   2.962   2.157  14.993 -0.0607 -0.0378 -0.6357
  515MPD2    H5 7658   3.057   2.192  14.993  0.5924 -1.8305  2.0450
  515MPD2    N1 7659   2.517   2.226  14.795  0.1751 -0.0459 -0.2071
  515MPD2    H7 7660   2.481   2.171  14.872 -1.2710  1.4722  0.2028
  516TMC3    C1 7661   2.293   2.244  14.733 -0.6633  0.0093 -0.2160
  516TMC3    C2 7662   2.202   2.316  14.661 -0.4797  0.9698  0.2894
  516TMC3    C3 7663   2.078   2.262  14.662 -0.0186 -0.3782  0.5947
  516TMC3    C4 7664   2.273   2.111  14.766  0.3724 -0.0549 -0.2500
  516TMC3    C5 7665   2.149   2.062  14.747  0.0794 -0.4074 -0.0650
  516TMC3    C6 7666   2.045   2.133  14.702  0.3230 -0.0810 -0.0024
  516TMC3     C 7667   2.425   2.287  14.711  0.0910 -0.8243  0.6063
  516TMC3     O 7668   2.440   2.376  14.631 -0.4032  0.4159  0.1996
  516TMC3     H 7669   2.208   2.415  14.618  0.5678  2.4143  3.7141
  516TMC3    H1 7670   2.346   2.058  14.825  0.4032 -0.3096 -0.5188
  516TMC3    H2 7671   1.943   2.097  14.693 -0.2468  1.4314  0.3533
  516TMC3    C7 7672   2.129   1.917  14.786 -0.2587  0.1303  0.1363
  516TMC3    C8 7673   1.994   2.307  14.551  0.1195 -0.2738 -0.1886
  516TMC3    O1 7674   2.227   1.867  14.846 -0.0751 -0.0766  0.3450
  516TMC3    O2 7675   1.911   2.226  14.500 -0.6601  0.4658 -0.3840
  517MPD2     C 7676   2.683   3.364  17.575  0.0009  0.2983 -0.0581
  517MPD2    C1 7677   2.823   3.340  17.589  0.0598 -0.8922 -0.2136
  517MPD2    C2 7678   2.907   3.434  17.651 -0.2129  0.0690 -0.4524
  517MPD2    C3 7679   2.852   3.557   0.002  0.0125 -0.0321  0.0315
  517MPD2    C4 7680   2.718   3.582  17.662 -0.2072  0.9234  0.1483
  517MPD2    C5 7681   2.632   3.487  17.617  0.1865 -0.7022  0.3140
  517MPD2     H 7682   3.011   3.403  17.653  0.0354  0.9419  0.7666
  517MPD2    H1 7683   2.669   3.675   0.005 -2.4541 -0.8111  2.2204
  517MPD2    H2 7684   2.613   3.293  17.532 -0.5909  0.1603  1.1401
  517MPD2    H3 7685   2.528   3.513  17.605  0.7200  0.8635 -0.8915
  517MPD2     N 7686   2.927   3.668   0.048 -0.0581 -0.3797  1.1271
  517MPD2    H5 7687   2.882   3.754   0.079 -0.0505 -0.6477  1.8909
  517MPD2    N1 7688   2.893   3.223  17.555  0.4062  0.0786  0.0926
  517MPD2    H7 7689   2.992   3.217  17.577  0.0978  1.6076  1.8836
  518TMC3    C1 7690   2.931   3.026  17.436 -0.3045 -0.3524  0.4845
  518TMC3    C2 7691   2.893   2.896  17.409  0.1053  0.1426 -0.4811
  518TMC3    C3 7692   2.993   2.809  17.375 -0.2651 -0.4884 -0.0285
  518TMC3    C4 7693   3.059   3.059  17.431  0.2585 -0.3617 -0.0708
  518TMC3    C5 7694   3.161   2.971  17.396 -0.0280  0.2235 -0.5689
  518TMC3    C6 7695   3.128   2.842  17.355 -0.1914 -0.3530 -0.2728
  518TMC3     C 7696   2.834   3.115  17.490 -0.1993  0.0326  0.8779
  518TMC3     O 7697   2.722   3.100  17.452  0.8422 -0.1960 -0.2439
  518TMC3     H 7698   2.788   2.869  17.417  0.1599  0.9723  3.0821
  518TMC3    H1 7699   3.086   3.163  17.447  0.2427 -0.4680  0.6756
  518TMC3    H2 7700   3.199   2.762  17.338  0.5637  0.1042  0.6925
  518TMC3    C7 7701   3.291   3.002  17.452  0.2913  0.2808 -0.3348
  518TMC3    C8 7702   2.966   2.668  17.376 -0.2076 -0.0413  0.6124
  518TMC3    O1 7703   3.295   3.085  17.544  0.0511 -0.1868 -0.3504
  518TMC3    O2 7704   2.981   2.608  17.272 -0.0955 -0.2810 -0.0870
  519MPD2     C 7705   3.659   1.764  14.169  0.3504 -0.1203 -0.1076
  519MPD2    C1 7706   3.640   1.677  14.065 -0.4676  0.1058 -0.5057
  519MPD2    C2 7707   3.750   1.635  13.991 -0.4808  0.4699  0.0659
  519MPD2    C3 7708   3.877   1.664  14.036  0.0370 -0.0477 -0.0152
  519MPD2    C4 7709   3.894   1.732  14.153 -0.2184  0.3643  0.2528
  519MPD2    C5 7710   3.788   1.786  14.217 -0.3607  0.4267 -0.0563
  519MPD2     H 7711   3.735   1.572  13.904 -1.8613  0.1018  0.5582
  519MPD2    H1 7712   3.993   1.756  14.189 -0.1200 -0.7038  0.7051
  519MPD2    H2 7713   3.577   1.811  14.222  1.1059  0.5457  0.4761
  519MPD2    H3 7714   3.805   1.839  14.310  1.7260  1.6051 -1.1159
  519MPD2     N 7715   3.979   1.627  13.947  0.0431  0.4886  0.1455
  519MPD2    H5 7716   3.954   1.571  13.866 -0.2785  0.2304  0.4243
  519MPD2    N1 7717   3.507   1.649  14.026  0.2957 -0.0688 -0.5248
  519MPD2    H7 7718   3.435   1.709  14.066  0.8117  1.0696 -1.3026
  520TMC3    C1 7719   4.198   1.570  13.878 -0.4126 -0.6523  0.5217
  520TMC3    C2 7720   4.157   1.578  13.749 -0.2258  0.6521  0.2097
  520TMC3    C3 7721   4.242   1.523  13.655  0.2042  0.2218  0.1223
  520TMC3    C4 7722   4.307   1.494  13.912 -0.6046 -0.7670  0.0037
  520TMC3    C5 7723   4.384   1.435  13.817 -0.1324  0.2650  0.0819
  520TMC3    C6 7724   4.358   1.454  13.681 -0.1208 -0.3219 -0.2981
  520TMC3     C 7725   4.108   1.627  13.983 -0.2099  0.1287 -0.3884
  520TMC3     O 7726   4.158   1.638  14.094  0.3311  0.1907  0.1185
  520TMC3     H 7727   4.074   1.636  13.711  0.5124  1.5512 -0.0502
  520TMC3    H1 7728   4.348   1.492  14.013  1.6985  0.1916 -0.8976
  520TMC3    H2 7729   4.412   1.398  13.606 -1.2020 -0.4479 -0.9858
  520TMC3    C7 7730   4.503   1.353  13.854  0.4128 -0.1228  0.5599
  520TMC3    C8 7731   4.196   1.534  13.516  0.2082  0.3054 -0.9867
  520TMC3    O1 7732   4.503   1.331  13.971  0.0475  0.1413  0.2262
  520TMC3    O2 7733   4.276   1.558  13.427 -0.6426  0.0137 -0.5579
  521MPD2     C 7734   0.181   4.577  17.328 -0.2715  0.0119  0.8795
  521MPD2    C1 7735   0.140   4.502  17.218 -0.6967 -0.3843  0.0866
  521MPD2    C2 7736   0.233   4.483  17.116  0.8805 -0.6080  0.2178
  521MPD2    C3 7737   0.354   4.545  17.105  0.2203 -0.3086  0.4827
  521MPD2    C4 7738   0.376   4.643  17.204  0.3079  0.3394 -0.3309
  521MPD2    C5 7739   0.294   4.649  17.317  0.0292 -0.1629  0.7302
  521MPD2     H 7740   0.200   4.428  17.028  1.0317  2.6923 -1.9222
  521MPD2    H1 7741   0.468   4.700  17.208 -0.7371  2.0545 -0.6049
  521MPD2    H2 7742   0.119   4.591  17.416 -0.2949  0.3065  0.8138
  521MPD2    H3 7743   0.327   4.714  17.397 -0.6575  1.7546 -0.5593
  521MPD2     N 7744   0.443   4.525  16.994  0.4186  0.9669 -0.0944
  521MPD2    H5 7745   0.410   4.461  16.922 -0.4498  0.8853  0.3813
  521MPD2    N1 7746   0.018   4.428  17.227  0.0140 -0.2722  0.2218
  521MPD2    H7 7747   4.674   4.457  17.300 -1.0948 -0.0263 -0.8541
  522TMC3    C1 7748   0.629   4.567  16.861  0.6291 -0.0090  0.0629
  522TMC3    C2 7749   0.767   4.555  16.864 -0.4758  0.1669 -0.2356
  522TMC3    C3 7750   0.816   4.483  16.758  0.1740 -0.8911 -0.6178
  522TMC3    C4 7751   0.546   4.529  16.759 -0.4370 -0.2308  0.0847
  522TMC3    C5 7752   0.608   4.472  16.645 -0.2479  0.3083 -0.2783
  522TMC3    C6 7753   0.739   4.451  16.647  0.4254  0.3689  0.2487
  522TMC3     C 7754   0.578   4.575  16.993 -0.2192 -0.8685  0.7080
  522TMC3     O 7755   0.644   4.638  17.075  0.2067  0.1364 -0.4414
  522TMC3     H 7756   0.829   4.592  16.944 -0.2190 -0.4139 -0.1727
  522TMC3    H1 7757   0.444   4.564  16.747 -0.1871  0.2344 -0.6629
  522TMC3    H2 7758   0.793   4.416  16.560 -2.1591 -0.7651 -0.8772
  522TMC3    C7 7759   0.557   4.499  16.512 -0.6461 -1.1281  0.0457
  522TMC3    C8 7760   0.965   4.466  16.757 -0.4520  0.4474  0.5400
  522TMC3    O1 7761   0.638   4.525  16.423 -0.3697 -0.0495  0.4713
  522TMC3    O2 7762   1.026   4.516  16.852  0.2433  0.2299  0.4342
  523MPD2     C 7763   1.989   3.241  10.235 -0.1097 -0.3764 -0.3539
  523MPD2    C1 7764   1.959   3.224  10.103 -0.2373  0.5168  0.5253
  523MPD2    C2 7765   1.891   3.316  10.026 -0.1281  0.2846 -0.6131
  523MPD2    C3 7766   1.858   3.437  10.091  0.6636  0.3998  0.3756
  523MPD2    C4 7767   1.867   3.441  10.227  0.0599 -0.7251 -0.3069
  523MPD2    C5 7768   1.931   3.348  10.300  0.1513  0.4336 -0.4905
  523MPD2     H 7769   1.862   3.302   9.923 -0.2574  0.6601 -0.6269
  523MPD2    H1 7770   1.807   3.517  10.276  1.9900 -0.0392  1.0343
  523MPD2    H2 7771   2.036   3.159  10.288 -0.4248 -0.2211  0.1626
  523MPD2    H3 7772   1.948   3.359  10.406  0.7980  2.2430 -0.7907
  523MPD2     N 7773   1.811   3.553  10.028  0.1679  0.1857  0.4971
  523MPD2    H5 7774   1.814   3.633  10.090  0.7562 -0.9342  1.9055
  523MPD2    N1 7775   2.009   3.101  10.058 -0.1500 -0.1080 -0.2165
  523MPD2    H7 7776   2.058   3.041  10.123 -0.9735  0.5639  1.0184
  524TMC3    C1 7777   1.816   3.707   9.842  0.6997  0.8079 -0.4585
  524TMC3    C2 7778   1.877   3.736   9.731  0.2629 -0.1554 -0.1288
  524TMC3    C3 7779   1.897   3.869   9.699 -0.3843  0.0114  0.7716
  524TMC3    C4 7780   1.763   3.802   9.924 -0.0386  0.6432  0.0077
  524TMC3    C5 7781   1.765   3.933   9.882  0.6706  0.8149  0.2616
  524TMC3    C6 7782   1.839   3.966   9.774 -0.1811  0.1409  0.4404
  524TMC3     C 7783   1.817   3.573   9.888 -0.0295  0.1087 -1.0630
  524TMC3     O 7784   1.818   3.486   9.802 -0.1012 -0.0928 -0.6319
  524TMC3     H 7785   1.919   3.655   9.674 -1.2202 -0.5299 -0.6775
  524TMC3    H1 7786   1.691   3.775  10.001  0.9047  0.0266  0.6679
  524TMC3    H2 7787   1.867   4.068   9.748 -0.3757  0.0409 -0.1506
  524TMC3    C7 7788   1.729   4.041   9.976  0.8167 -0.3199  1.0367
  524TMC3    C8 7789   2.010   3.904   9.612  0.1977 -0.6442 -0.1121
  524TMC3    O1 7790   1.742   4.014  10.095 -0.1179 -0.6390  0.3856
  524TMC3    O2 7791   2.015   4.021   9.574 -0.3763 -0.5988  0.3991
  525MPD2     C 7792   0.329   1.218  14.237 -0.2152 -0.2087 -0.2858
  525MPD2    C1 7793   0.450   1.267  14.283  0.3301 -0.5204 -0.3782
  525MPD2    C2 7794   0.497   1.379  14.214  0.2680 -0.1469 -0.4222
  525MPD2    C3 7795   0.422   1.441  14.122  0.0177  0.0613  0.4008
  525MPD2    C4 7796   0.291   1.400  14.090 -0.5397 -0.1481 -0.2598
  525MPD2    C5 7797   0.256   1.280  14.143 -0.0633  0.2741 -0.1455
  525MPD2     H 7798   0.599   1.409  14.232 -0.8423  2.1389  1.9566
  525MPD2    H1 7799   0.228   1.463  14.028 -0.0161  1.0244  0.3935
  525MPD2    H2 7800   0.286   1.129  14.281  1.2134 -0.9788 -0.4301
  525MPD2    H3 7801   0.155   1.243  14.129  0.6732 -2.0882  0.8353
  525MPD2     N 7802   0.458   1.562  14.061  0.0143  0.0887 -0.4868
  525MPD2    H5 7803   0.381   1.599  14.006  0.0938 -0.8030 -1.1878
  525MPD2    N1 7804   0.521   1.219  14.396 -0.1202  0.2748  0.6658
  525MPD2    H7 7805   0.599   1.278  14.425  0.4403 -0.2354  0.2095
  526TMC3    C1 7806   0.576   1.097  14.587 -0.5363  0.9997  0.1939
  526TMC3    C2 7807   0.534   1.078  14.713 -0.0870 -0.0993  1.0192
  526TMC3    C3 7808   0.626   1.084  14.816 -0.1964  0.2859  0.8139
  526TMC3    C4 7809   0.710   1.102  14.553 -0.0778  0.4309  0.3373
  526TMC3    C5 7810   0.798   1.116  14.656  0.0834 -0.5083 -0.0724
  526TMC3    C6 7811   0.755   1.106  14.788  0.2786  0.0242  0.1310
  526TMC3     C 7812   0.483   1.119  14.482 -0.3450 -0.2084  0.1963
  526TMC3     O 7813   0.369   1.076  14.492  0.3644 -0.4370  0.2727
  526TMC3     H 7814   0.429   1.067  14.737 -0.5414  0.2547 -0.7916
  526TMC3    H1 7815   0.748   1.102  14.452 -0.0210  3.1247  0.3470
  526TMC3    H2 7816   0.831   1.113  14.865 -0.5385 -1.7132  1.0966
  526TMC3    C7 7817   0.941   1.132  14.634  0.0353 -0.0533  0.1911
  526TMC3    C8 7818   0.579   1.097  14.951 -0.2505 -0.4667 -0.0829
  526TMC3    O1 7819   1.007   1.163  14.732  0.4309 -0.2917 -0.6765
  526TMC3    O2 7820   0.643   1.176  15.014  0.3785  0.5707 -0.0903
  527MPD2     C 7821   4.163   4.136   1.390  0.2670 -0.0371 -0.4849
  527MPD2    C1 7822   4.201   4.003   1.404  0.1122  0.3350  0.2142
  527MPD2    C2 7823   4.251   3.936   1.291 -0.1184 -0.7788 -0.2538
  527MPD2    C3 7824   4.263   3.996   1.166 -0.4650  0.0413 -0.0431
  527MPD2    C4 7825   4.220   4.126   1.158  0.1241 -0.4243  0.0384
  527MPD2    C5 7826   4.180   4.197   1.267  0.7005 -0.0365  0.1554
  527MPD2     H 7827   4.285   3.833   1.296 -2.9781 -1.7354 -0.2855
  527MPD2    H1 7828   4.244   4.196   1.079  0.4861 -0.8801 -0.2604
  527MPD2    H2 7829   4.119   4.201   1.464 -0.2383 -0.4695 -0.4017
  527MPD2    H3 7830   4.160   4.302   1.254  0.0525 -0.3292 -1.1692
  527MPD2     N 7831   4.304   3.921   1.049 -0.0744 -0.4227 -0.3248
  527MPD2    H5 7832   4.323   3.822   1.061  0.6704 -0.5087 -2.2010
  527MPD2    N1 7833   4.181   3.930   1.523  0.4260 -0.0068  0.3409
  527MPD2    H7 7834   4.219   3.836   1.523  1.7733  0.5636 -2.4909
  528TMC3    C1 7835   4.136   3.884   1.749 -0.6493  0.3721  0.4522
  528TMC3    C2 7836   4.248   3.798   1.757 -0.1966 -0.5136  0.6758
  528TMC3    C3 7837   4.264   3.731   1.875 -0.1424 -0.4333 -0.0476
  528TMC3    C4 7838   4.058   3.902   1.856  0.0798  0.3595  0.8414
  528TMC3    C5 7839   4.076   3.828   1.969  0.2104  0.0467  0.4746
  528TMC3    C6 7840   4.186   3.743   1.986 -0.2163 -0.1220  0.3760
  528TMC3     C 7841   4.114   3.972   1.632 -0.1522  0.4452  0.1680
  528TMC3     O 7842   4.039   4.065   1.649 -0.4332 -0.0793  0.2294
  528TMC3     H 7843   4.318   3.777   1.677  0.8370 -0.0449  1.4447
  528TMC3    H1 7844   3.961   3.941   1.827  1.3964  1.6804 -1.7581
  528TMC3    H2 7845   4.212   3.717   2.088 -0.8984 -1.9187  0.0893
  528TMC3    C7 7846   3.995   3.860   2.082 -0.1469  0.1467 -0.3570
  528TMC3    C8 7847   4.389   3.662   1.892  0.0340 -0.1392  0.5203
  528TMC3    O1 7848   3.986   3.778   2.174 -0.0492  0.0308  0.3999
  528TMC3    O2 7849   4.473   3.697   1.812 -0.6392  0.0183 -0.5294
  529MPD2     C 7850   2.261   2.662   0.774 -0.2867  0.7835  0.3725
  529MPD2    C1 7851   2.137   2.655   0.728  0.3232 -0.3022  0.3258
  529MPD2    C2 7852   2.118   2.676   0.594 -0.2968  0.5677  0.0365
  529MPD2    C3 7853   2.223   2.711   0.505 -0.5834  0.4251 -0.0415
  529MPD2    C4 7854   2.352   2.727   0.556 -0.4840  0.5964  0.0577
  529MPD2    C5 7855   2.366   2.696   0.691  0.5947 -0.4178  0.4343
  529MPD2     H 7856   2.015   2.658   0.563 -0.0556 -1.5804  0.4691
  529MPD2    H1 7857   2.437   2.760   0.497  0.9665 -2.5507  0.3725
  529MPD2    H2 7858   2.288   2.628   0.873  2.0296  1.1347 -0.1352
  529MPD2    H3 7859   2.469   2.680   0.723 -0.6990  0.9664  5.2355
  529MPD2     N 7860   2.197   2.742   0.370  0.0205 -0.4826  0.1551
  529MPD2    H5 7861   2.276   2.788   0.325 -2.4522  0.9349 -2.7129
  529MPD2    N1 7862   2.033   2.599   0.803 -0.0001 -0.6067  0.3174
  529MPD2    H7 7863   1.961   2.553   0.748  1.6848 -1.0080 -1.5636
  530TMC3    C1 7864   1.897   2.518   0.990  0.2795  0.3458 -0.1799
  530TMC3    C2 7865   1.914   2.436   1.095 -0.2457 -0.4269 -0.0971
  530TMC3    C3 7866   1.831   2.331   1.098  0.3217 -0.0306  0.6804
  530TMC3    C4 7867   1.790   2.520   0.902  0.2418  0.2323 -0.8196
  530TMC3    C5 7868   1.707   2.408   0.912  0.6243 -0.8370  0.0690
  530TMC3    C6 7869   1.728   2.311   1.010 -0.4292  0.1406 -1.0409
  530TMC3     C 7870   2.027   2.580   0.941 -0.2473  0.1137  0.3578
  530TMC3     O 7871   2.111   2.616   1.023  0.5785 -0.1279  0.4032
  530TMC3     H 7872   2.005   2.443   1.154 -1.4944 -0.4393  1.8377
  530TMC3    H1 7873   1.769   2.598   0.830 -0.1637 -0.9109 -1.9358
  530TMC3    H2 7874   1.676   2.216   1.012 -0.0321 -0.0754 -0.9926
  530TMC3    C7 7875   1.604   2.388   0.809 -0.3130  0.5801  0.7027
  530TMC3    C8 7876   1.841   2.240   1.208  0.3321  0.5209  0.1627
  530TMC3    O1 7877   1.613   2.470   0.720 -0.0118  0.0174  0.2376
  530TMC3    O2 7878   1.943   2.249   1.272 -0.2819  0.2212  0.4019
  531MPD2     C 7879   4.444   0.287  12.273  0.0966 -0.2785  0.9771
  531MPD2    C1 7880   4.421   0.164  12.326  0.7709  0.3373  0.5723
  531MPD2    C2 7881   4.518   0.072  12.304 -0.2884  0.0093  0.0405
  531MPD2    C3 7882   4.632   0.092  12.228 -0.4038 -0.5253  0.2959
  531MPD2    C4 7883   4.654   0.222  12.185  0.1379  0.3700 -0.0171
  531MPD2    C5 7884   4.559   0.318  12.208 -0.2951 -0.3032  0.5765
  531MPD2     H 7885   4.511   4.696  12.356  0.5935 -0.5262 -0.8238
  531MPD2    H1 7886   0.018   0.243  12.120 -1.4880 -1.6150 -2.7893
  531MPD2    H2 7887   4.372   0.364  12.299  0.2507  0.1825  0.0094
  531MPD2    H3 7888   4.567   0.414  12.157 -2.0306 -0.3731  0.1481
  531MPD2     N 7889   4.715   4.700  12.211  0.3876 -0.1618 -0.4160
  531MPD2    H5 7890   4.700   4.614  12.264  1.1067 -1.2794 -1.9953
  531MPD2    N1 7891   4.307   0.143  12.406 -0.4632  0.1117 -0.0742
  531MPD2    H7 7892   4.249   0.225  12.415 -1.1303 -0.5907  2.2048
  532TMC3    C1 7893   4.143   0.020  12.534 -0.5716 -0.8021 -0.9878
  532TMC3    C2 7894   4.101   4.615  12.544 -0.2137  0.2792  0.1305
  532TMC3    C3 7895   4.096   4.547  12.665  0.3979  0.1466  0.4777
  532TMC3    C4 7896   4.178   0.084  12.649  0.3383  0.3261  0.8690
  532TMC3    C5 7897   4.168   0.020  12.771 -0.4574  0.1024 -0.4382
  532TMC3    C6 7898   4.130   4.610  12.784  0.3841  0.1763  0.0360
  532TMC3     C 7899   4.266   0.017  12.455 -0.1415  0.9203  0.0793
  532TMC3     O 7900   4.302   4.622  12.426 -0.1185  0.0325  0.4478
  532TMC3     H 7901   4.082   4.558  12.454 -0.6466 -0.3497  0.6243
  532TMC3    H1 7902   4.220   0.183  12.657  0.5325  0.3890 -0.9703
  532TMC3    H2 7903   4.132   4.560  12.880  2.1090 -1.9665 -1.1155
  532TMC3    C7 7904   4.269   0.058  12.860  0.4472 -0.4575  0.0438
  532TMC3    C8 7905   4.137   4.406  12.664 -0.2843 -0.7570  0.6733
  532TMC3    O1 7906   4.291   0.175  12.874 -0.5544  0.3255  0.2724
  532TMC3    O2 7907   4.097   4.337  12.756  0.2215  0.3934  0.2590
  533TMC3    C1 7908   0.549   1.771  14.049  0.7356 -0.0489 -0.2561
  533TMC3    C2 7909   0.665   1.834  14.024  0.6160 -0.1166 -0.2213
  533TMC3    C3 7910   0.677   1.967  14.060 -0.7228  0.1205  0.5424
  533TMC3    C4 7911   0.444   1.827  14.104 -0.4114  0.5641  0.3245
  533TMC3    C5 7912   0.459   1.952  14.149 -0.0917 -0.7436  0.7827
  533TMC3    C6 7913   0.576   2.023  14.133  0.0190  0.2075  0.6802
  533TMC3     C 7914   0.572   1.636  14.088  0.2814  0.1156 -0.0174
  533TMC3     O 7915   0.684   1.602  14.125 -0.0515  0.3083  0.4704
  533TMC3     H 7916   0.746   1.779  13.976  3.1624  2.7087  0.8038
  533TMC3    H1 7917   0.354   1.770  14.123 -1.6341  2.1570 -0.6473
  533TMC3    H2 7918   0.579   2.130  14.153 -0.8411  0.4922 -0.6694
  533TMC3    C7 7919   0.411   1.960  14.293  0.0539 -0.1650 -0.4146
  533TMC3    C8 7920   0.806   2.009  14.101  0.7016 -0.2527 -0.4686
  533TMC3    O1 7921   0.350   1.869  14.340  0.1313  0.1454  0.0238
  533TMC3    O2 7922   0.808   2.122  14.153  0.5120 -0.5742  0.3812
  534MPD2     C 7923   3.660   2.835   1.925 -0.3592 -0.1515 -0.5111
  534MPD2    C1 7924   3.708   2.881   1.808 -0.0288 -0.2177 -0.5207
  534MPD2    C2 7925   3.664   2.832   1.682  0.4369 -0.4784  0.3610
  534MPD2    C3 7926   3.572   2.733   1.672  0.0583  0.0589 -0.0103
  534MPD2    C4 7927   3.537   2.682   1.792 -0.0340  0.0009 -0.1632
  534MPD2    C5 7928   3.584   2.728   1.914  0.0776  0.8921  0.5675
  534MPD2     H 7929   3.705   2.872   1.590 -2.1017  0.6654 -0.2882
  534MPD2    H1 7930   3.463   2.605   1.807  1.4365 -1.3336  0.2025
  534MPD2    H2 7931   3.686   2.886   2.017 -3.8125  1.6743 -0.5681
  534MPD2    H3 7932   3.559   2.675   2.005  0.5137 -1.4685 -0.7127
  534MPD2     N 7933   3.525   2.664   1.556 -0.1614 -0.3430 -0.8747
  534MPD2    H5 7934   3.473   2.579   1.574  1.9010 -1.4668 -0.2235
  534MPD2    N1 7935   3.798   2.982   1.799  0.4227 -0.4498  0.0546
  534MPD2    H7 7936   3.832   3.009   1.707  0.8478  0.2035  0.4046
  535TMC3    C1 7937   3.529   2.591   1.325  0.4802  0.1112 -0.7329
  535TMC3    C2 7938   3.445   2.489   1.364 -0.8189 -0.1713 -0.4955
  535TMC3    C3 7939   3.434   2.379   1.276 -0.1420 -0.0669 -0.0814
  535TMC3    C4 7940   3.587   2.595   1.201  0.4719  0.2741  0.1667
  535TMC3    C5 7941   3.572   2.485   1.119  0.0926 -0.4639 -0.5848
  535TMC3    C6 7942   3.499   2.379   1.153 -0.8229  0.8930  0.6258
  535TMC3     C 7943   3.564   2.694   1.423  0.0179 -0.6302  0.5167
  535TMC3     O 7944   3.624   2.789   1.386  0.0663 -0.6028 -0.3597
  535TMC3     H 7945   3.381   2.493   1.451 -0.9631  0.8245 -0.6553
  535TMC3    H1 7946   3.661   2.672   1.182  2.1536 -0.7812  2.3566
  535TMC3    H2 7947   3.489   2.298   1.082 -1.9816  3.2833 -1.9586
  535TMC3    C7 7948   3.676   2.457   1.015  0.1243 -1.0807 -0.0760
  535TMC3    C8 7949   3.346   2.267   1.302 -0.6144 -0.2814 -1.0009
  535TMC3    O1 7950   3.710   2.338   0.999  0.2390  0.4775  0.2996
  535TMC3    O2 7951   3.267   2.289   1.394  0.0955 -0.1625  0.2114
  536MPD2     C 7952   2.394   1.043  16.146  0.5169 -0.5069 -0.0272
  536MPD2    C1 7953   2.286   0.962  16.170 -0.2956 -0.5179  0.5491
  536MPD2    C2 7954   2.179   0.968  16.079  1.1994 -0.3049 -0.1874
  536MPD2    C3 7955   2.191   1.027  15.954  0.3153 -0.0127 -0.2125
  536MPD2    C4 7956   2.303   1.099  15.930 -0.1134 -0.3381 -0.3459
  536MPD2    C5 7957   2.405   1.097  16.021  0.0496  0.2020 -0.6697
  536MPD2     H 7958   2.082   0.926  16.104  1.5839  0.0188  1.8641
  536MPD2    H1 7959   2.318   1.154  15.838  1.2906 -2.0507 -1.1302
  536MPD2    H2 7960   2.473   1.074  16.214  0.0053  0.0475  0.3209
  536MPD2    H3 7961   2.486   1.165  15.997 -0.1424  0.1305 -1.5397
  536MPD2     N 7962   2.086   1.029  15.858 -0.2283 -0.3287 -0.1934
  536MPD2    H5 7963   2.083   1.091  15.778  1.0673  1.1072  0.8808
  536MPD2    N1 7964   2.281   0.897  16.297  0.2685 -0.1914 -0.0245
  536MPD2    H7 7965   2.349   0.911  16.370  0.9666  0.6458 -0.8507
  537TMC3    C1 7966   2.197   0.752  16.452  0.8729  0.4363 -0.6885
  537TMC3    C2 7967   2.247   0.827  16.552  0.3039  0.2546  0.1138
  537TMC3    C3 7968   2.250   0.778  16.680  0.4343  0.0139 -0.4924
  537TMC3    C4 7969   2.129   0.634  16.482  0.0242 -0.0198  0.5951
  537TMC3    C5 7970   2.124   0.591  16.614 -0.9794  0.1193 -0.3534
  537TMC3    C6 7971   2.196   0.655  16.712 -0.1748 -0.0753  0.5476
  537TMC3     C 7972   2.183   0.804  16.322  0.1286 -0.2957  0.7830
  537TMC3     O 7973   2.107   0.750  16.245  0.7423 -0.3375 -0.0128
  537TMC3     H 7974   2.294   0.922  16.527 -1.9597  1.3310 -0.0792
  537TMC3    H1 7975   2.082   0.568  16.410  0.9510  0.6565 -0.6292
  537TMC3    H2 7976   2.191   0.620  16.815  0.7298 -0.0777  0.5905
  537TMC3    C7 7977   2.059   0.464  16.638 -0.5884 -0.0834  0.1240
  537TMC3    C8 7978   2.310   0.865  16.777 -0.5246 -0.0729  0.3948
  537TMC3    O1 7979   1.988   0.417  16.549  0.0613 -0.0585 -0.0882
  537TMC3    O2 7980   2.350   0.809  16.881  0.3642 -0.7088  0.3789
  538TMC3    C1 7981   3.139   3.780  11.034  0.2321  0.0426 -0.2867
  538TMC3    C2 7982   3.231   3.878  11.070  0.0525  1.0718  0.4664
  538TMC3    C3 7983   3.185   3.998  11.104  0.1604 -0.5253  0.5749
  538TMC3    C4 7984   3.008   3.807  11.043  0.6135  0.3516  0.6983
  538TMC3    C5 7985   2.965   3.926  11.095  0.1622  0.0514  0.5899
  538TMC3    C6 7986   3.057   4.023  11.120  0.2768  0.1874  0.8305
  538TMC3     C 7987   3.182   3.656  10.977  0.1218  0.1246 -0.3476
  538TMC3     O 7988   3.289   3.608  11.008 -0.6791 -0.2223  0.2634
  538TMC3     H 7989   3.338   3.858  11.071 -0.1662 -0.0455  1.3780
  538TMC3    H1 7990   2.930   3.736  11.017  0.8930  1.3267 -2.8414
  538TMC3    H2 7991   3.030   4.127  11.139 -0.5201 -0.0746  1.1587
  538TMC3    C7 7992   2.820   3.943  11.118 -0.1881 -0.3783  0.3183
  538TMC3    C8 7993   3.267   4.107  11.060 -0.1146 -0.2910 -0.0001
  538TMC3    O1 7994   2.736   3.863  11.077  0.1677 -0.2497  0.8334
  538TMC3    O2 7995   3.249   4.209  11.122 -0.3689 -0.4347  0.3909
  539MPD2     C 7996   2.475   2.846  11.900 -1.0009  0.4169  0.4829
  539MPD2    C1 7997   2.460   2.858  11.763  0.0707  0.3160  0.2490
  539MPD2    C2 7998   2.498   2.983  11.699  0.1076  0.1282  0.1894
  539MPD2    C3 7999   2.517   3.097  11.783  0.2192  0.5769  0.2727
  539MPD2    C4 8000   2.509   3.083  11.917  0.6236 -0.4143 -0.5541
  539MPD2    C5 8001   2.505   2.958  11.974  0.3438  0.2808 -0.4796
  539MPD2     H 8002   2.494   2.995  11.591 -1.2051  3.0887  0.5824
  539MPD2    H1 8003   2.496   3.166  11.985  1.9579 -1.4141  0.9052
  539MPD2    H2 8004   2.461   2.751  11.949 -2.2441 -0.1758 -1.0259
  539MPD2    H3 8005   2.514   2.948  12.082  1.9734  0.1940 -0.6280
  539MPD2     N 8006   2.516   3.229  11.735 -0.3696  0.3181 -0.3025
  539MPD2    H5 8007   2.503   3.299  11.807  0.1312  0.6295 -0.5165
  539MPD2    N1 8008   2.435   2.750  11.671  0.2904 -0.5906 -0.1364
  539MPD2    H7 8009   2.441   2.776  11.573 -0.5483  0.8492  0.2035
  540TMC3    C1 8010   2.438   3.400  11.592  0.0193 -0.1313  0.6263
  540TMC3    C2 8011   2.409   3.419  11.459 -0.0219 -0.7309 -0.2851
  540TMC3    C3 8012   2.384   3.550  11.427  0.1610  0.3292  0.4649
  540TMC3    C4 8013   2.436   3.499  11.685 -0.0124 -0.2120  0.5407
  540TMC3    C5 8014   2.409   3.630  11.646 -0.2425  0.3684  0.4056
  540TMC3    C6 8015   2.380   3.657  11.517  0.1680 -0.0194  0.4199
  540TMC3     C 8016   2.500   3.267  11.606  0.2219 -0.1729 -0.5228
  540TMC3     O 8017   2.519   3.204  11.503 -0.1325  0.2071 -0.0690
  540TMC3     H 8018   2.379   3.339  11.392 -0.6200  0.4628 -1.4494
  540TMC3    H1 8019   2.468   3.484  11.788 -0.5950 -2.1382  0.4501
  540TMC3    H2 8020   2.345   3.757  11.492  1.3856  0.2197 -0.3489
  540TMC3    C7 8021   2.378   3.725  11.750 -0.3065 -0.0283  0.2568
  540TMC3    C8 8022   2.389   3.587  11.284  0.1280 -0.3905  0.5366
  540TMC3    O1 8023   2.368   3.686  11.868 -0.0751  0.6303 -0.0707
  540TMC3    O2 8024   2.454   3.687  11.253 -0.4401 -0.3546  0.2262
  541MPD2     C 8025   0.677   0.360  13.121 -0.1347 -0.0110  0.3381
  541MPD2    C1 8026   0.712   0.267  13.032  0.3549 -0.9298 -0.0789
  541MPD2    C2 8027   0.725   0.317  12.899  0.5311  0.2142 -0.5833
  541MPD2    C3 8028   0.700   0.447  12.864  0.5294 -0.3479 -0.8007
  541MPD2    C4 8029   0.662   0.535  12.965  0.8869 -0.6631 -0.3342
  541MPD2    C5 8030   0.652   0.492  13.093  0.0956  0.5064  0.4458
  541MPD2     H 8031   0.744   0.247  12.819  1.6661 -0.3482  0.1776
  541MPD2    H1 8032   0.626   0.635  12.943  1.4610 -1.3158 -4.2005
  541MPD2    H2 8033   0.670   0.325  13.223  0.4569  2.1433  1.0951
  541MPD2    H3 8034   0.623   0.563  13.170  0.5194 -0.2105  1.2730
  541MPD2     N 8035   0.692   0.494  12.725 -0.6243  0.1706  0.3098
  541MPD2    H5 8036   0.658   0.588  12.710  0.6692  0.5440 -0.3238
  541MPD2    N1 8037   0.751   0.140  13.075 -0.0940 -0.5109  0.5151
  541MPD2    H7 8038   0.760   0.116  13.174 -0.1068  3.2479  1.4246
  542TMC3    C1 8039   0.672   0.478  12.480  0.0886 -0.2064  0.2313
  542TMC3    C2 8040   0.687   0.395  12.378 -0.4235 -0.1576  0.2238
  542TMC3    C3 8041   0.640   0.429  12.249  0.3610 -0.6956 -0.4804
  542TMC3    C4 8042   0.600   0.599  12.469 -0.2928  0.0666  0.2679
  542TMC3    C5 8043   0.564   0.632  12.342  0.2778  0.8991 -0.2589
  542TMC3    C6 8044   0.569   0.547  12.230  0.4992  0.6284 -1.0194
  542TMC3     C 8045   0.721   0.424  12.610  0.2547  0.0079  0.3996
  542TMC3     O 8046   0.779   0.314  12.606  0.1353  0.4521  0.2888
  542TMC3     H 8047   0.740   0.303  12.398 -0.5803 -0.2824  0.0672
  542TMC3    H1 8048   0.563   0.655  12.554 -1.0475  0.1917 -0.1433
  542TMC3    H2 8049   0.538   0.592  12.136 -0.2765  1.1688 -0.5105
  542TMC3    C7 8050   0.518   0.766  12.319  0.5598  0.4253 -0.5910
  542TMC3    C8 8051   0.682   0.351  12.134 -0.1763 -1.0839  0.2615
  542TMC3    O1 8052   0.436   0.783  12.230 -0.3781  0.2868 -0.0787
  542TMC3    O2 8053   0.638   0.385  12.030  0.1513 -0.3881 -0.2600
  543TMC3    C1 8054   0.860   1.020  17.300 -0.0608 -0.7257 -0.6899
  543TMC3    C2 8055   0.854   0.888  17.264 -0.5359 -0.3524  0.6000
  543TMC3    C3 8056   0.752   0.815  17.318 -0.9142 -0.2784 -0.4643
  543TMC3    C4 8057   0.778   1.076  17.391  0.0594 -0.5281 -0.2660
  543TMC3    C5 8058   0.695   0.994  17.459  0.8330  0.0893 -0.1268
  543TMC3    C6 8059   0.672   0.868  17.420 -0.0307  0.0073 -0.3815
  543TMC3     C 8060   0.926   1.102  17.200 -0.1183  0.1494 -0.3745
  543TMC3     O 8061   0.989   1.043  17.110  0.2845  0.1905  0.3237
  543TMC3     H 8062   0.920   0.835  17.196 -1.0704 -1.4155  0.9120
  543TMC3    H1 8063   0.783   1.183  17.407 -1.8303 -0.6974  1.4911
  543TMC3    H2 8064   0.601   0.803  17.470 -1.6336  2.5969  0.7151
  543TMC3    C7 8065   0.595   1.060  17.535  0.1983 -0.5313 -0.0480
  543TMC3    C8 8066   0.756   0.671  17.297 -0.2606 -0.4146 -0.4991
  543TMC3    O1 8067   0.635   1.161  17.596  0.3086 -0.3604  0.1584
  543TMC3    O2 8068   0.860   0.615  17.280 -0.0764 -0.1584  0.3418
  544MPD2     C 8069   0.546   0.228  17.131 -0.5054 -0.1810  0.6876
  544MPD2    C1 8070   0.681   0.259  17.137 -0.1365 -0.0411 -0.3883
  544MPD2    C2 8071   0.709   0.383  17.192 -0.5098 -0.5134 -0.9796
  544MPD2    C3 8072   0.609   0.476  17.229  0.2178 -0.3088  0.4682
  544MPD2    C4 8073   0.477   0.439  17.207 -0.3588  0.3690 -0.5125
  544MPD2    C5 8074   0.449   0.319  17.159  0.4654 -0.2213 -0.4171
  544MPD2     H 8075   0.811   0.412  17.216 -0.9475  1.5631 -1.5775
  544MPD2    H1 8076   0.390   0.500  17.228 -1.6579 -1.2892 -1.0558
  544MPD2    H2 8077   0.520   0.131  17.091 -0.9108 -0.4911  1.6968
  544MPD2    H3 8078   0.344   0.296  17.143  0.0019  0.6437  1.3689
  544MPD2     N 8079   0.631   0.610  17.284 -0.6505 -0.0693 -0.4592
  544MPD2    H5 8080   0.550   0.672  17.288  0.3332  1.1069  0.9900
  544MPD2    N1 8081   0.779   0.162  17.112  0.0860 -0.4348 -0.4031
  544MPD2    H7 8082   0.761   0.062  17.107  2.8438 -0.9388 -0.3012
  545TMC3    C1 8083   1.002   0.095  17.057 -0.1138 -0.1607 -0.1970
  545TMC3    C2 8084   1.113   0.135  16.992  0.0974 -0.4685 -0.3497
  545TMC3    C3 8085   1.213   0.038  16.972 -1.0998  0.4027 -0.3674
  545TMC3    C4 8086   0.993   4.702  17.126 -0.3602  0.1791 -0.1698
  545TMC3    C5 8087   1.106   4.624  17.131 -0.3690 -0.6136 -0.0604
  545TMC3    C6 8088   1.213   4.640  17.048 -0.4894 -0.2232  0.4033
  545TMC3     C 8089   0.906   0.206  17.070 -0.2152 -0.4517  0.7840
  545TMC3     O 8090   0.954   0.320  17.057 -0.1932  0.9429  0.4412
  545TMC3     H 8091   1.106   0.226  16.934  0.8246 -0.3420 -0.2454
  545TMC3    H1 8092   0.909   4.670  17.186  0.8346 -1.1336  0.8258
  545TMC3    H2 8093   1.298   4.573  17.042 -0.7700 -0.5054 -0.4236
  545TMC3    C7 8094   1.108   4.500  17.209  0.2613  0.5798  0.5976
  545TMC3    C8 8095   1.334   0.076  16.915 -0.4947  0.1931 -0.5750
  545TMC3    O1 8096   1.005   4.443  17.231  0.2072 -0.0522 -0.2376
  545TMC3    O2 8097   1.411   4.707  16.881 -0.2865 -0.0502  0.1627
  546MPD2     C 8098   2.616   1.211  17.577 -0.2616  0.3645 -0.7741
  546MPD2    C1 8099   2.562   1.280  17.471  0.1786  0.4421 -0.1725
  546MPD2    C2 8100   2.622   1.395  17.425  0.1135 -0.0460  0.6179
  546MPD2    C3 8101   2.742   1.439  17.479  0.1826  0.2251 -0.4514
  546MPD2    C4 8102   2.794   1.385  17.593  0.0297  0.5967  0.6238
  546MPD2    C5 8103   2.725   1.274  17.635  0.2486 -0.0270  0.1599
  546MPD2     H 8104   2.578   1.453  17.345 -1.4139 -0.0281  1.4915
  546MPD2    H1 8105   2.890   1.420  17.629  0.9977  0.4197 -1.7295
  546MPD2    H2 8106   2.577   1.125  17.629  1.3083  0.8558  1.2445
  546MPD2    H3 8107   2.756   1.227   0.046  0.5565  2.6255  1.4046
  546MPD2     N 8108   2.806   1.556  17.425 -0.2122 -0.5070  0.2168
  546MPD2    H5 8109   2.879   1.585  17.489  1.7019 -1.6483 -1.4522
  546MPD2    N1 8110   2.447   1.219  17.420 -0.2419 -0.4520 -0.1488
  546MPD2    H7 8111   2.421   1.127  17.456  1.6746 -0.5334  1.0849
  547TMC3    C1 8112   2.252   1.174  17.293  0.0036  0.2179 -1.1067
  547TMC3    C2 8113   2.170   1.202  17.180 -0.1267 -0.3926  0.0010
  547TMC3    C3 8114   2.064   1.111  17.161  0.4013  0.6040  0.6119
  547TMC3    C4 8115   2.225   1.071  17.379  0.2168  0.1412 -0.6606
  547TMC3    C5 8116   2.121   0.989  17.354 -0.5196 -0.6078 -0.1872
  547TMC3    C6 8117   2.044   0.999  17.241  0.4523 -0.7097  0.6190
  547TMC3     C 8118   2.360   1.268  17.327  0.7448  0.6796  0.4666
  547TMC3     O 8119   2.352   1.378  17.280  0.4222  0.2645 -0.0307
  547TMC3     H 8120   2.193   1.273  17.102 -1.8799 -0.8915 -0.9606
  547TMC3    H1 8121   2.260   1.085  17.480 -1.8712 -0.2667  0.1171
  547TMC3    H2 8122   1.959   0.935  17.221 -1.1328  1.5482  0.1301
  547TMC3    C7 8123   2.079   0.897  17.460 -0.4286  0.2147 -0.4890
  547TMC3    C8 8124   1.996   1.124  17.033  0.4062  0.1253  0.4925
  547TMC3    O1 8125   2.102   0.935  17.577 -0.0955  0.2195 -0.3962
  547TMC3    O2 8126   1.947   1.230  17.001 -0.4835  0.4326 -0.1000
  548MPD2     C 8127   1.757   2.179  12.131  0.3354  0.0207  0.3264
  548MPD2    C1 8128   1.687   2.072  12.177 -0.7166  0.7260  0.3195
  548MPD2    C2 8129   1.730   1.944  12.142 -0.7685 -0.2328  0.1610
  548MPD2    C3 8130   1.846   1.916  12.079  0.1778  0.5225  0.1900
  548MPD2    C4 8131   1.911   2.026  12.034  0.0038  0.4740 -0.1831
  548MPD2    C5 8132   1.872   2.158  12.059  0.4785 -0.3539  0.0107
  548MPD2     H 8133   1.664   1.862  12.171 -0.3197 -0.0777  1.6365
  548MPD2    H1 8134   1.989   2.024  11.959  0.3490  0.0783  0.1828
  548MPD2    H2 8135   1.717   2.278  12.151  1.6506  1.1227 -2.6205
  548MPD2    H3 8136   1.915   2.237  12.000  0.3714  2.0821  3.1829
  548MPD2     N 8137   1.877   1.781  12.059  0.6512  0.4030  0.1969
  548MPD2    H5 8138   1.823   1.708  12.106 -2.0066  0.7333 -2.2986
  548MPD2    N1 8139   1.566   2.102  12.235 -0.2337  0.5086 -0.3864
  548MPD2    H7 8140   1.541   2.200  12.242 -0.7398  0.5278 -2.3318
  549TMC3    C1 8141   1.363   2.067  12.325  0.9738 -0.6050  0.1622
  549TMC3    C2 8142   1.365   2.175  12.403  0.7822 -0.7555 -0.1843
  549TMC3    C3 8143   1.246   2.213  12.467  0.3441 -0.2780 -0.8125
  549TMC3    C4 8144   1.249   1.997  12.295 -0.3587  0.6396 -0.2661
  549TMC3    C5 8145   1.137   2.036  12.355  0.0043 -0.6143  0.6855
  549TMC3    C6 8146   1.128   2.150  12.438  0.5686  0.0665 -0.7123
  549TMC3     C 8147   1.485   2.010  12.288 -0.2183 -0.4190 -0.1057
  549TMC3     O 8148   1.499   1.891  12.304 -0.1880 -0.0283  0.5061
  549TMC3     H 8149   1.459   2.219  12.434 -0.0088 -1.2715  2.9661
  549TMC3    H1 8150   1.259   1.909  12.232  0.7770  1.3043 -1.0276
  549TMC3    H2 8151   1.035   2.164  12.492  0.4847  0.9445 -1.0962
  549TMC3    C7 8152   1.015   1.967  12.320  0.3197  0.1033  0.3922
  549TMC3    C8 8153   1.229   2.349  12.491  0.5452  0.1978 -0.1241
  549TMC3    O1 8154   0.916   2.040  12.327  0.0745 -0.0702  0.5936
  549TMC3    O2 8155   1.292   2.409  12.579  0.4093  0.3416 -0.4957
  550TMC3    C1 8156   0.488   0.070  12.014  0.4719 -0.1054 -0.3148
  550TMC3    C2 8157   0.437   0.101  12.136 -0.3070 -0.4983  0.9247
  550TMC3    C3 8158   0.358   0.209  12.144  0.5987 -0.5821 -0.0673
  550TMC3    C4 8159   0.470   0.144  11.900 -0.0402  0.2975  1.1495
  550TMC3    C5 8160   0.384   0.256  11.908  0.1759  0.7681  0.7712
  550TMC3    C6 8161   0.331   0.288  12.034  0.1302  0.5011  0.1046
  550TMC3     C 8162   0.515   4.650  12.001 -0.1686  0.3642  0.1652
  550TMC3     O 8163   0.534   4.581  12.099 -0.2282 -0.3584 -0.3364
  550TMC3     H 8164   0.482   0.059  12.225  0.9856  2.9897  1.9083
  550TMC3    H1 8165   0.503   0.102  11.805 -1.1244  0.1288  0.8481
  550TMC3    H2 8166   0.272   0.378  12.049 -0.8937 -0.6403  2.8652
  550TMC3    C7 8167   0.325   0.316  11.793 -0.2925 -0.6311 -0.1616
  550TMC3    C8 8168   0.302   0.256  12.270 -0.3958 -0.4576 -0.1747
  550TMC3    O1 8169   0.215   0.374  11.812 -0.2291 -0.0797  0.4031
  550TMC3    O2 8170   0.276   0.374  12.276  0.2060  0.3756  0.2052
  551TMC3    C1 8171   2.706   2.460  12.987 -0.0447 -0.1198  0.4961
  551TMC3    C2 8172   2.812   2.461  12.905 -0.7660  0.0307 -0.2695
  551TMC3    C3 8173   2.898   2.560  12.899  0.6741 -0.2421 -0.0494
  551TMC3    C4 8174   2.682   2.556  13.080  0.0368  0.2477 -0.4294
  551TMC3    C5 8175   2.761   2.666  13.062 -0.2332  0.1683  0.5164
  551TMC3    C6 8176   2.872   2.670  12.977 -0.2087 -0.1257 -0.3631
  551TMC3     C 8177   2.612   2.357  12.965 -0.8874  0.4084  0.0254
  551TMC3     O 8178   2.656   2.270  12.891 -0.7081 -0.1808  0.8157
  551TMC3     H 8179   2.835   2.385  12.831 -1.0236 -0.2521 -0.0542
  551TMC3    H1 8180   2.607   2.559  13.158  0.7876  0.3303  0.2946
  551TMC3    H2 8181   2.954   2.741  12.980 -0.1387 -0.2460  0.7247
  551TMC3    C7 8182   2.784   2.742  13.178 -0.3459 -0.1282  0.1338
  551TMC3    C8 8183   2.976   2.570  12.776 -0.2500 -0.9568 -0.7086
  551TMC3    O1 8184   2.776   2.690  13.288 -0.2705 -0.1713 -0.3313
  551TMC3    O2 8185   3.029   2.469  12.735 -0.0731  0.2736 -0.6718
  552MPD2     C 8186   0.158   4.650  13.423  0.0620  0.8421  0.4161
  552MPD2    C1 8187   0.157   4.532  13.496 -0.7547  0.3968  0.1605
  552MPD2    C2 8188   0.252   4.520  13.597 -1.0981 -0.2902  0.8088
  552MPD2    C3 8189   0.349   4.616  13.623 -0.4262  0.2802 -0.6461
  552MPD2    C4 8190   0.349   0.013  13.553  0.1359  0.4211  0.6947
  552MPD2    C5 8191   0.246   0.033  13.462  0.4833 -0.2686  0.6439
  552MPD2     H 8192   0.254   4.419  13.637 -2.0883 -0.1405  1.2242
  552MPD2    H1 8193   0.408   0.101  13.577 -0.7305  0.8887  1.1249
  552MPD2    H2 8194   0.091   4.659  13.339  1.8819  0.3841 -1.0819
  552MPD2    H3 8195   0.240   0.133  13.420  0.8468 -0.3437  0.4109
  552MPD2     N 8196   0.454   4.598  13.708  0.4389 -0.5693 -1.4363
  552MPD2    H5 8197   0.522   4.673  13.710 -0.4741  0.2154  0.9573
  552MPD2    N1 8198   0.067   4.427  13.469  0.3171  0.6507 -0.1445
  552MPD2    H7 8199   0.085   4.337  13.514 -2.9553  0.8254  1.5046
  553TMC3    C1 8200   4.627   4.294  13.357  0.1818 -0.2279 -0.5044
  553TMC3    C2 8201   4.558   4.275  13.236  0.1239 -0.4016 -0.5005
  553TMC3    C3 8202   4.511   4.147  13.215 -0.2181  0.2037  0.4022
  553TMC3    C4 8203   4.673   4.205  13.442  0.2418  0.1697  0.5177
  553TMC3    C5 8204   4.628   4.078  13.410 -0.2067  0.3450 -0.2330
  553TMC3    C6 8205   4.553   4.049  13.303 -0.1697  0.6503  0.0070
  553TMC3     C 8206   4.684   4.426  13.377 -0.0032  0.3020  0.5159
  553TMC3     O 8207   4.628   4.515  13.321 -0.4789  0.0516 -0.1219
  553TMC3     H 8208   4.519   4.350  13.169 -0.5056  1.1259  1.5654
  553TMC3    H1 8209   4.716   4.221  13.540  0.8703 -1.4153  0.5073
  553TMC3    H2 8210   4.512   3.950  13.290  0.0196  0.6923 -0.9553
  553TMC3    C7 8211   4.654   3.970  13.506  0.1038 -1.1148  0.6379
  553TMC3    C8 8212   4.520   4.120  13.072 -0.2329  0.5604 -0.0039
  553TMC3    O1 8213   4.552   3.903  13.522 -0.2136  0.4902  0.9581
  553TMC3    O2 8214   4.545   4.217  12.994  0.1177 -0.0188  0.2475
  554TMC3    C1 8215   1.313   3.287  11.768 -0.1939 -0.4115 -0.4599
  554TMC3    C2 8216   1.203   3.310  11.682  0.5895  0.2838  0.3832
  554TMC3    C3 8217   1.183   3.430  11.621  0.6780  0.9687  0.0211
  554TMC3    C4 8218   1.395   3.391  11.794  0.3836 -0.2803 -0.0230
  554TMC3    C5 8219   1.372   3.511  11.731 -0.4186  0.9688 -0.2858
  554TMC3    C6 8220   1.263   3.533  11.647 -0.2667  0.0650 -0.3647
  554TMC3     C 8221   1.329   3.157  11.829 -0.2637  0.2000  0.2824
  554TMC3     O 8222   1.235   3.080  11.815  0.0114  0.1705 -0.8348
  554TMC3     H 8223   1.144   3.226  11.650  0.1374  1.3552 -1.6388
  554TMC3    H1 8224   1.483   3.379  11.857  1.2372 -3.7230 -1.8805
  554TMC3    H2 8225   1.257   3.626  11.592  0.6944 -2.4188 -4.7001
  554TMC3    C7 8226   1.487   3.597  11.701  0.1145  0.8677 -0.4150
  554TMC3    C8 8227   1.106   3.439  11.496  0.3226  0.0552  0.8034
  554TMC3    O1 8228   1.480   3.647  11.590  0.0364 -0.3784  0.2106
  554TMC3    O2 8229   1.150   3.516  11.411 -0.0571 -0.3924 -0.0831
  555TMC3    C1 8230   0.750   3.268  14.764 -0.0919  0.2866 -0.3170
  555TMC3    C2 8231   0.802   3.341  14.862  0.0000  0.6263  0.1630
  555TMC3    C3 8232   0.885   3.284  14.957 -0.0118 -0.1665  0.2339
  555TMC3    C4 8233   0.761   3.136  14.762 -0.5490  0.3559  0.8646
  555TMC3    C5 8234   0.849   3.081  14.851 -0.7859 -0.3032 -0.8914
  555TMC3    C6 8235   0.912   3.150  14.951 -0.2449  0.3871 -0.3051
  555TMC3     C 8236   0.784   3.310  14.628 -0.5789  0.5051 -0.3034
  555TMC3     O 8237   0.889   3.376  14.622 -0.4135 -0.2731  0.6672
  555TMC3     H 8238   0.789   3.449  14.867 -0.5277  0.6050 -0.8405
  555TMC3    H1 8239   0.707   3.076  14.689  1.1837 -3.6351  2.8381
  555TMC3    H2 8240   0.962   3.092  15.027 -1.0023  0.8031  0.5122
  555TMC3    C7 8241   0.864   2.943  14.854 -0.6726 -0.4293 -0.1869
  555TMC3    C8 8242   0.926   3.372  15.068 -0.0656  0.4120 -0.1146
  555TMC3    O1 8243   0.766   2.871  14.832  0.4763  0.2760 -0.4001
  555TMC3    O2 8244   0.865   3.477  15.084  0.6783 -0.0001 -1.1247
  556MPD2     C 8245   2.881   4.591  10.131  0.7210 -0.5878 -0.2250
  556MPD2    C1 8246   2.953   4.577  10.245  0.8774 -0.1875  0.4693
  556MPD2    C2 8247   3.052   4.488  10.255  0.0408  0.6573 -0.3756
  556MPD2    C3 8248   3.087   4.414  10.141 -0.0574 -0.7967  0.0292
  556MPD2    C4 8249   3.017   4.429  10.023  0.8612  0.1252  0.2807
  556MPD2    C5 8250   2.914   4.512  10.022  0.4764 -0.0379 -0.0828
  556MPD2     H 8251   3.110   4.483  10.346 -0.9656  0.1861  0.2479
  556MPD2    H1 8252   3.042   4.368   9.937 -1.2492  1.9403 -1.6326
  556MPD2    H2 8253   2.795   4.657  10.125 -1.8857 -3.7008  2.0918
  556MPD2    H3 8254   2.857   4.539   9.934  1.1861  0.5674 -0.3488
  556MPD2     N 8255   3.194   4.325  10.162  0.0774  0.2767  0.4326
  556MPD2    H5 8256   3.214   4.328  10.261  2.7582 -3.8008  0.0196
  556MPD2    N1 8257   2.924   4.655  10.356 -0.4426  0.6850  0.0497
  556MPD2    H7 8258   2.988   4.642  10.434  0.3960  0.3202 -0.6954
  557TMC3    C1 8259   3.371   4.168  10.134 -0.1745 -0.7121  0.0861
  557TMC3    C2 8260   3.414   4.054  10.072 -0.3688  0.0813 -0.3908
  557TMC3    C3 8261   3.515   3.986  10.129 -0.5786 -0.4496 -0.3920
  557TMC3    C4 8262   3.420   4.205  10.260 -0.1652  0.2159  0.3472
  557TMC3    C5 8263   3.516   4.130  10.309  0.0642 -0.3939 -0.0969
  557TMC3    C6 8264   3.576   4.027  10.243 -0.3075  0.4904 -0.0461
  557TMC3     C 8265   3.249   4.234  10.075 -0.5640 -0.3587 -0.1637
  557TMC3     O 8266   3.222   4.213   9.954 -0.0918  0.3244  0.3000
  557TMC3     H 8267   3.376   4.035   9.972 -1.8246 -0.9446  0.3725
  557TMC3    H1 8268   3.395   4.302  10.302 -0.7366 -0.9142  2.5624
  557TMC3    H2 8269   3.634   3.950  10.293 -1.7550  0.6258  1.8393
  557TMC3    C7 8270   3.517   4.123  10.453 -0.2720 -0.4398 -0.2758
  557TMC3    C8 8271   3.537   3.848  10.086 -0.1023 -0.2571 -0.0392
  557TMC3    O1 8272   3.526   4.016  10.504 -0.5255 -0.0393 -0.4749
  557TMC3    O2 8273   3.621   3.784  10.148  0.2351 -0.2149  0.1411
  558TMC3    C1 8274   1.832   2.005   9.654  0.0968 -0.0130 -0.4223
  558TMC3    C2 8275   1.716   2.070   9.679 -0.4971  0.1473 -0.0553
  558TMC3    C3 8276   1.613   2.030   9.603 -0.3879 -0.5548  0.5692
  558TMC3    C4 8277   1.847   1.895   9.569  0.3450 -0.1926 -0.3256
  558TMC3    C5 8278   1.739   1.863   9.493 -0.3161 -0.6342 -0.3908
  558TMC3    C6 8279   1.620   1.926   9.510 -0.2014  0.0956  0.4374
  558TMC3     C 8280   1.938   2.053   9.734 -0.5930 -0.3514 -0.1097
  558TMC3     O 8281   1.910   2.111   9.837  0.6671 -0.1532 -0.0491
  558TMC3     H 8282   1.707   2.158   9.742 -1.2779 -0.1653  0.2574
  558TMC3    H1 8283   1.932   1.829   9.567  1.9746  1.9029  0.3369
  558TMC3    H2 8284   1.527   1.898   9.461  0.4683 -2.8122  0.8373
  558TMC3    C7 8285   1.754   1.757   9.398 -0.3654 -0.2276  0.4702
  558TMC3    C8 8286   1.477   2.052   9.653  0.1417  0.0420 -0.1640
  558TMC3    O1 8287   1.865   1.723   9.366  0.3702  0.0559 -0.5610
  558TMC3    O2 8288   1.380   2.056   9.575  0.5960  0.3254  0.2288
  559MPD2     C 8289   1.326   3.145  10.552 -0.4054 -0.3945 -0.5286
  559MPD2    C1 8290   1.239   3.055  10.612  0.4017  0.0770 -0.7216
  559MPD2    C2 8291   1.267   3.014  10.740 -0.3681  1.0120 -0.0760
  559MPD2    C3 8292   1.385   3.056  10.806 -0.6526 -0.0851 -0.4115
  559MPD2    C4 8293   1.477   3.134  10.740  0.3993 -0.1255 -0.7774
  559MPD2    C5 8294   1.444   3.186  10.614  0.4503  0.4999  0.3204
  559MPD2     H 8295   1.199   2.950  10.796  0.1139  2.3466  2.0381
  559MPD2    H1 8296   1.570   3.165  10.785  0.2372  0.1051 -0.6022
  559MPD2    H2 8297   1.306   3.182  10.452  1.1059  1.9604  0.0278
  559MPD2    H3 8298   1.513   3.253  10.564  1.5128  1.2285  2.7790
  559MPD2     N 8299   1.420   3.003  10.932  0.3976 -0.3063  0.3175
  559MPD2    H5 8300   1.345   2.945  10.968 -0.3552  1.2992  1.3345
  559MPD2    N1 8301   1.124   3.021  10.545  0.1844 -0.5064 -0.6341
  559MPD2    H7 8302   1.110   3.069  10.457 -0.5334 -0.0110 -0.2543
  560TMC3    C1 8303   1.528   2.942  11.135 -0.2249  0.2065  0.1064
  560TMC3    C2 8304   1.515   2.807  11.098 -0.7440 -0.1591  0.3376
  560TMC3    C3 8305   1.598   2.707  11.140  0.5110 -0.2991  0.5177
  560TMC3    C4 8306   1.645   2.969  11.209 -0.2062  0.6424 -0.2377
  560TMC3    C5 8307   1.724   2.862  11.247  1.3189  0.4377 -0.0964
  560TMC3    C6 8308   1.702   2.727  11.225 -0.4418  0.2694  0.8115
  560TMC3     C 8309   1.531   3.019  11.010 -0.9996  0.7652  0.4175
  560TMC3     O 8310   1.640   3.078  10.990 -0.1931  0.4603  0.2201
  560TMC3     H 8311   1.424   2.774  11.048 -0.2978  0.8882 -1.1834
  560TMC3    H1 8312   1.681   3.070  11.229 -0.1542  0.7499 -0.8826
  560TMC3    H2 8313   1.781   2.657  11.249 -1.6055 -1.2604  0.2570
  560TMC3    C7 8314   1.837   2.904  11.329 -0.0427 -0.5692 -0.5625
  560TMC3    C8 8315   1.590   2.582  11.067  0.2828 -0.0553 -0.4579
  560TMC3    O1 8316   1.816   2.984  11.421 -0.4217 -0.1161 -0.4756
  560TMC3    O2 8317   1.510   2.574  10.977  0.2040 -0.9186 -0.0023
  561TMC3    C1 8318   4.121   1.940  10.721  0.2405  0.0711  0.4143
  561TMC3    C2 8319   4.158   1.912  10.848  0.1959  0.4641  0.5941
  561TMC3    C3 8320   4.073   1.968  10.941  0.7935  0.2518  0.1744
  561TMC3    C4 8321   4.019   2.027  10.692 -0.4056  0.3392  0.0710
  561TMC3    C5 8322   3.959   2.096  10.793 -0.1267 -0.6779  0.1019
  561TMC3    C6 8323   3.977   2.062  10.917  0.3963 -0.1190 -0.2878
  561TMC3     C 8324   4.189   1.877  10.607  0.6304  0.0454 -1.0711
  561TMC3     O 8325   4.138   1.884  10.497  0.1067  0.3283 -0.2462
  561TMC3     H 8326   4.237   1.841  10.872  0.2268  0.8878  1.7520
  561TMC3    H1 8327   3.997   2.049  10.589 -0.5774  0.3687  0.1141
  561TMC3    H2 8328   3.919   2.114  10.993  0.1489 -2.4420  1.1030
  561TMC3    C7 8329   3.906   2.226  10.768  0.8793 -0.4851 -0.9660
  561TMC3    C8 8330   4.084   1.908  11.074 -0.2635 -0.3135  0.3526
  561TMC3    O1 8331   3.843   2.277  10.862  0.8188 -0.3263 -0.0670
  561TMC3    O2 8332   4.181   1.830  11.088  0.3491 -0.3153 -0.9147
  562TMC3    C1 8333   0.846   3.440  15.736 -0.1620  0.9891 -0.2152
  562TMC3    C2 8334   0.715   3.488  15.763  0.0517 -0.2627 -0.3372
  562TMC3    C3 8335   0.629   3.468  15.660 -0.2569  0.2041 -1.1911
  562TMC3    C4 8336   0.877   3.366  15.624 -0.3592 -0.4371  0.4441
  562TMC3    C5 8337   0.777   3.350  15.532  0.0587  0.0665  0.6409
  562TMC3    C6 8338   0.658   3.399  15.546 -0.2184  0.4838 -0.1974
  562TMC3     C 8339   0.935   3.426  15.848  0.2196 -0.4102 -0.2392
  562TMC3     O 8340   1.038   3.367  15.820 -0.0681 -0.2412 -0.3856
  562TMC3     H 8341   0.691   3.541  15.854  0.2804 -2.3397  0.9212
  562TMC3    H1 8342   0.977   3.327  15.613 -1.2030 -2.3691 -0.5091
  562TMC3    H2 8343   0.590   3.403  15.462 -0.1170  0.2032 -0.2916
  562TMC3    C7 8344   0.793   3.252  15.427 -0.3663  0.0151  0.1665
  562TMC3    C8 8345   0.502   3.539  15.657 -0.9688 -0.0973  0.0128
  562TMC3    O1 8346   0.717   3.253  15.334 -0.2651 -0.3215  0.8389
  562TMC3    O2 8347   0.447   3.551  15.764  0.1205 -0.8420  0.0085
  563MPD2     C 8348   3.276   0.191  15.426  0.6181  0.7055 -0.1735
  563MPD2    C1 8349   3.215   0.095  15.501  0.3883 -0.3505 -0.0101
  563MPD2    C2 8350   3.253   4.687  15.493  0.1217 -0.1169 -0.3110
  563MPD2    C3 8351   3.360   4.649  15.409  0.2404 -0.9794  0.1587
  563MPD2    C4 8352   3.423   0.028  15.339  0.1617  0.6267  0.1768
  563MPD2    C5 8353   3.376   0.160  15.335 -0.3803  0.4487  0.0540
  563MPD2     H 8354   3.222   4.603  15.553 -0.6745 -0.6560 -1.4735
  563MPD2    H1 8355   3.493   4.714  15.263 -1.9841 -0.2210 -1.4276
  563MPD2    H2 8356   3.245   0.294  15.436  0.8828  0.7956 -0.2743
  563MPD2    H3 8357   3.423   0.244  15.285  0.7245  0.3611  0.9459
  563MPD2     N 8358   3.395   4.522  15.416  0.6112  0.4866 -0.0747
  563MPD2    H5 8359   3.321   4.462  15.453  2.3089 -0.4988  1.7192
  563MPD2    N1 8360   3.119   0.151  15.589  1.1436  0.1939 -0.5153
  563MPD2    H7 8361   3.103   0.250  15.604  0.8989 -0.2221  1.8495
  564TMC3    C1 8362   2.972   0.141  15.778  0.6563 -0.4562 -0.0579
  564TMC3    C2 8363   2.841   0.103  15.780  0.0644  0.1268 -0.1673
  564TMC3    C3 8364   2.791   0.066  15.905 -0.1189 -1.1072 -0.4488
  564TMC3    C4 8365   3.057   0.124  15.879  0.0467 -0.3664  0.0215
  564TMC3    C5 8366   3.002   0.101  16.006  0.1897  0.1997 -0.6841
  564TMC3    C6 8367   2.869   0.078  16.016  1.0111 -0.3316 -0.0813
  564TMC3     C 8368   3.041   0.073  15.670  0.0960 -0.2038 -0.3233
  564TMC3     O 8369   3.047   4.677  15.699 -0.1229  0.5038 -0.5465
  564TMC3     H 8370   2.788   0.096  15.686  1.0605 -0.6281 -0.6764
  564TMC3    H1 8371   3.165   0.131  15.868 -0.1788 -0.3353 -2.0727
  564TMC3    H2 8372   2.830   0.059  16.116 -1.7716 -0.6373 -1.2286
  564TMC3    C7 8373   3.063   4.699  16.059  0.6102 -0.5319 -0.2550
  564TMC3    C8 8374   2.724   4.663  15.906 -0.1245  0.6709 -0.0836
  564TMC3    O1 8375   3.061   4.690  16.180  0.1333  0.4947  0.2726
  564TMC3    O2 8376   2.732   4.602  16.013 -0.7233 -0.1031 -0.1582
  565TMC3    C1 8377   2.808   0.752   9.877  0.2881 -0.2279  0.1886
  565TMC3    C2 8378   2.833   0.715  10.008  0.3145 -1.0088 -0.2724
  565TMC3    C3 8379   2.769   0.601  10.045 -0.1216 -0.7302  0.0918
  565TMC3    C4 8380   2.739   0.674   9.786  0.7308 -0.2235 -0.4460
  565TMC3    C5 8381   2.710   0.544   9.828 -0.8304  0.1100 -0.4630
  565TMC3    C6 8382   2.711   0.507   9.960  0.0371  0.4221 -0.5806
  565TMC3     C 8383   2.884   0.862   9.811 -0.1576  0.4290 -0.4988
  565TMC3     O 8384   2.827   0.912   9.717  0.0724 -0.2345  0.3501
  565TMC3     H 8385   2.889   0.769  10.084 -1.9383 -0.3434  0.9099
  565TMC3    H1 8386   2.724   0.710   9.684 -0.7424 -0.4600 -0.3064
  565TMC3    H2 8387   2.717   0.402   9.983  0.3651  0.8378  1.2949
  565TMC3    C7 8388   2.704   0.439   9.729 -0.3973  0.7064  0.1231
  565TMC3    C8 8389   2.793   0.562  10.177 -0.6163  0.1895  0.1378
  565TMC3    O1 8390   2.678   0.323   9.761  0.3202  0.6129 -0.2205
  565TMC3    O2 8391   2.889   0.603  10.240 -0.2133 -0.2839  0.6260
  566MPD2     C 8392   0.046   3.008  14.175  0.2360  1.1171  0.1103
  566MPD2    C1 8393   0.112   3.059  14.065  0.4823  0.8522  0.6004
  566MPD2    C2 8394   0.051   3.038  13.944 -0.0608  0.5698  0.7118
  566MPD2    C3 8395   4.656   2.959  13.931 -0.5744 -0.3425  0.4252
  566MPD2    C4 8396   4.600   2.896  14.040 -0.3411  0.6364 -0.3118
  566MPD2    C5 8397   4.654   2.923  14.166  0.3614  0.3559  0.3070
  566MPD2     H 8398   0.098   3.080  13.856 -0.0215  1.3605  1.1123
  566MPD2    H1 8399   4.506   2.845  14.027  0.1604 -0.1866 -0.7042
  566MPD2    H2 8400   0.094   3.029  14.270  1.7425 -1.1838 -0.1276
  566MPD2    H3 8401   4.616   2.877  14.256 -0.7095  1.4122  0.3850
  566MPD2     N 8402   4.591   2.934  13.811  0.1096 -0.1904  0.2890
  566MPD2    H5 8403   4.522   2.860  13.809  0.3519 -0.3983 -0.2753
  566MPD2    N1 8404   0.217   3.149  14.085  0.2587  0.3534 -0.9053
  566MPD2    H7 8405   0.263   3.139  14.175 -2.4428  0.4139  0.4865
  567TMC3    C1 8406   0.408   3.267  14.005 -0.6140 -0.2047 -0.0853
  567TMC3    C2 8407   0.459   3.354  13.913  0.1813  0.5193  0.1812
  567TMC3    C3 8408   0.595   3.364  13.902 -0.8403 -0.0155 -0.4225
  567TMC3    C4 8409   0.487   3.207  14.103  0.0073 -0.1771  0.1264
  567TMC3    C5 8410   0.620   3.235  14.094 -0.0883  0.7003 -0.3415
  567TMC3    C6 8411   0.678   3.311  13.998 -0.7710  0.4842 -0.5175
  567TMC3     C 8412   0.271   3.235  13.988  0.0451 -0.5004 -0.4113
  567TMC3     O 8413   0.222   3.261  13.879  0.1671  0.4675  0.3234
  567TMC3     H 8414   0.391   3.391  13.837 -0.6873 -1.8435 -0.2029
  567TMC3    H1 8415   0.445   3.145  14.182  0.4469  1.4768  1.6463
  567TMC3    H2 8416   0.785   3.326  14.006 -0.4699 -2.8736  1.4416
  567TMC3    C7 8417   0.713   3.169  14.187 -0.6968  0.2016 -0.0947
  567TMC3    C8 8418   0.652   3.458  13.809  0.0441 -0.3004 -0.5727
  567TMC3    O1 8419   0.835   3.181  14.172  0.0884  0.4171  0.2105
  567TMC3    O2 8420   0.743   3.525  13.861  0.3717  0.0220  0.2897
  568MPD2     C 8421   2.754   3.109  16.293  1.0935 -0.0043  0.1716
  568MPD2    C1 8422   2.831   3.199  16.365 -0.1946  0.6046 -0.7919
  568MPD2    C2 8423   2.824   3.337  16.338  0.3669  0.7015 -0.2092
  568MPD2    C3 8424   2.736   3.383  16.241 -0.4888 -0.2529  0.0171
  568MPD2    C4 8425   2.653   3.292  16.175 -0.3383 -0.4742  0.0391
  568MPD2    C5 8426   2.670   3.159  16.201  0.6349 -0.4233 -0.5486
  568MPD2     H 8427   2.892   3.407  16.386 -0.4395  1.4171 -0.1060
  568MPD2    H1 8428   2.564   3.319  16.119 -0.1307  0.9661  0.4010
  568MPD2    H2 8429   2.762   3.002  16.309  3.2394  0.5387  2.6444
  568MPD2    H3 8430   2.605   3.090  16.148 -0.1071  0.8446 -1.2777
  568MPD2     N 8431   2.734   3.522  16.227 -0.1374  0.1527  0.2897
  568MPD2    H5 8432   2.795   3.580  16.284  0.4976  0.3391 -0.5744
  568MPD2    N1 8433   2.925   3.145  16.460  0.5192  0.2195  0.0936
  568MPD2    H7 8434   2.933   3.044  16.467 -2.1224 -0.0598 -0.9676
  569TMC3    C1 8435   2.672   3.728  16.134 -0.0484 -0.4354 -0.6521
  569TMC3    C2 8436   2.662   3.779  16.260 -0.4711 -0.1576 -0.1875
  569TMC3    C3 8437   2.668   3.916  16.266  0.1658 -0.3001  0.1276
  569TMC3    C4 8438   2.663   3.797  16.021 -0.8828  0.1811 -0.6944
  569TMC3    C5 8439   2.670   3.931  16.034 -0.3219  0.3548  0.0736
  569TMC3    C6 8440   2.672   3.998  16.155  0.2471 -0.2035  0.1128
  569TMC3     C 8441   2.670   3.586  16.118 -0.1497  0.7287  0.3594
  569TMC3     O 8442   2.633   3.539  16.009  0.2486  0.3050  0.1841
  569TMC3     H 8443   2.670   3.724  16.353  1.0349  0.9517  0.3432
  569TMC3    H1 8444   2.686   3.750  15.926  0.2419  1.9073 -1.2744
  569TMC3    H2 8445   2.661   4.106  16.159  1.7962  0.0188 -1.7291
  569TMC3    C7 8446   2.668   4.011  15.908 -0.3465  0.7609 -0.0300
  569TMC3    C8 8447   2.684   3.968  16.401  0.1079  0.0983 -0.1219
  569TMC3    O1 8448   2.642   3.939  15.813 -0.2121  0.4173 -0.6196
  569TMC3    O2 8449   2.657   3.893  16.489 -0.5592 -0.4407  0.7074
  570TMC3    C1 8450   2.424   2.169  16.225  0.0577  0.0386  0.0141
  570TMC3    C2 8451   2.425   2.189  16.086  0.2990 -0.0342 -0.0737
  570TMC3    C3 8452   2.458   2.315  16.039 -0.1476  0.7410 -0.0310
  570TMC3    C4 8453   2.441   2.273  16.313  0.4014  0.1433  0.7787
  570TMC3    C5 8454   2.478   2.393  16.255 -0.4868 -0.7497 -0.0446
  570TMC3    C6 8455   2.492   2.418  16.126  0.3920  0.1936  0.5536
  570TMC3     C 8456   2.387   2.037  16.273  0.6610  0.6405  0.1057
  570TMC3     O 8457   2.374   1.941  16.196 -0.2863 -0.2585  0.2010
  570TMC3     H 8458   2.414   2.106  16.017 -0.6996 -1.9945  2.4533
  570TMC3    H1 8459   2.423   2.272  16.419  3.2103 -0.6583  1.2570
  570TMC3    H2 8460   2.521   2.517  16.092  1.5966 -0.3940 -0.1334
  570TMC3    C7 8461   2.468   2.505  16.347  0.4799 -0.6175  0.4916
  570TMC3    C8 8462   2.462   2.347  15.893  0.7785  0.7590 -0.6017
  570TMC3    O1 8463   2.497   2.490  16.467  0.0353  0.2016  0.0704
  570TMC3    O2 8464   2.513   2.449  15.864 -0.0962 -0.3293 -0.6783
  571MPD2     C 8465   1.350   4.113  16.827  0.0129  0.0702  0.5778
  571MPD2    C1 8466   1.238   4.063  16.770 -0.2373  0.7169 -0.2170
  571MPD2    C2 8467   1.108   4.100  16.814 -0.7097 -0.5289 -0.3294
  571MPD2    C3 8468   1.105   4.179  16.926 -0.3453 -0.1920 -0.0129
  571MPD2    C4 8469   1.217   4.212  16.994  0.4643  0.0594 -0.1848
  571MPD2    C5 8470   1.344   4.181  16.944  0.3955 -0.1548  0.1859
  571MPD2     H 8471   1.022   4.063  16.760  0.0121 -1.9336 -0.5351
  571MPD2    H1 8472   1.216   4.269  17.086  0.6678 -1.0766  0.5077
  571MPD2    H2 8473   1.450   4.082  16.799 -0.9040 -2.7296  0.3388
  571MPD2    H3 8474   1.436   4.216  16.990 -0.0491 -0.3917  1.2649
  571MPD2     N 8475   0.989   4.209  16.997  0.3200 -0.0496 -0.0066
  571MPD2    H5 8476   1.005   4.280  17.068 -0.5903 -0.2343  0.3868
  571MPD2    N1 8477   1.255   3.991  16.646  0.0952  0.2368 -0.9225
  571MPD2    H7 8478   1.348   3.983  16.608 -0.4042 -0.0733 -2.0723
  572TMC3    C1 8479   0.760   4.187  17.084  0.0736 -0.2591  0.1964
  572TMC3    C2 8480   0.675   4.080  17.100 -0.8161 -0.1074  0.3635
  572TMC3    C3 8481   0.604   4.078  17.218 -0.2122  0.4667  0.3942
  572TMC3    C4 8482   0.767   4.296  17.165  0.8591 -0.5503 -0.0706
  572TMC3    C5 8483   0.674   4.293  17.265  0.7092  0.4072 -0.2737
  572TMC3    C6 8484   0.594   4.189  17.299 -0.3386  0.1589 -0.5175
  572TMC3     C 8485   0.858   4.168  16.974 -0.3529 -0.5689  0.3584
  572TMC3     O 8486   0.814   4.111  16.876  0.7958  0.2986 -0.5847
  572TMC3     H 8487   0.714   3.999  17.040 -0.7423  0.9999 -1.0915
  572TMC3    H1 8488   0.825   4.382  17.135  0.2112 -0.9759 -2.5062
  572TMC3    H2 8489   0.528   4.200  17.384  0.9615  1.8653  0.2570
  572TMC3    C7 8490   0.638   4.420  17.328  0.1296  0.2185 -0.9211
  572TMC3    C8 8491   0.522   3.955  17.234  0.5281 -0.5541 -1.0648
  572TMC3    O1 8492   0.544   4.422  17.400  0.3932  0.6988  0.4759
  572TMC3    O2 8493   0.522   3.877  17.137 -0.2080  0.3161 -0.0622
  573MPD2     C 8494   1.893   4.260   0.923  0.0551  0.3663  0.1388
  573MPD2    C1 8495   1.921   4.386   0.877 -0.4717  0.3518 -0.2630
  573MPD2    C2 8496   1.916   4.411   0.742  0.3356 -0.4394  0.3256
  573MPD2    C3 8497   1.854   4.325   0.653  0.2914  0.5715  0.0443
  573MPD2    C4 8498   1.827   4.200   0.703 -0.3787 -0.3741 -0.5614
  573MPD2    C5 8499   1.829   4.172   0.835 -0.0660  0.0531 -0.2214
  573MPD2     H 8500   1.951   4.507   0.705 -0.1283  0.4751  2.2435
  573MPD2    H1 8501   1.785   4.115   0.649  0.1592 -1.8433  1.3215
  573MPD2    H2 8502   1.914   4.233   1.026  3.3980 -0.0244 -0.6314
  573MPD2    H3 8503   1.804   4.073   0.870 -1.0896  0.0584 -0.9624
  573MPD2     N 8504   1.840   4.349   0.515 -0.4763  0.0958  0.0037
  573MPD2    H5 8505   1.800   4.268   0.469 -0.7678  1.4696 -2.1524
  573MPD2    N1 8506   1.977   4.476   0.965  0.1433 -0.2765  0.1409
  573MPD2    H7 8507   2.004   4.437   1.055  0.6926  0.1860  0.1739
  574TMC3    C1 8508   1.854   4.449   0.303  0.4293 -0.0468 -0.0998
  574TMC3    C2 8509   1.733   4.391   0.257  0.5155  0.0654 -0.0261
  574TMC3    C3 8510   1.703   4.419   0.126 -0.3168  0.4227  0.2540
  574TMC3    C4 8511   1.935   4.523   0.223 -0.3659  0.4253 -0.0099
  574TMC3    C5 8512   1.899   4.550   0.093 -0.4289  0.4061  0.3814
  574TMC3    C6 8513   1.777   4.505   0.046 -0.7656  0.3006  0.9785
  574TMC3     C 8514   1.875   4.462   0.449  0.1095 -0.5051 -0.6564
  574TMC3     O 8515   1.940   4.561   0.487  0.0072  0.3862 -0.1578
  574TMC3     H 8516   1.657   4.349   0.322  0.4836  1.1566  0.6443
  574TMC3    H1 8517   2.019   4.583   0.256  0.0061  0.1315 -0.4169
  574TMC3    H2 8518   1.762   4.521  17.622 -0.7820  0.0456  0.9408
  574TMC3    C7 8519   1.944   4.679   0.040 -0.3497 -0.2042  0.0465
  574TMC3    C8 8520   1.572   4.375   0.087 -0.1544  0.5305 -0.2739
  574TMC3    O1 8521   1.855   0.031   0.006  0.4681 -0.0716 -0.3732
  574TMC3    O2 8522   1.505   4.303   0.161  0.8316  0.6900 -0.1310
  575TMC3    C1 8523   3.040   0.529  11.021 -0.3101  0.7075 -0.3883
  575TMC3    C2 8524   3.003   0.434  11.107  1.5780  0.0723  0.8282
  575TMC3    C3 8525   2.916   0.339  11.071 -0.2063 -0.1301  0.1031
  575TMC3    C4 8526   2.994   0.534  10.890 -0.4615  0.2732  0.2499
  575TMC3    C5 8527   2.894   0.448  10.855  0.3222  0.2694  0.4776
  575TMC3    C6 8528   2.850   0.345  10.944 -0.3023  0.3509 -0.7542
  575TMC3     C 8529   3.127   0.633  11.065  0.1258  0.2613 -0.2584
  575TMC3     O 8530   3.136   0.641  11.187  0.5383  0.0290 -0.6913
  575TMC3     H 8531   3.065   0.426  11.196  1.2066  0.9530  1.1699
  575TMC3    H1 8532   3.024   0.614  10.822 -0.3011  0.8449  0.9935
  575TMC3    H2 8533   2.789   0.259  10.921 -0.5104  0.2088  0.3389
  575TMC3    C7 8534   2.848   0.451  10.721 -0.5642 -0.0896 -0.4397
  575TMC3    C8 8535   2.878   0.221  11.153 -0.4034  0.0391  0.0807
  575TMC3    O1 8536   2.921   0.499  10.639 -0.2949  0.2826 -0.2868
  575TMC3    O2 8537   2.822   0.134  11.092 -0.1636 -0.3632 -0.2279
  576MPD2     C 8538   3.151   1.994  12.256 -0.6938 -0.4364  0.5785
  576MPD2    C1 8539   3.137   2.086  12.155 -0.1339 -0.5637  0.6348
  576MPD2    C2 8540   3.055   2.197  12.170 -0.0989  0.0892  1.0828
  576MPD2    C3 8541   2.987   2.223  12.283 -0.5014  0.4955 -0.0407
  576MPD2    C4 8542   3.004   2.129  12.382 -0.0664  0.4815  0.1141
  576MPD2    C5 8543   3.076   2.018  12.373 -0.6178 -0.0035  0.3778
  576MPD2     H 8544   3.038   2.263  12.085 -0.7522 -1.3937  0.0684
  576MPD2    H1 8545   2.953   2.155  12.475 -2.2125  1.0604 -1.2169
  576MPD2    H2 8546   3.218   1.909  12.248  0.5506  0.6472 -0.6142
  576MPD2    H3 8547   3.082   1.950  12.458  0.4065  0.1825  0.4587
  576MPD2     N 8548   2.911   2.345  12.292 -0.7342  0.4111  0.1240
  576MPD2    H5 8549   2.923   2.411  12.216  0.1760  0.6315  0.4643
  576MPD2    N1 8550   3.195   2.064  12.031  0.5120  0.1684 -0.3117
  576MPD2    H7 8551   3.172   2.137  11.963  0.7253 -0.6277 -1.2338
  577TMC3    C1 8552   3.348   1.994  11.857 -0.0657  0.1966  0.5256
  577TMC3    C2 8553   3.471   1.925  11.821  0.2424 -0.5662 -0.4293
  577TMC3    C3 8554   3.517   1.948  11.694 -0.5954 -0.1916 -0.2071
  577TMC3    C4 8555   3.274   2.071  11.765  0.2368 -0.3250  0.6470
  577TMC3    C5 8556   3.329   2.084  11.636 -0.2599  0.3503  0.4565
  577TMC3    C6 8557   3.440   2.018  11.605 -0.2876  0.3196 -0.8961
  577TMC3     C 8558   3.289   1.961  11.991  0.9074 -0.5251 -0.3570
  577TMC3     O 8559   3.350   1.885  12.061  0.3493 -0.0762  0.1971
  577TMC3     H 8560   3.528   1.869  11.894 -2.3341 -3.1440 -0.3921
  577TMC3    H1 8561   3.178   2.112  11.795 -0.5060 -1.4221 -0.2367
  577TMC3    H2 8562   3.466   2.002  11.501 -0.9778  1.2660 -1.2180
  577TMC3    C7 8563   3.250   2.132  11.522  0.9576  0.2631  0.1033
  577TMC3    C8 8564   3.632   1.873  11.648  0.1467 -0.8260  0.0961
  577TMC3    O1 8565   3.318   2.156  11.420 -0.3496  0.4919 -0.0553
  577TMC3    O2 8566   3.660   1.775  11.717  0.2191  0.2778 -0.3038
  578MPD2     C 8567   2.475   2.551   1.512  0.0646  0.4634  0.5644
  578MPD2    C1 8568   2.570   2.516   1.418 -0.3418  0.6353 -0.2985
  578MPD2    C2 8569   2.612   2.381   1.417 -1.0994 -0.7442  0.4559
  578MPD2    C3 8570   2.560   2.272   1.483  0.9499  0.4405  0.1933
  578MPD2    C4 8571   2.460   2.314   1.575 -0.7686  0.3376  0.1411
  578MPD2    C5 8572   2.419   2.450   1.586  0.3791  0.2004 -0.1339
  578MPD2     H 8573   2.695   2.361   1.350 -0.3026  0.4992  1.0632
  578MPD2    H1 8574   2.427   2.250   1.656  0.4163  0.2494  0.5475
  578MPD2    H2 8575   2.437   2.651   1.529 -2.2525 -0.4120  0.4881
  578MPD2    H3 8576   2.348   2.480   1.662 -1.0760 -0.1716 -1.3462
  578MPD2     N 8577   2.607   2.140   1.474 -0.4320 -0.4002  0.3872
  578MPD2    H5 8578   2.687   2.122   1.414 -0.3538 -0.7757  0.6014
  578MPD2    N1 8579   2.622   2.626   1.341  0.1352  0.2209 -0.1499
  578MPD2    H7 8580   2.569   2.711   1.358  2.3902  1.1814  1.9954
  579TMC3    C1 8581   2.594   1.913   1.486 -0.2354  0.0618 -0.1855
  579TMC3    C2 8582   2.725   1.906   1.455  0.8320 -1.1454  0.5009
  579TMC3    C3 8583   2.765   1.802   1.381 -0.2349 -0.2808  0.5419
  579TMC3    C4 8584   2.504   1.822   1.439 -0.0419 -0.0732 -0.3014
  579TMC3    C5 8585   2.546   1.724   1.359  0.0976 -0.2205 -0.3434
  579TMC3    C6 8586   2.679   1.713   1.331  0.2818 -0.1642  0.4207
  579TMC3     C 8587   2.535   2.038   1.528  0.5267 -1.0018 -0.2407
  579TMC3     O 8588   2.418   2.037   1.565  0.0191  0.1768 -0.5799
  579TMC3     H 8589   2.789   1.979   1.502 -0.3844  0.7254 -0.7453
  579TMC3    H1 8590   2.401   1.856   1.435  0.4088  1.4410  0.7875
  579TMC3    H2 8591   2.714   1.635   1.264 -1.6836  1.3828 -2.4059
  579TMC3    C7 8592   2.469   1.715   1.242  0.7871 -0.7230  0.4668
  579TMC3    C8 8593   2.906   1.772   1.347  0.1285 -0.2163  0.4523
  579TMC3    O1 8594   2.521   1.752   1.137 -0.0769 -0.2520 -0.4381
  579TMC3    O2 8595   2.941   1.658   1.346  0.4618 -0.1015 -0.6757
  580TMC3    C1 8596   0.722   1.556  11.453  0.2494  0.2039 -0.1662
  580TMC3    C2 8597   0.766   1.487  11.336 -0.1145  0.0678 -0.4779
  580TMC3    C3 8598   0.755   1.349  11.337  0.1057  0.1071  0.2434
  580TMC3    C4 8599   0.673   1.488  11.559  0.1124 -0.3548 -0.5753
  580TMC3    C5 8600   0.668   1.351  11.557  0.4160  0.1261 -0.0076
  580TMC3    C6 8601   0.717   1.275  11.445 -0.0961 -0.4247 -0.1155
  580TMC3     C 8602   0.708   1.700  11.441 -0.2724  0.1239  0.8411
  580TMC3     O 8603   0.729   1.752  11.334 -0.1058  0.0275 -0.3065
  580TMC3     H 8604   0.780   1.543  11.244  1.8017  0.0643 -0.1903
  580TMC3    H1 8605   0.621   1.531  11.644 -0.1484  0.0963 -0.9628
  580TMC3    H2 8606   0.731   1.167  11.442  3.6203  0.0837 -0.6010
  580TMC3    C7 8607   0.639   1.281  11.688  0.0449  1.1204 -0.2047
  580TMC3    C8 8608   0.838   1.270  11.246 -0.4463 -0.1966 -0.5357
  580TMC3    O1 8609   0.631   1.350  11.792  0.4654  0.7224  0.0087
  580TMC3    O2 8610   0.785   1.167  11.206  0.2399  0.5771  0.8537
  581MPD2     C 8611   4.351   1.013  14.713 -0.1855  0.5612 -0.5248
  581MPD2    C1 8612   4.217   1.000  14.728  0.0796 -0.0417  0.4238
  581MPD2    C2 8613   4.132   1.059  14.638  0.1158  0.0132 -0.3735
  581MPD2    C3 8614   4.166   1.156  14.555  0.0095 -0.5631  0.2200
  581MPD2    C4 8615   4.300   1.183  14.546  0.2808 -0.1644 -0.4758
  581MPD2    C5 8616   4.397   1.105  14.619 -0.1662 -0.0842 -0.3742
  581MPD2     H 8617   4.025   1.043  14.642  0.7802 -4.2391 -0.1129
  581MPD2    H1 8618   4.332   1.254  14.471  0.8832  1.7585  1.6224
  581MPD2    H2 8619   4.429   0.955  14.759  0.4979  1.6914 -0.2482
  581MPD2    H3 8620   4.502   1.109  14.590  0.1822 -1.0814  0.7557
  581MPD2     N 8621   4.067   1.225  14.483 -0.0106  0.8912  0.6578
  581MPD2    H5 8622   3.970   1.216  14.511  0.3138  0.5401  1.6616
  581MPD2    N1 8623   4.169   0.886  14.801  0.3559 -0.1610  0.4460
  581MPD2    H7 8624   4.237   0.844  14.864 -0.6739  1.9594  2.9745
  582TMC3    C1 8625   4.047   0.709  14.874 -0.2309 -0.3320  0.6306
  582TMC3    C2 8626   4.116   0.718  14.994 -0.3005  0.1898  0.0044
  582TMC3    C3 8627   4.107   0.601  15.077 -1.0201 -0.2650  0.3363
  582TMC3    C4 8628   3.959   0.613  14.843  0.8709 -0.1078  0.4490
  582TMC3    C5 8629   3.947   0.508  14.926  0.1909 -0.2734 -0.7816
  582TMC3    C6 8630   4.031   0.491  15.037  0.4628 -0.7080 -0.1018
  582TMC3     C 8631   4.059   0.810  14.774 -0.1093  0.5471  0.6652
  582TMC3     O 8632   3.977   0.820  14.681  0.0262  0.4684  0.3982
  582TMC3     H 8633   4.153   0.812  15.033  1.5796  0.2149 -1.8069
  582TMC3    H1 8634   3.902   0.616  14.750 -1.3018  0.4342  1.7844
  582TMC3    H2 8635   4.034   0.395  15.087 -0.8888 -0.6369  0.1093
  582TMC3    C7 8636   3.804   0.483  14.960  0.4353  0.0346 -0.6616
  582TMC3    C8 8637   4.113   0.628  15.222  0.6408 -0.0477 -0.3079
  582TMC3    O1 8638   3.717   0.554  14.911  0.9990 -0.2949 -0.6241
  582TMC3    O2 8639   4.114   0.747  15.255  0.1457 -0.4592  0.0507
  583MPD2     C 8640   4.335   2.750  16.828  0.0088  1.1454 -1.1952
  583MPD2    C1 8641   4.252   2.828  16.753  0.0776 -0.4892 -0.4797
  583MPD2    C2 8642   4.165   2.906  16.824  1.0599  0.7213 -1.0498
  583MPD2    C3 8643   4.165   2.919  16.958  1.0147 -0.2848 -0.6752
  583MPD2    C4 8644   4.255   2.845  17.034 -0.6590 -0.0806  0.1358
  583MPD2    C5 8645   4.331   2.752  16.964 -0.0398 -0.3530  0.6694
  583MPD2     H 8646   4.089   2.968  16.777  0.2124 -0.3538 -1.1149
  583MPD2    H1 8647   4.266   2.857  17.142 -1.2341  3.3747 -0.2100
  583MPD2    H2 8648   4.407   2.684  16.782 -0.9452 -0.6027 -0.1996
  583MPD2    H3 8649   4.407   2.695  17.015  1.6209  1.6370  0.4544
  583MPD2     N 8650   4.073   3.012  17.015 -0.5450 -0.1244  0.5453
  583MPD2    H5 8651   4.008   3.062  16.954  1.4878  1.1503 -0.5683
  583MPD2    N1 8652   4.249   2.831  16.610  0.6785  0.4134  0.6932
  583MPD2    H7 8653   4.184   2.891  16.560  0.8692 -1.1815 -1.4535
  584TMC3    C1 8654   3.960   3.130  17.188  0.6456  0.0715  0.5053
  584TMC3    C2 8655   3.912   3.222  17.101 -0.2285 -0.5821  0.1740
  584TMC3    C3 8656   3.869   3.341  17.153  0.2939 -0.1102  0.0495
  584TMC3    C4 8657   3.958   3.147  17.324 -0.1624 -0.5490 -0.2809
  584TMC3    C5 8658   3.908   3.267  17.367 -0.2717  0.6060 -0.1296
  584TMC3    C6 8659   3.853   3.362  17.289 -0.0158 -0.1786  0.1372
  584TMC3     C 8660   4.027   3.010  17.143 -0.5015  0.4755 -0.2332
  584TMC3     O 8661   4.066   2.934  17.228 -0.0338 -0.2485 -0.1599
  584TMC3     H 8662   3.931   3.216  16.995  0.1687  0.2112  0.2024
  584TMC3    H1 8663   3.984   3.072  17.398 -0.1249 -1.0423 -0.7934
  584TMC3    H2 8664   3.804   3.449  17.332 -0.3709  0.8186 -2.2423
  584TMC3    C7 8665   3.872   3.270  17.503 -0.0050  0.0061  0.0315
  584TMC3    C8 8666   3.883   3.467  17.078 -0.4963 -0.2225  0.2691
  584TMC3    O1 8667   3.958   3.234  17.586 -0.1757 -0.6807  0.1073
  584TMC3    O2 8668   3.849   3.461  16.959 -0.3556 -0.5618  0.1505
  585MPD2     C 8669   3.757   1.874   0.545 -0.1354  0.1337 -0.7568
  585MPD2    C1 8670   3.869   1.872   0.477 -0.0692  0.3332  0.1241
  585MPD2    C2 8671   3.869   1.846   0.342 -0.4105  0.1848 -0.2535
  585MPD2    C3 8672   3.752   1.819   0.275 -0.6379 -0.0948  0.0238
  585MPD2    C4 8673   3.636   1.812   0.351  0.0852  0.4101 -0.0786
  585MPD2    C5 8674   3.641   1.829   0.483  0.1596 -0.1266  0.4322
  585MPD2     H 8675   3.961   1.855   0.286 -1.1397  0.6703 -1.3984
  585MPD2    H1 8676   3.537   1.792   0.311 -0.3632  2.6179 -0.0800
  585MPD2    H2 8677   3.747   1.897   0.650  0.3653 -0.5571 -0.5520
  585MPD2    H3 8678   3.558   1.822   0.552  0.7432  2.0094  1.3610
  585MPD2     N 8679   3.741   1.800   0.131  0.3470 -0.9237  0.2748
  585MPD2    H5 8680   3.645   1.808   0.098  0.2356  0.3458  0.9068
  585MPD2    N1 8681   3.988   1.917   0.545  0.2536 -0.2368  0.0685
  585MPD2    H7 8682   3.976   1.952   0.640 -0.5987 -0.3297 -0.0057
  586TMC3    C1 8683   3.788   1.815  17.581 -0.3363 -0.4125 -0.6589
  586TMC3    C2 8684   3.849   1.892  17.488  0.6184  0.0899  0.6432
  586TMC3    C3 8685   3.794   1.899  17.364 -0.1077  0.1510  0.1200
  586TMC3    C4 8686   3.678   1.737  17.552 -0.4743  0.1819  0.7429
  586TMC3    C5 8687   3.637   1.733  17.421 -0.4469 -0.1583 -0.1799
  586TMC3    C6 8688   3.687   1.818  17.331 -0.1527 -0.9014  0.5095
  586TMC3     C 8689   3.841   1.813   0.035 -0.2195  0.1031 -0.0872
  586TMC3     O 8690   3.962   1.829   0.048  0.3338 -0.2290 -0.1133
  586TMC3     H 8691   3.939   1.948  17.511  2.2260 -2.3295  0.2270
  586TMC3    H1 8692   3.628   1.677  17.628  1.4829 -1.5025  0.6775
  586TMC3    H2 8693   3.654   1.820  17.228 -0.1726  1.4484  0.5721
  586TMC3    C7 8694   3.535   1.642  17.378  0.4927 -0.9929  0.0985
  586TMC3    C8 8695   3.889   1.913  17.255 -0.9871 -0.6898 -0.1713
  586TMC3    O1 8696   3.459   1.605  17.466  0.7944 -0.8954 -0.0982
  586TMC3    O2 8697   4.009   1.883  17.278  0.4468 -0.0212 -0.2593
  587TMC3    C1 8698   1.264   0.372  16.177 -0.2745 -0.3453 -0.4738
  587TMC3    C2 8699   1.270   0.498  16.219 -1.2052  0.0684  0.1065
  587TMC3    C3 8700   1.396   0.559  16.216 -0.2256 -0.4407 -1.4694
  587TMC3    C4 8701   1.371   0.300  16.120  0.1286  0.1783 -0.0713
  587TMC3    C5 8702   1.489   0.362  16.118  0.3230  0.2880  0.0997
  587TMC3    C6 8703   1.510   0.488  16.170  0.6877  0.2528  0.3767
  587TMC3     C 8704   1.134   0.326  16.140  0.6539  0.0971  0.5368
  587TMC3     O 8705   1.122   0.267  16.033 -0.4415  0.4626  0.6958
  587TMC3     H 8706   1.187   0.561  16.249 -2.2299 -0.5873 -1.3604
  587TMC3    H1 8707   1.352   0.206  16.069  0.8677 -0.4507  0.8083
  587TMC3    H2 8708   1.611   0.521  16.191  0.5621  1.4113 -0.8526
  587TMC3    C7 8709   1.611   0.294  16.073  0.3199  0.2741  0.1106
  587TMC3    C8 8710   1.426   0.664  16.316 -0.4624 -0.3455 -1.3622
  587TMC3    O1 8711   1.716   0.354  16.091 -0.0143 -0.0667  0.1018
  587TMC3    O2 8712   1.541   0.665  16.360 -0.2972 -0.0858  0.5841
  588TMC3    C1 8713   2.557   2.755   9.357 -0.0820  0.7758  0.5200
  588TMC3    C2 8714   2.590   2.626   9.311 -0.0510 -0.5539  0.4747
  588TMC3    C3 8715   2.721   2.593   9.349  0.1240  0.0266 -0.4395
  588TMC3    C4 8716   2.632   2.829   9.443  0.8513  0.2273 -0.3172
  588TMC3    C5 8717   2.769   2.796   9.454  0.0119  0.0512 -0.6736
  588TMC3    C6 8718   2.815   2.676   9.407 -0.2762 -0.1744  0.6473
  588TMC3     C 8719   2.418   2.797   9.336  0.0059  0.6630 -0.3786
  588TMC3     O 8720   2.349   2.765   9.238  0.5260 -0.2200 -0.0691
  588TMC3     H 8721   2.514   2.551   9.291  1.3766 -1.9483  0.3267
  588TMC3    H1 8722   2.593   2.928   9.464  0.8705  0.4632 -1.4184
  588TMC3    H2 8723   2.918   2.645   9.415 -1.2591 -3.2280  1.3505
  588TMC3    C7 8724   2.858   2.885   9.530  0.2009 -0.4222  0.5236
  588TMC3    C8 8725   2.755   2.456   9.345 -0.1684 -0.0112 -0.6302
  588TMC3    O1 8726   2.953   2.829   9.589  0.8028  0.2018  0.2212
  588TMC3    O2 8727   2.666   2.385   9.295  0.2583 -0.3676  0.1354
  589TMC3    C1 8728   2.693   0.645   1.149  0.2542  0.3448 -0.6268
  589TMC3    C2 8729   2.783   0.627   1.248 -0.2516 -0.1704 -0.2674
  589TMC3    C3 8730   2.893   0.550   1.217 -0.5799  0.1201  0.3661
  589TMC3    C4 8731   2.705   0.581   1.031 -0.4422  0.6373 -0.6137
  589TMC3    C5 8732   2.812   0.503   1.006 -0.3773  0.3903 -0.1485
  589TMC3    C6 8733   2.909   0.489   1.098  0.5686 -0.6706  0.5469
  589TMC3     C 8734   2.570   0.720   1.174  0.8024  0.3349  0.2719
  589TMC3     O 8735   2.482   0.714   1.089 -0.4627  0.1113 -0.3868
  589TMC3     H 8736   2.771   0.670   1.347 -0.2641  0.3991 -0.5183
  589TMC3    H1 8737   2.625   0.596   0.961 -0.3500  1.8874 -0.4465
  589TMC3    H2 8738   2.986   0.415   1.081 -0.5090 -1.0509 -2.6638
  589TMC3    C7 8739   2.800   0.388   0.918 -0.7078 -0.4447 -0.0447
  589TMC3    C8 8740   2.975   0.502   1.326 -0.5493 -0.3789 -0.4719
  589TMC3    O1 8741   2.875   0.292   0.929 -0.5594  0.5041  0.8126
  589TMC3    O2 8742   2.916   0.490   1.433 -0.2770  0.5302 -0.2216
  590MPD2     C 8743   1.825   3.923  16.355  0.4572  0.1800  0.2781
  590MPD2    C1 8744   1.802   3.923  16.216 -0.0299  0.3022  0.3396
  590MPD2    C2 8745   1.907   3.966  16.133 -0.0166 -0.0794 -0.3026
  590MPD2    C3 8746   2.037   3.979  16.181 -0.0910 -0.6132 -0.3666
  590MPD2    C4 8747   2.062   3.952  16.318 -0.0083  0.3394 -0.2471
  590MPD2    C5 8748   1.956   3.932  16.402 -0.1757  0.3897 -0.3060
  590MPD2     H 8749   1.888   3.977  16.026  2.1098 -3.4808 -1.0462
  590MPD2    H1 8750   2.161   3.958  16.360 -0.9483  0.3259  1.9467
  590MPD2    H2 8751   1.746   3.904  16.426 -0.2259  1.7053 -0.0790
  590MPD2    H3 8752   1.973   3.913  16.507  0.0069  0.0256 -0.3978
  590MPD2     N 8753   2.141   4.018  16.086 -0.5529  0.1870  0.1163
  590MPD2    H5 8754   2.120   4.019  15.987 -0.3321 -1.6079  0.0443
  590MPD2    N1 8755   1.670   3.910  16.171  0.1010  0.4595 -0.4749
  590MPD2    H7 8756   1.605   3.890  16.247 -0.2988  1.7078 -0.4794
  591TMC3    C1 8757   2.338   4.123  16.022 -0.2092  0.6823 -0.4328
  591TMC3    C2 8758   2.326   4.065  15.898  0.1720  0.0465 -0.4541
  591TMC3    C3 8759   2.327   4.150  15.788 -0.1743 -0.2439  0.0879
  591TMC3    C4 8760   2.368   4.259  16.035  0.2594  0.2090 -0.0308
  591TMC3    C5 8761   2.363   4.340  15.922  0.9748  0.0584  0.2689
  591TMC3    C6 8762   2.334   4.290  15.800 -0.5306  0.3223 -0.6558
  591TMC3     C 8763   2.260   4.074  16.129 -0.7528  0.1334  0.8190
  591TMC3     O 8764   2.304   4.100  16.241  0.1493  0.2453  0.2381
  591TMC3     H 8765   2.297   3.961  15.885  0.9649 -0.4195  1.6243
  591TMC3    H1 8766   2.356   4.308  16.131  0.9948 -0.1604  0.2437
  591TMC3    H2 8767   2.345   4.361  15.719  2.5950  2.0573  1.3076
  591TMC3    C7 8768   2.353   4.488  15.952 -0.2480 -0.3067 -0.1294
  591TMC3    C8 8769   2.336   4.087  15.658 -0.6226 -0.5526  0.3311
  591TMC3    O1 8770   2.336   4.528  16.066 -0.3692  0.5405  0.3002
  591TMC3    O2 8771   2.355   3.966  15.648 -0.1074 -0.3281 -0.2018
  592MPD2     C 8772   1.973   0.923  11.171 -0.2612  0.4349 -0.2454
  592MPD2    C1 8773   1.963   0.967  11.305  0.2534  0.1300 -0.3232
  592MPD2    C2 8774   1.853   0.923  11.374 -0.6899  0.5889  0.0185
  592MPD2    C3 8775   1.747   0.854  11.319  0.3598 -0.5107 -0.5207
  592MPD2    C4 8776   1.747   0.824  11.183  0.0596  0.0556  1.3158
  592MPD2    C5 8777   1.867   0.852  11.114  0.5269 -0.3804 -0.1017
  592MPD2     H 8778   1.851   0.940  11.481  0.4974  0.8324 -0.0011
  592MPD2    H1 8779   1.675   0.761  11.133 -0.1792 -0.5310  2.3969
  592MPD2    H2 8780   2.061   0.952  11.114  1.5577 -1.6811  1.4636
  592MPD2    H3 8781   1.868   0.820  11.010 -1.4130  0.9376 -0.5446
  592MPD2     N 8782   1.651   0.806  11.408  0.8563  0.0985  0.3092
  592MPD2    H5 8783   1.665   0.850  11.499 -0.4527 -2.2948  1.6605
  592MPD2    N1 8784   2.074   1.033  11.355  0.9302 -0.0459  0.4831
  592MPD2    H7 8785   2.152   1.045  11.291  0.0735 -0.9034 -0.7009
  593TMC3    C1 8786   2.227   1.111  11.526  0.8117 -0.2572  0.1490
  593TMC3    C2 8787   2.227   1.170  11.652  0.0188  0.9835  0.6298
  593TMC3    C3 8788   2.343   1.217  11.701 -0.3787 -0.2850  0.3485
  593TMC3    C4 8789   2.337   1.123  11.446  0.1078 -0.0670  0.3461
  593TMC3    C5 8790   2.444   1.192  11.495  0.6177 -0.1968 -0.0168
  593TMC3    C6 8791   2.452   1.234  11.626  0.1071 -0.4304  0.4837
  593TMC3     C 8792   2.091   1.066  11.488  0.2891 -0.0688 -0.1441
  593TMC3     O 8793   2.005   1.061  11.579 -0.0084  0.3128  0.2749
  593TMC3     H 8794   2.145   1.174  11.723 -1.8118  0.3922 -1.4658
  593TMC3    H1 8795   2.347   1.066  11.354  1.2539 -1.0640  1.0962
  593TMC3    H2 8796   2.544   1.283  11.653  1.2324 -1.3237 -1.6974
  593TMC3    C7 8797   2.533   1.260  11.398 -0.0880 -0.5631  0.5109
  593TMC3    C8 8798   2.331   1.305  11.818  0.3504 -0.2893  0.0307
  593TMC3    O1 8799   2.640   1.297  11.443 -0.1774 -0.0227  0.2668
  593TMC3    O2 8800   2.220   1.345  11.849  0.1174 -0.5409 -0.1467
  594MPD2     C 8801   1.013   0.124  13.612  0.2308 -0.3386  0.4760
  594MPD2    C1 8802   0.991   0.118  13.748  0.2124 -0.4623  0.4548
  594MPD2    C2 8803   1.055   0.219  13.828 -0.7292  0.1938 -0.6333
  594MPD2    C3 8804   1.133   0.316  13.770 -0.3941  0.3775  0.2706
  594MPD2    C4 8805   1.154   0.315  13.633 -0.1868  0.2388  0.0500
  594MPD2    C5 8806   1.093   0.221  13.555  0.5945  0.4373  0.1953
  594MPD2     H 8807   1.036   0.226  13.934 -0.4851 -1.7052 -0.4560
  594MPD2    H1 8808   1.215   0.391  13.586 -1.4090  0.0657 -1.8371
  594MPD2    H2 8809   0.977   0.043  13.549 -0.9807  1.8040 -1.6023
  594MPD2    H3 8810   1.111   0.217  13.448  0.7230  1.6792  0.1635
  594MPD2     N 8811   1.196   0.406  13.851  0.0847 -0.1269  0.0446
  594MPD2    H5 8812   1.161   0.425  13.944  2.5600  0.2775  0.8980
  594MPD2    N1 8813   0.907   0.016  13.801 -0.2806 -0.0827  0.1863
  594MPD2    H7 8814   0.855   4.688  13.728  2.5620 -1.0723 -1.1655
  595TMC3    C1 8815   1.568   0.637  14.007  0.4057 -0.1336  0.2952
  595TMC3    C2 8816   1.508   0.562  13.911  0.0283 -0.3861 -0.1927
  595TMC3    C3 8817   1.373   0.553  13.918  0.1093  0.4769 -0.6820
  595TMC3    C4 8818   1.487   0.703  14.101  0.0164  0.3217  0.9082
  595TMC3    C5 8819   1.351   0.697  14.100 -0.0365 -0.3516  0.1038
  595TMC3    C6 8820   1.292   0.609  14.017 -0.4169  0.0079  0.5523
  595TMC3     C 8821   1.714   0.643  14.014  0.5845  0.6263 -0.8037
  595TMC3     O 8822   1.769   0.733  14.079  0.3288  0.3178 -0.5751
  595TMC3     H 8823   1.556   0.529  13.820  1.4374 -0.0150  0.4276
  595TMC3    H1 8824   1.532   0.785  14.156 -1.1998  1.3506  0.3543
  595TMC3    H2 8825   1.184   0.609  14.003 -0.5700 -2.3151  1.7920
  595TMC3    C7 8826   1.266   0.786  14.180  0.0691 -0.1235  0.4600
  595TMC3    C8 8827   1.308   0.473  13.810  0.1032  0.1884  0.0484
  595TMC3    O1 8828   1.148   0.790  14.155  0.3174  0.0283  0.4069
  595TMC3    O2 8829   1.383   0.443  13.720  0.1476 -0.0407  0.2278
  596MPD2     C 8830   0.399   2.632  16.507 -0.1417 -0.3628 -0.3151
  596MPD2    C1 8831   0.344   2.747  16.466 -0.4697 -0.1195  0.4004
  596MPD2    C2 8832   0.287   2.753  16.338  0.3608  0.6982  0.1946
  596MPD2    C3 8833   0.264   2.648  16.256 -0.0542  0.1884  0.6000
  596MPD2    C4 8834   0.319   2.535  16.303  0.0315  0.1790  0.3261
  596MPD2    C5 8835   0.384   2.524  16.427 -0.8340 -0.6868  0.3120
  596MPD2     H 8836   0.254   2.853  16.310  0.7118  0.7967  0.1302
  596MPD2    H1 8837   0.297   2.442  16.251 -0.2387  0.9435 -0.9397
  596MPD2    H2 8838   0.436   2.623  16.608 -0.7980 -2.7219 -0.2817
  596MPD2    H3 8839   0.416   2.427  16.464  0.8248  0.6907  2.5139
  596MPD2     N 8840   0.199   2.641  16.128 -0.3642 -0.2159 -0.1028
  596MPD2    H5 8841   0.205   2.554  16.077  0.7888 -0.1292 -0.1219
  596MPD2    N1 8842   0.326   2.862  16.544  0.1745 -0.1366  0.2156
  596MPD2    H7 8843   0.266   2.936  16.507 -0.2674  0.4338  2.1076
  597TMC3    C1 8844   0.350   2.999  16.724  0.5987  0.3276 -0.6082
  597TMC3    C2 8845   0.411   3.099  16.645 -0.0852 -0.0753  0.1945
  597TMC3    C3 8846   0.390   3.232  16.682  1.0878 -0.3308 -0.2399
  597TMC3    C4 8847   0.290   3.024  16.846  0.4055 -0.1188 -0.4644
  597TMC3    C5 8848   0.264   3.155  16.879  0.0866  0.4244  0.6562
  597TMC3    C6 8849   0.313   3.256  16.796 -0.4204  0.1497 -0.2521
  597TMC3     C 8850   0.335   2.865  16.675 -0.1864  0.1661  0.4613
  597TMC3     O 8851   0.366   2.778  16.756 -0.5037 -0.2722 -0.1791
  597TMC3     H 8852   0.444   3.074  16.545  3.2021  0.8683  1.0370
  597TMC3    H1 8853   0.240   2.941  16.894  1.3977 -2.0668 -2.7661
  597TMC3    H2 8854   0.308   3.360  16.826  4.0196  0.5484 -0.9192
  597TMC3    C7 8855   0.150   3.178  16.963  0.6518  0.2675  1.0319
  597TMC3    C8 8856   0.379   3.332  16.577 -0.2169 -0.9274 -0.2912
  597TMC3    O1 8857   0.126   3.088  17.049 -0.8040 -0.1123 -0.3994
  597TMC3    O2 8858   0.318   3.435  16.597 -0.1528  0.2309 -0.2041
  598TMC3    C1 8859   2.993   4.375  15.304  0.0786  0.3407  0.1909
  598TMC3    C2 8860   2.869   4.343  15.268 -0.6810  0.0651  0.4778
  598TMC3    C3 8861   2.839   4.354  15.132  0.0753  0.0600 -0.3350
  598TMC3    C4 8862   3.082   4.427  15.213  0.1408 -0.4730 -0.1934
  598TMC3    C5 8863   3.050   4.440  15.085  0.0461 -0.1420 -0.2220
  598TMC3    C6 8864   2.930   4.393  15.037  0.2938  0.1108  0.1292
  598TMC3     C 8865   3.049   4.304  15.410  0.7042  0.1664 -0.4983
  598TMC3     O 8866   3.157   4.355  15.448 -0.1717  0.4806  0.0946
  598TMC3     H 8867   2.799   4.305  15.343 -1.3077  3.5761  1.6981
  598TMC3    H1 8868   3.187   4.434  15.239 -0.4842  0.2029  2.1685
  598TMC3    H2 8869   2.905   4.404  14.932  0.5396 -1.3561 -0.0833
  598TMC3    C7 8870   3.141   4.505  14.993 -0.7575  0.1243  0.8368
  598TMC3    C8 8871   2.711   4.295  15.100 -0.5318  0.0135  0.2493
  598TMC3    O1 8872   3.144   4.464  14.880  0.0846 -0.3364  0.0272
  598TMC3    O2 8873   2.625   4.299  15.191  0.0256  0.2177  0.2601
  599MPD2     C 8874   3.071   1.807  15.561 -0.5404  0.2264 -0.3171
  599MPD2    C1 8875   3.126   1.738  15.663 -0.6320  0.2941  0.3663
  599MPD2    C2 8876   3.089   1.782  15.791  0.1626 -0.8106  0.2887
  599MPD2    C3 8877   2.980   1.868  15.808  0.7070 -0.6417 -0.1747
  599MPD2    C4 8878   2.916   1.923  15.700 -0.2582  0.1196 -0.0757
  599MPD2    C5 8879   2.967   1.894  15.575  0.0615 -0.0880  1.2688
  599MPD2     H 8880   3.143   1.741  15.876 -0.5109 -1.3307  0.4653
  599MPD2    H1 8881   2.835   1.995  15.706  0.4605  1.0615 -1.7301
  599MPD2    H2 8882   3.090   1.811  15.454 -4.2660  2.1230 -0.9042
  599MPD2    H3 8883   2.918   1.941  15.491  0.7577  0.7074  1.3125
  599MPD2     N 8884   2.912   1.891  15.932 -0.8652 -0.6091  0.2091
  599MPD2    H5 8885   2.837   1.960  15.930 -0.8010 -0.5408  0.1955
  599MPD2    N1 8886   3.236   1.651  15.664 -0.0735  0.3222 -0.1625
  599MPD2    H7 8887   3.266   1.618  15.756  0.6989  1.0355 -0.1582
  600TMC3    C1 8888   2.832   1.854  16.149  0.7489  0.3598 -0.2765
  600TMC3    C2 8889   2.793   1.761  16.239 -0.1113 -0.1684 -0.0133
  600TMC3    C3 8890   2.746   1.793  16.359  0.3278 -0.0135 -0.1562
  600TMC3    C4 8891   2.826   1.985  16.182 -0.0206 -0.0122  0.1365
  600TMC3    C5 8892   2.781   2.021  16.301 -0.4827  0.2463  0.4865
  600TMC3    C6 8893   2.733   1.927  16.393  0.0674 -0.1285  0.8006
  600TMC3     C 8894   2.924   1.812  16.044  0.2528 -0.4002 -0.5063
  600TMC3     O 8895   2.971   1.698  16.049  0.3131 -0.1642 -0.1845
  600TMC3     H 8896   2.807   1.657  16.212  2.4198  0.5996 -1.6181
  600TMC3    H1 8897   2.854   2.052  16.102  1.5706  0.3995  1.0281
  600TMC3    H2 8898   2.712   1.956  16.495 -0.6371  2.0444  0.0337
  600TMC3    C7 8899   2.766   2.160  16.347  0.3545 -0.0921 -0.4391
  600TMC3    C8 8900   2.690   1.686  16.445  0.0164  0.3927  0.1198
  600TMC3    O1 8901   2.705   2.185  16.450 -0.2836 -0.5785  0.3022
  600TMC3    O2 8902   2.710   1.690  16.564 -0.2975  0.1879 -0.1410
  601MPD2     C 8903   0.754   0.154  17.522 -0.0694 -0.9269 -0.4344
  601MPD2    C1 8904   0.633   0.098  17.500  0.3947  0.1376 -1.1064
  601MPD2    C2 8905   0.624   4.685  17.452  0.2593 -0.4372  0.8555
  601MPD2    C3 8906   0.736   4.621  17.410 -0.1473  0.7284  0.1474
  601MPD2    C4 8907   0.863   4.680  17.429 -0.1019  0.1314  0.1513
  601MPD2    C5 8908   0.863   0.088  17.480  0.7143  0.4305  0.2444
  601MPD2     H 8909   0.526   4.642  17.433  0.2833 -0.0048 -0.2468
  601MPD2    H1 8910   0.948   4.614  17.414  0.2983  0.9796 -1.3560
  601MPD2    H2 8911   0.780   0.256  17.550 -2.0078 -0.4097 -0.5094
  601MPD2    H3 8912   0.956   0.143  17.494  1.3294 -1.0468  1.9675
  601MPD2     N 8913   0.739   4.501  17.336  0.4395 -0.5547 -0.2347
  601MPD2    H5 8914   0.819   4.464  17.286  1.2932  0.5228  0.3450
  601MPD2    N1 8915   0.516   0.178  17.511 -0.2480  0.7542 -0.4057
  601MPD2    H7 8916   0.426   0.139  17.484  2.2010 -2.3521 -4.0021
  602TMC3    C1 8917   0.380   0.365  17.551  0.6369  0.1031 -0.2472
  602TMC3    C2 8918   0.376   0.496  17.524 -0.5427  0.2443  0.1164
  602TMC3    C3 8919   0.255   0.557  17.492 -0.3564 -0.1443  0.8173
  602TMC3    C4 8920   0.267   0.291  17.561 -0.6137  0.4869 -0.5948
  602TMC3    C5 8921   0.150   0.358  17.537 -0.9466  1.2410 -0.0425
  602TMC3    C6 8922   0.138   0.492  17.507  0.2192 -0.0889 -0.2001
  602TMC3     C 8923   0.511   0.304  17.557  0.4062 -0.3326 -0.1837
  602TMC3     O 8924   0.600   0.386  17.588 -0.0888 -0.1359  0.5402
  602TMC3     H 8925   0.465   0.558  17.525 -2.0922  2.4638  0.2523
  602TMC3    H1 8926   0.262   0.185  17.585 -3.7465  0.9212  0.6930
  602TMC3    H2 8927   0.045   0.547  17.514  0.8772  0.9314  0.5732
  602TMC3    C7 8928   0.036   0.276  17.502  0.2645 -0.4943 -0.1995
  602TMC3    C8 8929   0.271   0.674  17.413  0.3488  0.1517 -0.2360
  602TMC3    O1 8930   0.028   0.172  17.570  0.7241  0.2578  0.3245
  602TMC3    O2 8931   0.386   0.706  17.384 -0.1391  0.2981  0.1755
  603TMC3    C1 8932   2.402   0.652  10.719 -0.0124  0.0949  0.1393
  603TMC3    C2 8933   2.413   0.615  10.853 -0.2460  1.0634 -0.3344
  603TMC3    C3 8934   2.529   0.645  10.918 -0.1704  0.9910  0.2234
  603TMC3    C4 8935   2.512   0.709  10.651 -0.7906  0.4773 -0.3587
  603TMC3    C5 8936   2.621   0.733  10.723 -0.3140  0.2537 -0.8465
  603TMC3    C6 8937   2.631   0.715  10.858  0.7738  0.0492 -0.2513
  603TMC3     C 8938   2.297   0.600  10.633  0.4151  0.3152 -0.1509
  603TMC3     O 8939   2.323   0.601  10.513  0.3576 -0.3760 -0.4457
  603TMC3     H 8940   2.336   0.552  10.896  1.0399 -0.1530  0.2052
  603TMC3    H1 8941   2.507   0.711  10.543 -1.7399  1.5016 -0.2981
  603TMC3    H2 8942   2.729   0.723  10.902 -0.1026  3.5695  1.0471
  603TMC3    C7 8943   2.745   0.783  10.656  0.3965  0.3053 -0.0041
  603TMC3    C8 8944   2.552   0.578  11.040  0.2153 -0.1260 -0.1590
  603TMC3    O1 8945   2.839   0.820  10.728 -0.2710 -0.1419 -0.1571
  603TMC3    O2 8946   2.464   0.498  11.074 -0.0652  0.0065  0.8044
  604MPD2     C 8947   3.863   3.715  16.394  0.1480 -0.0462  0.0419
  604MPD2    C1 8948   3.783   3.807  16.328 -0.4108  0.8519 -0.0564
  604MPD2    C2 8949   3.809   3.834  16.195 -0.5714 -0.5542  0.5958
  604MPD2    C3 8950   3.904   3.767  16.125  0.2024 -0.6937 -0.0735
  604MPD2    C4 8951   3.984   3.686  16.197 -0.4047  0.7119  0.7436
  604MPD2    C5 8952   3.966   3.660  16.328 -0.8391  0.1385 -0.0056
  604MPD2     H 8953   3.751   3.904  16.135 -0.7434 -0.6454  0.6574
  604MPD2    H1 8954   4.067   3.636  16.149 -0.5389  0.1831  1.0584
  604MPD2    H2 8955   3.849   3.685  16.498 -2.3288 -0.8087 -0.5084
  604MPD2    H3 8956   4.033   3.593  16.379 -1.7962 -0.0687  0.9875
  604MPD2     N 8957   3.928   3.807  15.998  0.0048 -0.1450  0.4230
  604MPD2    H5 8958   3.865   3.871  15.952  0.1395 -1.1206 -1.1336
  604MPD2    N1 8959   3.675   3.860  16.397 -0.3476  0.0339 -0.0974
  604MPD2    H7 8960   3.669   3.830  16.494  0.9367  2.5413  0.7497
  605TMC3    C1 8961   3.498   4.003  16.452 -0.2774 -0.8992 -0.1200
  605TMC3    C2 8962   3.569   4.071  16.547 -0.4081 -0.0984  0.2161
  605TMC3    C3 8963   3.541   4.202  16.576 -0.6717  0.4273 -0.3906
  605TMC3    C4 8964   3.387   4.056  16.394 -0.1967  0.1653 -0.4464
  605TMC3    C5 8965   3.358   4.189  16.424  0.2509 -0.6228 -0.4640
  605TMC3    C6 8966   3.439   4.264  16.506 -0.1353  0.2357  0.4611
  605TMC3     C 8967   3.574   3.939  16.345  0.0822 -0.7335  0.1513
  605TMC3     O 8968   3.539   3.946  16.228  0.0622  0.1802 -0.0108
  605TMC3     H 8969   3.666   4.029  16.572  1.6963  4.4133 -0.2697
  605TMC3    H1 8970   3.336   4.003  16.316 -2.5082  0.5475  0.8019
  605TMC3    H2 8971   3.422   4.370  16.519  2.7059  0.5751  1.3898
  605TMC3    C7 8972   3.270   4.269  16.343 -0.5759  0.1491 -0.3059
  605TMC3    C8 8973   3.666   4.271  16.591  0.1720 -0.3084 -0.4438
  605TMC3    O1 8974   3.237   4.381  16.383  0.3540  0.6232  0.3153
  605TMC3    O2 8975   3.689   4.363  16.514 -0.2828  0.0766  0.3218
  606TMC3    C1 8976   1.312   2.825  16.854 -0.2785 -0.9366 -0.1820
  606TMC3    C2 8977   1.379   2.840  16.972 -0.0698  0.8913 -0.3255
  606TMC3    C3 8978   1.367   2.745  17.072 -0.1762  0.1882 -0.1843
  606TMC3    C4 8979   1.214   2.721  16.847  0.3531  0.6066 -0.4320
  606TMC3    C5 8980   1.203   2.640  16.955 -0.3310  0.0922 -0.0071
  606TMC3    C6 8981   1.274   2.640  17.069 -0.3509  0.6867 -0.4124
  606TMC3     C 8982   1.374   2.883  16.741  0.3519 -0.0430 -0.8810
  606TMC3     O 8983   1.472   2.952  16.766  0.5768 -0.1301 -0.1241
  606TMC3     H 8984   1.453   2.917  16.994  0.5594  0.2912 -0.3592
  606TMC3    H1 8985   1.154   2.713  16.757 -0.2346 -0.3953  0.0539
  606TMC3    H2 8986   1.274   2.555  17.135 -0.5034  2.8361  2.3484
  606TMC3    C7 8987   1.116   2.520  16.931  0.4264 -0.1473  0.0754
  606TMC3    C8 8988   1.429   2.769  17.201 -0.5841  0.0973 -0.4146
  606TMC3    O1 8989   1.086   2.504  16.816  0.6093  0.4034  0.6128
  606TMC3    O2 8990   1.504   2.863  17.204 -0.2729  0.3746  0.3491
  607MPD2     C 8991   2.106   0.662  11.490  0.0745  1.0369  0.6648
  607MPD2    C1 8992   2.178   0.675  11.608  0.1085 -0.6484 -0.0116
  607MPD2    C2 8993   2.117   0.689  11.731 -0.2822 -0.2812 -0.4217
  607MPD2    C3 8994   1.981   0.686  11.743 -0.3818 -0.8390 -0.1296
  607MPD2    C4 8995   1.906   0.660  11.629  0.4505 -0.1162  0.4862
  607MPD2    C5 8996   1.969   0.638  11.509  0.2029  0.6503 -0.6107
  607MPD2     H 8997   2.171   0.732  11.815 -1.3840 -1.1339  0.7043
  607MPD2    H1 8998   1.798   0.668  11.626  0.4306 -0.2589  0.7927
  607MPD2    H2 8999   2.149   0.650  11.391 -1.4887  1.9677 -0.1309
  607MPD2    H3 9000   1.907   0.612  11.424 -2.0529  0.1965  1.1820
  607MPD2     N 9001   1.924   0.722  11.868 -0.1271  0.1525  0.0044
  607MPD2    H5 9002   1.991   0.741  11.942 -0.9541 -0.4052  0.9028
  607MPD2    N1 9003   2.317   0.696  11.611  0.2071 -0.2203  0.1121
  607MPD2    H7 9004   2.356   0.690  11.704  0.3853  1.7045  0.1720
  608TMC3    C1 9005   2.513   0.820  11.550 -0.1564  0.2880  0.4925
  608TMC3    C2 9006   2.507   0.874  11.676  0.5610 -0.6041  0.6495
  608TMC3    C3 9007   2.615   0.941  11.722 -0.2931 -0.1396  0.4704
  608TMC3    C4 9008   2.602   0.864  11.466 -0.3658 -0.8487  0.2117
  608TMC3    C5 9009   2.707   0.948  11.510  0.1191  0.3908 -0.7723
  608TMC3    C6 9010   2.715   0.980  11.643  1.0995  0.2263 -0.0978
  608TMC3     C 9011   2.393   0.743  11.501  0.0815  0.3052 -0.3744
  608TMC3     O 9012   2.365   0.756  11.384  0.3849  0.6910  0.2351
  608TMC3     H 9013   2.428   0.849  11.746 -0.4594 -2.7016 -1.2634
  608TMC3    H1 9014   2.589   0.828  11.364  0.1722  1.4595 -0.6798
  608TMC3    H2 9015   2.800   1.033  11.685  0.1850  2.5007 -1.0780
  608TMC3    C7 9016   2.802   0.993  11.410 -0.1651 -0.2620  0.5570
  608TMC3    C8 9017   2.602   1.009  11.849 -0.0137  0.1481  0.3152
  608TMC3    O1 9018   2.764   0.977  11.294  0.4050  0.2287 -0.2838
  608TMC3    O2 9019   2.635   1.127  11.849 -0.5443 -0.3240  0.0579
  609TMC3    C1 9020   1.396   3.728   9.095 -0.2673 -0.4411 -0.2054
  609TMC3    C2 9021   1.497   3.712   9.002 -0.0731 -0.1449 -0.0247
  609TMC3    C3 9022   1.581   3.613   9.022  0.0523  0.6105 -0.1019
  609TMC3    C4 9023   1.375   3.649   9.202  0.9450 -0.3348 -0.6767
  609TMC3    C5 9024   1.463   3.544   9.208  0.0913 -0.0289  0.2448
  609TMC3    C6 9025   1.561   3.525   9.119  0.7069 -0.2162  0.5039
  609TMC3     C 9026   1.277   3.806   9.064  0.4005  0.2316 -0.4249
  609TMC3     O 9027   1.171   3.790   9.127  0.0542  0.2119 -0.8513
  609TMC3     H 9028   1.500   3.770   8.910  2.1939 -0.6843 -0.3041
  609TMC3    H1 9029   1.305   3.658   9.284 -0.7870 -1.2187 -2.0491
  609TMC3    H2 9030   1.629   3.440   9.119  0.3021 -0.5377  1.8729
  609TMC3    C7 9031   1.443   3.442   9.307 -0.5455 -0.2573  0.1395
  609TMC3    C8 9032   1.719   3.624   8.974 -0.0128  0.0802  0.5648
  609TMC3    O1 9033   1.371   3.463   9.400 -0.2093 -0.0776  0.4417
  609TMC3    O2 9034   1.803   3.538   8.988 -0.6790  0.8333 -0.1734
  610TMC3    C1 9035   2.358   0.484  12.432 -0.9385  0.0878 -0.1647
  610TMC3    C2 9036   2.425   0.527  12.321 -0.1974  0.3105 -0.1837
  610TMC3    C3 9037   2.475   0.432  12.239  0.0752 -0.2339  0.3359
  610TMC3    C4 9038   2.348   0.348  12.464  1.2358  0.0863  0.4727
  610TMC3    C5 9039   2.396   0.254  12.378  0.2572 -0.2546 -0.4163
  610TMC3    C6 9040   2.454   0.297  12.261  0.4658  0.4649  0.3714
  610TMC3     C 9041   2.251   0.559  12.475 -0.3323  0.2391 -0.4235
  610TMC3     O 9042   2.154   0.491  12.504  0.9517 -0.0896  0.0027
  610TMC3     H 9043   2.431   0.631  12.292 -1.6876  0.1893 -0.9182
  610TMC3    H1 9044   2.298   0.321  12.557 -0.3420  2.8405  0.4353
  610TMC3    H2 9045   2.477   0.211  12.198 -0.1517  0.3603  0.2846
  610TMC3    C7 9046   2.490   0.162  12.436 -0.3294 -0.4113  0.4871
  610TMC3    C8 9047   2.560   0.484  12.136 -1.0311  0.5798  0.4434
  610TMC3    O1 9048   2.598   0.170  12.374 -0.8413 -0.4288  0.2815
  610TMC3    O2 9049   2.541   0.596  12.095 -0.1764  0.2012  0.6596
  611MPD2     C 9050   1.851   1.135   9.799 -0.4560  0.4541 -0.1792
  611MPD2    C1 9051   1.932   1.036   9.836  0.1580 -0.0897 -0.4175
  611MPD2    C2 9052   2.070   1.056   9.837  0.1587 -0.7049 -0.5362
  611MPD2    C3 9053   2.124   1.175   9.795 -0.2649  0.5525 -0.7559
  611MPD2    C4 9054   2.040   1.272   9.744 -0.1441 -0.1806 -0.0752
  611MPD2    C5 9055   1.902   1.257   9.753  0.0178 -0.0605 -0.2921
  611MPD2     H 9056   2.139   0.975   9.859  0.2125 -0.3163  0.7014
  611MPD2    H1 9057   2.080   1.365   9.706  0.7390  0.1007  1.5886
  611MPD2    H2 9058   1.743   1.130   9.794 -0.3640 -0.6047 -1.1062
  611MPD2    H3 9059   1.834   1.338   9.729  1.3896  1.3224  0.4548
  611MPD2     N 9060   2.262   1.201   9.792  0.4865  0.1747  0.4185
  611MPD2    H5 9061   2.286   1.284   9.739 -1.8831  0.1545 -0.6946
  611MPD2    N1 9062   1.863   0.921   9.882 -0.1276 -0.5534  0.4132
  611MPD2    H7 9063   1.763   0.928   9.866  0.3037  0.4732 -1.8508
  612TMC3    C1 9064   2.491   1.189   9.834 -0.5805  0.1794 -0.4962
  612TMC3    C2 9065   2.582   1.137   9.923 -0.2912 -1.2709 -0.4555
  612TMC3    C3 9066   2.707   1.173   9.901  0.3118 -0.4156 -0.0994
  612TMC3    C4 9067   2.537   1.260   9.723  0.4303  0.1172  0.0398
  612TMC3    C5 9068   2.663   1.314   9.727 -0.5381 -0.5513 -0.5588
  612TMC3    C6 9069   2.753   1.269   9.815  0.6444  0.4156 -0.0919
  612TMC3     C 9070   2.360   1.129   9.850 -0.4289 -0.2354 -0.3023
  612TMC3     O 9071   2.357   1.017   9.895  0.3551 -0.3339  0.2186
  612TMC3     H 9072   2.555   1.085  10.015  2.9021  1.9244  2.2677
  612TMC3    H1 9073   2.471   1.284   9.641 -2.0649  0.7910  2.2389
  612TMC3    H2 9074   2.861   1.273   9.799  0.5673 -0.9025 -1.0164
  612TMC3    C7 9075   2.702   1.398   9.617  0.3881  0.0538 -0.4757
  612TMC3    C8 9076   2.792   1.157  10.020 -0.3536 -0.3804 -0.0314
  612TMC3    O1 9077   2.623   1.419   9.528 -0.3939 -0.6032 -0.3573
  612TMC3    O2 9078   2.881   1.238  10.041 -0.4207 -0.3757  0.8731
  613MPD2     C 9079   1.786   2.801  16.051 -0.4688  0.0976 -0.4602
  613MPD2    C1 9080   1.695   2.859  15.964 -0.3631  0.4957  0.6850
  613MPD2    C2 9081   1.592   2.783  15.913 -0.0093 -0.2811  0.1033
  613MPD2    C3 9082   1.574   2.649  15.949 -0.3259 -0.1110  0.1648
  613MPD2    C4 9083   1.666   2.595  16.032  0.1156  0.0412 -0.4795
  613MPD2    C5 9084   1.768   2.663  16.074  0.2242  0.4223 -0.4570
  613MPD2     H 9085   1.527   2.821  15.835 -0.2040  1.1703  0.9774
  613MPD2    H1 9086   1.663   2.490  16.061  0.5976  0.1080 -0.1809
  613MPD2    H2 9087   1.863   2.861  16.097 -0.8697  1.2780 -1.3174
  613MPD2    H3 9088   1.829   2.619  16.153 -1.8627  1.6098  1.8425
  613MPD2     N 9089   1.485   2.558  15.886 -0.3298 -0.6272 -0.0327
  613MPD2    H5 9090   1.501   2.460  15.904 -0.5209 -0.6913 -0.2176
  613MPD2    N1 9091   1.720   2.985  15.910 -0.1466  0.2484  0.1557
  613MPD2    H7 9092   1.811   3.028  15.924 -0.6772  1.3856  0.1794
  614TMC3    C1 9093   1.698   3.163  15.762  0.3446 -0.5825  0.0878
  614TMC3    C2 9094   1.787   3.099  15.678 -0.5618 -0.2159 -0.0753
  614TMC3    C3 9095   1.755   3.104  15.545 -0.3192 -0.2545  0.0323
  614TMC3    C4 9096   1.607   3.256  15.717 -0.7709  0.4116  0.4286
  614TMC3    C5 9097   1.587   3.261  15.581  0.1942  0.1579  0.5893
  614TMC3    C6 9098   1.655   3.187  15.491 -0.6683  0.2422  0.7143
  614TMC3     C 9099   1.629   3.062  15.835  0.8194  0.0387  0.1149
  614TMC3     O 9100   1.510   3.045  15.818  0.3980 -0.8658  0.2848
  614TMC3     H 9101   1.853   3.022  15.716  1.5409  1.7215  0.2330
  614TMC3    H1 9102   1.564   3.325  15.788  1.2218  1.8497  0.2423
  614TMC3    H2 9103   1.619   3.160  15.393 -0.2295 -0.0595  0.6372
  614TMC3    C7 9104   1.474   3.345  15.543  0.0750  0.3675 -0.4479
  614TMC3    C8 9105   1.756   2.974  15.481  0.2965  0.5173  0.2499
  614TMC3    O1 9106   1.457   3.433  15.623 -0.0647 -0.2803  0.3754
  614TMC3    O2 9107   1.777   2.878  15.551 -0.4341 -0.4479 -0.0750
  615MPD2     C 9108   0.851   4.230  16.014  1.0585 -0.6613  0.5090
  615MPD2    C1 9109   0.901   4.306  15.922  0.5438 -0.3271 -0.0933
  615MPD2    C2 9110   0.850   4.296  15.794  1.4923 -0.1471 -0.4153
  615MPD2    C3 9111   0.736   4.221  15.763  0.1170  0.9638  0.4909
  615MPD2    C4 9112   0.680   4.145  15.864  0.6030 -0.2495 -0.4250
  615MPD2    C5 9113   0.742   4.147  15.987  0.3597 -0.1763  0.3268
  615MPD2     H 9114   0.892   4.348  15.708 -1.2693  0.0964 -1.6168
  615MPD2    H1 9115   0.593   4.081  15.850  0.6574 -0.1620 -1.1631
  615MPD2    H2 9116   0.901   4.216  16.109  2.0060 -1.3194 -0.0869
  615MPD2    H3 9117   0.714   4.084  16.070 -0.4175  0.6421  0.6874
  615MPD2     N 9118   0.682   4.204  15.635  0.1263  0.6958 -0.5988
  615MPD2    H5 9119   0.601   4.143  15.624  0.6527 -0.4629  2.0243
  615MPD2    N1 9120   1.017   4.386  15.951  0.1161 -0.1112 -0.3586
  615MPD2    H7 9121   1.077   4.425  15.879 -1.2338  1.2884 -0.7331
  616TMC3    C1 9122   1.176   4.492  16.104 -0.3736  0.6946  0.7349
  616TMC3    C2 9123   1.283   4.421  16.070 -0.4605 -0.8369  0.0005
  616TMC3    C3 9124   1.400   4.466  16.132 -0.7720 -0.8481  0.2980
  616TMC3    C4 9125   1.179   4.579  16.210 -0.2638 -0.5648  0.0802
  616TMC3    C5 9126   1.294   4.613  16.265 -0.5384 -0.3521 -1.0878
  616TMC3    C6 9127   1.411   4.552  16.237  0.0460  0.0458 -0.1171
  616TMC3     C 9128   1.044   4.429  16.081  0.7390 -0.3380 -0.1909
  616TMC3     O 9129   0.955   4.449  16.164 -0.4712  0.5581  0.0575
  616TMC3     H 9130   1.281   4.359  15.981  0.2397 -0.4209 -0.3112
  616TMC3    H1 9131   1.084   4.626  16.231  1.2347  1.1467  2.9811
  616TMC3    H2 9132   1.503   4.591  16.279  0.3948 -2.3872  1.3847
  616TMC3    C7 9133   1.302   4.715  16.369  0.2939  0.0341 -0.2209
  616TMC3    C8 9134   1.520   4.391  16.091  0.3540 -0.1221  0.8049
  616TMC3    O1 9135   1.407   0.059  16.372 -0.0038  0.7841 -0.1723
  616TMC3    O2 9136   1.504   4.318  15.996 -0.1040 -0.2595 -0.0542
  617MPD2     C 9137   3.254   2.284  13.592 -0.1066  0.6720  0.2073
  617MPD2    C1 9138   3.303   2.211  13.701  0.6690  0.3354 -0.4231
  617MPD2    C2 9139   3.234   2.104  13.758  0.7866 -0.0209  0.1792
  617MPD2    C3 9140   3.116   2.058  13.696  0.7533 -0.6329 -0.6205
  617MPD2    C4 9141   3.067   2.126  13.580  0.2572  0.3996 -0.5846
  617MPD2    C5 9142   3.136   2.237  13.529  0.1031 -0.3088 -0.3086
  617MPD2     H 9143   3.279   2.062  13.847 -1.1060 -0.0084  1.1362
  617MPD2    H1 9144   2.981   2.088  13.527  0.0372 -0.7756  0.5973
  617MPD2    H2 9145   3.300   2.369  13.543  2.6704 -2.5167 -2.6266
  617MPD2    H3 9146   3.095   2.293  13.446  0.0358 -0.4437 -0.3670
  617MPD2     N 9147   3.037   1.959  13.754  0.2664  0.4251  0.3018
  617MPD2    H5 9148   2.949   1.946  13.706  0.9289  1.9418 -1.3040
  617MPD2    N1 9149   3.435   2.237  13.754  0.4346 -0.0323 -0.8394
  617MPD2    H7 9150   3.482   2.165  13.808  0.3684 -0.0901 -0.8588
  618TMC3    C1 9151   3.606   2.365  13.838 -0.1799  0.1766  0.1942
  618TMC3    C2 9152   3.668   2.254  13.892 -1.0135 -0.7852  0.7217
  618TMC3    C3 9153   3.787   2.275  13.951 -1.0091 -0.4200 -0.0231
  618TMC3    C4 9154   3.644   2.492  13.867 -0.0113  0.1511 -0.3749
  618TMC3    C5 9155   3.763   2.503  13.936  0.2765 -0.3848  0.0945
  618TMC3    C6 9156   3.841   2.401  13.973 -0.5066  0.8214  0.3863
  618TMC3     C 9157   3.510   2.357  13.736  0.4153  0.2084 -0.4127
  618TMC3     O 9158   3.488   2.457  13.678 -0.3981  0.0976 -0.5376
  618TMC3     H 9159   3.647   2.149  13.871 -1.9259 -0.5023  0.2073
  618TMC3    H1 9160   3.584   2.577  13.837 -0.5432 -0.0285  0.1828
  618TMC3    H2 9161   3.938   2.407  14.021  0.5257 -1.3541 -1.4414
  618TMC3    C7 9162   3.788   2.636  13.992  0.4054 -0.5133 -0.6345
  618TMC3    C8 9163   3.866   2.155  13.976  0.2378 -0.0770 -0.5721
  618TMC3    O1 9164   3.691   2.703  14.024  0.1482 -0.2212  0.1351
  618TMC3    O2 9165   3.816   2.064  14.042 -0.9527  0.2489  0.2672
  619MPD2     C 9166   0.136   3.703  13.347 -0.4458 -0.2697  0.2080
  619MPD2    C1 9167   0.072   3.745  13.234 -0.8132 -0.2102  0.1563
  619MPD2    C2 9168   4.662   3.708  13.218 -0.0050 -0.7895  0.1985
  619MPD2    C3 9169   4.604   3.634  13.319 -0.2356  1.0123  0.0685
  619MPD2    C4 9170   4.668   3.598  13.432 -0.0352 -0.7492  0.1163
  619MPD2    C5 9171   0.078   3.630  13.446  0.2699 -0.5592 -0.2421
  619MPD2     H 9172   4.612   3.734  13.126 -0.9888 -1.0807  0.6533
  619MPD2    H1 9173   4.613   3.553  13.514 -1.4751  1.2731  0.2599
  619MPD2    H2 9174   0.242   3.721  13.360 -0.1489 -1.3549 -0.6339
  619MPD2    H3 9175   0.130   3.608  13.538  0.0469 -0.5719 -0.1172
  619MPD2     N 9176   4.467   3.611  13.322  0.1462  0.2304 -0.5068
  619MPD2    H5 9177   4.426   3.551  13.393 -1.0852  1.8595  0.1784
  619MPD2    N1 9178   0.134   3.824  13.137  0.0347  0.2337  0.4874
  619MPD2    H7 9179   0.081   3.822  13.050 -2.8880  2.8698  2.1900
  620TMC3    C1 9180   0.235   4.021  13.061 -0.8623  0.0083  0.0444
  620TMC3    C2 9181   0.217   3.983  12.935 -0.2309 -0.4008  0.2588
  620TMC3    C3 9182   0.200   4.073  12.837  0.0479 -0.2167 -0.5036
  620TMC3    C4 9183   0.212   4.152  13.098 -0.1045  0.2731 -0.6193
  620TMC3    C5 9184   0.188   4.241  12.992 -0.4555 -0.0516 -0.0238
  620TMC3    C6 9185   0.188   4.205  12.862 -0.0364 -0.0317 -0.2968
  620TMC3     C 9186   0.223   3.924  13.164  0.2669  0.1323  0.2533
  620TMC3     O 9187   0.271   3.956  13.272  0.0650 -0.2465 -0.4214
  620TMC3     H 9188   0.244   3.885  12.898 -0.7946 -0.1964 -0.6971
  620TMC3    H1 9189   0.237   4.184  13.198  1.6342  1.8501 -1.5576
  620TMC3    H2 9190   0.151   4.265  12.779 -0.5572  2.1729  1.5310
  620TMC3    C7 9191   0.144   4.372  13.034 -0.2972  0.3486 -0.1447
  620TMC3    C8 9192   0.177   4.026  12.697 -0.3494 -0.4494  0.1799
  620TMC3    O1 9193   0.190   4.403  13.141 -0.3549  0.3256 -0.3802
  620TMC3    O2 9194   0.260   4.067  12.616 -0.0040 -0.4294 -0.1524
  621MPD2     C 9195   0.683   2.665  10.065 -0.5786 -0.2505 -1.2326
  621MPD2    C1 9196   0.577   2.697   9.979  0.9008 -0.4267  0.2620
  621MPD2    C2 9197   0.586   2.803   9.897 -0.0542  0.1495 -0.3648
  621MPD2    C3 9198   0.689   2.889   9.901  0.2252 -0.2522 -0.2675
  621MPD2    C4 9199   0.788   2.861   9.986  0.6303 -0.1019 -0.3312
  621MPD2    C5 9200   0.795   2.745  10.064 -1.3034 -0.1931  0.7730
  621MPD2     H 9201   0.505   2.813   9.825  0.2486 -2.7393 -1.1265
  621MPD2    H1 9202   0.868   2.932  10.007  0.0547  0.0243  1.4344
  621MPD2    H2 9203   0.680   2.592  10.145  1.1892 -0.4265 -1.3239
  621MPD2    H3 9204   0.878   2.724  10.130 -1.0723 -1.8058 -0.0307
  621MPD2     N 9205   0.678   3.004   9.821  0.0078  0.2341  0.2791
  621MPD2    H5 9206   0.599   3.015   9.757 -0.1667  3.1804  0.9988
  621MPD2    N1 9207   0.459   2.619   9.964 -0.4155  0.0078  0.5027
  621MPD2    H7 9208   0.382   2.658   9.910  0.9043  0.2357 -1.2153
  622TMC3    C1 9209   0.313   2.433   9.989  0.2195  0.9876 -0.7824
  622TMC3    C2 9210   0.207   2.524   9.974 -0.1143 -0.6619 -0.5386
  622TMC3    C3 9211   0.089   2.483   9.918  0.7168 -0.0394 -0.2104
  622TMC3    C4 9212   0.310   2.300   9.963 -0.1689 -0.0270 -0.0222
  622TMC3    C5 9213   0.192   2.271   9.890  0.4081 -0.1303  0.2206
  622TMC3    C6 9214   0.089   2.357   9.869 -0.2073 -0.6025 -0.9899
  622TMC3     C 9215   0.441   2.489  10.007 -0.8555  0.1139 -0.1652
  622TMC3     O 9216   0.530   2.413  10.038  0.4602 -0.4981 -0.4241
  622TMC3     H 9217   0.205   2.618  10.027 -0.1236 -1.0675  0.1861
  622TMC3    H1 9218   0.389   2.229   9.979 -0.5696 -0.8774 -1.8060
  622TMC3    H2 9219   0.002   2.319   9.816  0.6477 -0.1470 -2.7074
  622TMC3    C7 9220   0.187   2.127   9.844  0.6659  0.5248  0.0647
  622TMC3    C8 9221   4.692   2.564   9.919 -1.0142  0.3103 -0.6605
  622TMC3    O1 9222   0.285   2.064   9.873  0.2087 -0.5189  0.0700
  622TMC3    O2 9223   4.592   2.505   9.889 -0.2572  0.1208 -0.4442
  623MPD2     C 9224   4.137   4.115  15.542 -0.3775  0.1193 -1.0631
  623MPD2    C1 9225   4.049   4.147  15.643 -0.1047  0.5570  0.0509
  623MPD2    C2 9226   4.090   4.159  15.774 -0.0553 -0.5520 -0.5358
  623MPD2    C3 9227   4.228   4.139  15.802 -0.0286 -0.6043 -0.3178
  623MPD2    C4 9228   4.314   4.109  15.698 -0.2316  0.0997  0.6842
  623MPD2    C5 9229   4.269   4.101  15.568 -0.9466  0.4497 -0.2411
  623MPD2     H 9230   4.016   4.193  15.844  2.0799  1.0303  0.9617
  623MPD2    H1 9231   4.418   4.084  15.720  0.1217 -0.2779 -1.4309
  623MPD2    H2 9232   4.108   4.100  15.438 -3.6312 -2.9624  0.2848
  623MPD2    H3 9233   4.342   4.092  15.488 -1.4047  0.6392 -0.6806
  623MPD2     N 9234   4.264   4.170  15.932 -0.5282  0.3236 -0.9407
  623MPD2    H5 9235   4.193   4.199  15.998  1.8976  3.8549  0.1543
  623MPD2    N1 9236   3.913   4.174  15.615 -0.4357  0.2331 -0.0417
  623MPD2    H7 9237   3.869   4.224  15.692 -2.1723 -2.3924  0.6692
  624TMC3    C1 9238   4.530   4.251  16.304 -0.6411 -0.4242  0.4922
  624TMC3    C2 9239   4.421   4.249  16.383 -0.3881 -0.3452  0.9412
  624TMC3    C3 9240   4.294   4.227  16.329 -0.6621 -0.9111  0.4449
  624TMC3    C4 9241   4.522   4.207  16.177 -0.3211 -0.1157 -0.2322
  624TMC3    C5 9242   4.395   4.181  16.130 -0.6360  0.0533 -0.0653
  624TMC3    C6 9243   4.278   4.190  16.200  0.0198  0.5467  0.4655
  624TMC3     C 9244   4.651   4.301  16.358  0.4514  0.3050 -0.0170
  624TMC3     O 9245   4.676   4.302  16.477  0.1637  0.0254 -0.7420
  624TMC3     H 9246   4.426   4.286  16.485  1.5332  0.9557  0.3595
  624TMC3    H1 9247   4.612   4.199  16.117  0.2610 -0.6291  0.6973
  624TMC3    H2 9248   4.186   4.177  16.144  0.1333  0.3002  0.3366
  624TMC3    C7 9249   4.394   4.164  15.983  0.3172 -0.2392 -0.2664
  624TMC3    C8 9250   4.174   4.237  16.407 -0.0535 -0.8621  0.3104
  624TMC3    O1 9251   4.502   4.126  15.934 -0.6410  0.3906  0.1637
  624TMC3    O2 9252   4.072   4.208  16.345  0.0927  0.1737  0.0485
  625MPD2     C 9253   0.520   1.962   0.493  0.2917 -0.2461 -0.1633
  625MPD2    C1 9254   0.510   1.877   0.391  0.2696 -0.0283  0.6421
  625MPD2    C2 9255   0.623   1.854   0.315  0.1059 -0.0229 -0.1851
  625MPD2    C3 9256   0.741   1.919   0.329 -0.8244  0.0823  0.3668
  625MPD2    C4 9257   0.749   2.005   0.439 -0.1647 -0.3691 -0.1016
  625MPD2    C5 9258   0.637   2.025   0.519 -0.1757 -0.3124  0.2470
  625MPD2     H 9259   0.618   1.773   0.243 -1.3365  1.3734 -1.6579
  625MPD2    H1 9260   0.845   2.040   0.476  0.0861 -0.2902 -0.8418
  625MPD2    H2 9261   0.436   1.981   0.559 -1.1489  2.4655 -2.8006
  625MPD2    H3 9262   0.648   2.082   0.611 -0.6040  2.2461 -1.2820
  625MPD2     N 9263   0.849   1.889   0.249  0.0374 -0.1310  0.1502
  625MPD2    H5 9264   0.833   1.804   0.196 -1.2427  0.2305 -0.0293
  625MPD2    N1 9265   0.384   1.819   0.379 -0.0202  0.4294 -0.4435
  625MPD2    H7 9266   0.310   1.851   0.440 -0.9426 -2.4923 -0.0041
  626TMC3    C1 9267   0.204   1.683   0.295 -0.5181 -0.5444 -0.1183
  626TMC3    C2 9268   0.162   1.604   0.192 -0.4902  0.1017 -0.0856
  626TMC3    C3 9269   0.031   1.557   0.202  0.1242  0.0612  0.2420
  626TMC3    C4 9270   0.124   1.712   0.406 -0.5386 -0.6339  0.2405
  626TMC3    C5 9271   4.720   1.653   0.420 -0.3415 -0.1847 -0.8321
  626TMC3    C6 9272   4.679   1.563   0.318  0.2614 -0.6803 -0.4128
  626TMC3     C 9273   0.345   1.729   0.280 -0.2435  0.0543  0.3326
  626TMC3     O 9274   0.415   1.670   0.201  0.1984 -0.5933 -0.0302
  626TMC3     H 9275   0.219   1.595   0.100  0.5716  1.3971  0.4499
  626TMC3    H1 9276   0.156   1.784   0.481 -0.6321  1.6971 -1.9681
  626TMC3    H2 9277   4.587   1.506   0.322  0.2091 -0.6216 -0.8180
  626TMC3    C7 9278   4.641   1.687   0.544  0.2757 -0.5138 -0.8604
  626TMC3    C8 9279   4.677   1.515   0.079  1.2413  0.6690 -0.1884
  626TMC3    O1 9280   4.684   1.765   0.629  0.0731 -0.0171 -0.1950
  626TMC3    O2 9281   0.020   1.523  17.654 -0.3114 -0.0807  0.6115
  627MPD2     C 9282   3.709   1.100  13.790 -0.1668 -0.0649  0.4610
  627MPD2    C1 9283   3.633   1.131  13.897 -0.0517 -0.2472 -0.0357
  627MPD2    C2 9284   3.514   1.064  13.913  0.3307  1.3885  0.1740
  627MPD2    C3 9285   3.495   0.944  13.848 -0.1937  0.1622  0.3256
  627MPD2    C4 9286   3.576   0.907  13.749  0.5518  0.8177 -0.8461
  627MPD2    C5 9287   3.681   0.988  13.715  0.7241  0.0717 -0.4307
  627MPD2     H 9288   3.448   1.095  13.994 -0.8022  0.0082 -0.2122
  627MPD2    H1 9289   3.580   0.810  13.700 -0.9595  0.8777 -1.0970
  627MPD2    H2 9290   3.788   1.167  13.758 -0.9642  0.2733 -0.7667
  627MPD2    H3 9291   3.748   0.958  13.635  0.8949 -2.7944  0.8022
  627MPD2     N 9292   3.404   0.860  13.915 -0.6529 -0.1241 -0.0210
  627MPD2    H5 9293   3.339   0.896  13.983 -1.3086 -1.0228 -0.1645
  627MPD2    N1 9294   3.675   1.229  13.988  0.4466 -0.1133  0.6404
  627MPD2    H7 9295   3.605   1.258  14.055  0.4448 -0.1461  0.6525
  628TMC3    C1 9296   3.826   1.332  14.126  0.1095 -0.1823  0.3305
  628TMC3    C2 9297   3.951   1.332  14.172 -0.0303  0.4002  0.0565
  628TMC3    C3 9298   3.963   1.335  14.312 -0.3869  0.4495 -0.0222
  628TMC3    C4 9299   3.716   1.380  14.202 -0.4365 -0.3958 -0.4673
  628TMC3    C5 9300   3.736   1.383  14.337 -0.6258 -0.0541 -0.3692
  628TMC3    C6 9301   3.859   1.356  14.395 -0.1439  0.2243 -0.0406
  628TMC3     C 9302   3.800   1.287  13.988  0.4245  0.6458  0.4800
  628TMC3     O 9303   3.901   1.270  13.918 -0.0818  0.7830 -0.1982
  628TMC3     H 9304   4.037   1.309  14.110 -0.9637 -0.2047 -1.0152
  628TMC3    H1 9305   3.620   1.410  14.160  1.0721  2.1693 -2.1079
  628TMC3    H2 9306   3.882   1.380  14.498  0.7161  2.4684 -0.7680
  628TMC3    C7 9307   3.645   1.466  14.419  0.6291 -0.3195  0.2447
  628TMC3    C8 9308   4.089   1.294  14.368  0.6357  1.0822  0.0363
  628TMC3    O1 9309   3.694   1.516  14.521  0.4911 -0.0954 -0.3913
  628TMC3    O2 9310   4.181   1.284  14.292 -0.4140 -0.3433  0.1317
  629MPD2     C 9311   2.025   4.353  16.084  0.1417 -0.5337  0.2402
  629MPD2    C1 9312   1.992   4.465  16.157 -0.1366  0.6547 -0.1584
  629MPD2    C2 9313   1.861   4.493  16.187  0.1397 -0.3636 -0.0859
  629MPD2    C3 9314   1.763   4.417  16.125  0.0393  0.3943  0.2056
  629MPD2    C4 9315   1.795   4.306  16.054 -0.0732 -0.0425  0.9859
  629MPD2    C5 9316   1.928   4.271  16.034  0.0417  0.0369  0.5331
  629MPD2     H 9317   1.847   4.580  16.250 -1.0846 -0.1758 -0.6195
  629MPD2    H1 9318   1.717   4.245  16.011  1.5988  0.3544 -2.6154
  629MPD2    H2 9319   2.128   4.320  16.077  0.5737  1.3894 -2.2232
  629MPD2    H3 9320   1.948   4.180  15.980  3.6277  1.2523 -0.1481
  629MPD2     N 9321   1.634   4.446  16.153  0.1197 -0.6544 -0.6559
  629MPD2    H5 9322   1.623   4.528  16.212  1.3869 -1.6675  1.0132
  629MPD2    N1 9323   2.100   4.525  16.232  0.3892 -0.1170  0.1180
  629MPD2    H7 9324   2.193   4.526  16.192  1.0759 -0.4271  1.7181
  630TMC3    C1 9325   2.200   4.668  16.397  0.4194 -0.1412  0.3245
  630TMC3    C2 9326   2.198   0.070  16.343  0.4543 -0.3773 -0.1413
  630TMC3    C3 9327   2.218   0.176  16.427  0.9933  0.2592 -0.4151
  630TMC3    C4 9328   2.226   4.648  16.531  0.2145  0.2238 -0.0573
  630TMC3    C5 9329   2.283   0.030  16.599  0.5897 -0.7050 -0.5572
  630TMC3    C6 9330   2.267   0.158  16.550  0.4363 -0.5045 -0.0691
  630TMC3     C 9331   2.083   4.592  16.354  0.3599  0.3156  0.2740
  630TMC3     O 9332   1.985   4.587  16.430  0.3403  0.5686  0.2001
  630TMC3     H 9333   2.166   0.080  16.240 -0.4386  0.1464  0.1867
  630TMC3    H1 9334   2.258   4.546  16.551 -0.1589  0.0559 -0.3134
  630TMC3    H2 9335   2.272   0.244  16.616  0.1248  1.5953 -2.7946
  630TMC3    C7 9336   2.348   0.018  16.726 -0.4466 -0.2025 -0.2951
  630TMC3    C8 9337   2.258   0.294  16.357  0.4924  0.3310  0.3707
  630TMC3    O1 9338   2.329   4.629  16.780  0.0240  0.2297  0.5281
  630TMC3    O2 9339   2.342   0.364  16.418  0.6668 -0.1484 -0.1727
  631MPD2     C 9340   4.611   4.614  15.370 -0.3349 -0.5321  0.3394
  631MPD2    C1 9341   0.010   4.665  15.325 -0.2883 -0.3129  0.3092
  631MPD2    C2 9342   0.126   4.592  15.310  1.0179 -0.2459 -0.8741
  631MPD2    C3 9343   0.132   4.461  15.351 -0.1453 -0.1210 -0.5055
  631MPD2    C4 9344   0.018   4.411  15.406 -0.1398  0.4573 -0.0798
  631MPD2    C5 9345   4.623   4.487  15.412  0.3456  0.2176  0.5823
  631MPD2     H 9346   0.213   4.629  15.257  1.5811  0.7361  0.7375
  631MPD2    H1 9347   0.018   4.311  15.448  0.6801  0.9627  1.1315
  631MPD2    H2 9348   4.512   4.654  15.384 -0.5330 -0.7515 -0.4294
  631MPD2    H3 9349   4.534   4.442  15.455 -0.3278 -1.1506 -2.2660
  631MPD2     N 9350   0.249   4.387  15.322 -0.3674  0.1837 -0.2269
  631MPD2    H5 9351   0.318   4.443  15.273  0.7448 -0.6680  0.3638
  631MPD2    N1 9352   4.718   0.078  15.293  0.5415 -0.5214 -0.3418
  631MPD2    H7 9353   4.629   0.122  15.310  0.3153 -0.8851 -0.5870
  632TMC3    C1 9354   0.057   0.278  15.189 -0.0817  0.4289 -0.5072
  632TMC3    C2 9355   0.048   0.343  15.310  0.5232 -0.2615 -0.1069
  632TMC3    C3 9356   0.120   0.461  15.318 -0.3169  0.5012  0.0820
  632TMC3    C4 9357   0.119   0.328  15.079 -0.0553 -0.2148  0.1733
  632TMC3    C5 9358   0.185   0.447  15.088 -0.4861  0.8509  0.1512
  632TMC3    C6 9359   0.185   0.512  15.209  0.2539  0.2717 -0.2964
  632TMC3     C 9360   0.085   0.143  15.207  0.3547  0.5140 -0.0696
  632TMC3     O 9361   0.166   0.092  15.131 -0.3412 -0.0999  0.7641
  632TMC3     H 9362   4.691   0.308  15.378  0.0877  0.2042 -0.3597
  632TMC3    H1 9363   0.128   0.266  14.991  0.2653  0.7487 -0.4675
  632TMC3    H2 9364   0.233   0.609  15.213 -2.1894  1.4023  1.4698
  632TMC3    C7 9365   0.295   0.483  14.996  0.4567  0.6897 -0.5900
  632TMC3    C8 9366   0.111   0.551  15.431  0.5186  0.2220 -0.8396
  632TMC3    O1 9367   0.391   0.550  15.031 -0.6130 -0.0242 -0.2969
  632TMC3    O2 9368   0.193   0.641  15.446  0.2666  0.3341  0.5667
  633MPD2     C 9369   4.614   2.821  17.388 -0.7137 -0.1694 -0.1991
  633MPD2    C1 9370   4.694   2.773  17.290 -0.2085 -0.0478 -0.3496
  633MPD2    C2 9371   0.063   2.675  17.319  0.1009  0.1554 -0.2011
  633MPD2    C3 9372   0.078   2.631  17.451 -0.6495  0.0369  0.5094
  633MPD2    C4 9373   4.715   2.674  17.550  0.2819 -0.1414 -0.2984
  633MPD2    C5 9374   4.632   2.784  17.518 -0.0685 -0.6605 -0.1766
  633MPD2     H 9375   0.137   2.644  17.246  0.9147  0.4961  0.4780
  633MPD2    H1 9376   4.710   2.638  17.651 -2.9417  0.2573 -0.3246
  633MPD2    H2 9377   4.543   2.901  17.373 -2.7298 -1.6687  1.4930
  633MPD2    H3 9378   4.574   2.833  17.594  0.5703  1.9534 -1.3676
  633MPD2     N 9379   0.171   2.531  17.479 -1.1833 -0.0381 -0.8299
  633MPD2    H5 9380   0.156   2.484  17.568 -0.7975  1.2807 -0.0642
  633MPD2    N1 9381   4.700   2.823  17.160 -0.2888  0.7273 -0.2466
  633MPD2    H7 9382   0.050   2.785  17.097  1.2065  2.8375  0.1249
  634TMC3    C1 9383   4.631   2.919  16.968  0.2389  0.6661  0.4850
  634TMC3    C2 9384   4.704   2.833  16.895 -0.2538 -0.1565  0.2122
  634TMC3    C3 9385   4.695   2.828  16.758 -0.6794 -0.0415 -0.2605
  634TMC3    C4 9386   4.547   3.005  16.906 -1.4019 -0.8650  0.5743
  634TMC3    C5 9387   4.549   3.009  16.769  0.2513 -0.1450  0.4318
  634TMC3    C6 9388   4.611   2.914  16.688  0.1505 -0.5828  0.1885
  634TMC3     C 9389   4.602   2.904  17.107 -0.6643  1.3175 -0.4446
  634TMC3     O 9390   4.506   2.960  17.159 -0.2682  0.4547  0.4930
  634TMC3     H 9391   0.045   2.759  16.944 -0.6575 -0.1939  0.6629
  634TMC3    H1 9392   4.497   3.077  16.970 -1.7062  0.0882 -0.7394
  634TMC3    H2 9393   4.579   2.906  16.585  1.4350 -0.7505 -0.1950
  634TMC3    C7 9394   4.456   3.099  16.699 -1.3182  0.2215 -0.5898
  634TMC3    C8 9395   4.709   2.694  16.705  0.4248 -0.6607 -0.0851
  634TMC3    O1 9396   4.473   3.109  16.578 -0.1012  0.3028 -0.5204
  634TMC3    O2 9397   4.708   2.605  16.789 -0.1902  0.5812 -0.2610
  635TMC3    C1 9398   1.203   3.858  16.451  0.5505 -0.1334  0.3118
  635TMC3    C2 9399   1.325   3.787  16.450  0.4093 -0.2183  0.2474
  635TMC3    C3 9400   1.342   3.700  16.346 -0.4984 -0.5810  0.0780
  635TMC3    C4 9401   1.105   3.840  16.357  0.1281 -0.8066 -0.1156
  635TMC3    C5 9402   1.136   3.761  16.251  0.3850 -0.2418 -0.3072
  635TMC3    C6 9403   1.250   3.686  16.246  0.3136 -0.2895  0.1349
  635TMC3     C 9404   1.155   3.929  16.566  0.4201  0.7724  0.4517
  635TMC3     O 9405   1.035   3.909  16.589  0.7418 -0.0901  0.3726
  635TMC3     H 9406   1.398   3.793  16.530  0.2926 -1.5375  0.4646
  635TMC3    H1 9407   1.013   3.897  16.350  0.5727 -0.1683 -0.9033
  635TMC3    H2 9408   1.264   3.624  16.159  0.3289 -1.5274  1.0248
  635TMC3    C7 9409   1.060   3.759  16.130 -0.3348  0.0637  0.3071
  635TMC3    C8 9410   1.481   3.652  16.335  0.6634  0.0856  0.6397
  635TMC3    O1 9411   1.106   3.703  16.030 -0.7169 -0.5431 -0.2496
  635TMC3    O2 9412   1.564   3.740  16.363  0.8522  0.0153  0.1796
  636MPD2     C 9413   0.832   2.987  15.285 -0.2417 -0.1830 -0.1139
  636MPD2    C1 9414   0.886   3.021  15.408 -0.6058  0.4964  0.0852
  636MPD2    C2 9415   0.977   2.930  15.464 -0.5410  0.3189  0.3869
  636MPD2    C3 9416   1.004   2.805  15.404  0.1759  0.3664 -0.3649
  636MPD2    C4 9417   0.938   2.781  15.280  0.0862 -0.1337  0.4469
  636MPD2    C5 9418   0.864   2.875  15.217 -0.2865  0.1682  0.4276
  636MPD2     H 9419   1.018   2.953  15.561  2.5150 -0.6744 -0.6731
  636MPD2    H1 9420   0.956   2.687  15.229 -0.7870 -0.0834  0.0589
  636MPD2    H2 9421   0.763   3.048  15.228 -0.5074 -1.0522 -0.7113
  636MPD2    H3 9422   0.817   2.856  15.121 -0.0673  1.0391  0.1451
  636MPD2     N 9423   1.080   2.710  15.475 -0.1826  0.4694 -0.2650
  636MPD2    H5 9424   1.124   2.744  15.560  0.3218  0.8678 -0.6811
  636MPD2    N1 9425   0.867   3.143  15.478  0.4952  0.3856 -0.0891
  636MPD2    H7 9426   0.908   3.148  15.571  0.0436  2.0406  0.0338
  637TMC3    C1 9427   1.223   2.525  15.501 -0.2226  0.4224  0.1278
  637TMC3    C2 9428   1.227   2.546  15.638  0.3977 -0.3961 -0.0817
  637TMC3    C3 9429   1.346   2.511  15.697  0.2683  0.3270  0.6924
  637TMC3    C4 9430   1.319   2.454  15.428 -0.4971  0.5327  0.0685
  637TMC3    C5 9431   1.434   2.445  15.490  0.6008  0.3695  0.0019
  637TMC3    C6 9432   1.452   2.459  15.621  0.1118 -0.6741 -0.0838
  637TMC3     C 9433   1.120   2.592  15.422 -0.7638 -0.3588 -0.9789
  637TMC3     O 9434   1.084   2.526  15.322 -0.8485  0.1311  0.0752
  637TMC3     H 9435   1.147   2.590  15.695  0.8028 -1.1230  1.0426
  637TMC3    H1 9436   1.311   2.452  15.320 -0.5890 -0.7344  0.0969
  637TMC3    H2 9437   1.550   2.442  15.664  0.4241 -0.8945 -0.8867
  637TMC3    C7 9438   1.555   2.493  15.427  0.4286 -0.8012 -0.8169
  637TMC3    C8 9439   1.379   2.598  15.812  0.1295  0.3319  0.6094
  637TMC3    O1 9440   1.653   2.522  15.495  0.4244 -0.1434 -0.1237
  637TMC3    O2 9441   1.328   2.705  15.823 -0.5568  1.2182  0.0844
  638MPD2     C 9442   0.584   2.156  14.543 -0.6072  0.3657 -0.0152
  638MPD2    C1 9443   0.509   2.055  14.499 -0.1892 -0.5147  0.2321
  638MPD2    C2 9444   0.479   1.947  14.587  0.1883 -0.3035  0.4176
  638MPD2    C3 9445   0.518   1.952  14.715  0.6718  0.1342 -0.7273
  638MPD2    C4 9446   0.594   2.060  14.753 -0.3308  0.1091 -0.1483
  638MPD2    C5 9447   0.624   2.163  14.665  0.2436 -0.7819 -0.2438
  638MPD2     H 9448   0.437   1.854  14.552  0.1118  0.3221 -1.1813
  638MPD2    H1 9449   0.626   2.070  14.856  1.8153  0.4073 -0.8410
  638MPD2    H2 9450   0.616   2.237  14.478  0.7229 -1.5190 -1.6985
  638MPD2    H3 9451   0.694   2.238  14.700 -1.8173  0.8258  0.3411
  638MPD2     N 9452   0.493   1.845  14.802 -0.4568 -0.0902 -0.1086
  638MPD2    H5 9453   0.419   1.779  14.779 -0.2178 -0.3115 -0.2474
  638MPD2    N1 9454   0.478   2.060  14.361  0.4444  0.1200  0.8950
  638MPD2    H7 9455   0.505   2.144  14.310 -1.1084 -0.6851 -1.2531
  639TMC3    C1 9456   0.523   1.688  14.966 -0.4785 -0.4357  0.3499
  639TMC3    C2 9457   0.454   1.595  14.894  0.7916 -0.2599 -0.5093
  639TMC3    C3 9458   0.404   1.489  14.960  0.1281 -0.0698  0.4861
  639TMC3    C4 9459   0.571   1.650  15.091  0.2437  0.0531  0.5715
  639TMC3    C5 9460   0.518   1.539  15.151  0.0801 -0.4234  0.7850
  639TMC3    C6 9461   0.436   1.453  15.088  0.4316 -0.5275 -0.4947
  639TMC3     C 9462   0.568   1.813  14.906 -0.1758 -0.2559  0.1727
  639TMC3     O 9463   0.665   1.865  14.964 -0.5004 -0.2720  0.0926
  639TMC3     H 9464   0.433   1.608  14.789 -1.7692 -1.4283 -0.1438
  639TMC3    H1 9465   0.622   1.726  15.150  0.6803  0.2704 -0.0899
  639TMC3    H2 9466   0.413   1.357  15.133  1.1906 -0.1383  0.7336
  639TMC3    C7 9467   0.609   1.470  15.245 -0.0532  0.3491 -0.0417
  639TMC3    C8 9468   0.348   1.385  14.875 -0.6134 -0.1712 -0.4896
  639TMC3    O1 9469   0.570   1.386  15.323  0.2452 -0.1086  0.5344
  639TMC3    O2 9470   0.389   1.382  14.762  0.1715 -0.4421 -1.0741
  640MPD2     C 9471   1.011   4.423  10.374  0.1106  0.1901  0.5059
  640MPD2    C1 9472   0.982   4.454  10.243 -0.0147  0.1643  0.3254
  640MPD2    C2 9473   0.859   4.518  10.208 -0.4657  0.1605  0.4980
  640MPD2    C3 9474   0.777   4.555  10.309 -0.2609  0.0474 -0.6083
  640MPD2    C4 9475   0.805   4.526  10.438  0.2886 -0.5021 -0.2193
  640MPD2    C5 9476   0.920   4.457  10.468 -0.2153 -0.4921  0.1522
  640MPD2     H 9477   0.838   4.540  10.104 -1.1099 -1.4406  0.2887
  640MPD2    H1 9478   0.732   4.549  10.516 -0.9235 -1.9301 -0.9174
  640MPD2    H2 9479   1.100   4.372  10.406  0.0556 -1.0782 -1.3678
  640MPD2    H3 9480   0.935   4.418  10.568  1.4918  0.5106  0.2872
  640MPD2     N 9481   0.656   4.620  10.285 -0.3990  0.1003 -0.3967
  640MPD2    H5 9482   0.583   4.613  10.355  1.0549 -2.5110  0.8464
  640MPD2    N1 9483   1.079   4.418  10.148  0.1526  0.2090 -0.1896
  640MPD2    H7 9484   1.151   4.357  10.185 -0.9764 -1.9357 -1.5012
  641TMC3    C1 9485   1.173   4.351   9.952 -0.1653 -0.0024 -0.0538
  641TMC3    C2 9486   1.215   4.234  10.005 -0.3178 -0.2973 -0.0759
  641TMC3    C3 9487   1.313   4.162   9.939 -0.9653 -0.5163 -0.2605
  641TMC3    C4 9488   1.219   4.405   9.836 -0.1885  0.1207  1.1156
  641TMC3    C5 9489   1.323   4.335   9.777  0.3588 -0.5909 -0.8554
  641TMC3    C6 9490   1.364   4.206   9.820  0.3369 -0.3391  0.5854
  641TMC3     C 9491   1.076   4.434  10.015 -0.3062  0.0793  0.3289
  641TMC3     O 9492   1.017   4.516   9.948 -0.0176 -0.8808 -0.5213
  641TMC3     H 9493   1.161   4.185  10.085 -2.1096  0.8730 -0.5716
  641TMC3    H1 9494   1.196   4.509   9.815  1.5726  0.5212  1.1047
  641TMC3    H2 9495   1.450   4.156   9.779 -0.5252 -1.2754 -0.0830
  641TMC3    C7 9496   1.400   4.396   9.667  0.4976  0.3312 -0.3630
  641TMC3    C8 9497   1.350   4.031   9.982 -0.0952 -0.4325 -0.2513
  641TMC3    O1 9498   1.436   4.322   9.574  1.1921 -0.0732  0.0958
  641TMC3    O2 9499   1.349   3.955   9.887 -0.2216 -0.0723  0.0179
  642TMC3    C1 9500   2.012   1.603  11.982  0.9216 -0.0992  0.3219
  642TMC3    C2 9501   2.106   1.575  12.072  0.3436  0.1929  0.2053
  642TMC3    C3 9502   2.081   1.469  12.150  0.0119 -0.4445  0.3617
  642TMC3    C4 9503   1.910   1.522  11.956  0.1714 -1.0609  0.3877
  642TMC3    C5 9504   1.911   1.403  12.007 -0.0132  0.5736  0.0116
  642TMC3    C6 9505   1.992   1.376  12.118 -0.5042  0.0974  0.6698
  642TMC3     C 9506   1.980   1.740  11.975 -0.7595 -0.1543  0.0970
  642TMC3     O 9507   2.074   1.809  11.941 -0.2878  0.5414  0.0763
  642TMC3     H 9508   2.193   1.636  12.093  0.0260  0.3269  1.1384
  642TMC3    H1 9509   1.832   1.558  11.890  0.3875  2.4829  2.0356
  642TMC3    H2 9510   1.992   1.278  12.165  0.1412 -0.5652 -0.7169
  642TMC3    C7 9511   1.798   1.320  11.967 -0.2607  0.6938  0.2163
  642TMC3    C8 9512   2.142   1.452  12.280 -0.3855  0.5826 -0.4086
  642TMC3    O1 9513   1.752   1.339  11.856  0.1862 -0.0162 -0.6996
  642TMC3    O2 9514   2.079   1.379  12.359 -0.2833  0.4545  0.9432
  643TMC3    C1 9515   1.781   0.858   0.503 -0.2562  0.1018 -0.2925
  643TMC3    C2 9516   1.651   0.852   0.464  0.4451  0.3926  0.5183
  643TMC3    C3 9517   1.610   0.758   0.373  0.2330 -0.1790  0.1320
  643TMC3    C4 9518   1.878   0.781   0.448 -0.2997 -0.1742  0.6284
  643TMC3    C5 9519   1.837   0.681   0.363  0.0099 -0.5999 -0.0869
  643TMC3    C6 9520   1.698   0.665   0.329 -0.0323  0.1865  0.0238
  643TMC3     C 9521   1.818   0.990   0.564 -0.3112  0.7049  0.2494
  643TMC3     O 9522   1.743   1.084   0.545 -0.0565 -0.2933  0.2414
  643TMC3     H 9523   1.579   0.914   0.517  2.1561  2.3123  0.5894
  643TMC3    H1 9524   1.983   0.806   0.462 -0.6352  1.8545 -0.4716
  643TMC3    H2 9525   1.666   0.602   0.247  3.6851 -2.6683  0.7991
  643TMC3    C7 9526   1.929   0.677   0.252  0.5424  0.5429 -0.0849
  643TMC3    C8 9527   1.533   0.820   0.263 -0.1139  0.3971  0.4722
  643TMC3    O1 9528   1.993   0.781   0.241 -0.0433 -0.2111  0.8328
  643TMC3    O2 9529   1.515   0.757   0.160 -0.4007  0.2991  0.0586
  644MPD2     C 9530   2.103   0.713   9.585 -0.9057 -0.2231  0.2315
  644MPD2    C1 9531   1.977   0.659   9.601  0.3738 -0.3663  1.2673
  644MPD2    C2 9532   1.866   0.724   9.551  0.2514  0.5431  0.2339
  644MPD2    C3 9533   1.867   0.845   9.482  0.0520 -0.4560 -0.2612
  644MPD2    C4 9534   1.993   0.902   9.475  0.0809  0.3512  0.4037
  644MPD2    C5 9535   2.106   0.833   9.526 -0.5711 -0.0738  0.4149
  644MPD2     H 9536   1.768   0.679   9.562  2.0128 -3.3761 -0.2046
  644MPD2    H1 9537   2.019   0.992   9.421 -1.1350  0.7565  0.5062
  644MPD2    H2 9538   2.197   0.668   9.616  0.3159  1.0410 -1.6344
  644MPD2    H3 9539   2.201   0.880   9.505 -0.2544 -1.4159 -1.1355
  644MPD2     N 9540   1.747   0.913   9.451  0.1762  0.5083 -0.1571
  644MPD2    H5 9541   1.660   0.880   9.494  2.5138 -3.0485  1.9070
  644MPD2    N1 9542   1.983   0.536   9.674  0.5313  0.0920  0.5418
  644MPD2    H7 9543   2.072   0.512   9.717  0.1178 -1.3765  0.5759
  645TMC3    C1 9544   1.606   1.092   9.442  0.9211 -0.0475 -0.2775
  645TMC3    C2 9545   1.495   1.007   9.438  0.2001 -0.0330 -0.3602
  645TMC3    C3 9546   1.386   1.052   9.500  0.2565  0.4325  0.2604
  645TMC3    C4 9547   1.599   1.209   9.508  0.5737  0.0580 -0.4763
  645TMC3    C5 9548   1.485   1.251   9.575 -0.3278  0.1754  0.4908
  645TMC3    C6 9549   1.378   1.165   9.575 -0.0231  0.3338  0.9338
  645TMC3     C 9550   1.739   1.045   9.409 -0.2257 -0.4606  0.2539
  645TMC3     O 9551   1.821   1.130   9.374  0.5318 -0.1893  0.1629
  645TMC3     H 9552   1.500   0.911   9.390 -1.2646  0.1051 -0.7998
  645TMC3    H1 9553   1.679   1.282   9.513  1.2890 -0.7802  0.3784
  645TMC3    H2 9554   1.278   1.199   9.600  0.1523  0.8279  0.9624
  645TMC3    C7 9555   1.474   1.383   9.620  0.7967 -0.0299 -0.3406
  645TMC3    C8 9556   1.259   0.988   9.477  0.8706  0.1316 -0.6884
  645TMC3    O1 9557   1.548   1.470   9.580  0.0203  0.9162 -0.0452
  645TMC3    O2 9558   1.173   1.003   9.564 -0.5062  0.1028 -0.4396
  646MPD2     C 9559   0.948   0.708  14.553 -0.6306  0.0539  0.3819
  646MPD2    C1 9560   0.873   0.753  14.662 -0.0707  0.8548  0.8634
  646MPD2    C2 9561   0.736   0.761  14.633  0.2148 -0.1869  0.0872
  646MPD2    C3 9562   0.681   0.731  14.507 -1.1457  0.5353  0.0167
  646MPD2    C4 9563   0.759   0.668  14.411  1.1480 -0.4028 -0.3280
  646MPD2    C5 9564   0.898   0.667  14.436 -0.2835 -0.1678  0.0460
  646MPD2     H 9565   0.676   0.806  14.711 -0.6064 -0.4154 -0.4164
  646MPD2    H1 9566   0.723   0.624  14.319  0.8287  0.9272 -0.8369
  646MPD2    H2 9567   1.055   0.692  14.548 -0.6472  0.3508 -0.8569
  646MPD2    H3 9568   0.967   0.613  14.372  0.3338  0.8957 -0.1757
  646MPD2     N 9569   0.545   0.751  14.478 -0.2131 -0.1991  0.1343
  646MPD2    H5 9570   0.478   0.766  14.554 -2.0492  2.2572 -1.9698
  646MPD2    N1 9571   0.935   0.777  14.788 -0.3667 -0.0327  0.0192
  646MPD2    H7 9572   1.036   0.786  14.792 -0.1067 -1.9634 -2.3480
  647TMC3    C1 9573   0.958   0.826  15.018 -0.8104 -0.2241 -0.5569
  647TMC3    C2 9574   0.916   0.812  15.147  0.1421 -0.2146  0.2521
  647TMC3    C3 9575   1.009   0.802  15.251  0.3296  0.0801  0.2185
  647TMC3    C4 9576   1.090   0.850  14.990 -0.6318  0.1658  0.1601
  647TMC3    C5 9577   1.180   0.837  15.091 -0.6812 -0.1873 -0.4534
  647TMC3    C6 9578   1.148   0.815  15.221 -0.5447 -0.9173  0.3643
  647TMC3     C 9579   0.866   0.795  14.907  0.6090 -0.4961 -0.6432
  647TMC3     O 9580   0.750   0.767  14.932  0.4292  0.2667 -0.5166
  647TMC3     H 9581   0.813   0.787  15.170  0.0434 -0.1168 -0.0806
  647TMC3    H1 9582   1.130   0.865  14.890 -0.7715 -0.8479 -0.0413
  647TMC3    H2 9583   1.218   0.785  15.298 -1.6902  0.8885  2.1286
  647TMC3    C7 9584   1.309   0.782  15.059  0.3606 -0.2905 -0.6346
  647TMC3    C8 9585   0.987   0.693  15.342 -0.7352 -0.0869 -0.2551
  647TMC3    O1 9586   1.356   0.698  15.139 -0.1304  0.3142 -0.9119
  647TMC3    O2 9587   1.011   0.699  15.465  0.4945  0.0765  0.4722
  648TMC3    C1 9588   0.102   2.737  15.935 -0.3066 -0.4374 -0.7393
  648TMC3    C2 9589   0.094   2.609  15.879  0.5234  0.1318 -0.2709
  648TMC3    C3 9590   0.073   2.600  15.747 -0.0343 -0.2313  0.2426
  648TMC3    C4 9591   0.071   2.850  15.865 -0.3972 -0.7979  0.2312
  648TMC3    C5 9592   0.046   2.836  15.731 -0.5643  0.2825 -0.4113
  648TMC3    C6 9593   0.051   2.711  15.669  0.3585  0.4191  0.2093
  648TMC3     C 9594   0.151   2.756  16.063 -0.0301  1.1390 -0.5221
  648TMC3     O 9595   0.131   2.864  16.113 -0.3764 -0.0372 -0.5392
  648TMC3     H 9596   0.097   2.523  15.945  0.2475  0.1683 -0.2134
  648TMC3    H1 9597   0.065   2.947  15.913 -2.0681 -0.2729 -1.0416
  648TMC3    H2 9598   0.034   2.707  15.562 -0.5596 -0.3056  0.3863
  648TMC3    C7 9599   4.693   2.942  15.653 -0.8987  0.1251  0.8075
  648TMC3    C8 9600   0.056   2.467  15.694 -0.1606  0.0042  0.2201
  648TMC3    O1 9601   4.651   2.920  15.541  0.2739 -0.1570  0.0434
  648TMC3    O2 9602   0.033   2.375  15.776 -0.1219 -0.1808 -0.1104
  649TMC3    C1 9603   3.467   3.711  12.614  0.4729 -0.5527 -0.2039
  649TMC3    C2 9604   3.580   3.787  12.613  0.0310  0.3756  0.2359
  649TMC3    C3 9605   3.647   3.795  12.731  0.3069  0.2235  0.6231
  649TMC3    C4 9606   3.401   3.662  12.724 -0.3602  0.5191 -0.2467
  649TMC3    C5 9607   3.464   3.693  12.840  0.1593 -0.2727 -0.6983
  649TMC3    C6 9608   3.593   3.745  12.850  0.2075  0.1494  1.3410
  649TMC3     C 9609   3.385   3.702  12.498 -0.3981 -0.4779  0.0544
  649TMC3     O 9610   3.263   3.696  12.513  0.0034  0.0101  0.3273
  649TMC3     H 9611   3.619   3.842  12.528 -2.2516 -0.3178 -1.2640
  649TMC3    H1 9612   3.299   3.628  12.711  0.4701 -1.7197 -0.9204
  649TMC3    H2 9613   3.648   3.742  12.943 -0.9824 -1.8010  1.9890
  649TMC3    C7 9614   3.409   3.642  12.963  0.5396 -0.5345  0.0066
  649TMC3    C8 9615   3.772   3.868  12.741 -0.1805 -0.6984  0.0925
  649TMC3    O1 9616   3.421   3.712  13.066  0.0487  0.5029 -0.1875
  649TMC3    O2 9617   3.843   3.862  12.640  0.3090 -0.0300  0.0555
  650TMC3    C1 9618   1.104   0.986  12.441 -0.0013 -0.1082  0.6737
  650TMC3    C2 9619   1.078   1.113  12.488 -0.2720  0.0856 -0.5940
  650TMC3    C3 9620   0.968   1.183  12.437  0.2381  0.3649  0.3593
  650TMC3    C4 9621   1.011   0.922  12.364 -0.3586 -0.1911  0.1963
  650TMC3    C5 9622   0.927   1.009  12.297 -0.1919 -0.1895 -0.4891
  650TMC3    C6 9623   0.907   1.142  12.327  1.0267 -0.0338  0.2731
  650TMC3     C 9624   1.204   0.912  12.515 -0.2874 -0.2876  0.3374
  650TMC3     O 9625   1.236   0.960  12.625  0.0785  0.0607  0.0518
  650TMC3     H 9626   1.134   1.156  12.570 -0.1275 -0.9496 -0.1552
  650TMC3    H1 9627   1.031   0.822  12.327  0.2155 -1.1990  3.2090
  650TMC3    H2 9628   0.835   1.205  12.276  1.4738 -1.1571 -1.7726
  650TMC3    C7 9629   0.844   0.944  12.198 -0.1420  0.2220  0.6386
  650TMC3    C8 9630   0.985   1.325  12.433  0.0390 -0.1905 -0.3866
  650TMC3    O1 9631   0.829   0.825  12.206  0.7849  0.0195  0.3314
  650TMC3    O2 9632   1.096   1.368  12.448  0.2939 -0.3409 -0.6836
  651MPD2     C 9633   0.224   2.436  10.311  0.4961  0.1154  0.8629
  651MPD2    C1 9634   0.199   2.567  10.299 -0.7052  0.3688 -0.3353
  651MPD2    C2 9635   0.292   2.653  10.333  0.6805  0.2798  0.7157
  651MPD2    C3 9636   0.422   2.614  10.362 -0.0487  0.0177  0.3290
  651MPD2    C4 9637   0.443   2.476  10.364 -0.5339  0.2347  0.1221
  651MPD2    C5 9638   0.346   2.385  10.338 -0.5816  0.2827 -0.9082
  651MPD2     H 9639   0.268   2.759  10.333  0.6709  0.2723 -0.3548
  651MPD2    H1 9640   0.537   2.428  10.387 -1.7102 -1.3525  1.5221
  651MPD2    H2 9641   0.149   2.358  10.298  0.5815 -0.0134  1.1528
  651MPD2    H3 9642   0.378   2.284  10.361 -0.3079  0.4789 -0.4465
  651MPD2     N 9643   0.525   2.716  10.377 -0.7481  0.3312 -0.0653
  651MPD2    H5 9644   0.491   2.811  10.371  4.5192  2.0885 -2.3047
  651MPD2    N1 9645   0.067   2.625  10.271  0.2509 -0.0367 -0.1699
  651MPD2    H7 9646   0.070   2.726  10.263 -0.2475  0.1875  2.2963
  652TMC3    C1 9647   0.925   2.926  10.484 -0.1986  0.4168 -0.0112
  652TMC3    C2 9648   0.858   2.812  10.464 -0.3840  0.1674 -0.0842
  652TMC3    C3 9649   0.729   2.827  10.414  0.5669  0.2131  0.1691
  652TMC3    C4 9650   0.874   3.047  10.444  0.1980 -0.9386 -0.1367
  652TMC3    C5 9651   0.762   3.048  10.363 -0.4061 -0.1696 -0.6650
  652TMC3    C6 9652   0.678   2.941  10.353  0.3908 -0.1677 -0.3121
  652TMC3     C 9653   1.022   2.932  10.589 -0.1434  0.7256  0.3658
  652TMC3     O 9654   1.035   2.846  10.676 -0.2207 -0.5120 -0.1461
  652TMC3     H 9655   0.893   2.719  10.508  0.4240  0.8759  0.7637
  652TMC3    H1 9656   0.921   3.143  10.462  3.6762 -2.4296 -1.2596
  652TMC3    H2 9657   0.580   2.944  10.307  1.8882 -2.5488 -3.7374
  652TMC3    C7 9658   0.698   3.179  10.364 -0.1433  0.8092  0.1770
  652TMC3    C8 9659   0.658   2.705  10.404 -0.0245  0.1575 -0.5182
  652TMC3    O1 9660   0.593   3.183  10.429  0.2566 -0.1222  0.0858
  652TMC3    O2 9661   0.719   2.603  10.417  0.5871 -0.5521  0.0719
  653MPD2     C 9662   4.310   2.552  17.470 -1.0519 -0.1066  0.4084
  653MPD2    C1 9663   4.234   2.645  17.399  0.2920  0.0564  0.5144
  653MPD2    C2 9664   4.159   2.612  17.285 -0.3985  0.2304 -0.4602
  653MPD2    C3 9665   4.144   2.477  17.253 -0.5855  0.1357 -0.4424
  653MPD2    C4 9666   4.211   2.385  17.328  0.2836 -0.4075 -0.1123
  653MPD2    C5 9667   4.293   2.429  17.426  0.3398 -0.2996  0.3337
  653MPD2     H 9668   4.107   2.690  17.232 -2.2662  0.4784  1.7431
  653MPD2    H1 9669   4.210   2.278  17.313  0.6658 -0.5486  0.8773
  653MPD2    H2 9670   4.382   2.570  17.550 -0.8929 -0.1609  0.2788
  653MPD2    H3 9671   4.342   2.354  17.487 -0.2243 -1.2791 -0.4096
  653MPD2     N 9672   4.083   2.441  17.131 -0.0303  0.4624 -0.4937
  653MPD2    H5 9673   4.039   2.511  17.073  0.4700 -1.6329 -3.4274
  653MPD2    N1 9674   4.235   2.784  17.430  0.3852  0.4649  0.1040
  653MPD2    H7 9675   4.173   2.845  17.377 -1.2576 -1.9086 -0.6892
  654TMC3    C1 9676   4.015   2.303  16.946  0.8194 -0.8909  0.8596
  654TMC3    C2 9677   3.891   2.361  16.934  0.1413  0.8120 -1.1970
  654TMC3    C3 9678   3.809   2.307  16.833  0.8270  1.1033 -0.3600
  654TMC3    C4 9679   4.057   2.203  16.862 -0.2067  0.6863  0.5889
  654TMC3    C5 9680   3.977   2.167  16.756  0.3920  0.0615 -0.0107
  654TMC3    C6 9681   3.855   2.226  16.736 -0.0666 -0.0296  1.1506
  654TMC3     C 9682   4.090   2.322  17.067  0.5345  0.3291  0.1612
  654TMC3     O 9683   4.179   2.238  17.082  0.0671  0.5508  0.3879
  654TMC3     H 9684   3.845   2.431  17.003  0.8548 -0.1830  0.3038
  654TMC3    H1 9685   4.156   2.159  16.870 -0.7546 -0.1213  3.1018
  654TMC3    H2 9686   3.799   2.208  16.645  0.3225 -3.0409  1.5209
  654TMC3    C7 9687   4.022   2.054  16.667  0.2619 -0.2374 -0.2604
  654TMC3    C8 9688   3.677   2.378  16.811 -0.0134  0.8963 -0.2779
  654TMC3    O1 9689   3.978   2.049  16.556 -0.4375 -0.8576  0.3648
  654TMC3    O2 9690   3.661   2.475  16.877 -0.0665  1.0675 -0.5043
  655MPD2     C 9691   0.593   2.862  15.526  0.3275 -0.2346  0.7276
  655MPD2    C1 9692   0.509   2.943  15.457  0.0851  0.3485  0.5594
  655MPD2    C2 9693   0.471   2.913  15.322 -0.0637 -0.5980  0.4420
  655MPD2    C3 9694   0.510   2.791  15.262 -0.2646 -0.6584  0.2650
  655MPD2    C4 9695   0.587   2.707  15.340  0.4085 -0.2768 -0.5769
  655MPD2    C5 9696   0.632   2.745  15.462  0.4459 -0.0858 -0.5912
  655MPD2     H 9697   0.406   2.979  15.267 -0.8575  0.2028  2.3617
  655MPD2    H1 9698   0.629   2.618  15.295 -3.2900 -1.5193 -1.4967
  655MPD2    H2 9699   0.630   2.882  15.627 -0.7993  0.7364  0.9402
  655MPD2    H3 9700   0.694   2.671  15.512  0.1315 -0.7858 -1.2287
  655MPD2     N 9701   0.464   2.755  15.137 -0.8610  0.3712  0.0703
  655MPD2    H5 9702   0.453   2.833  15.073 -1.5534 -1.3685 -1.9493
  655MPD2    N1 9703   0.452   3.060  15.513  0.5891 -0.1126  0.3193
  655MPD2    H7 9704   0.382   3.103  15.453 -0.4888 -1.3199  0.7158
  656TMC3    C1 9705   0.369   3.217  15.668 -0.0266  0.1146 -0.4488
  656TMC3    C2 9706   0.332   3.226  15.798 -0.2019  0.2670  0.9949
  656TMC3    C3 9707   0.238   3.321  15.844 -0.3031  0.3881  0.3191
  656TMC3    C4 9708   0.306   3.289  15.576  0.1684  0.2972  0.1144
  656TMC3    C5 9709   0.207   3.375  15.621  0.3918 -0.7695 -0.1569
  656TMC3    C6 9710   0.168   3.388  15.749 -0.0724 -0.1487  0.2674
  656TMC3     C 9711   0.467   3.111  15.640  0.7042  0.4509 -0.5832
  656TMC3     O 9712   0.538   3.077  15.733  0.3737 -0.4076  0.1179
  656TMC3     H 9713   0.384   3.163  15.869  2.2542  1.1974 -0.0003
  656TMC3    H1 9714   0.350   3.286  15.477 -0.1354 -0.5979  0.0146
  656TMC3    H2 9715   0.093   3.459  15.783  1.9461  0.8922  2.5800
  656TMC3    C7 9716   0.141   3.446  15.506  0.2369 -0.3083  0.6521
  656TMC3    C8 9717   0.155   3.278  15.955 -0.0484 -0.5127 -0.0133
  656TMC3    O1 9718   0.170   3.420  15.390  0.8312  0.8473 -0.4278
  656TMC3    O2 9719   0.127   3.158  15.964 -0.3480  0.7031  0.0115
  657TMC3    C1 9720   3.550   1.417  14.855  0.1884  0.6902 -0.2753
  657TMC3    C2 9721   3.620   1.511  14.932 -0.0768 -0.0242  0.4109
  657TMC3    C3 9722   3.570   1.636  14.937  0.5403  0.3638 -0.6214
  657TMC3    C4 9723   3.423   1.445  14.787  0.0656 -0.3744 -0.7025
  657TMC3    C5 9724   3.368   1.565  14.823 -0.8920 -0.1532  0.1277
  657TMC3    C6 9725   3.443   1.667  14.891 -0.5810  0.1868 -0.3322
  657TMC3     C 9726   3.585   1.278  14.866 -0.6845  0.4531  0.1655
  657TMC3     O 9727   3.510   1.192  14.819 -0.0180 -0.1287  0.6099
  657TMC3     H 9728   3.712   1.493  14.986  1.2426  3.7728 -0.5033
  657TMC3    H1 9729   3.369   1.369  14.732  1.5930 -0.3871 -2.1664
  657TMC3    H2 9730   3.404   1.766  14.911  1.5055  0.8206  0.5991
  657TMC3    C7 9731   3.237   1.605  14.782  0.6677  0.3078 -0.4662
  657TMC3    C8 9732   3.647   1.735  15.009  0.1963  0.2561 -0.1090
  657TMC3    O1 9733   3.200   1.715  14.813 -0.0155  0.3849  0.0375
  657TMC3    O2 9734   3.738   1.694  15.080  0.1202 -0.4205  0.0620
  658MPD2     C 9735   0.807   2.798  14.533 -0.1985 -0.5211  0.6110
  658MPD2    C1 9736   0.672   2.827  14.533 -0.1769 -0.4583 -0.4293
  658MPD2    C2 9737   0.634   2.922  14.439 -0.0896  0.2106 -0.5746
  658MPD2    C3 9738   0.718   2.990  14.357  0.1352  0.0235 -0.4254
  658MPD2    C4 9739   0.850   2.956  14.352  0.1212  0.2503 -0.4114
  658MPD2    C5 9740   0.888   2.860  14.444 -0.3234 -0.0750 -0.1057
  658MPD2     H 9741   0.530   2.951  14.439  0.1449  1.0646  2.3608
  658MPD2    H1 9742   0.921   2.997  14.282 -0.0175 -1.3839 -1.5152
  658MPD2    H2 9743   0.842   2.722  14.602  2.6839 -0.0293 -0.2873
  658MPD2    H3 9744   0.987   2.816  14.441 -0.0072  0.4506  2.1920
  658MPD2     N 9745   0.655   3.077  14.271  0.5943  0.0193 -0.0802
  658MPD2    H5 9746   0.555   3.083  14.287  0.6025 -2.4249  0.8632
  658MPD2    N1 9747   0.586   2.767  14.629 -0.7527 -0.0898  0.8210
  658MPD2    H7 9748   0.625   2.695  14.690 -0.1746 -0.8187 -0.4105
  659TMC3    C1 9749   0.393   2.703  14.753 -0.0435  0.1171 -0.4772
  659TMC3    C2 9750   0.465   2.684  14.870 -0.3720  0.2472 -0.1719
  659TMC3    C3 9751   0.400   2.604  14.962  0.0703  0.6983 -0.2181
  659TMC3    C4 9752   0.262   2.658  14.738 -0.5388  0.2630  0.3936
  659TMC3    C5 9753   0.207   2.580  14.836 -0.3115  0.0040 -0.0081
  659TMC3    C6 9754   0.280   2.546  14.952  0.1961 -0.6234 -0.0145
  659TMC3     C 9755   0.450   2.789  14.647  0.6727 -0.3645  0.3222
  659TMC3     O 9756   0.373   2.857  14.578  0.3399 -0.0322 -0.2794
  659TMC3     H 9757   0.559   2.733  14.890 -0.1282  0.4249 -1.7283
  659TMC3    H1 9758   0.203   2.663  14.647 -1.7602 -0.7004  1.1268
  659TMC3    H2 9759   0.240   2.492  15.036 -0.0304 -0.7663 -0.2163
  659TMC3    C7 9760   0.083   2.511  14.819 -0.2505  0.5471  0.5079
  659TMC3    C8 9761   0.433   2.626  15.103 -0.1962 -0.5286 -0.3701
  659TMC3    O1 9762   0.053   2.422  14.896 -0.2120  0.3232 -0.0871
  659TMC3    O2 9763   0.414   2.536  15.181  0.1389 -0.3241 -0.1619
  660MPD2     C 9764   3.440   1.179  12.444  0.1909 -0.8815  0.0572
  660MPD2    C1 9765   3.301   1.184  12.428 -0.1236 -0.0181 -0.2616
  660MPD2    C2 9766   3.220   1.084  12.476  0.5158 -0.1601 -0.5425
  660MPD2    C3 9767   3.273   0.993  12.570 -0.3823 -0.4075 -0.1807
  660MPD2    C4 9768   3.406   0.992  12.598  0.1048 -0.0521  0.6816
  660MPD2    C5 9769   3.484   1.085  12.528 -0.0101  0.0217  0.5010
  660MPD2     H 9770   3.117   1.085  12.444 -0.1765  0.5220  1.6798
  660MPD2    H1 9771   3.456   0.909  12.646 -0.1083 -0.1303  0.7680
  660MPD2    H2 9772   3.508   1.254  12.406 -0.3075 -0.5038 -0.0942
  660MPD2    H3 9773   3.591   1.096  12.540 -0.0577 -0.3263  1.2523
  660MPD2     N 9774   3.200   0.883  12.617  0.3157 -0.6465  0.5298
  660MPD2    H5 9775   3.249   0.804  12.657  0.2496 -1.0475 -0.1864
  660MPD2    N1 9776   3.252   1.283  12.343  0.4570  0.4941  0.4043
  660MPD2    H7 9777   3.322   1.351  12.312 -1.1531  1.2004 -1.6936
  661TMC3    C1 9778   3.098   1.427  12.236 -0.0726  0.6131  0.2304
  661TMC3    C2 9779   3.188   1.458  12.139 -0.0825  0.5866 -0.7548
  661TMC3    C3 9780   3.168   1.578  12.079  0.1224 -0.1195  0.0080
  661TMC3    C4 9781   2.991   1.507  12.264  0.4684 -0.7477 -0.0859
  661TMC3    C5 9782   2.976   1.636  12.213  0.0634 -0.1358  0.4364
  661TMC3    C6 9783   3.076   1.674  12.123 -0.1425  0.9086 -0.1228
  661TMC3     C 9784   3.121   1.317  12.325  0.0255  0.2286  0.3583
  661TMC3     O 9785   3.021   1.262  12.369  0.3544 -0.0018 -0.1737
  661TMC3     H 9786   3.266   1.393  12.100 -0.1677 -0.7406  1.2691
  661TMC3    H1 9787   2.917   1.476  12.337  0.0158  3.0251  1.0482
  661TMC3    H2 9788   3.064   1.775  12.086 -3.3771  0.6870  0.3619
  661TMC3    C7 9789   2.845   1.672  12.182  0.1772  0.3707  0.1316
  661TMC3    C8 9790   3.211   1.594  11.942 -0.9611 -0.6879  0.6577
  661TMC3    O1 9791   2.825   1.793  12.176 -0.1468 -1.1665  0.2444
  661TMC3    O2 9792   3.309   1.528  11.909  0.0944 -0.8264 -0.1210
  662MPD2     C 9793   3.854   1.652  16.829  0.2578 -0.7917 -0.2513
  662MPD2    C1 9794   3.893   1.617  16.958 -0.5784 -0.0760 -0.7233
  662MPD2    C2 9795   3.900   1.716  17.057  0.1575 -0.7589 -0.4131
  662MPD2    C3 9796   3.843   1.838  17.032 -1.3070  0.3594  0.4628
  662MPD2    C4 9797   3.782   1.865  16.910  0.6561  0.4257 -0.1051
  662MPD2    C5 9798   3.787   1.768  16.813 -0.4886 -0.7081 -0.1184
  662MPD2     H 9799   3.935   1.690  17.156  3.5790  0.6344 -1.2466
  662MPD2    H1 9800   3.738   1.960  16.884  0.2031  0.5707  1.1533
  662MPD2    H2 9801   3.873   1.594  16.739 -0.6020  0.2125 -1.0860
  662MPD2    H3 9802   3.762   1.783  16.708 -0.7120  0.0599  0.0471
  662MPD2     N 9803   3.825   1.923  17.143  0.2382 -0.1449  0.3943
  662MPD2    H5 9804   3.771   2.007  17.125  0.8243 -0.0892 -1.1386
  662MPD2    N1 9805   3.939   1.486  16.992  0.2128 -0.1210 -0.0056
  662MPD2    H7 9806   3.956   1.460  17.089 -2.0008  0.5239  0.5713
  663TMC3    C1 9807   3.943   1.259  16.974 -0.0903 -0.5420  0.3828
  663TMC3    C2 9808   3.910   1.247  17.107 -0.2279  0.0214  0.5308
  663TMC3    C3 9809   3.898   1.127  17.168 -0.5757 -0.2620  0.2247
  663TMC3    C4 9810   3.983   1.144  16.905 -0.7496  0.6777 -0.7133
  663TMC3    C5 9811   3.973   1.023  16.965  0.2339  0.2978 -0.8160
  663TMC3    C6 9812   3.931   1.014  17.100  0.5050  0.1609 -0.1050
  663TMC3     C 9813   3.944   1.384  16.904 -0.6279 -0.1178  0.4136
  663TMC3     O 9814   3.955   1.389  16.785 -0.1162  0.3315  0.3762
  663TMC3     H 9815   3.864   1.325  17.167 -1.7480  1.2820 -2.2261
  663TMC3    H1 9816   4.009   1.146  16.800 -0.7145 -2.1935 -0.7437
  663TMC3    H2 9817   3.890   0.926  17.148 -1.4143  0.0610 -1.9373
  663TMC3    C7 9818   3.957   0.904  16.879 -0.4991 -0.4039 -0.0287
  663TMC3    C8 9819   3.758   1.110  17.197 -0.5486  0.2816  0.8074
  663TMC3    O1 9820   3.965   0.924  16.761 -0.3828 -0.5819 -0.6303
  663TMC3    O2 9821   3.670   1.186  17.156 -0.4767  0.2429 -0.8044
  664MPD2     C 9822   1.942   4.241  17.566  0.5026 -0.8677 -0.2797
  664MPD2    C1 9823   2.057   4.314  17.601 -0.4985  0.0801  0.0988
  664MPD2    C2 9824   2.125   4.278   0.030  0.6270  0.1745 -0.4471
  664MPD2    C3 9825   2.081   4.184   0.116  0.1697  0.6453  0.3204
  664MPD2    C4 9826   1.964   4.114   0.084  0.1036 -0.6208  0.6916
  664MPD2    C5 9827   1.901   4.139  17.647 -0.2611 -0.3472  0.8354
  664MPD2     H 9828   2.214   4.330   0.063  0.1676  1.0878 -0.6409
  664MPD2    H1 9829   1.929   4.041   0.155 -1.8643  1.1844  1.5819
  664MPD2    H2 9830   1.891   4.257  17.472  2.2741  1.0421 -0.8996
  664MPD2    H3 9831   1.817   4.077  17.619 -1.2275  1.2633  0.1889
  664MPD2     N 9832   2.166   4.171   0.229  0.5127  0.1501  0.8597
  664MPD2    H5 9833   2.250   4.227   0.235 -0.4483  1.4760  1.8869
  664MPD2    N1 9834   2.103   4.420  17.521  0.2018  0.4536 -0.7158
  664MPD2    H7 9835   2.196   4.450  17.546  0.6712  1.1955 -3.2957
  665TMC3    C1 9836   2.229   4.112   0.446 -0.0114  0.0274 -0.0035
  665TMC3    C2 9837   2.213   4.034   0.557 -0.6514 -0.3912  0.5444
  665TMC3    C3 9838   2.235   4.080   0.678  0.4743 -0.5144  0.9121
  665TMC3    C4 9839   2.252   4.247   0.466 -0.5600 -0.1354 -0.5103
  665TMC3    C5 9840   2.300   4.287   0.585 -0.2825 -0.3673 -0.7237
  665TMC3    C6 9841   2.286   4.208   0.694 -0.1381 -0.2990 -0.4786
  665TMC3     C 9842   2.139   4.093   0.339  0.2224  0.1639  0.0110
  665TMC3     O 9843   2.051   4.009   0.355 -0.6631 -0.5545 -0.2030
  665TMC3     H 9844   2.188   3.930   0.544 -0.6859 -0.4134  0.7832
  665TMC3    H1 9845   2.256   4.321   0.386  0.0697  0.0953 -0.2619
  665TMC3    H2 9846   2.317   4.251   0.789 -0.2082 -1.4643  0.0640
  665TMC3    C7 9847   2.323   4.431   0.605  0.6537  0.2042  0.5656
  665TMC3    C8 9848   2.198   3.996   0.791  0.0634  0.0683 -0.3028
  665TMC3    O1 9849   2.323   4.502   0.507 -0.1946 -0.0328  0.6550
  665TMC3    O2 9850   2.160   3.881   0.768  0.7035  0.3589 -0.2712
  666TMC3    C1 9851   0.723   3.199   9.721  0.0556  0.9316 -0.0575
  666TMC3    C2 9852   0.730   3.141   9.595  0.5124 -0.6067  0.1834
  666TMC3    C3 9853   0.683   3.220   9.489  0.1295 -0.1741 -0.1386
  666TMC3    C4 9854   0.682   3.326   9.745 -0.4042  0.0824 -0.3051
  666TMC3    C5 9855   0.621   3.385   9.637  0.8900  0.6460 -0.6347
  666TMC3    C6 9856   0.623   3.340   9.507  0.0470 -0.7501 -0.5057
  666TMC3     C 9857   0.746   3.116   9.835 -0.2120  0.1932  0.3523
  666TMC3     O 9858   0.827   3.153   9.918 -0.4418 -0.1066  0.2740
  666TMC3     H 9859   0.777   3.045   9.579 -0.7627 -1.4450  1.5206
  666TMC3    H1 9860   0.675   3.364   9.846  1.1067  1.2930 -0.6697
  666TMC3    H2 9861   0.583   3.400   9.426 -0.0027 -1.5451 -1.0679
  666TMC3    C7 9862   0.587   3.524   9.667  0.2029  0.2204 -0.4704
  666TMC3    C8 9863   0.707   3.164   9.358  0.4526  0.2370  0.3791
  666TMC3    O1 9864   0.549   3.543   9.782 -0.7077  0.1351 -0.2203
  666TMC3    O2 9865   0.697   3.042   9.357  0.3186 -0.5101  0.2172
  667MPD2     C 9866   2.634   4.376  14.296 -0.4310 -0.0530  0.2849
  667MPD2    C1 9867   2.579   4.452  14.396  0.2799  0.4073  0.2986
  667MPD2    C2 9868   2.445   4.465  14.403 -0.4341  0.4987 -0.1548
  667MPD2    C3 9869   2.359   4.403  14.307 -0.5175 -0.4480  0.4938
  667MPD2    C4 9870   2.416   4.339  14.202 -0.1566 -0.4459 -0.1147
  667MPD2    C5 9871   2.552   4.325  14.201 -0.1751  0.8101  0.4975
  667MPD2     H 9872   2.405   4.525  14.484  1.2835  1.2951  0.0895
  667MPD2    H1 9873   2.341   4.293  14.138 -0.5327 -1.5249  1.0963
  667MPD2    H2 9874   2.737   4.368  14.263 -0.0626  3.6493  0.4539
  667MPD2    H3 9875   2.598   4.270  14.120  1.9096 -2.1727  3.6886
  667MPD2     N 9876   2.220   4.408  14.316  0.5732 -0.3630  0.2398
  667MPD2    H5 9877   2.161   4.346  14.261 -2.8085  2.2187  0.9406
  667MPD2    N1 9878   2.655   4.507  14.500  0.4647  0.2671  0.1340
  667MPD2    H7 9879   2.605   4.572  14.560 -0.3755  1.2215 -1.5765
  668TMC3    C1 9880   2.852   4.549  14.628 -0.3291 -0.0665 -0.0875
  668TMC3    C2 9881   2.975   4.599  14.610 -0.8747  0.1605  0.1249
  668TMC3    C3 9882   3.014   4.712  14.687 -0.3949 -0.1072  0.1989
  668TMC3    C4 9883   2.768   4.600  14.716 -0.1747  0.1824 -0.6016
  668TMC3    C5 9884   2.806   4.712  14.794  0.3890 -0.5329  0.0744
  668TMC3    C6 9885   2.929   0.053  14.776 -0.1785 -0.0684  0.1173
  668TMC3     C 9886   2.792   4.484  14.513  1.0582 -0.7088 -0.1945
  668TMC3     O 9887   2.872   4.441  14.433 -0.0839 -0.6602 -0.1238
  668TMC3     H 9888   3.031   4.554  14.529 -3.1151 -1.0501 -0.7594
  668TMC3    H1 9889   2.674   4.548  14.733 -0.2976  0.9075  0.9322
  668TMC3    H2 9890   2.965   0.135  14.837  0.2798  1.0075 -1.6169
  668TMC3    C7 9891   2.759   0.002  14.927  0.2618 -0.9534  0.1977
  668TMC3    C8 9892   3.098   0.090  14.621 -0.0165  0.7763  0.3780
  668TMC3    O1 9893   2.844   0.020  15.018  0.2379 -0.1539 -0.8438
  668TMC3    O2 9894   3.128   0.192  14.680 -0.0216  0.2728  0.5227
  669TMC3    C1 9895   0.659   4.489  14.114  0.1678 -0.4897 -0.7131
  669TMC3    C2 9896   0.566   4.461  14.017 -0.0403  0.3484 -0.1123
  669TMC3    C3 9897   0.584   4.507  13.891  0.4209  0.3319 -0.6164
  669TMC3    C4 9898   0.767   4.564  14.084 -0.0212  0.1548  0.2016
  669TMC3    C5 9899   0.782   4.605  13.955  0.1740 -0.5380 -0.1711
  669TMC3    C6 9900   0.688   4.588  13.849  0.7667 -0.3274 -0.4118
  669TMC3     C 9901   0.659   4.401  14.230 -0.5439 -0.2643 -0.7516
  669TMC3     O 9902   0.561   4.331  14.241  0.0128 -0.2028 -0.2629
  669TMC3     H 9903   0.478   4.404  14.043  0.4205  0.9708  2.8314
  669TMC3    H1 9904   0.845   4.583  14.158 -2.2961  0.8385  2.4177
  669TMC3    H2 9905   0.697   4.632  13.750  0.0034 -1.1688 -0.8457
  669TMC3    C7 9906   0.885   4.710  13.937  0.0369 -0.5751  0.8694
  669TMC3    C8 9907   0.466   4.498  13.801 -0.0878 -0.1011  0.7156
  669TMC3    O1 9908   0.939   0.034  14.035  0.2400 -0.2103 -1.1175
  669TMC3    O2 9909   0.396   4.404  13.826 -0.0593 -0.5063 -0.0383
  670MPD2     C 9910   3.483   2.058  13.293 -0.5066 -0.3417  0.0016
  670MPD2    C1 9911   3.565   2.000  13.390  0.3796 -0.1330  0.2006
  670MPD2    C2 9912   3.508   1.930  13.497 -0.1123  0.6538  0.5960
  670MPD2    C3 9913   3.381   1.893  13.494  0.0338 -0.4269 -0.5814
  670MPD2    C4 9914   3.301   1.949  13.399  0.3046 -0.2862 -0.1462
  670MPD2    C5 9915   3.353   2.022  13.298  0.3963 -0.6263 -0.1304
  670MPD2     H 9916   3.562   1.899  13.585  2.2404  0.0322 -1.0676
  670MPD2    H1 9917   3.194   1.931  13.399  0.5798 -1.9822 -0.9997
  670MPD2    H2 9918   3.512   2.116  13.206 -0.7875 -0.4625 -0.1736
  670MPD2    H3 9919   3.280   2.054  13.224 -1.9315 -1.0843  1.9373
  670MPD2     N 9920   3.343   1.813  13.599 -0.6045  0.3962  0.4136
  670MPD2    H5 9921   3.408   1.798  13.675  0.2987 -0.2994 -0.4909
  670MPD2    N1 9922   3.698   2.020  13.398 -1.2483  0.0600 -0.7421
  670MPD2    H7 9923   3.744   2.001  13.486 -0.9138 -1.6187 -1.2573
  671TMC3    C1 9924   3.232   1.637  13.711 -0.0885  0.3267  0.1615
  671TMC3    C2 9925   3.303   1.659  13.826 -0.4967 -0.2926 -0.3279
  671TMC3    C3 9926   3.339   1.550  13.900  1.2204  0.6208  0.3322
  671TMC3    C4 9927   3.192   1.515  13.670  0.4935 -0.9671 -0.4170
  671TMC3    C5 9928   3.229   1.412  13.746 -0.0580 -0.3702  0.1454
  671TMC3    C6 9929   3.302   1.425  13.859  0.1067 -0.3627 -0.4997
  671TMC3     C 9930   3.224   1.736  13.601  0.0325  0.1127 -0.5302
  671TMC3     O 9931   3.144   1.724  13.510 -0.3625 -0.3574 -0.0773
  671TMC3     H 9932   3.354   1.754  13.838  0.8334 -1.2601  1.6255
  671TMC3    H1 9933   3.127   1.506  13.584 -1.4875 -0.8825  1.0504
  671TMC3    H2 9934   3.336   1.334  13.906  1.5381 -0.1996 -1.2185
  671TMC3    C7 9935   3.238   1.284  13.679  0.0788 -0.0074  0.0286
  671TMC3    C8 9936   3.474   1.550  13.943 -0.0775 -0.0174 -0.0482
  671TMC3    O1 9937   3.279   1.274  13.565 -0.4793  0.6863 -0.1243
  671TMC3    O2 9938   3.541   1.459  13.899 -0.0940 -0.1051  0.6981
  672MPD2     C 9939   4.222   2.561   1.825 -0.3111  0.4510  0.1315
  672MPD2    C1 9940   4.173   2.651   1.736 -0.6564 -0.0042  0.1951
  672MPD2    C2 9941   4.243   2.764   1.708 -0.3766 -0.7852 -0.3567
  672MPD2    C3 9942   4.364   2.783   1.776 -0.4483 -0.3065  1.0072
  672MPD2    C4 9943   4.416   2.687   1.858  0.4226  0.1382  0.2061
  672MPD2    C5 9944   4.348   2.573   1.874 -0.2189  0.5502  0.2658
  672MPD2     H 9945   4.214   2.828   1.624  4.1009 -0.0312 -1.3342
  672MPD2    H1 9946   4.516   2.687   1.900  0.0696 -1.0868  1.0437
  672MPD2    H2 9947   4.165   2.473   1.852  1.1604 -1.1935 -2.0912
  672MPD2    H3 9948   4.391   2.499   1.941  1.1549  0.6411 -0.5211
  672MPD2     N 9949   4.449   2.890   1.747  0.1232 -0.0884  0.0271
  672MPD2    H5 9950   4.545   2.888   1.778  0.4053 -0.8256 -0.8952
  672MPD2    N1 9951   4.055   2.633   1.660  0.3530  0.1948  0.3392
  672MPD2    H7 9952   4.052   2.709   1.592 -0.6075  0.8184  1.0787
  673TMC3    C1 9953   3.883   2.563   1.533 -0.2364 -0.4982 -0.0627
  673TMC3    C2 9954   3.891   2.452   1.450  0.5372 -0.4904 -0.1840
  673TMC3    C3 9955   3.934   2.470   1.326 -0.4726  0.2390  0.4365
  673TMC3    C4 9956   3.900   2.686   1.482 -0.7050 -0.3587  0.1109
  673TMC3    C5 9957   3.926   2.696   1.347 -0.7323 -0.9848  0.5773
  673TMC3    C6 9958   3.937   2.590   1.263 -0.3191  0.5503  0.8292
  673TMC3     C 9959   3.953   2.545   1.658  0.2716  0.1110  0.3035
  673TMC3     O 9960   3.930   2.449   1.733 -0.2688 -0.0198  0.0619
  673TMC3     H 9961   3.884   2.353   1.493 -2.0095 -0.4575 -0.5266
  673TMC3    H1 9962   3.893   2.779   1.538 -0.4106  0.2547 -0.8729
  673TMC3    H2 9963   3.966   2.604   1.160 -0.7477 -1.9217  0.3916
  673TMC3    C7 9964   4.019   2.806   1.324  0.3716 -0.9826 -0.5580
  673TMC3    C8 9965   3.954   2.358   1.241 -0.2284  0.5928 -0.1568
  673TMC3    O1 9966   4.082   2.829   1.428  0.3249  0.0073  0.4520
  673TMC3    O2 9967   3.906   2.254   1.291 -0.3110 -0.2760  0.4889
  674MPD2     C 9968   0.006   1.883  17.670  0.2167 -0.4886  0.0193
  674MPD2    C1 9969   4.593   1.859   0.009 -0.1960 -0.6250 -0.6358
  674MPD2    C2 9970   4.534   1.886   0.131  0.4791 -0.1508  0.3926
  674MPD2    C3 9971   4.593   1.960   0.226  0.0495 -0.3522  0.2440
  674MPD2    C4 9972   0.010   1.992   0.203  0.0700 -0.3640 -0.9897
  674MPD2    C5 9973   0.071   1.949   0.088  0.3307 -0.0339  0.2370
  674MPD2     H 9974   4.427   1.869   0.143  0.7933 -1.7239  0.9572
  674MPD2    H1 9975   0.072   2.047   0.273 -1.6742 -2.1248  1.9679
  674MPD2    H2 9976   0.060   1.841  17.586 -1.5895 -0.3346 -1.2178
  674MPD2    H3 9977   0.177   1.964   0.072  0.0126 -0.3062 -2.1224
  674MPD2     N 9978   4.508   2.000   0.333  0.5187  0.0683 -0.6222
  674MPD2    H5 9979   4.413   1.964   0.330  0.2603  1.0353 -3.8591
  674MPD2    N1 9980   4.523   1.795  17.585 -0.2387 -0.1912  0.4660
  674MPD2    H7 9981   4.567   1.783  17.495  0.8267  0.4552  0.8974
  675TMC3    C1 9982   4.336   1.715  17.472 -0.3685  0.2043  0.4860
  675TMC3    C2 9983   4.207   1.674  17.483 -0.4459 -0.5009 -0.2300
  675TMC3    C3 9984   4.154   1.618  17.368  0.4020 -0.6122  0.1442
  675TMC3    C4 9985   4.409   1.720  17.354  0.4057  0.3671  0.5023
  675TMC3    C5 9986   4.346   1.676  17.246  0.6462  0.6108  0.6167
  675TMC3    C6 9987   4.218   1.635  17.250 -0.3647 -0.3631  0.5535
  675TMC3     C 9988   4.391   1.747  17.598 -0.1396 -0.7606 -0.0072
  675TMC3     O 9989   4.324   1.716   0.016  0.4756  0.3308  0.1533
  675TMC3     H 9990   4.154   1.689  17.577 -0.5846 -1.3171 -0.1821
  675TMC3    H1 9991   4.502   1.775  17.358 -1.1037  2.8314  1.6515
  675TMC3    H2 9992   4.166   1.595  17.164 -1.6773  1.4273  0.5094
  675TMC3    C7 9993   4.412   1.656  17.116  1.1909  0.6627 -0.8097
  675TMC3    C8 9994   4.026   1.544  17.373 -1.0250 -0.0490 -0.7009
  675TMC3    O1 9995   4.346   1.633  17.015  0.0026  0.5426 -0.1116
  675TMC3    O2 9996   4.001   1.485  17.266 -0.3015  0.2967 -0.1671
  676MPD2     C 9997   0.951   0.633  10.687  0.2746 -0.3328  0.7588
  676MPD2    C1 9998   0.941   0.556  10.795  0.6086  0.2194  0.3096
  676MPD2    C2 9999   0.978   0.426  10.801 -0.9808  0.7363 -0.0099
  676MPD2    C310000   1.044   0.372  10.693  0.2341 -0.5279 -0.0437
  676MPD2    C410001   1.066   0.453  10.581  0.9423 -0.1286  0.5029
  676MPD2    C510002   1.011   0.578  10.578  0.7678 -0.0948 -0.0760
  676MPD2     H10003   0.952   0.368  10.889 -2.8413  1.2406 -0.2428
  676MPD2    H110004   1.118   0.416  10.493 -0.1539  2.4914 -1.2465
  676MPD2    H210005   0.907   0.732  10.677 -1.2487 -1.0530  0.3692
  676MPD2    H310006   1.021   0.623  10.480 -0.5487  1.5425  0.5250
  676MPD2     N10007   1.094   0.238  10.690  0.3861  0.0716 -0.5879
  676MPD2    H510008   1.137   0.213  10.601 -0.6350 -0.0042 -1.0706
  676MPD2    N110009   0.886   0.607  10.919 -0.1370  0.0297  0.1127
  676MPD2    H710010   0.869   0.539  10.993 -0.0748 -0.6950 -0.5495
  677TMC3    C110011   0.846   0.765  11.095  0.0050  0.1979 -0.0283
  677TMC3    C210012   0.724   0.705  11.130  0.0087  0.4364 -0.6976
  677TMC3    C310013   0.669   0.756  11.239 -0.4592  0.1439  0.3720
  677TMC3    C410014   0.903   0.871  11.164  0.3443  0.4849  0.2213
  677TMC3    C510015   0.847   0.908  11.285 -0.2204 -0.0395  0.6454
  677TMC3    C610016   0.723   0.850  11.318  0.1337 -0.4390  0.4818
  677TMC3     C10017   0.893   0.738  10.962  0.4747 -0.9801  0.2322
  677TMC3     O10018   0.952   0.830  10.905  0.0379  0.0084  0.3491
  677TMC3     H10019   0.663   0.641  11.067 -0.0816  1.0072 -1.1917
  677TMC3    H110020   0.990   0.920  11.122  0.5216 -0.4655 -0.5196
  677TMC3    H210021   0.680   0.885  11.411 -0.5204  2.2127 -0.8168
  677TMC3    C710022   0.931   0.949  11.393  0.3958  0.5068 -0.1800
  677TMC3    C810023   0.551   0.691  11.284  0.0714  0.1063 -0.3841
  677TMC3    O110024   0.877   0.963  11.504 -0.5523  0.4368  0.3664
  677TMC3    O210025   0.469   0.673  11.193  0.1001  0.5022 -0.2601
  678MPD2     C10026   3.381   0.228   1.481  0.0176 -0.3259 -0.1852
  678MPD2    C110027   3.405   0.287   1.360  0.3939  0.1789 -0.1603
  678MPD2    C210028   3.317   0.375   1.302 -0.0924  0.0997 -0.0260
  678MPD2    C310029   3.197   0.405   1.366  0.0022 -0.0406  0.4720
  678MPD2    C410030   3.175   0.347   1.490  0.5680  0.0759 -0.3130
  678MPD2    C510031   3.270   0.262   1.549  0.0966  0.2379 -0.7749
  678MPD2     H10032   3.330   0.412   1.201 -0.0512  1.1732  0.3691
  678MPD2    H110033   3.088   0.380   1.546  1.4779  1.3209  0.3797
  678MPD2    H210034   3.436   0.149   1.531 -1.3717 -0.4257  1.1854
  678MPD2    H310035   3.256   0.230   1.652  0.8867  0.3860 -0.6126
  678MPD2     N10036   3.104   0.483   1.295  0.6934 -0.6695 -0.9667
  678MPD2    H510037   3.133   0.505   1.200 -1.5040 -1.9653 -1.9215
  678MPD2    N110038   3.525   0.252   1.287 -1.0472  0.0750 -0.8582
  678MPD2    H710039   3.551   0.308   1.206  2.6984  1.6949  1.4454
  679TMC3    C110040   3.938   0.053   1.167 -0.1365 -0.0228  0.3638
  679TMC3    C210041   3.841   0.090   1.260  0.5493 -0.7133  0.2138
  679TMC3    C310042   3.724   0.142   1.220 -0.9746  0.3843  0.3654
  679TMC3    C410043   3.924   0.086   1.035  0.6473 -0.3283 -0.5554
  679TMC3    C510044   3.808   0.141   1.000  0.5058  0.2166 -0.0928
  679TMC3    C610045   3.702   0.168   1.087  0.2068  0.5684 -0.0875
  679TMC3     C10046   4.055   4.687   1.213 -0.0676 -0.1237  0.6010
  679TMC3     O10047   4.142   4.663   1.137  0.3870 -0.4959  0.2516
  679TMC3     H10048   3.850   0.060   1.364 -0.4805  0.5971  0.6768
  679TMC3    H110049   4.007   0.078   0.965  0.0908 -2.0511 -1.0068
  679TMC3    H210050   3.610   0.213   1.052 -1.1182 -0.9119  1.4591
  679TMC3    C710051   3.796   0.190   0.863 -0.1612  0.2040  0.4035
  679TMC3    C810052   3.615   0.153   1.321 -0.0217  0.7349  0.2322
  679TMC3    O110053   3.703   0.257   0.835 -0.5739 -0.0970  0.2404
  679TMC3    O210054   3.626   0.095   1.426 -0.2005 -0.3121  0.0316
  680MPD2     C10055   2.962   4.006  13.404 -0.3135 -0.1952  0.6661
  680MPD2    C110056   3.045   4.016  13.516  0.1032 -0.5552  0.7161
  680MPD2    C210057   3.091   4.132  13.562 -0.1605 -0.4525  0.5721
  680MPD2    C310058   3.088   4.246  13.479 -0.6640 -0.6311  0.4445
  680MPD2    C410059   3.019   4.233  13.354 -1.0128 -0.0585  0.0145
  680MPD2    C510060   2.949   4.114  13.323  0.0971 -0.1770 -0.2629
  680MPD2     H10061   3.146   4.135  13.656 -0.1169  1.9299  0.4735
  680MPD2    H110062   3.017   4.311  13.279  0.4011  0.8687  0.9469
  680MPD2    H210063   2.922   3.912  13.367  1.2337 -0.2173 -0.9181
  680MPD2    H310064   2.896   4.091  13.231 -0.3975 -0.5397  0.1164
  680MPD2     N10065   3.166   4.358  13.504 -0.2234 -0.5862 -0.3600
  680MPD2    H510066   3.193   4.420  13.428  0.3856  0.3606  0.6409
  680MPD2    N110067   3.086   3.904  13.587  0.1015  0.2320  0.5731
  680MPD2    H710068   3.123   3.915  13.681  0.7139  0.7864  0.2614
  681TMC3    C110069   3.150   3.678  13.622 -0.4283  0.3711 -0.1473
  681TMC3    C210070   3.234   3.717  13.720 -1.0861 -0.9142  0.3341
  681TMC3    C310071   3.315   3.622  13.771 -0.4064 -0.1272 -0.2922
  681TMC3    C410072   3.134   3.548  13.580 -0.0297 -0.4516  0.0112
  681TMC3    C510073   3.201   3.452  13.645  0.1447 -0.2378  0.1024
  681TMC3    C610074   3.299   3.492  13.736  0.4344 -0.1985  0.2868
  681TMC3     C10075   3.086   3.776  13.534 -0.5899 -0.2950 -0.0346
  681TMC3     O10076   3.066   3.736  13.420 -0.4483  0.0910  0.3306
  681TMC3     H10077   3.244   3.821  13.747  0.0830 -0.7315 -0.8134
  681TMC3    H110078   3.039   3.531  13.530 -0.3213  1.3144 -0.0413
  681TMC3    H210079   3.353   3.410  13.782  0.4704 -0.5899 -0.4519
  681TMC3    C710080   3.243   3.361  13.545 -0.0819  0.0320 -0.7593
  681TMC3    C810081   3.399   3.662  13.880  0.3297  0.7641  1.0289
  681TMC3    O110082   3.191   3.254  13.550 -0.2560 -0.3981  0.5460
  681TMC3    O210083   3.372   3.771  13.928 -0.4422  0.2916 -0.0950
  682MPD2     C10084   0.067   0.077   9.869 -0.4714  0.8724 -0.3293
  682MPD2    C110085   0.118   0.019   9.981 -0.5574 -0.1290  0.2512
  682MPD2    C210086   0.077   0.069  10.107 -0.1972 -0.1323 -0.5639
  682MPD2    C310087   0.025   0.195  10.122  0.2035  0.2953 -1.1735
  682MPD2    C410088   4.715   0.264  10.009 -0.1823 -0.9531 -0.5162
  682MPD2    C510089   0.017   0.203   9.888 -0.6552 -0.0788 -0.1282
  682MPD2     H10090   0.114   0.019  10.196  0.5961  1.2387 -0.1329
  682MPD2    H110091   4.680   0.367  10.014  0.6507 -0.6855 -0.2420
  682MPD2    H210092   0.091   0.035   9.772  0.5183  0.0928  0.2597
  682MPD2    H310093   4.719   0.253   9.794 -0.7199 -0.8210 -0.5078
  682MPD2     N10094   0.010   0.257  10.250  0.3600 -0.1260 -0.3707
  682MPD2    H510095   4.706   0.355  10.248  0.5273 -0.0964 -0.8364
  682MPD2    N110096   0.196   4.616   9.982 -0.0005 -0.0893 -0.0432
  682MPD2    H710097   0.208   4.570  10.072  0.8446  0.7520  0.2722
  683TMC3    C110098   4.622   0.497  10.537  0.2292  0.4383  0.0921
  683TMC3    C210099   4.547   0.443  10.642 -0.4235 -0.0748 -0.2844
  683TMC3    C310100   4.542   0.300  10.652 -0.1716  0.7493 -0.8546
  683TMC3    C410101   4.698   0.408  10.463  0.3371  0.1089  0.4023
  683TMC3    C510102   4.687   0.277  10.484  0.2846  0.0299 -0.2007
  683TMC3    C610103   4.610   0.215  10.574 -0.4534  0.1425  0.2332
  683TMC3     C10104   4.680   0.622  10.579  0.6552  0.2739  0.4590
  683TMC3     O10105   4.647   0.681  10.679  0.2295 -0.2116  0.2245
  683TMC3     H10106   4.488   0.501  10.711  0.1426 -0.5710  0.6150
  683TMC3    H110107   0.059   0.434  10.395 -0.6166  3.7876  0.6405
  683TMC3    H210108   4.582   0.111  10.558 -1.4109  0.2071  1.4935
  683TMC3    C710109   0.008   0.192  10.368 -0.4069 -0.3889 -0.0263
  683TMC3    C810110   4.474   0.233  10.762 -1.0905 -0.5957  0.5235
  683TMC3    O110111   0.015   0.068  10.386 -0.1637  0.4241 -0.2291
  683TMC3    O210112   4.376   0.293  10.811 -0.0630 -0.4576  0.4724
  684MPD2     C10113   3.500   4.359  16.066 -0.7088 -0.0748 -0.0632
  684MPD2    C110114   3.475   4.444  15.958  0.5738 -0.2059  0.9887
  684MPD2    C210115   3.452   4.579  15.973 -0.3282  0.4672  0.1554
  684MPD2    C310116   3.477   4.637  16.100 -0.1381 -0.3517 -0.4691
  684MPD2    C410117   3.495   4.551  16.207 -0.1146  0.3495 -0.3636
  684MPD2    C510118   3.508   4.414  16.192 -0.5630 -0.5932  0.1318
  684MPD2     H10119   3.449   4.639  15.883  0.7694 -3.9111 -2.7821
  684MPD2    H110120   3.518   4.588  16.306 -1.4283 -0.6377  0.3136
  684MPD2    H210121   3.499   4.251  16.056 -0.6633 -0.1764  1.0253
  684MPD2    H310122   3.531   4.352  16.278  0.4481  2.3096  1.9469
  684MPD2     N10123   3.483   0.052  16.131 -0.5478 -0.1242 -0.4069
  684MPD2    H510124   3.516   0.069  16.226 -0.2501 -0.6519 -0.4169
  684MPD2    N110125   3.472   4.387  15.829  0.1614  0.0961 -0.4428
  684MPD2    H710126   3.438   4.453  15.759  0.3219  1.4515  0.7634
  685TMC3    C110127   3.522   4.230  15.646  0.4568  0.8356 -0.3002
  685TMC3    C210128   3.477   4.329  15.566 -0.7500 -0.3388 -0.3496
  685TMC3    C310129   3.546   4.358  15.447  0.1138 -0.4337 -1.0766
  685TMC3    C410130   3.641   4.168  15.614 -0.2770 -0.5350  0.5572
  685TMC3    C510131   3.715   4.201  15.498  0.9082 -0.8162 -0.0896
  685TMC3    C610132   3.660   4.289  15.408  0.7296  0.2967  0.0956
  685TMC3     C10133   3.518   4.259  15.796  0.4085  0.6835 -0.3050
  685TMC3     O10134   3.560   4.169  15.867  0.0968 -0.3931 -0.1195
  685TMC3     H10135   3.381   4.368  15.599  0.4311  0.6438  1.9579
  685TMC3    H110136   3.681   4.103  15.690  0.5241 -1.0551 -0.3086
  685TMC3    H210137   3.722   4.318  15.324  1.9231  0.5944  1.0729
  685TMC3    C710138   3.851   4.167  15.491  0.3787 -0.0320 -0.8516
  685TMC3    C810139   3.516   4.474  15.383  0.1620  0.6568  0.1688
  685TMC3    O110140   3.895   4.162  15.374  0.1490 -0.1659 -0.4801
  685TMC3    O210141   3.613   4.529  15.340  0.3910 -0.4482 -0.5328
  686MPD2     C10142   0.462   0.081  15.202  0.5522  0.0243  0.5795
  686MPD2    C110143   0.472   4.692  15.284  0.4064 -0.7775  0.4392
  686MPD2    C210144   0.537   4.583  15.227  0.3283  0.3778  0.1433
  686MPD2    C310145   0.579   4.584  15.095  0.1831 -0.4687  0.0156
  686MPD2    C410146   0.565   4.692  15.014 -0.1074  0.4247 -0.6613
  686MPD2    C510147   0.515   0.081  15.077 -0.1287 -0.5478  0.4383
  686MPD2     H10148   0.562   4.502  15.295 -0.5118  0.1830  0.2270
  686MPD2    H110149   0.576   4.690  14.906  4.4015 -1.0818 -0.1792
  686MPD2    H210150   0.425   0.176  15.240 -0.0437 -0.3936  1.0577
  686MPD2    H310151   0.496   0.171  15.019  2.1782 -1.0137 -1.0513
  686MPD2     N10152   0.642   4.478  15.031  0.0952 -0.6425 -0.4318
  686MPD2    H510153   0.683   4.508  14.943  0.3423 -0.6039 -0.3045
  686MPD2    N110154   0.430   4.687  15.415 -0.4471  0.7520  0.6204
  686MPD2    H710155   0.364   0.041  15.436  0.5752  0.6852  4.1401
  687TMC3    C110156   0.598   4.299  15.187  0.4080  0.0368  0.1297
  687TMC3    C210157   0.464   4.292  15.204  0.4691 -0.0123 -0.1688
  687TMC3    C310158   0.423   4.242  15.327  0.2811  1.2116  0.9358
  687TMC3    C410159   0.687   4.270  15.289  0.0558 -0.4546 -0.0265
  687TMC3    C510160   0.638   4.237  15.408  0.0495  0.1608  0.5608
  687TMC3    C610161   0.503   4.209  15.435  0.1952 -0.6820  0.0765
  687TMC3     C10162   0.659   4.347  15.066 -0.1825 -0.3084  0.3909
  687TMC3     O10163   0.727   4.262  15.014  0.6732 -0.5883  0.4819
  687TMC3     H10164   0.398   4.317  15.122 -0.8024  1.4366  1.2764
  687TMC3    H110165   0.794   4.273  15.273  0.4030 -2.0393  2.0414
  687TMC3    H210166   0.465   4.175  15.530  0.7227  0.9838  0.8792
  687TMC3    C710167   0.729   4.257  15.520 -0.1062 -0.0992  0.3842
  687TMC3    C810168   0.289   4.271  15.376  0.1675  0.3634  0.6745
  687TMC3    O110169   0.823   4.332  15.491  0.5378  0.3191 -0.0487
  687TMC3    O210170   0.237   4.194  15.458  0.3710  0.0942  0.1005
  688MPD2     C10171   4.466   3.449  17.131  0.5619  0.0003  0.1350
  688MPD2    C110172   4.494   3.316  17.159 -0.2850 -0.2235 -0.1885
  688MPD2    C210173   4.615   3.271  17.106  0.0925 -0.1125  0.1218
  688MPD2    C310174   4.684   3.339  17.007 -0.0468  0.9650 -0.1969
  688MPD2    C410175   4.636   3.466  16.973 -0.2232  0.0242  0.2376
  688MPD2    C510176   4.530   3.520  17.031 -0.1016 -0.0123 -0.4101
  688MPD2     H10177   4.655   3.172  17.122  1.9542  0.6902  0.4484
  688MPD2    H110178   4.681   3.522  16.891 -0.9305 -2.1354 -1.6234
  688MPD2    H210179   4.379   3.499  17.172 -0.8555 -2.5888  0.3373
  688MPD2    H310180   4.495   3.620  17.012  0.6786  0.6080  1.4189
  688MPD2     N10181   0.086   3.294  16.941  0.3986  0.5186 -0.4980
  688MPD2    H510182   0.127   3.344  16.863 -0.0579  0.8311 -0.5385
  688MPD2    N110183   4.426   3.227  17.239  0.0013  0.2847 -0.1729
  688MPD2    H710184   4.461   3.135  17.262 -0.2845  0.4561  0.9522
  689TMC3    C110185   4.265   3.185  17.421 -0.5692 -0.3736  0.6480
  689TMC3    C210186   4.269   3.258  17.535  0.3856 -0.4124  0.3537
  689TMC3    C310187   4.286   3.181  17.652  0.0360 -0.7693  0.8091
  689TMC3    C410188   4.274   3.051  17.411 -0.2539  0.4261  0.1392
  689TMC3    C510189   4.279   2.984  17.530 -0.2977  0.5648  0.2111
  689TMC3    C610190   4.295   3.045  17.647 -0.8220 -0.3646  0.1875
  689TMC3     C10191   4.298   3.255  17.298 -0.0454 -0.3117  0.3398
  689TMC3     O10192   4.240   3.363  17.285 -0.3985 -0.0654 -0.3719
  689TMC3     H10193   4.277   3.366  17.533  2.5050 -0.5674  0.1801
  689TMC3    H110194   4.290   3.002  17.315  3.9432 -0.3725  1.2586
  689TMC3    H210195   4.316   2.990   0.056  1.5990 -1.4081 -0.9827
  689TMC3    C710196   4.292   2.842  17.539  0.6261 -0.0691 -0.3061
  689TMC3    C810197   4.276   3.253   0.097  0.2560  0.0052  0.1367
  689TMC3    O110198   4.336   2.790  17.640  0.0643 -0.0196 -0.0637
  689TMC3    O210199   4.322   3.214   0.203  0.3307 -0.0532 -0.3636
  690MPD2     C10200   1.903   0.653  15.619 -0.2184 -0.4045  0.3746
  690MPD2    C110201   1.813   0.698  15.521 -1.1148 -0.7146  0.3571
  690MPD2    C210202   1.858   0.761  15.411 -0.6674  1.0271  0.3031
  690MPD2    C310203   1.987   0.800  15.396 -0.0954 -0.1983 -0.3778
  690MPD2    C410204   2.074   0.763  15.496 -0.7736  0.2746 -0.0277
  690MPD2    C510205   2.028   0.691  15.607  0.4442  0.8214 -0.5533
  690MPD2     H10206   1.787   0.802  15.340 -0.6774  2.0746  0.9195
  690MPD2    H110207   2.180   0.786  15.493 -0.3454 -1.6638 -0.1679
  690MPD2    H210208   1.881   0.604  15.714 -0.0487  1.3496  1.3154
  690MPD2    H310209   2.099   0.658  15.681 -0.0647  1.0431  0.0334
  690MPD2     N10210   2.016   0.887  15.286 -0.4296  0.2360 -0.6124
  690MPD2    H510211   1.945   0.920  15.222 -0.3819  0.2531 -0.6561
  690MPD2    N110212   1.675   0.678  15.523  0.7140  0.0795  0.2834
  690MPD2    H710213   1.631   0.710  15.437 -1.9419 -0.4882  1.4567
  691TMC3    C110214   1.469   0.595  15.593 -0.1348 -0.6029  0.5197
  691TMC3    C210215   1.392   0.587  15.704 -0.1648 -0.1812 -0.1293
  691TMC3    C310216   1.266   0.538  15.689 -0.1954 -0.1251 -0.0771
  691TMC3    C410217   1.422   0.562  15.473 -0.4506 -0.0442  0.4903
  691TMC3    C510218   1.297   0.521  15.455  0.0476 -0.4508  0.3759
  691TMC3    C610219   1.215   0.504  15.566 -0.1607  0.4069  0.7438
  691TMC3     C10220   1.609   0.610  15.621 -0.4311  0.1857 -0.2822
  691TMC3     O10221   1.652   0.559  15.723 -0.2153 -0.1618  0.1045
  691TMC3     H10222   1.428   0.632  15.796 -0.0739  1.8826 -1.1672
  691TMC3    H110223   1.486   0.557  15.385 -1.1300  0.2757 -0.0203
  691TMC3    H210224   1.123   0.448  15.560 -0.1737  0.5690 -0.5966
  691TMC3    C710225   1.285   0.401  15.370 -0.2455 -0.1556 -0.5673
  691TMC3    C810226   1.177   0.581  15.797  0.4457  0.2775  0.0258
  691TMC3    O110227   1.262   0.293  15.427 -0.1751  0.1064  0.1848
  691TMC3    O210228   1.210   0.582  15.916 -0.9094  0.7072 -0.2642
  692TMC3    C110229   3.380   1.493  15.593 -0.6522 -0.0636 -0.6408
  692TMC3    C210230   3.451   1.503  15.710 -0.3063  0.1777  0.4997
  692TMC3    C310231   3.522   1.401  15.753  0.6400 -0.3449  0.4049
  692TMC3    C410232   3.362   1.376  15.529  0.3796 -0.5507 -0.0032
  692TMC3    C510233   3.441   1.265  15.568 -0.4111  0.1512 -0.4007
  692TMC3    C610234   3.529   1.282  15.679 -0.6753 -0.2768  0.2371
  692TMC3     C10235   3.291   1.598  15.552 -0.5427  0.4523  0.8127
  692TMC3     O10236   3.255   1.607  15.432 -0.3825  0.0653  0.7928
  692TMC3     H10237   3.465   1.599  15.758 -1.7995  0.1129  1.0697
  692TMC3    H110238   3.310   1.363  15.434 -0.4029  0.9375  0.2093
  692TMC3    H210239   3.586   1.198  15.716 -0.4998 -0.5072 -0.5478
  692TMC3    C710240   3.382   1.140  15.540  0.4377  0.5714 -0.0038
  692TMC3    C810241   3.645   1.425  15.832 -0.1622 -0.3987  0.7420
  692TMC3    O110242   3.298   1.136  15.448 -0.2634 -0.5950  0.2966
  692TMC3    O210243   3.723   1.338  15.833  0.2455 -0.3825 -0.4040
  693MPD2     C10244   2.443   4.228  11.315  0.5268  1.1363  0.1078
  693MPD2    C110245   2.432   4.130  11.221 -0.8014 -0.5342 -0.1450
  693MPD2    C210246   2.547   4.069  11.178 -0.0133  0.0997  0.0329
  693MPD2    C310247   2.674   4.104  11.239 -0.4651 -0.7760  0.6072
  693MPD2    C410248   2.675   4.202  11.343  0.1134 -0.6566 -0.7070
  693MPD2    C510249   2.556   4.261  11.377  0.0568  0.5229  0.4106
  693MPD2     H10250   2.546   3.998  11.096 -0.0986 -0.4209  0.4853
  693MPD2    H110251   2.766   4.241  11.386  0.0806 -0.0350 -1.2000
  693MPD2    H210252   2.356   4.290  11.335 -0.6491  0.0139 -1.5286
  693MPD2    H310253   2.571   4.331  11.458 -0.4642  1.4032 -0.2435
  693MPD2     N10254   2.800   4.057  11.192  0.4062 -0.1853  0.5652
  693MPD2    H510255   2.882   4.086  11.245 -0.4089 -0.6652  2.0820
  693MPD2    N110256   2.302   4.083  11.185 -0.5287  0.7284  0.3882
  693MPD2    H710257   2.230   4.128  11.240  0.2209  2.5990 -0.1472
  694TMC3    C110258   2.175   3.894  11.156 -0.0188  0.5230  0.0388
  694TMC3    C210259   2.089   3.831  11.067  0.3708  0.7066 -0.3445
  694TMC3    C310260   1.990   3.757  11.118 -0.4164 -0.2681 -0.7713
  694TMC3    C410261   2.153   3.894  11.288  0.1079  0.2941 -0.5425
  694TMC3    C510262   2.042   3.831  11.334 -0.3170 -0.0381 -0.7458
  694TMC3    C610263   1.954   3.765  11.249  0.3719  0.0008  0.1435
  694TMC3     C10264   2.282   3.980  11.097 -0.1860 -0.5897 -0.1859
  694TMC3     O10265   2.347   3.934  11.005  0.6023  0.0337 -0.4005
  694TMC3     H10266   2.105   3.842  10.961  1.3128 -1.0934 -0.3785
  694TMC3    H110267   2.232   3.928  11.354 -1.6954  1.2291  1.1313
  694TMC3    H210268   1.874   3.702  11.284 -0.1825  0.6103 -0.0308
  694TMC3    C710269   2.030   3.825  11.484 -0.3935 -0.1355 -0.2000
  694TMC3    C810270   1.884   3.701  11.030  0.2135 -0.6599 -0.0365
  694TMC3    O110271   2.120   3.871  11.550  0.2263  0.2904 -0.9509
  694TMC3    O210272   1.777   3.674  11.081  0.4677 -0.0118 -0.3000
  695MPD2     C10273   4.035   1.571  13.275  0.2675 -0.0750 -0.5560
  695MPD2    C110274   3.989   1.501  13.385  0.7609  0.6243 -0.6902
  695MPD2    C210275   3.874   1.436  13.378  0.5984  0.5693 -0.3952
  695MPD2    C310276   3.799   1.439  13.258  0.9577 -0.3224 -0.5798
  695MPD2    C410277   3.845   1.502  13.149 -0.0173  0.9180  0.6844
  695MPD2    C510278   3.965   1.565  13.160 -0.9125  0.0611  0.2923
  695MPD2     H10279   3.842   1.380  13.466  3.2844 -1.8223 -0.9602
  695MPD2    H110280   3.806   1.495  13.048  2.4178 -0.5752 -0.1658
  695MPD2    H210281   4.121   1.636  13.274  0.3196 -0.1467 -0.9682
  695MPD2    H310282   4.031   1.610  13.086  0.0579 -1.4616  0.2245
  695MPD2     N10283   3.681   1.356  13.239  0.5290 -0.5742  0.0384
  695MPD2    H510284   3.626   1.373  13.156  0.5587 -0.9401 -0.0582
  695MPD2    N110285   4.064   1.502  13.503 -0.3756 -0.8683  0.4418
  695MPD2    H710286   4.013   1.471  13.584 -0.4231 -3.1035 -0.4555
  696TMC3    C110287   3.541   1.172  13.285  0.0585  0.0319  1.1313
  696TMC3    C210288   3.528   1.052  13.348  0.1871 -0.2030  0.2566
  696TMC3    C310289   3.406   1.000  13.381  0.2730  0.3130  0.0227
  696TMC3    C410290   3.433   1.253  13.253  0.4024 -0.3880 -0.7317
  696TMC3    C510291   3.313   1.194  13.281 -1.3161 -0.2743  0.5904
  696TMC3    C610292   3.297   1.070  13.343  0.0883  0.4262  0.2420
  696TMC3     C10293   3.659   1.246  13.322  0.7908  0.9700 -0.4533
  696TMC3     O10294   3.718   1.195  13.416  0.6769  0.1276  0.1853
  696TMC3     H10295   3.618   0.994  13.366  0.0623 -0.5833 -0.3341
  696TMC3    H110296   3.435   1.354  13.212  0.6548  0.6148  1.7232
  696TMC3    H210297   3.193   1.047  13.367 -0.5662  1.6938 -1.3993
  696TMC3    C710298   3.194   1.267  13.248  0.2459  0.4039 -0.2508
  696TMC3    C810299   3.419   0.859  13.416 -0.2377 -0.8645  0.5048
  696TMC3    O110300   3.190   1.329  13.144 -0.3259 -0.0120  0.1614
  696TMC3    O210301   3.498   0.791  13.351 -0.1920 -0.7005  0.2352
  697MPD2     C10302   2.456   3.387  15.378  0.7132  0.2985 -0.7053
  697MPD2    C110303   2.486   3.335  15.252  0.0027  0.1945 -0.1303
  697MPD2    C210304   2.508   3.422  15.144 -0.2323 -0.7250  0.0249
  697MPD2    C310305   2.510   3.557  15.161  0.6411 -0.4223 -0.3293
  697MPD2    C410306   2.460   3.607  15.280 -0.1413 -0.9908 -0.1149
  697MPD2    C510307   2.443   3.525  15.386  0.3525  0.0707  0.5850
  697MPD2     H10308   2.544   3.372  15.055  1.2436 -1.2253  0.9104
  697MPD2    H110309   2.441   3.713  15.295 -2.9982 -1.9249  2.7212
  697MPD2    H210310   2.436   3.326  15.465 -1.2407  1.8761 -0.0468
  697MPD2    H310311   2.399   3.552  15.481 -0.5859 -2.2008  0.8157
  697MPD2     N10312   2.558   3.643  15.060 -0.5646 -0.5927 -0.5322
  697MPD2    H510313   2.597   3.591  14.982 -0.5496 -2.1170  0.4777
  697MPD2    N110314   2.509   3.194  15.228  0.0794 -0.4128  0.8057
  697MPD2    H710315   2.510   3.165  15.131  3.0805 -0.8279  0.9614
  698TMC3    C110316   2.687   3.815  14.982  0.3160 -0.0541  0.1381
  698TMC3    C210317   2.768   3.917  15.027  0.1177 -0.5056  0.3605
  698TMC3    C310318   2.893   3.926  14.966 -0.0227  0.4273  0.2236
  698TMC3    C410319   2.728   3.726  14.885 -0.4516 -0.1167  0.0331
  698TMC3    C510320   2.854   3.730  14.826 -0.3511 -0.1124 -0.1020
  698TMC3    C610321   2.935   3.826  14.876 -0.2264 -0.1546 -0.0779
  698TMC3     C10322   2.593   3.771  15.074 -0.1788 -0.1232 -0.0946
  698TMC3     O10323   2.587   3.843  15.171 -0.0343 -0.1417  0.0858
  698TMC3     H10324   2.731   3.990  15.098  1.2254  0.2896  0.1415
  698TMC3    H110325   2.659   3.649  14.854 -0.0963 -0.3830 -0.0908
  698TMC3    H210326   3.036   3.831  14.837 -1.2183  0.3571 -2.5496
  698TMC3    C710327   2.883   3.647  14.714  0.1377  0.2008 -0.3783
  698TMC3    C810328   2.993   4.008  15.027 -0.4333 -0.6704 -1.1292
  698TMC3    O110329   2.789   3.598  14.651  0.3191 -0.5274 -0.5848
  698TMC3    O210330   2.958   4.055  15.135 -0.1437  0.1003 -0.5251
  699TMC3    C110331   2.999   0.756  12.685 -0.4085 -0.0666  0.2499
  699TMC3    C210332   3.074   0.661  12.753  0.3765  0.0506 -0.4982
  699TMC3    C310333   3.013   0.549  12.787 -0.0855 -0.1695 -0.2958
  699TMC3    C410334   2.864   0.751  12.677 -0.2880  0.3401 -0.1567
  699TMC3    C510335   2.805   0.644  12.739 -0.0949  0.2472  0.4102
  699TMC3    C610336   2.876   0.538  12.794  0.3573 -0.1637 -0.0622
  699TMC3     C10337   3.065   0.875  12.615 -0.1160  0.0656  0.5349
  699TMC3     O10338   2.983   0.958  12.571 -0.0947 -0.4071 -0.0716
  699TMC3     H10339   3.180   0.671  12.775  0.3912  3.2366 -2.0440
  699TMC3    H110340   2.803   0.835  12.647  2.7086  1.3526 -3.4784
  699TMC3    H210341   2.831   0.466  12.860  1.2377  0.1891  0.9148
  699TMC3    C710342   2.663   0.654  12.756 -0.1188  0.4383  0.1818
  699TMC3    C810343   3.092   0.456  12.868 -0.0460 -0.1219 -0.1209
  699TMC3    O110344   2.604   0.760  12.740 -0.1195  0.1508  0.1680
  699TMC3    O210345   3.029   0.398  12.960 -0.0682  0.7554  0.0355
  700TMC3    C110346   2.564   3.769  17.327 -0.3959 -0.8342  0.1106
  700TMC3    C210347   2.645   3.673  17.278 -0.0762 -0.3389 -0.1406
  700TMC3    C310348   2.778   3.674  17.305  0.1087  0.1315 -0.0054
  700TMC3    C410349   2.628   3.869  17.398  0.3120 -0.8624  0.2690
  700TMC3    C510350   2.760   3.870  17.427  0.3162  0.3007  0.1201
  700TMC3    C610351   2.842   3.770  17.377 -0.3062  0.3934  0.1851
  700TMC3     C10352   2.463   3.821  17.234 -0.0427  0.1801  0.0459
  700TMC3     O10353   2.363   3.750  17.219  0.1138  0.3284 -0.5577
  700TMC3     H10354   2.595   3.594  17.223 -0.5042 -2.0429  2.6659
  700TMC3    H110355   2.566   3.943  17.446  2.1018  0.9956 -0.3166
  700TMC3    H210356   2.949   3.780  17.392 -0.1597  0.1823 -0.7628
  700TMC3    C710357   2.814   4.006  17.451  0.2310  0.4937  0.2212
  700TMC3    C810358   2.848   3.549  17.273  0.0323  0.6190 -0.1186
  700TMC3    O110359   2.936   4.013  17.449  0.7774  0.6660 -0.3250
  700TMC3    O210360   2.785   3.461  17.215  0.3888  0.5813 -0.4371
  701TMC3    C110361   1.965   2.430  15.585 -0.0552 -0.5181  0.0128
  701TMC3    C210362   1.915   2.339  15.502 -0.7774  0.3048 -0.0176
  701TMC3    C310363   1.898   2.379  15.369  0.2610 -0.1004  0.4615
  701TMC3    C410364   2.007   2.550  15.542  0.8588 -0.1724  0.1836
  701TMC3    C510365   1.987   2.588  15.413 -0.0468 -0.2092  0.2918
  701TMC3    C610366   1.928   2.507  15.325  0.5834  0.1574 -0.3320
  701TMC3     C10367   1.969   2.391  15.730 -0.2322 -0.6423 -0.4284
  701TMC3     O10368   1.944   2.271  15.747 -0.1916 -0.7001  0.0648
  701TMC3     H10369   1.858   2.249  15.526  1.5026 -1.6244 -1.8649
  701TMC3    H110370   2.080   2.596  15.608  0.7021 -1.2485  1.0983
  701TMC3    H210371   1.918   2.541  15.223 -0.7868  1.8912  0.3893
  701TMC3    C710372   2.032   2.718  15.361  0.5696  0.0479 -0.5369
  701TMC3    C810373   1.861   2.269  15.279 -0.2312 -0.5429 -0.3115
  701TMC3    O110374   2.020   2.749  15.242  0.1419  0.2615 -0.6156
  701TMC3    O210375   1.891   2.157  15.310  0.8949 -0.2239 -0.0930
  702MPD2     C10376   1.680   4.684  10.403 -0.2989  0.2744 -0.3210
  702MPD2    C110377   1.567   0.042  10.403 -0.3953  0.4942  0.0692
  702MPD2    C210378   1.574   0.164  10.342 -0.1213  0.2208 -0.2049
  702MPD2    C310379   1.684   0.208  10.275  0.2723  0.0462  0.5290
  702MPD2    C410380   1.802   0.134  10.280  0.1252 -0.2253  0.3168
  702MPD2    C510381   1.793   0.019  10.351  0.3475 -0.2199 -0.4279
  702MPD2     H10382   1.482   0.221  10.342 -0.0670  0.3076 -0.0244
  702MPD2    H110383   1.900   0.158  10.239  0.3666 -1.9473 -0.1280
  702MPD2    H210384   1.692   4.588  10.452 -0.2161 -0.3297 -1.5162
  702MPD2    H310385   1.885   4.682  10.361  1.1004  0.9586 -0.6566
  702MPD2     N10386   1.676   0.334  10.214  0.6947  0.1152 -0.2915
  702MPD2    H510387   1.589   0.386  10.217  1.3166  1.2120 -1.2856
  702MPD2    N110388   1.447   0.006  10.469  0.4294  0.2914  0.4142
  702MPD2    H710389   1.372   0.074  10.462 -0.3079 -0.6615 -0.8340
  703TMC3    C110390   1.743   0.528  10.086 -0.3335  0.2030 -0.1815
  703TMC3    C210391   1.616   0.574  10.101  0.1174  0.0317  0.3908
  703TMC3    C310392   1.581   0.694  10.042 -0.6771  0.3114  0.0162
  703TMC3    C410393   1.846   0.599  10.028  0.5602 -0.1077  0.4469
  703TMC3    C510394   1.809   0.724   9.985  0.6321 -0.5999  0.1579
  703TMC3    C610395   1.676   0.770   9.989  0.7329  0.7877  0.3944
  703TMC3     C10396   1.778   0.400  10.144 -0.0991  0.3956  0.2215
  703TMC3     O10397   1.893   0.371  10.125 -0.1768 -0.9544  0.4855
  703TMC3     H10398   1.534   0.527  10.153 -0.7506  1.2695  0.1436
  703TMC3    H110399   1.945   0.556  10.027 -0.3538 -2.2254 -0.3237
  703TMC3    H210400   1.648   0.866   9.948  1.6136 -0.1130 -2.3283
  703TMC3    C710401   1.912   0.810   9.940  0.1363 -0.1039  0.6104
  703TMC3    C810402   1.480   0.773  10.114  0.5107  0.1053 -0.2887
  703TMC3    O110403   2.027   0.783   9.979  0.4005  0.1559 -0.1270
  703TMC3    O210404   1.534   0.875  10.148  0.3210  0.0294 -0.2107
  704TMC3    C110405   4.107   3.223  12.190 -0.5031 -0.0749  0.2572
  704TMC3    C210406   4.234   3.201  12.137 -0.5199 -0.4526 -0.3106
  704TMC3    C310407   4.331   3.140  12.211 -0.9542 -0.4420  0.0483
  704TMC3    C410408   4.078   3.180  12.316 -0.2254  0.6433  0.3480
  704TMC3    C510409   4.181   3.118  12.390 -0.2602  0.3048  0.6208
  704TMC3    C610410   4.308   3.098  12.337  0.8530 -0.0667 -0.3188
  704TMC3     C10411   3.993   3.209  12.098  0.0650 -0.0252  0.2311
  704TMC3     O10412   3.879   3.205  12.139 -0.6173 -0.2029 -0.2361
  704TMC3     H10413   4.269   3.227  12.038  0.3216 -1.5662 -0.3067
  704TMC3    H110414   3.981   3.198  12.360 -0.9307  0.2308 -1.0609
  704TMC3    H210415   4.390   3.046  12.385  0.2865  0.1939  0.9255
  704TMC3    C710416   4.138   2.993  12.451 -0.9898 -0.6427 -0.0496
  704TMC3    C810417   4.417   3.066  12.121  0.4324  0.5584 -0.7627
  704TMC3    O110418   4.221   2.908  12.484 -0.0027 -0.5398  0.2488
  704TMC3    O210419   4.376   3.040  12.012 -0.3371 -0.1143 -0.4337
  705MPD2     C10420   3.685   0.913  16.512 -0.7265  0.2032 -0.7200
  705MPD2    C110421   3.643   0.934  16.382  0.6974  0.5200  0.3056
  705MPD2    C210422   3.517   0.980  16.368  0.0873  0.6460 -0.4152
  705MPD2    C310423   3.431   1.007  16.470  0.2095 -0.0287 -0.6583
  705MPD2    C410424   3.479   0.998  16.603 -0.6061  0.4560  0.6017
  705MPD2    C510425   3.605   0.945  16.621  0.1576  0.1815 -0.4620
  705MPD2     H10426   3.473   0.987  16.269  2.7028  1.2828 -1.5286
  705MPD2    H110427   3.433   1.025  16.698 -0.3632  1.0520  0.5522
  705MPD2    H210428   3.787   0.880  16.529 -1.3705 -2.3878 -1.8783
  705MPD2    H310429   3.640   0.953  16.724  0.8339 -0.7364 -0.6178
  705MPD2     N10430   3.304   1.072  16.448 -0.9599 -0.0886 -0.1364
  705MPD2    H510431   3.262   1.109  16.533  0.2772  5.0027 -1.6973
  705MPD2    N110432   3.720   0.922  16.269 -0.2603  0.1352  0.2713
  705MPD2    H710433   3.676   0.922  16.178 -1.9557 -0.5799  1.0698
  706TMC3    C110434   3.915   0.847  15.929  0.2652 -0.5516 -1.1571
  706TMC3    C210435   4.022   0.931  15.903 -0.2115  0.8661  0.4276
  706TMC3    C310436   4.085   1.006  16.001 -0.1344 -0.2886 -0.6033
  706TMC3    C410437   3.869   0.840  16.059  0.3814  0.2744  0.8390
  706TMC3    C510438   3.922   0.921  16.156  0.7666  0.8682 -0.8160
  706TMC3    C610439   4.032   1.000  16.132 -0.4460  0.0967 -0.3676
  706TMC3     C10440   3.911   0.716  15.861 -0.4635 -0.6577 -0.2707
  706TMC3     O10441   3.856   0.629  15.922 -0.0008 -0.0723  0.3970
  706TMC3     H10442   4.050   0.950  15.800 -0.3863 -0.0192  0.2176
  706TMC3    H110443   3.790   0.770  16.085  0.2787  0.1591  0.2112
  706TMC3    H210444   4.064   1.067  16.211  0.5829 -0.6498 -0.1617
  706TMC3    C710445   3.857   0.929  16.277  0.1847 -0.1475 -0.3725
  706TMC3    C810446   4.153   1.127  15.968  0.8507  0.1914 -0.6439
  706TMC3    O110447   3.929   0.955  16.372 -0.1642  0.7043  0.0852
  706TMC3    O210448   4.148   1.173  15.857  0.0933  0.0951  0.4851
  707TMC3    C110449   1.606   0.643   1.554 -0.2387  0.0712 -0.9236
  707TMC3    C210450   1.533   0.539   1.611  0.3873 -0.1010 -0.7104
  707TMC3    C310451   1.402   0.520   1.572  0.7977  1.0085  0.1815
  707TMC3    C410452   1.540   0.734   1.479  0.7918 -0.3542 -0.1671
  707TMC3    C510453   1.405   0.720   1.452  0.2116 -0.2993  0.6109
  707TMC3    C610454   1.330   0.614   1.503 -0.2458  0.0318  0.3143
  707TMC3     C10455   1.714   0.582   1.490  0.0742  0.1377 -0.5845
  707TMC3     O10456   1.721   0.459   1.504 -0.6193  0.3129  0.0055
  707TMC3     H10457   1.582   0.473   1.681  0.0896  1.2818  0.7900
  707TMC3    H110458   1.595   0.802   1.414  1.5045 -0.7036  0.0774
  707TMC3    H210459   1.230   0.596   1.466 -0.1648  1.6066 -0.6604
  707TMC3    C710460   1.339   0.810   1.357  0.5078  0.4030  0.2733
  707TMC3    C810461   1.360   0.384   1.561  0.1978  0.5811  0.3604
  707TMC3    O110462   1.226   0.778   1.318 -0.0622 -0.9631  0.4586
  707TMC3    O210463   1.244   0.352   1.539 -0.0263  0.4231  0.5835
  708MPD2     C10464   2.249   0.219  13.523 -0.7743 -0.4597  0.4197
  708MPD2    C110465   2.152   0.121  13.536  0.1770 -0.5768  1.1512
  708MPD2    C210466   2.173   4.719  13.598  0.2030 -0.5379  0.4695
  708MPD2    C310467   2.296   4.687  13.645  0.1875 -0.1563 -0.3321
  708MPD2    C410468   2.393   0.063  13.629  0.4239  0.4809 -0.1919
  708MPD2    C510469   2.376   0.183  13.557  0.1745  0.7101 -0.6047
  708MPD2     H10470   2.085   4.657  13.609 -1.9040  2.6022  1.4066
  708MPD2    H110471   2.492   0.045  13.668 -0.1426  0.4615  1.2487
  708MPD2    H210472   2.240   0.309  13.463  0.1711  0.2266  1.3042
  708MPD2    H310473   2.462   0.248  13.554  0.4934  0.0736 -4.7502
  708MPD2     N10474   2.316   4.588  13.744  0.1371 -0.2091 -0.2202
  708MPD2    H510475   2.404   4.579  13.792  0.0110  0.8343  0.2065
  708MPD2    N110476   2.021   0.160  13.504  0.2018 -0.2325  0.1099
  708MPD2    H710477   1.996   0.258  13.513 -1.7600 -0.7530  0.4145
  709TMC3    C110478   1.795   0.152  13.447 -0.0125 -0.8410 -0.4079
  709TMC3    C210479   1.700   0.084  13.373 -0.9406  0.0526  0.4404
  709TMC3    C310480   1.568   0.118  13.389  0.0687 -0.3815 -0.2961
  709TMC3    C410481   1.757   0.233  13.550  0.7402 -0.2685 -0.3856
  709TMC3    C510482   1.623   0.261  13.575 -1.0259  0.2333  0.8046
  709TMC3    C610483   1.527   0.203  13.496  0.3535 -0.5722 -0.1080
  709TMC3     C10484   1.925   0.081  13.453  0.3785  0.4919 -0.1568
  709TMC3     O10485   1.935   4.688  13.400 -0.2012 -0.6792  0.0842
  709TMC3     H10486   1.728   0.031  13.282 -2.6669 -1.5705  0.8593
  709TMC3    H110487   1.828   0.278  13.619  0.1895 -1.1582  0.7636
  709TMC3    H210488   1.423   0.225  13.516  0.5891 -1.3406  1.9088
  709TMC3    C710489   1.593   0.238  13.714  0.2576  0.8471  0.1383
  709TMC3    C810490   1.469   0.108  13.287  0.0023  0.4605  1.0317
  709TMC3    O110491   1.675   0.276  13.797  0.5404 -0.0845  0.0222
  709TMC3    O210492   1.356   0.135  13.326 -0.1264  0.6596  0.3145
  710TMC3    C110493   3.502   0.858   0.415 -0.0878 -0.6452  0.4340
  710TMC3    C210494   3.515   0.859   0.280 -0.3163  0.0572  0.3993
  710TMC3    C310495   3.601   0.773   0.217 -0.3417  0.3595 -0.4547
  710TMC3    C410496   3.576   0.766   0.488  0.1227  0.0231  0.1497
  710TMC3    C510497   3.640   0.670   0.411 -1.2666 -0.3760 -0.2628
  710TMC3    C610498   3.672   0.678   0.279 -0.2032 -0.0818  0.1735
  710TMC3     C10499   3.452   0.973   0.479  0.1252  0.1351  0.3232
  710TMC3     O10500   3.377   1.043   0.415  0.1481  0.7619 -0.5130
  710TMC3     H10501   3.466   0.942   0.229 -0.2339 -1.2310 -1.7430
  710TMC3    H110502   3.570   0.764   0.596 -0.8559  1.1967  0.1255
  710TMC3    H210503   3.738   0.614   0.221 -1.0970  1.1209 -2.2114
  710TMC3    C710504   3.684   0.551   0.488  0.7671  0.1905  0.0169
  710TMC3    C810505   3.646   0.794   0.078 -0.1414  0.0008 -0.0484
  710TMC3    O110506   3.627   0.527   0.593 -0.5426 -0.2898 -0.1874
  710TMC3    O210507   3.766   0.811   0.055  0.2495 -0.2417  0.5105
  711TMC3    C110508   3.044   2.033  15.170 -0.1031  0.5193  0.1393
  711TMC3    C210509   3.134   2.125  15.204 -0.2942 -1.0268  0.0177
  711TMC3    C310510   3.261   2.083  15.243 -0.2935  0.9555  0.0944
  711TMC3    C410511   3.079   1.905  15.163  0.5303 -0.6048 -0.5813
  711TMC3    C510512   3.211   1.870  15.186  0.0096 -0.1868 -0.3736
  711TMC3    C610513   3.307   1.957  15.233  0.8788  0.4970 -0.3714
  711TMC3     C10514   2.929   2.061  15.086  0.1251  0.6924  0.4992
  711TMC3     O10515   2.829   1.993  15.101 -0.0334 -0.1827 -0.6191
  711TMC3     H10516   3.102   2.229  15.212  1.1069 -0.5879  0.0621
  711TMC3    H110517   2.997   1.839  15.138  1.1777 -1.9600  0.9544
  711TMC3    H210518   3.413   1.934  15.246  0.6586 -0.1724  0.2367
  711TMC3    C710519   3.268   1.742  15.158  0.2782 -0.0760  0.5963
  711TMC3    C810520   3.340   2.175  15.328 -0.3924 -0.1052 -0.2192
  711TMC3    O110521   3.382   1.722  15.206 -0.5425 -0.2174  0.0655
  711TMC3    O210522   3.276   2.270  15.369 -0.1116  0.1157  0.0996
  712MPD2     C10523   4.082   2.867  13.639 -0.0833  0.0098 -0.0702
  712MPD2    C110524   4.022   2.882  13.515  0.2424  0.1434  0.1672
  712MPD2    C210525   4.056   2.987  13.432  0.8901 -0.1936  0.1777
  712MPD2    C310526   4.127   3.098  13.475 -0.5958 -0.9143 -0.2975
  712MPD2    C410527   4.178   3.088  13.603  1.0324 -0.1736 -0.2060
  712MPD2    C510528   4.170   2.967  13.673 -0.9724 -0.3171 -0.2890
  712MPD2     H10529   4.016   2.991  13.331  0.0579  0.0879  0.5242
  712MPD2    H110530   4.241   3.169  13.639 -0.1306  0.2494  0.8565
  712MPD2    H210531   4.065   2.779  13.700  0.0531 -0.0271 -0.0835
  712MPD2    H310532   4.229   2.969  13.764 -0.4853 -1.1141 -0.5855
  712MPD2     N10533   4.160   3.226  13.411  0.2685  0.1351 -0.1869
  712MPD2    H510534   4.222   3.294  13.455  1.2629 -1.4535  0.8712
  712MPD2    N110535   3.945   2.778  13.465  0.3793  0.8007  0.1719
  712MPD2    H710536   3.944   2.778  13.363 -1.7862  1.2656  0.1855
  713TMC3    C110537   4.103   3.416  13.282  0.1488  0.1666  0.0346
  713TMC3    C210538   4.226   3.471  13.286 -0.4270 -0.1033 -0.0478
  713TMC3    C310539   4.232   3.609  13.256 -0.5817  0.3137  0.4203
  713TMC3    C410540   3.997   3.482  13.227 -0.3726 -0.1572  0.0052
  713TMC3    C510541   4.006   3.612  13.195 -1.1109  0.1717 -0.5376
  713TMC3    C610542   4.120   3.683  13.215 -0.4265 -0.0029  0.2025
  713TMC3     C10543   4.084   3.276  13.313 -0.9542 -0.0135 -0.2654
  713TMC3     O10544   3.992   3.218  13.259 -0.0190  0.6645 -0.4866
  713TMC3     H10545   4.314   3.414  13.316 -0.7391  0.0884  1.2390
  713TMC3    H110546   3.900   3.436  13.215 -0.5787  0.0683  0.8049
  713TMC3    H210547   4.130   3.788  13.189  0.4883 -0.2580 -0.4471
  713TMC3    C710548   3.884   3.689  13.195 -0.4541  0.5044  0.1524
  713TMC3    C810549   4.366   3.673  13.246 -0.4639 -0.3129 -0.0666
  713TMC3    O110550   3.786   3.648  13.138  0.4068  0.3167 -0.2136
  713TMC3    O210551   4.373   3.761  13.162  0.3868 -0.2551  0.4227
  714MPD2     C10552   1.674   1.863   1.509 -0.0506 -0.5140  0.3098
  714MPD2    C110553   1.789   1.930   1.504 -0.1321  0.1272 -0.8501
  714MPD2    C210554   1.808   2.041   1.422 -0.1741  0.2153  0.7643
  714MPD2    C310555   1.706   2.064   1.327  0.1264 -0.4327 -0.1786
  714MPD2    C410556   1.593   1.988   1.332 -0.1195 -0.5296 -0.6021
  714MPD2    C510557   1.569   1.902   1.427  0.1235  0.5330 -0.0821
  714MPD2     H10558   1.904   2.092   1.419 -0.0240 -0.0626  0.7613
  714MPD2    H110559   1.518   2.000   1.254 -1.2573 -0.7208  0.4600
  714MPD2    H210560   1.654   1.783   1.579 -0.5967 -0.4787  0.1967
  714MPD2    H310561   1.475   1.848   1.424  0.2924  0.1357  1.3287
  714MPD2     N10562   1.730   2.165   1.226  0.1544  0.5453  0.2869
  714MPD2    H510563   1.651   2.181   1.164 -0.9408  0.1384  1.6004
  714MPD2    N110564   1.895   1.874   1.579 -0.1191  0.9975 -0.6202
  714MPD2    H710565   1.885   1.781   1.618  1.9686  1.0578  0.0645
  715TMC3    C110566   2.105   1.852   1.685  0.5031  0.5990 -0.1999
  715TMC3    C210567   2.110   1.725   1.637 -0.1487 -0.2057 -0.4383
  715TMC3    C310568   2.188   1.638   1.700  0.6861 -0.1952  0.1251
  715TMC3    C410569   2.188   1.900   1.779  0.1772  0.6052 -0.8595
  715TMC3    C510570   2.267   1.807   1.839 -0.0059  0.1207 -0.4583
  715TMC3    C610571   2.252   1.677   1.808  0.3384  0.0258  0.8069
  715TMC3     C10572   2.000   1.944   1.642  0.5155  0.1061 -0.5104
  715TMC3     O10573   2.020   2.066   1.653 -0.2193  0.0678 -0.1604
  715TMC3     H10574   2.068   1.683   1.547  2.7807 -0.3574 -1.7020
  715TMC3    H110575   2.178   2.000   1.819  0.5616 -0.1169  1.0746
  715TMC3    H210576   2.311   1.606   1.865  1.2093  0.0342 -0.0690
  715TMC3    C710577   2.409   1.835   1.872 -0.4960  1.1304  0.1132
  715TMC3    C810578   2.274   1.558   1.608  0.0066  0.4717  0.0580
  715TMC3    O110579   2.484   1.740   1.881  0.6265 -0.6030  0.1847
  715TMC3    O210580   2.244   1.547   1.490  0.1230  0.2440 -0.3714
  716MPD2     C10581   1.474   3.941  10.323 -0.2598 -0.2515 -0.4275
  716MPD2    C110582   1.438   3.923  10.191  0.5622 -0.2887  0.2171
  716MPD2    C210583   1.454   3.798  10.137  0.3626 -0.9505  0.1180
  716MPD2    C310584   1.477   3.689  10.224  0.0577  0.3368  0.4644
  716MPD2    C410585   1.482   3.711  10.360  0.1736 -0.4778 -0.0363
  716MPD2    C510586   1.499   3.840  10.408 -0.5812  0.0443  0.1076
  716MPD2     H10587   1.434   3.795  10.031  0.8425  0.1415 -0.0004
  716MPD2    H110588   1.476   3.630  10.432 -2.2352  0.4672  0.8166
  716MPD2    H210589   1.482   4.042  10.360  1.3460 -0.4295 -0.2980
  716MPD2    H310590   1.516   3.851  10.515  3.8657 -2.2489 -0.3572
  716MPD2     N10591   1.464   3.558  10.166  0.1039 -0.5164 -0.2372
  716MPD2    H510592   1.465   3.552  10.064  0.2344 -0.7965 -0.2171
  716MPD2    N110593   1.387   4.035  10.118 -0.2455 -0.3323 -0.9771
  716MPD2    H710594   1.370   4.126  10.160  2.0611 -0.0860 -0.5787
  717TMC3    C110595   1.480   3.318  10.157  0.1038  0.9146  0.3292
  717TMC3    C210596   1.455   3.324  10.020  0.2118  0.2070  0.2428
  717TMC3    C310597   1.471   3.207   9.950  1.1870 -0.3580 -0.3211
  717TMC3    C410598   1.515   3.202  10.214 -0.4150 -0.0534 -0.5335
  717TMC3    C510599   1.516   3.084  10.143  0.5306  0.3815  0.1094
  717TMC3    C610600   1.498   3.087  10.006  0.2406 -0.3633 -0.1332
  717TMC3     C10601   1.469   3.438  10.240 -1.1235 -0.3821 -0.3717
  717TMC3     O10602   1.469   3.419  10.357  0.1622  0.8659 -0.1004
  717TMC3     H10603   1.424   3.415   9.970  1.3636  0.5392  0.1307
  717TMC3    H110604   1.531   3.197  10.322 -1.7021 -0.3918 -0.3551
  717TMC3    H210605   1.496   2.998   9.945  1.6844 -0.0054 -0.7130
  717TMC3    C710606   1.482   2.959  10.205  0.2050 -0.2729  0.1944
  717TMC3    C810607   1.476   3.236   9.802 -0.4052 -0.1937  0.0354
  717TMC3    O110608   1.441   2.869  10.134  0.1118  0.3326 -0.4230
  717TMC3    O210609   1.453   3.353   9.764 -0.0607 -0.0509  0.8326
  718MPD2     C10610   0.898   3.660  13.337  0.0829  0.3988 -0.2538
  718MPD2    C110611   0.936   3.614  13.220  0.9172  0.4233 -0.6800
  718MPD2    C210612   0.941   3.473  13.210 -0.0070  0.2838 -0.0679
  718MPD2    C310613   0.897   3.389  13.307 -0.4505  0.1263 -0.7318
  718MPD2    C410614   0.845   3.448  13.424 -0.0663 -0.3186 -0.0726
  718MPD2    C510615   0.858   3.581  13.445  0.0385 -0.5272  0.4370
  718MPD2     H10616   0.987   3.431  13.121  0.6715 -0.0991  0.4585
  718MPD2    H110617   0.807   3.393  13.510  0.6121 -0.1620  0.3246
  718MPD2    H210618   0.899   3.766  13.357 -0.2100 -0.0906  2.3810
  718MPD2    H310619   0.835   3.616  13.545 -0.5699  1.7049 -0.5045
  718MPD2     N10620   0.908   3.251  13.290  0.3444  0.0425 -0.3805
  718MPD2    H510621   0.884   3.190  13.368  0.3767  0.5463  0.0244
  718MPD2    N110622   0.960   3.706  13.113 -0.4878 -0.5964 -0.6491
  718MPD2    H710623   0.976   3.803  13.139  1.6730 -0.6007 -1.9367
  719TMC3    C110624   1.008   3.762  12.884  0.9237 -0.2514  0.0105
  719TMC3    C210625   0.945   3.737  12.766 -0.5921 -0.3387  0.0149
  719TMC3    C310626   1.023   3.744  12.651 -0.5106  0.2621 -0.9386
  719TMC3    C410627   1.138   3.808  12.887 -0.4003 -0.1166  0.5001
  719TMC3    C510628   1.197   3.826  12.765 -0.5582  0.0995 -0.0975
  719TMC3    C610629   1.150   3.781  12.644 -0.2068 -0.5175 -0.4326
  719TMC3     C10630   0.973   3.660  12.982  0.1527 -0.5418  0.2841
  719TMC3     O10631   0.943   3.555  12.937 -0.2792 -0.5438 -0.0891
  719TMC3     H10632   0.840   3.711  12.768 -0.1243 -2.3385 -0.8298
  719TMC3    H110633   1.201   3.809  12.975 -0.5856  2.8976  0.5972
  719TMC3    H210634   1.200   3.798  12.549 -0.3207  1.6404 -0.0920
  719TMC3    C710635   1.336   3.854  12.756  0.0818  1.0639  0.2101
  719TMC3    C810636   1.013   3.623  12.574 -0.5155 -0.2432 -0.1772
  719TMC3    O110637   1.402   3.790  12.681 -0.0648 -0.1415 -0.0046
  719TMC3    O210638   1.053   3.618  12.460  0.0280  0.6366 -0.3680
  720MPD2     C10639   4.207   0.513  13.791  0.7592  0.3699 -0.5163
  720MPD2    C110640   4.295   0.502  13.687 -0.4332 -0.2121  0.1418
  720MPD2    C210641   4.428   0.450  13.715  0.0660 -0.3209  0.0617
  720MPD2    C310642   4.463   0.408  13.842  0.0264  0.3569 -0.2526
  720MPD2    C410643   4.362   0.407  13.940 -0.1284 -0.4007  0.0631
  720MPD2    C510644   4.237   0.470  13.915 -0.0028  0.3588 -0.7793
  720MPD2     H10645   4.503   0.444  13.637 -0.5014  0.5539 -0.5485
  720MPD2    H110646   4.377   0.381  14.044  2.9239  2.8899  0.4658
  720MPD2    H210647   4.107   0.552  13.774  0.1181 -1.0291  0.0874
  720MPD2    H310648   4.164   0.467  13.996 -1.1946 -2.4631 -1.9296
  720MPD2     N10649   4.593   0.375  13.882  0.3492  0.2711  0.1952
  720MPD2    H510650   4.662   0.387  13.809 -0.8238  0.5996 -0.8684
  720MPD2    N110651   4.256   0.541  13.558  0.1240  0.2113 -0.0570
  720MPD2    H710652   4.164   0.582  13.550  0.5078  1.1123  0.1228
  721TMC3    C110653   0.061   0.346  14.027  0.1775  0.1727  0.4708
  721TMC3    C210654   0.105   0.297  14.153  0.1095  0.3840  0.1646
  721TMC3    C310655   0.217   0.352  14.213 -0.7259 -0.8056  0.1878
  721TMC3    C410656   0.145   0.428  13.951 -0.0003 -0.3657  0.0401
  721TMC3    C510657   0.272   0.463  14.003  0.5452 -0.1713  0.2519
  721TMC3    C610658   0.305   0.429  14.138 -0.2518  0.4559 -0.1352
  721TMC3     C10659   4.637   0.328  14.001  0.1411 -0.0228  0.1051
  721TMC3     O10660   4.567   0.264  14.080  0.1616 -0.0710 -0.3335
  721TMC3     H10661   0.030   0.254  14.218  0.9055  0.3474  1.0637
  721TMC3    H110662   0.118   0.460  13.851  0.8737  1.5916  0.4181
  721TMC3    H210663   0.399   0.464  14.180  0.3788 -1.9147  0.4724
  721TMC3    C710664   0.386   0.492  13.912  0.9996  0.6243  0.1890
  721TMC3    C810665   0.233   0.336  14.357  0.4822  0.3673  0.4915
  721TMC3    O110666   0.480   0.546  13.965 -0.3777 -0.4076 -0.2966
  721TMC3    O210667   0.132   0.320  14.430 -0.9276  0.0544  0.0431
  722MPD2     C10668   2.815   3.612  13.273  0.4798  0.2591 -0.0555
  722MPD2    C110669   2.865   3.649  13.155 -1.0739 -0.7027  0.1549
  722MPD2    C210670   2.775   3.653  13.045  0.9517 -0.2065  0.2730
  722MPD2    C310671   2.651   3.604  13.049  0.6460  0.4272  0.4517
  722MPD2    C410672   2.610   3.545  13.172  0.1481 -0.4963 -0.4389
  722MPD2    C510673   2.684   3.567  13.284  0.2398  0.2563  0.2676
  722MPD2     H10674   2.798   3.701  12.950 -2.6849  0.4923 -0.2830
  722MPD2    H110675   2.519   3.491  13.195 -0.5939  0.9726  0.1269
  722MPD2    H210676   2.882   3.607  13.358  3.2276  0.6207 -2.2058
  722MPD2    H310677   2.646   3.533  13.380  1.7111  3.6227  2.0192
  722MPD2     N10678   2.559   3.621  12.939  0.1320 -0.1382 -0.6647
  722MPD2    H510679   2.596   3.677  12.862  1.0367  0.9898  0.5879
  722MPD2    N110680   2.993   3.713  13.141 -0.0495  0.0330  0.5428
  722MPD2    H710681   3.040   3.747  13.225  1.2367 -1.2820  0.3552
  723TMC3    C110682   2.382   3.570  12.788 -0.1787 -0.4640  0.1293
  723TMC3    C210683   2.283   3.485  12.752  0.7832  1.4307 -0.3264
  723TMC3    C310684   2.205   3.515  12.655  0.1508  0.5648  0.1395
  723TMC3    C410685   2.408   3.686  12.729 -0.8285 -0.6430  0.8944
  723TMC3    C510686   2.319   3.717  12.624  0.3048 -0.7298 -0.3962
  723TMC3    C610687   2.218   3.628  12.585  0.2340 -0.4357  0.4777
  723TMC3     C10688   2.446   3.538  12.919  0.4987  0.3412  0.0248
  723TMC3     O10689   2.412   3.434  12.973  0.3566  0.0646 -0.4383
  723TMC3     H10690   2.260   3.392  12.804  0.7182  0.2146 -2.5470
  723TMC3    H110691   2.480   3.759  12.763 -0.3813 -1.1200  0.9681
  723TMC3    H210692   2.133   3.662  12.528  0.5457 -1.0928 -0.3929
  723TMC3    C710693   2.326   3.851  12.567 -0.1808  0.2711  0.4211
  723TMC3    C810694   2.092   3.420  12.630  0.5469  0.1804  0.5022
  723TMC3    O110695   2.296   3.866  12.447 -0.0082 -0.0766  0.2270
  723TMC3    O210696   1.990   3.476  12.596  0.3851 -0.3174 -0.6513
  724TMC3    C110697   1.873   3.138   8.679 -0.3319 -0.5544 -0.2777
  724TMC3    C210698   1.963   3.234   8.652 -0.0422 -0.2331 -0.1259
  724TMC3    C310699   2.097   3.197   8.660  0.5426 -0.3990 -0.3620
  724TMC3    C410700   1.910   3.004   8.678  1.0256  0.0306 -0.5267
  724TMC3    C510701   2.040   2.974   8.645 -0.7724  0.4701 -1.1649
  724TMC3    C610702   2.142   3.067   8.648 -0.3255 -0.3566  0.1126
  724TMC3     C10703   1.730   3.167   8.706  0.0309 -0.1065  0.2051
  724TMC3     O10704   1.669   3.079   8.764 -0.1656  0.0735 -0.0091
  724TMC3     H10705   1.938   3.338   8.670  2.4455  0.1835  0.9286
  724TMC3    H110706   1.828   2.933   8.682  0.6354  0.5526  0.6259
  724TMC3    H210707   2.243   3.029   8.652  0.5114  2.0300  1.4624
  724TMC3    C710708   2.073   2.835   8.626  0.3586  0.1409 -0.3624
  724TMC3    C810709   2.187   3.300   8.676 -0.6200 -0.2956  0.7652
  724TMC3    O110710   2.003   2.749   8.681  0.7790  0.0337 -1.0406
  724TMC3    O210711   2.150   3.416   8.644  0.3261  0.0297  0.1958
  725TMC3    C110712   4.607   0.808  12.678 -0.1264 -0.5099 -0.0994
  725TMC3    C210713   4.523   0.808  12.569 -0.1243 -0.4423 -0.4385
  725TMC3    C310714   4.466   0.682  12.543 -0.2651 -0.3529  0.6943
  725TMC3    C410715   4.635   0.699  12.759  0.4107 -0.0498  0.0196
  725TMC3    C510716   4.572   0.584  12.725  0.6459  0.6612 -0.4538
  725TMC3    C610717   4.482   0.574  12.625 -0.2217 -0.4325 -0.1925
  725TMC3     C10718   4.663   0.933  12.730  0.1039  0.5410  0.0030
  725TMC3     O10719   4.681   1.018  12.648 -0.2345 -0.3040  0.2602
  725TMC3     H10720   4.517   0.890  12.499  1.9508 -0.6755 -0.9047
  725TMC3    H110721   4.711   0.705  12.835  0.2373 -0.8359  0.2466
  725TMC3    H210722   4.432   0.480  12.605 -3.0221  1.2058 -0.8848
  725TMC3    C710723   4.648   0.463  12.747 -0.1318 -0.2082 -0.1328
  725TMC3    C810724   4.392   0.662  12.421 -0.2154 -0.1072 -0.1090
  725TMC3    O110725   4.625   0.406  12.855  0.3761  0.1554 -0.1238
  725TMC3    O210726   4.302   0.578  12.414  0.1470 -0.7340  0.5779
  726MPD2     C10727   2.615   1.823  10.493 -0.1977 -0.8644  0.0577
  726MPD2    C110728   2.565   1.887  10.387  0.1769 -0.3053  0.0367
  726MPD2    C210729   2.435   1.932  10.394 -0.2351  0.1187  0.2325
  726MPD2    C310730   2.348   1.906  10.496  0.0346 -0.5267  0.2815
  726MPD2    C410731   2.394   1.832  10.598  0.3186  0.2968  0.4604
  726MPD2    C510732   2.528   1.795  10.594 -0.5742 -0.4924  0.2087
  726MPD2     H10733   2.400   1.974  10.301  1.6458 -0.1004 -0.5886
  726MPD2    H110734   2.332   1.786  10.673  0.0782 -1.5688 -0.8858
  726MPD2    H210735   2.712   1.775  10.492  0.3916  0.3305  0.7183
  726MPD2    H310736   2.561   1.733  10.677 -0.1200 -1.3225 -0.5871
  726MPD2     N10737   2.217   1.953  10.494 -0.5900 -0.3872 -0.3132
  726MPD2    H510738   2.154   1.933  10.572  0.2573 -2.9449 -0.2844
  726MPD2    N110739   2.648   1.913  10.273 -0.2875 -0.1303 -0.1484
  726MPD2    H710740   2.610   1.979  10.206  0.6658  3.9404  3.3233
  727TMC3    C110741   2.821   1.897  10.116  0.0004  1.2170  0.2646
  727TMC3    C210742   2.804   2.028  10.086  0.0763 -0.6775 -0.2553
  727TMC3    C310743   2.825   2.071   9.957  0.5136  0.4320  0.7120
  727TMC3    C410744   2.853   1.810  10.020 -0.6767 -0.0222  0.2017
  727TMC3    C510745   2.846   1.849   9.888 -0.1743  0.5191 -0.2168
  727TMC3    C610746   2.848   1.985   9.851 -0.0302 -0.1177  0.2531
  727TMC3     C10747   2.763   1.844  10.239  0.2660 -0.7393  0.7412
  727TMC3     O10748   2.808   1.736  10.279  0.4903 -0.3099 -0.7147
  727TMC3     H10749   2.790   2.091  10.173  0.1527  1.0892 -1.5192
  727TMC3    H110750   2.877   1.707  10.044  0.4955 -0.0014 -0.9271
  727TMC3    H210751   2.829   2.017   9.749 -0.4843 -0.0566  0.3537
  727TMC3    C710752   2.741   1.781   9.817  0.0679 -0.3113 -0.0235
  727TMC3    C810753   2.782   2.206   9.928 -0.1652 -0.8032  1.2493
  727TMC3    O110754   2.691   1.833   9.720 -0.9405  0.1594 -0.5848
  727TMC3    O210755   2.809   2.298  10.005  0.0160 -0.0213 -0.4684
  728TMC3    C110756   2.150   1.036  15.160  0.3658 -0.3300  0.3460
  728TMC3    C210757   2.275   1.039  15.109  0.2178 -0.4025 -0.1281
  728TMC3    C310758   2.307   1.128  15.011  0.8824  0.3692 -0.2413
  728TMC3    C410759   2.048   1.110  15.099 -0.1290 -0.2461 -0.1284
  728TMC3    C510760   2.087   1.195  15.002 -0.2924 -0.3268 -0.0682
  728TMC3    C610761   2.217   1.209  14.957  0.6849 -0.4339 -0.1375
  728TMC3     C10762   2.135   0.952  15.274  0.6393  0.0590 -0.1881
  728TMC3     O10763   2.237   0.931  15.336  0.2386  0.2459  0.6218
  728TMC3     H10764   2.345   0.962  15.139  0.0013 -0.7180 -0.4413
  728TMC3    H110765   1.948   1.118  15.140 -1.3302 -2.0871 -2.6748
  728TMC3    H210766   2.248   1.286  14.888 -1.7825  2.3078  1.8204
  728TMC3    C710767   1.986   1.290  14.958  0.1812  0.2051  0.0541
  728TMC3    C810768   2.412   1.091  14.924  0.0159 -0.4558 -0.3695
  728TMC3    O110769   1.874   1.248  14.953 -0.0192 -0.5307  0.3191
  728TMC3    O210770   2.388   1.113  14.804  0.6390 -0.2568  0.8704
  729MPD2     C10771   4.500   2.042  17.087  0.1936 -0.1790  0.7662
  729MPD2    C110772   4.637   2.018  17.082  0.0433  0.9434  0.1152
  729MPD2    C210773   0.005   2.045  17.190  0.2346 -0.3474 -0.1825
  729MPD2    C310774   4.684   2.082  17.313 -0.2476 -0.0290 -0.3262
  729MPD2    C410775   4.546   2.118  17.319  0.1940 -0.1265 -0.5544
  729MPD2    C510776   4.463   2.099  17.210 -0.6239  0.4239 -0.7367
  729MPD2     H10777   0.106   2.007  17.181 -0.4620 -2.3179  0.3006
  729MPD2    H110778   4.507   2.158  17.412  1.0144  1.6560 -0.9734
  729MPD2    H210779   4.427   2.025  17.010 -0.9371 -1.0669  2.0259
  729MPD2    H310780   4.360   2.125  17.231 -0.4975 -1.4457  2.2108
  729MPD2     N10781   0.056   2.100  17.420 -0.1898 -0.5763 -0.1728
  729MPD2    H510782   0.028   2.156  17.500  1.5206  1.1048 -0.7598
  729MPD2    N110783   4.678   1.972  16.957 -0.2343  0.2725  0.4846
  729MPD2    H710784   4.608   1.968  16.884 -0.2914 -0.4710  0.5778
  730TMC3    C110785   0.290   2.140  17.484 -0.2716  0.1670  0.1161
  730TMC3    C210786   0.412   2.107  17.429 -0.4043  0.0926  0.8580
  730TMC3    C310787   0.502   2.205  17.403  0.6718  0.2798 -0.6230
  730TMC3    C410788   0.253   2.271  17.500  0.4584 -0.1102  0.4544
  730TMC3    C510789   0.342   2.367  17.455 -0.0113 -0.1872  0.0120
  730TMC3    C610790   0.467   2.336  17.413 -0.9205  0.0408 -0.0764
  730TMC3     C10791   0.186   2.055  17.420 -0.0904  0.8370 -0.5417
  730TMC3     O10792   0.232   1.954  17.362 -0.4464 -0.6391  0.1162
  730TMC3     H10793   0.444   2.010  17.394  0.6934  1.1579 -1.0960
  730TMC3    H110794   0.153   2.302  17.530  0.4781  0.7146 -0.3715
  730TMC3    H210795   0.531   2.420  17.387 -1.5613  0.0971 -1.4552
  730TMC3    C710796   0.282   2.496  17.406  0.1101 -1.0546  0.4041
  730TMC3    C810797   0.583   2.166  17.286 -0.1379  0.3584 -0.1120
  730TMC3    O110798   0.345   2.570  17.328 -0.5363  0.1574  0.2776
  730TMC3    O210799   0.537   2.076  17.213 -0.5854 -0.0568 -0.0906
  731MPD2     C10800   4.376   4.536  11.581  0.4235  0.1855 -1.0882
  731MPD2    C110801   4.489   4.615  11.566  0.7176  0.2370  0.0566
  731MPD2    C210802   4.607   4.565  11.625  0.2151 -0.0715  0.2641
  731MPD2    C310803   4.614   4.448  11.693  0.2618  0.6132  0.5966
  731MPD2    C410804   4.493   4.383  11.713 -0.3049 -0.6236  0.0274
  731MPD2    C510805   4.377   4.424  11.654 -0.9417  1.1126  0.1338
  731MPD2     H10806   4.698   4.623  11.612 -1.4520  2.8608  1.6756
  731MPD2    H110807   4.478   4.301  11.781 -0.9345  0.1871  0.8635
  731MPD2    H210808   4.285   4.562  11.528 -1.0995 -2.2668  0.2880
  731MPD2    H310809   4.281   4.378  11.675 -0.3559 -0.0796  0.1538
  731MPD2     N10810   0.002   4.432  11.781 -0.0702  0.3705  0.0549
  731MPD2    H510811   0.061   4.514  11.794 -1.5234  1.0087  2.4323
  731MPD2    N110812   4.490   0.016  11.496 -0.1598 -0.3299 -0.8878
  731MPD2    H710813   4.576   0.068  11.485 -0.2579  0.0123 -0.0246
  732TMC3    C110814   4.421   0.187  11.353  0.7061  0.0331  0.5896
  732TMC3    C210815   4.315   0.266  11.340  0.1282 -0.0701 -0.6584
  732TMC3    C310816   4.332   0.388  11.257  0.5584 -0.4693  0.1246
  732TMC3    C410817   4.548   0.221  11.315 -0.3795  0.1473  0.2575
  732TMC3    C510818   4.560   0.332  11.234  0.3372  0.2180 -0.7779
  732TMC3    C610819   4.454   0.418  11.203 -0.3890  0.5839  0.1623
  732TMC3     C10820   4.386   0.073  11.425  0.0250 -0.1568  0.1163
  732TMC3     O10821   4.278   0.025  11.409 -0.3127 -0.2765  0.0927
  732TMC3     H10822   4.221   0.232  11.379  2.0660 -1.8712  2.4379
  732TMC3    H110823   4.623   0.143  11.312 -0.9217 -0.3195 -0.9906
  732TMC3    H210824   4.481   0.510  11.152 -2.4851  0.1161 -1.7694
  732TMC3    C710825   4.697   0.398  11.240  0.2868 -0.0524 -1.3886
  732TMC3    C810826   4.212   0.452  11.197  0.2907  0.2747  0.2214
  732TMC3    O110827   0.013   0.462  11.143  0.2704 -0.5567  0.1111
  732TMC3    O210828   4.221   0.500  11.082 -0.6134  0.5395 -0.2285
  733TMC3    C110829   0.682   2.984  13.106 -0.2035  0.1281  0.0850
  733TMC3    C210830   0.763   3.063  13.189  0.2528 -0.0754  0.8412
  733TMC3    C310831   0.899   3.062  13.158  0.1074 -0.2961  0.1950
  733TMC3    C410832   0.733   2.917  12.993  0.9761  0.6981  0.6014
  733TMC3    C510833   0.864   2.925  12.964  0.2687  0.8393  0.7853
  733TMC3    C610834   0.945   2.999  13.047 -0.5874  0.3343  0.8906
  733TMC3     C10835   0.536   3.010  13.102 -0.8160  0.3420 -0.2567
  733TMC3     O10836   0.496   3.016  12.989  0.0788 -0.1301  0.0349
  733TMC3     H10837   0.708   3.122  13.261  0.2947  0.0201  0.7951
  733TMC3    H110838   0.665   2.869  12.923 -0.0858  1.1762  1.2904
  733TMC3    H210839   1.050   2.992  13.023 -1.4173  0.5091 -2.6714
  733TMC3    C710840   0.884   2.951  12.824  0.9381 -0.3153 -0.0232
  733TMC3    C810841   0.955   3.185  13.175  0.8844 -0.2521 -0.2904
  733TMC3    O110842   0.823   2.885  12.742 -0.5391  0.1684 -0.3951
  733TMC3    O210843   1.029   3.222  13.083  0.0385 -0.5728 -0.6614
  734MPD2     C10844   2.299   1.098  12.231 -0.4794 -0.4188  0.1293
  734MPD2    C110845   2.271   0.976  12.177  0.2582  0.1949  0.0721
  734MPD2    C210846   2.354   0.909  12.091 -0.5654 -0.1368  0.5808
  734MPD2    C310847   2.463   0.982  12.052  0.1128 -0.0552 -0.1712
  734MPD2    C410848   2.492   1.108  12.104  0.0809 -0.0821 -0.2936
  734MPD2    C510849   2.421   1.161  12.202 -0.1551 -0.2349 -0.3097
  734MPD2     H10850   2.322   0.815  12.047 -0.0551  0.5682 -1.2925
  734MPD2    H110851   2.585   1.158  12.077  0.5557  1.4172  4.1635
  734MPD2    H210852   2.225   1.149  12.291  0.0771  0.8799 -0.2687
  734MPD2    H310853   2.443   1.253  12.254 -1.7324  0.8186 -1.4848
  734MPD2     N10854   2.523   0.934  11.934  0.0769  0.1991 -0.1077
  734MPD2    H510855   2.497   0.840  11.906 -0.0369  0.0461  0.5069
  734MPD2    N110856   2.144   0.930  12.222 -0.1327  0.0215  0.2794
  734MPD2    H710857   2.080   0.997  12.262 -1.2446  0.4133 -2.1575
  735TMC3    C110858   1.966   0.766  12.208  0.3831 -0.1463  0.1180
  735TMC3    C210859   1.899   0.814  12.095  0.0414 -0.5331 -0.2860
  735TMC3    C310860   1.795   0.740  12.051 -0.1221 -0.1970  0.2025
  735TMC3    C410861   1.934   0.642  12.263 -0.8027 -0.3368  0.4401
  735TMC3    C510862   1.829   0.574  12.207  0.1174  0.1138  0.6555
  735TMC3    C610863   1.750   0.625  12.108 -0.0291  0.0837  0.1228
  735TMC3     C10864   2.110   0.798  12.208 -0.2022 -0.6362 -0.4360
  735TMC3     O10865   2.177   0.702  12.175 -0.3565 -1.2112  0.1124
  735TMC3     H10866   1.928   0.905  12.045  0.2945 -1.1797 -1.3219
  735TMC3    H110867   2.009   0.588  12.319  0.3832  2.1255  1.2007
  735TMC3    H210868   1.677   0.559  12.064 -1.4577 -0.0275  2.6743
  735TMC3    C710869   1.883   0.450  12.166  0.2649  0.4187  0.3489
  735TMC3    C810870   1.794   0.728  11.909 -0.5343 -0.0672  0.3851
  735TMC3    O110871   1.891   0.427  12.045 -0.3441  0.1913 -0.1669
  735TMC3    O210872   1.699   0.675  11.850 -0.0631 -0.0980 -0.4875
  736MPD2     C10873   2.042   0.178  12.345  0.5115  0.1501 -0.6486
  736MPD2    C110874   2.021   0.256  12.234 -0.1240 -0.2718  0.4995
  736MPD2    C210875   2.085   0.226  12.114 -0.9790  0.0759  0.0869
  736MPD2    C310876   2.179   0.127  12.106  0.1990  0.5095  0.2608
  736MPD2    C410877   2.207   0.050  12.218  0.1329  0.0324  0.5568
  736MPD2    C510878   2.133   0.069  12.331 -0.4929  0.3252 -0.9345
  736MPD2     H10879   2.065   0.287  12.027 -1.2254 -1.1799 -0.7367
  736MPD2    H110880   2.283   4.692  12.220 -2.4033 -2.4739  0.4832
  736MPD2    H210881   2.002   0.198  12.444  2.0120 -1.6974  0.3356
  736MPD2    H310882   2.146   0.005  12.418 -1.1338  0.8878 -0.4275
  736MPD2     N10883   2.259   0.113  11.987 -0.4319 -0.0136 -0.1755
  736MPD2    H510884   2.243   0.185  11.917  3.4271  0.2326 -0.8269
  736MPD2    N110885   1.936   0.367  12.259 -0.2504 -0.2058  0.3142
  736MPD2    H710886   1.917   0.384  12.357  1.4730  0.4586  0.5328
  737TMC3    C110887   2.422   0.052  11.829 -0.1225 -0.1699  0.0560
  737TMC3    C210888   2.474   0.177  11.809  0.5542  0.8277 -0.0878
  737TMC3    C310889   2.519   0.202  11.684  0.0171 -0.1617 -0.1083
  737TMC3    C410890   2.426   4.669  11.740 -0.3790  1.0789  0.2928
  737TMC3    C510891   2.485   4.700  11.616  0.8400  0.8322 -0.0826
  737TMC3    C610892   2.528   0.109  11.589 -0.3877 -0.8876  0.4500
  737TMC3     C10893   2.347   0.017  11.951  0.2822 -0.6100  0.4261
  737TMC3     O10894   2.370   4.626  11.998  0.0342  0.6114 -0.3016
  737TMC3     H10895   2.453   0.257  11.880 -3.1626  2.7552 -3.3720
  737TMC3    H110896   2.387   4.574  11.774  0.8153  1.1173  1.7948
  737TMC3    H210897   2.556   0.127  11.486 -1.9426  0.2561  0.2310
  737TMC3    C710898   2.444   4.617  11.503 -0.2090 -1.0080  0.2631
  737TMC3    C810899   2.566   0.336  11.649  0.1360 -0.4114  0.1861
  737TMC3    O110900   2.341   4.552  11.510  0.2631 -0.0380  0.2231
  737TMC3    O210901   2.572   0.419  11.741  0.2014 -0.3421 -0.7624
  738MPD2     C10902   3.235   4.115  15.133 -0.4119 -0.0378  0.2319
  738MPD2    C110903   3.221   4.085  14.998 -0.3259  0.0850 -0.5723
  738MPD2    C210904   3.317   4.125  14.909 -1.1771  0.1071 -0.0021
  738MPD2    C310905   3.422   4.196  14.961 -0.5557  0.2034  0.4482
  738MPD2    C410906   3.433   4.239  15.091 -0.1509 -0.5118 -0.4128
  738MPD2    C510907   3.339   4.189  15.180 -1.1220  0.4624  0.2596
  738MPD2     H10908   3.296   4.125  14.803 -0.7368 -1.2163 -0.0839
  738MPD2    H110909   3.508   4.310  15.125  0.5483 -2.2844  1.7245
  738MPD2    H210910   3.164   4.090  15.210  0.0791  2.1281  1.4008
  738MPD2    H310911   3.352   4.203  15.287 -1.4629 -0.2160  0.3854
  738MPD2     N10912   3.525   4.244  14.867  0.0120  0.1781 -0.6133
  738MPD2    H510913   3.596   4.299  14.915 -0.3399  1.1020 -1.1740
  738MPD2    N110914   3.103   4.030  14.948  0.6478  0.1776 -0.9159
  738MPD2    H710915   3.091   3.992  14.855  0.2896 -1.6079 -0.1457
  739TMC3    C110916   3.649   4.288  14.684 -0.2995 -0.0615 -0.4599
  739TMC3    C210917   3.646   4.335  14.555  0.1943  0.7403 -1.0791
  739TMC3    C310918   3.761   4.387  14.502  0.0197 -0.7162  0.0419
  739TMC3    C410919   3.763   4.299  14.763  0.4060 -0.2411 -0.7879
  739TMC3    C510920   3.869   4.361  14.708 -0.6195 -0.0055  0.1089
  739TMC3    C610921   3.871   4.404  14.581  0.1876  0.1300  0.0276
  739TMC3     C10922   3.524   4.237  14.736 -0.0009  0.7143 -0.6247
  739TMC3     O10923   3.436   4.196  14.664  0.3164  0.4966  0.3692
  739TMC3     H10924   3.561   4.313  14.492  0.0197  0.4674 -0.7427
  739TMC3    H110925   3.774   4.253  14.861  1.0194 -0.7477 -1.0954
  739TMC3    H210926   3.963   4.452  14.549  0.1569 -0.1985 -0.5735
  739TMC3    C710927   3.988   4.372  14.787 -0.7159 -0.1450 -0.1649
  739TMC3    C810928   3.768   4.390  14.359 -0.2458 -0.6181 -0.0711
  739TMC3    O110929   4.097   4.397  14.732  0.2055 -0.4149  0.6235
  739TMC3    O210930   3.669   4.349  14.299 -0.0761 -0.5697  0.1523
  740TMC3    C110931   4.182   0.884  14.300  0.3140 -0.3280 -0.0349
  740TMC3    C210932   4.195   0.817  14.422  0.6489 -0.4221 -0.1985
  740TMC3    C310933   4.317   0.757  14.439  0.1059  0.2053  0.7273
  740TMC3    C410934   4.280   0.876  14.205 -0.0880 -0.1643  0.1341
  740TMC3    C510935   4.401   0.816  14.235  0.4007 -0.0386  0.1328
  740TMC3    C610936   4.420   0.757  14.356  0.3050 -0.5230 -0.2638
  740TMC3     C10937   4.060   0.942  14.256 -0.3819 -0.0496  0.8850
  740TMC3     O10938   4.051   0.986  14.140  0.5745  0.2408  0.7116
  740TMC3     H10939   4.116   0.787  14.490  1.2889 -1.2191  0.2104
  740TMC3    H110940   4.263   0.929  14.113 -1.1244  0.2566  0.5696
  740TMC3    H210941   4.502   0.692  14.383  0.0135  1.0164  4.2829
  740TMC3    C710942   4.480   0.766  14.123 -0.4011  0.2466  0.5285
  740TMC3    C810943   4.324   0.663  14.552 -0.1813 -0.8377 -0.1024
  740TMC3    O110944   4.543   0.667  14.147 -0.2028  0.1289 -0.3227
  740TMC3    O210945   4.229   0.589  14.570  0.1388 -0.4056  0.6308
  741TMC3    C110946   3.854   0.253  14.072 -0.2787  0.2216  0.3915
  741TMC3    C210947   3.723   0.222  14.079  0.4243 -0.0503 -0.3060
  741TMC3    C310948   3.691   0.140  14.183 -0.3645 -0.5711  0.4437
  741TMC3    C410949   3.951   0.221  14.172 -0.4738 -0.1191 -0.3308
  741TMC3    C510950   3.915   0.140  14.274  0.0061  0.3772  0.1591
  741TMC3    C610951   3.781   0.099  14.277  0.1419 -0.5205  0.4026
  741TMC3     C10952   3.913   0.277  13.942  0.0525 -0.2231  0.0516
  741TMC3     O10953   4.029   0.245  13.926  0.2321 -0.3558 -0.3328
  741TMC3     H10954   3.659   0.246  13.995  1.5713 -2.7278 -1.9547
  741TMC3    H110955   4.056   0.244  14.155 -0.6038  0.8678  0.2559
  741TMC3    H210956   3.754   0.025  14.352  0.3072 -1.9256 -0.9365
  741TMC3    C710957   4.011   0.075  14.366  0.6990  0.7579 -1.3827
  741TMC3    C810958   3.564   0.064  14.165  0.3385  0.1799 -0.0577
  741TMC3    O110959   3.961   0.002  14.450 -0.1148  0.0308  0.2816
  741TMC3    O210960   3.525   0.043  14.051 -0.1893  0.0420  0.3754
  742TMC3    C110961   3.945   3.128  14.712  0.6573  0.2227  0.1879
  742TMC3    C210962   3.860   3.143  14.607 -0.5368 -0.3283 -0.6989
  742TMC3    C310963   3.816   3.036  14.542 -0.0875  0.8405  0.1897
  742TMC3    C410964   3.983   3.004  14.765 -0.2567 -0.1126  0.6151
  742TMC3    C510965   3.932   2.901  14.689  0.0030  0.1997  0.0202
  742TMC3    C610966   3.852   2.916  14.579  0.2876 -0.1684  1.4308
  742TMC3     C10967   4.029   3.243  14.750  0.2880 -0.1198  0.0606
  742TMC3     O10968   4.040   3.330  14.664  0.5686  0.0135  1.0136
  742TMC3     H10969   3.877   3.233  14.550  0.1737 -0.6666 -1.0235
  742TMC3    H110970   4.066   2.992  14.833 -1.5247 -1.4884  1.9270
  742TMC3    H210971   3.795   2.831  14.544  1.3067 -0.7127  1.0717
  742TMC3    C710972   3.958   2.764  14.733  0.1797  0.2198  0.6657
  742TMC3    C810973   3.721   3.058  14.427 -0.6611 -0.5036  0.3607
  742TMC3    O110974   3.965   2.673  14.656  0.0392 -0.0221  0.1522
  742TMC3    O210975   3.697   2.957  14.359 -1.0629  0.1940 -0.1658
  743MPD2     C10976   2.488   4.430   1.933  0.4528  0.1335  0.2297
  743MPD2    C110977   2.496   4.418   1.795 -0.2052 -0.1714  0.4540
  743MPD2    C210978   2.611   4.365   1.744 -0.3922 -0.0777  0.0592
  743MPD2    C310979   2.726   4.351   1.827  0.0145 -0.3053  0.8643
  743MPD2    C410980   2.714   4.370   1.967 -0.1905 -0.2680  0.1861
  743MPD2    C510981   2.593   4.403   2.018 -0.3414  0.7731  0.6265
  743MPD2     H10982   2.614   4.355   1.636  0.6477  0.7725  0.0107
  743MPD2    H110983   2.796   4.356   2.037  0.8658  3.3420 -0.3516
  743MPD2    H210984   2.399   4.472   1.980  1.2914 -1.4398  3.2539
  743MPD2    H310985   2.578   4.430   2.122  1.4903 -0.4504  1.1924
  743MPD2     N10986   2.844   4.299   1.765  0.1817 -0.3722 -0.1418
  743MPD2    H510987   2.842   4.285   1.664  1.8661  1.0638 -0.3747
  743MPD2    N110988   2.389   4.439   1.702 -0.6438 -0.3601 -0.6569
  743MPD2    H710989   2.405   4.407   1.607 -0.3758 -0.2613 -0.6449
  744TMC3    C110990   2.160   4.482   1.631  0.4160 -0.7902 -0.0859
  744TMC3    C210991   2.075   4.590   1.619  0.0242 -0.0378 -0.1803
  744TMC3    C310992   1.974   4.583   1.536  0.4914 -1.0134  0.1631
  744TMC3    C410993   2.141   4.373   1.553 -0.0294 -0.1889  0.9125
  744TMC3    C510994   2.044   4.380   1.452  0.3507  0.1234 -0.7593
  744TMC3    C610995   1.958   4.481   1.444 -0.3757 -0.0067 -0.2624
  744TMC3     C10996   2.265   4.490   1.734 -0.0707  0.1870 -0.3337
  744TMC3     O10997   2.227   4.525   1.846  0.4835 -0.2609  0.6009
  744TMC3     H10998   2.085   4.679   1.680  0.8284  1.1219 -1.9921
  744TMC3    H110999   2.224   4.304   1.548  0.1138  0.1927 -2.0364
  744TMC3    H211000   1.890   4.480   1.360 -0.8693 -0.3214  0.1374
  744TMC3    C711001   2.059   4.304   1.332  0.5801  0.6717 -0.6874
  744TMC3    C811002   1.867   4.685   1.535 -0.4856  0.3707  0.1252
  744TMC3    O111003   2.015   4.347   1.226  0.0078  0.0395  0.3335
  744TMC3    O211004   1.898   0.072   1.591 -0.3423  0.3538  1.1177
  745TMC3    C111005   3.795   2.601  13.431 -0.2802  0.0317 -0.2249
  745TMC3    C211006   3.659   2.590  13.444  0.1151  0.2526  0.1771
  745TMC3    C311007   3.594   2.518  13.346  0.1608  0.2587 -0.6668
  745TMC3    C411008   3.864   2.551  13.327 -0.6672  0.2239 -0.0652
  745TMC3    C511009   3.803   2.469  13.239 -0.3039  0.2319 -0.2117
  745TMC3    C611010   3.667   2.451  13.247 -0.2979  0.7538  0.2464
  745TMC3     C11011   3.861   2.688  13.526 -0.0641 -0.4946 -0.1660
  745TMC3     O11012   3.806   2.722  13.631 -0.0807  0.0071  0.7092
  745TMC3     H11013   3.613   2.628  13.534 -2.6119 -2.0629 -0.2344
  745TMC3    H111014   3.971   2.568  13.324 -0.9106  1.3732 -2.1769
  745TMC3    H211015   3.616   2.396  13.169  2.0049  0.4371 -1.0388
  745TMC3    C711016   3.849   2.456  13.102  0.4934 -0.5692  0.3695
  745TMC3    C811017   3.510   2.612  13.269  0.3824 -0.4717 -0.1334
  745TMC3    O111018   3.780   2.387  13.027  0.2247  0.0616 -0.1415
  745TMC3    O211019   3.474   2.578  13.156 -0.6070  0.5385 -0.4450
  746TMC3    C111020   1.131   0.013  10.729  0.5493 -0.2332 -0.4542
  746TMC3    C211021   1.238   0.015  10.642 -0.8992 -0.2475  0.7341
  746TMC3    C311022   1.293   4.614  10.607  0.1941 -0.0098 -0.2102
  746TMC3    C411023   1.092   4.615  10.794  0.4981  0.0447  0.0817
  746TMC3    C511024   1.159   4.501  10.764  0.2400  0.5645  0.1059
  746TMC3    C611025   1.255   4.496  10.670  0.7607 -0.1971  0.3978
  746TMC3     C11026   1.085   0.144  10.782 -0.1281  0.4076  0.0517
  746TMC3     O11027   1.033   0.156  10.895  0.1105 -0.0257 -0.0655
  746TMC3     H11028   1.280   0.112  10.619 -1.0948 -0.1016  0.9893
  746TMC3    H111029   1.018   4.623  10.873  0.5991 -3.0104  0.4921
  746TMC3    H211030   1.313   4.405  10.660  2.2485  0.8539 -0.5912
  746TMC3    C711031   1.114   4.368  10.824 -0.1275  0.0450 -0.3338
  746TMC3    C811032   1.423   4.611  10.541 -0.3454 -0.3900 -0.2631
  746TMC3    O111033   1.103   4.271  10.751  0.5612  0.0320 -0.1771
  746TMC3    O211034   1.482   4.506  10.534 -0.4306  0.0093 -0.3625
  747TMC3    C111035   2.814   0.054  10.506 -0.6326  0.2400  0.1452
  747TMC3    C211036   2.700   0.007  10.570  0.2702  0.6438 -0.3083
  747TMC3    C311037   2.709   4.718  10.705  0.1922  0.2439 -0.2206
  747TMC3    C411038   2.935   0.084  10.566  0.7688 -0.2863 -0.7473
  747TMC3    C511039   2.937   0.065  10.699 -1.2899 -0.8095 -0.1971
  747TMC3    C611040   2.827   0.022  10.772 -0.0359  0.3234  0.7442
  747TMC3     C11041   2.819   0.013  10.377  0.4446 -0.3567 -0.4509
  747TMC3     O11042   2.729   0.043  10.297 -0.1262  0.2529 -0.4884
  747TMC3     H11043   2.610   4.697  10.518  0.8862 -0.9041 -0.4885
  747TMC3    H111044   3.022   0.115  10.510  0.5810 -0.6552 -1.2472
  747TMC3    H211045   2.829   0.031  10.880 -1.6799 -1.4956  0.9195
  747TMC3    C711046   3.058   0.106  10.773  1.1151 -0.1379 -0.5605
  747TMC3    C811047   2.598   4.664  10.780  0.0192  0.3013 -0.4973
  747TMC3    O111048   3.115   0.203  10.725  0.2262  0.6623 -0.9203
  747TMC3    O211049   2.515   4.596  10.720  0.5205  0.0085  0.1526
  748MPD2     C11050   1.576   0.059   1.876  0.1261 -0.4701  1.1994
  748MPD2    C111051   1.508   0.181   1.885 -0.0478 -0.2824  0.4100
  748MPD2    C211052   1.578   0.298   1.888 -0.1959  0.5644 -0.8422
  748MPD2    C311053   1.718   0.302   1.894 -0.6469 -0.3409  1.0810
  748MPD2    C411054   1.778   0.180   1.901 -0.5123  0.5969  0.4870
  748MPD2    C511055   1.710   0.056   1.885 -0.7046  0.0276  0.1487
  748MPD2     H11056   1.526   0.393   1.888  0.5606  0.9877 -2.3267
  748MPD2    H111057   1.886   0.175   1.910 -0.5153 -0.0906  0.1652
  748MPD2    H211058   1.520   4.688   1.858  0.1425 -0.3909  0.7446
  748MPD2    H311059   1.766   4.687   1.861 -1.1068 -0.9208  2.7666
  748MPD2     N11060   1.780   0.433   1.905 -0.4879  0.2162 -0.2389
  748MPD2    H511061   1.715   0.511   1.899 -0.8097 -0.1064 -1.0437
  748MPD2    N111062   1.366   0.178   1.878  0.8124  0.5844 -0.2371
  748MPD2    H711063   1.312   0.094   1.860 -1.4748  2.2992 -1.4841
  749TMC3    C111064   1.945   0.593   1.872  0.8181  0.3066 -0.6697
  749TMC3    C211065   2.077   0.628   1.896 -0.7021  0.0901 -0.5800
  749TMC3    C311066   2.107   0.758   1.869 -0.1432  0.4766  0.2550
  749TMC3    C411067   1.846   0.681   1.832  0.1710 -0.2900  0.1417
  749TMC3    C511068   1.883   0.810   1.817 -0.0290 -0.1641  0.2814
  749TMC3    C611069   2.015   0.847   1.832 -0.5200  0.0854 -0.0596
  749TMC3     C11070   1.918   0.452   1.897  0.7791  0.4136  0.1806
  749TMC3     O11071   2.015   0.374   1.915  0.0541  0.3822 -0.2119
  749TMC3     H11072   2.147   0.556   1.937  0.6027  1.3962 -0.5000
  749TMC3    H111073   1.743   0.651   1.820  0.0170  1.3157 -2.5814
  749TMC3    H211074   2.055   0.947   1.819  1.4385 -0.7318 -0.3464
  749TMC3    C711075   1.796   0.918   1.777  0.0992 -0.5082 -0.1172
  749TMC3    C811076   2.251   0.784   1.857  0.9958 -0.7049  0.2905
  749TMC3    O111077   1.854   1.023   1.748 -0.2786 -0.2218 -0.5131
  749TMC3    O211078   2.300   0.889   1.902  0.3785 -0.1407  0.2323
  750MPD2     C11079   1.422   1.885  11.176  0.0483  0.6651  0.2629
  750MPD2    C111080   1.310   1.920  11.114  0.2769 -0.1058  0.5212
  750MPD2    C211081   1.249   1.826  11.028 -0.0200  0.0813  0.7798
  750MPD2    C311082   1.313   1.703  11.008  0.1072 -0.7363 -0.3219
  750MPD2    C411083   1.431   1.682  11.069 -0.1685 -0.1752  0.2794
  750MPD2    C511084   1.491   1.768  11.148 -0.0297 -0.1159 -1.0681
  750MPD2     H11085   1.150   1.828  10.985 -0.8011  1.5675  2.6553
  750MPD2    H111086   1.492   1.596  11.043 -1.5295 -1.0102 -0.1291
  750MPD2    H211087   1.467   1.957  11.243 -0.2886  0.8549  0.2817
  750MPD2    H311088   1.587   1.747  11.194  0.0689  0.6955 -0.9103
  750MPD2     N11089   1.277   1.596  10.923 -0.2912 -0.2103  0.3637
  750MPD2    H511090   1.347   1.525  10.903 -0.2944 -0.3578  0.8837
  750MPD2    N111091   1.254   2.046  11.143  0.0664 -0.1419 -0.9509
  750MPD2    H711092   1.293   2.109  11.213  1.2607  0.6141 -2.3006
  751TMC3    C111093   1.143   1.466  10.773 -0.0716  0.2584 -0.0949
  751TMC3    C211094   1.020   1.398  10.746  0.4391  0.2014  0.0586
  751TMC3    C311095   1.023   1.289  10.663 -0.1689 -0.1277  0.5760
  751TMC3    C411096   1.258   1.410  10.729 -0.0952 -0.6353  0.0133
  751TMC3    C511097   1.256   1.300  10.645 -0.5225  0.2687  0.1659
  751TMC3    C611098   1.139   1.254  10.598  0.2899 -0.1841  0.9133
  751TMC3     C11099   1.152   1.579  10.869  0.0287 -0.2869 -0.2070
  751TMC3     O11100   1.050   1.631  10.907  0.2661  0.7391 -0.1581
  751TMC3     H11101   0.922   1.438  10.769  1.0783  1.3910  0.7210
  751TMC3    H111102   1.356   1.449  10.754  0.5394 -1.2662 -1.4587
  751TMC3    H211103   1.141   1.175  10.524  1.6172  0.4653  0.2579
  751TMC3    C711104   1.375   1.225  10.610 -0.3466 -0.7714  0.3003
  751TMC3    C811105   0.905   1.213  10.636  0.2436 -0.0966  0.8609
  751TMC3    O111106   1.477   1.285  10.631  0.1435 -0.6714 -0.2443
  751TMC3    O211107   0.902   1.144  10.535 -0.5939  0.2425  0.4031
  752TMC3    C111108   1.052   1.941  17.059 -0.3556  0.1645  0.3373
  752TMC3    C211109   0.992   1.919  17.177 -0.5382 -0.3061  0.7955
  752TMC3    C311110   1.036   1.988  17.285 -0.1659 -0.2846 -0.4086
  752TMC3    C411111   1.170   2.012  17.056 -0.5977  0.6584  0.3584
  752TMC3    C511112   1.216   2.076  17.164 -0.5567  0.0697 -0.1970
  752TMC3    C611113   1.144   2.066  17.280  0.7448 -0.4313 -0.7399
  752TMC3     C11114   1.025   1.853  16.946 -0.4100  0.0873  0.3385
  752TMC3     O11115   1.106   1.859  16.854 -0.2223 -0.0641 -0.3449
  752TMC3     H11116   0.896   1.870  17.190 -0.9737  0.5325  0.7800
  752TMC3    H111117   1.214   2.014  16.957 -1.9859  1.6499 -0.2362
  752TMC3    H211118   1.177   2.113  17.372  0.5332  1.4232 -1.6117
  752TMC3    C711119   1.316   2.179  17.163  0.3840  0.7516  0.0503
  752TMC3    C811120   0.939   2.027  17.388  0.4670  0.6248 -0.4324
  752TMC3    O111121   1.346   2.237  17.267  0.0016 -0.2843 -0.1881
  752TMC3    O211122   0.972   2.128  17.450 -0.4905  0.5293 -0.7722
  753TMC3    C111123   2.499   2.366  13.431 -0.3238  0.5982 -0.2481
  753TMC3    C211124   2.566   2.405  13.539  0.5984 -0.0654 -0.5397
  753TMC3    C311125   2.649   2.308  13.596 -0.0199  0.4357 -0.2260
  753TMC3    C411126   2.508   2.244  13.375  0.3389  0.7719  0.5228
  753TMC3    C511127   2.590   2.155  13.433 -0.6372  0.2761 -0.3053
  753TMC3    C611128   2.662   2.182  13.545  0.4380 -0.0604  0.4933
  753TMC3     C11129   2.405   2.459  13.375  0.1985 -0.0938  0.2027
  753TMC3     O11130   2.313   2.411  13.316 -0.8653 -0.2687  0.3726
  753TMC3     H11131   2.541   2.500  13.584 -0.8785 -0.2623 -0.9340
  753TMC3    H111132   2.439   2.221  13.295  0.2689  0.8181  0.5696
  753TMC3    H211133   2.722   2.102  13.586  0.7912 -0.6156 -1.1268
  753TMC3    C711134   2.651   2.065  13.338 -0.5086  0.4355  0.4794
  753TMC3    C811135   2.697   2.335  13.731 -0.6687  0.2614  0.4167
  753TMC3    O111136   2.770   2.041  13.343  0.4304 -0.2113 -0.1905
  753TMC3    O211137   2.741   2.239  13.788 -0.0407 -0.1860  1.1408
  754MPD2     C11138   1.112   1.777  12.829 -0.1871 -0.0987 -0.0353
  754MPD2    C111139   1.038   1.705  12.918 -0.3394 -0.1968  1.1115
  754MPD2    C211140   0.910   1.672  12.885 -0.0137 -0.3589 -0.2454
  754MPD2    C311141   0.846   1.721  12.768 -0.5463 -0.6567 -0.2709
  754MPD2    C411142   0.920   1.807  12.693 -0.0667 -0.7196 -0.6269
  754MPD2    C511143   1.052   1.825  12.718  0.2821  0.5545  0.5586
  754MPD2     H11144   0.862   1.602  12.953 -3.7016  0.4094 -2.0380
  754MPD2    H111145   0.881   1.868  12.612 -0.7995 -1.0330 -0.5128
  754MPD2    H211146   1.213   1.812  12.846 -0.2652 -1.4394  3.1649
  754MPD2    H311147   1.113   1.895  12.661  0.5419  0.7639  1.0946
  754MPD2     N11148   0.711   1.690  12.745  0.3225 -0.2352  0.2068
  754MPD2    H511149   0.664   1.744  12.672 -0.0407  0.6220  1.0784
  754MPD2    N111150   1.089   1.662  13.042  0.7114  0.3689 -0.4675
  754MPD2    H711151   1.018   1.610  13.093 -0.2152  1.3997 -0.7165
  755MPD2     C11152   4.548   2.061  12.952  0.0196 -0.1534 -0.7980
  755MPD2    C111153   4.670   2.032  13.013  0.1022  0.1894 -0.3716
  755MPD2    C211154   0.042   1.961  12.944 -0.2307 -0.0198  0.5442
  755MPD2    C311155   0.026   1.927  12.808  0.0015  0.2733 -0.4690
  755MPD2    C411156   4.628   1.964  12.748  0.3786  0.0944  0.0910
  755MPD2    C511157   4.537   2.039  12.814 -0.8574 -0.9616 -0.1007
  755MPD2     H11158   0.123   1.911  12.995  0.8119 -2.7704 -3.8079
  755MPD2    H111159   4.594   1.937  12.648  1.2310  1.8138 -0.6554
  755MPD2    H211160   4.465   2.106  13.005  1.5004  1.1226  0.4261
  755MPD2    H311161   4.444   2.066  12.767 -0.9989  0.4125  0.9873
  755MPD2     N11162   0.122   1.854  12.729 -0.2261  0.3075 -0.2397
  755MPD2    H511163   0.104   1.818  12.636  0.5188 -1.6213  0.3476
  755MPD2    N111164   4.696   2.038  13.152 -0.1279  0.2603  0.1547
  755MPD2    H711165   0.061   2.003  13.194  0.0207 -0.0737 -0.4329
  756MPD2     C11166   1.704   1.501   9.254 -0.0734  0.2305 -0.1588
  756MPD2    C111167   1.608   1.584   9.303  0.9673 -0.2069 -0.0415
  756MPD2    C211168   1.479   1.548   9.292  0.7191 -0.0101  0.1192
  756MPD2    C311169   1.433   1.424   9.233  0.1636 -0.0819  0.2199
  756MPD2    C411170   1.530   1.341   9.180  0.0765 -0.0876 -0.5037
  756MPD2    C511171   1.663   1.384   9.194  0.1913 -0.2516  0.1779
  756MPD2     H11172   1.404   1.613   9.336  2.2853  0.8704  1.4938
  756MPD2    H111173   1.517   1.243   9.136 -0.0572 -0.7641  1.0785
  756MPD2    H211174   1.809   1.527   9.254 -0.2770  1.0401  2.0254
  756MPD2    H311175   1.738   1.318   9.153  0.8019  1.3695 -1.3285
  756MPD2     N11176   1.295   1.391   9.236  0.4843 -0.0056  0.1048
  756MPD2    H511177   1.233   1.462   9.272  0.3718 -0.0519  0.0066
  756MPD2    N111178   1.633   1.712   9.360 -0.2868 -0.3221 -0.2733
  756MPD2    H711179   1.554   1.765   9.396  0.2720  1.8262 -2.2230
  757MPD2     C11180   0.647   1.362   9.980 -0.2628 -0.1533 -0.1231
  757MPD2    C111181   0.589   1.269   9.896  0.0234  0.8990 -0.0972
  757MPD2    C211182   0.646   1.248   9.771 -0.3671 -0.5391  0.5509
  757MPD2    C311183   0.753   1.315   9.721  0.3539  0.3531 -0.0291
  757MPD2    C411184   0.822   1.388   9.815  0.3610  0.4687 -0.7102
  757MPD2    C511185   0.771   1.418   9.940 -0.6207  0.3521  0.2403
  757MPD2     H11186   0.587   1.196   9.696 -1.5397 -0.3580  1.3397
  757MPD2    H111187   0.910   1.445   9.788  1.0618 -1.1595 -1.9285
  757MPD2    H211188   0.604   1.397  10.073  1.5002  4.2249 -0.9852
  757MPD2    H311189   0.811   1.499   9.999 -0.2231 -0.3749  0.9678
  757MPD2     N11190   0.790   1.296   9.587 -0.2693  0.7216  0.1324
  757MPD2    H511191   0.747   1.216   9.543  1.2849 -0.5356  0.8856
  757MPD2    N111192   0.480   1.194   9.946 -0.7321  0.5480  0.4057
  757MPD2    H711193   0.436   1.224  10.032 -3.3491  0.0189 -0.7382
  758MPD2     C11194   1.177   1.014  15.825  0.4636 -0.3585 -0.8367
  758MPD2    C111195   1.307   1.017  15.873 -0.3387  0.2305 -0.0850
  758MPD2    C211196   1.331   1.088  15.991 -0.0582  0.1738 -0.1912
  758MPD2    C311197   1.231   1.140  16.069  0.5764  0.0973 -0.0560
  758MPD2    C411198   1.099   1.128  16.031  0.5494 -0.1964  0.0641
  758MPD2    C511199   1.077   1.064  15.909 -0.2151 -0.4742  0.1668
  758MPD2     H11200   1.432   1.106  16.027 -0.0512  0.4472 -0.3440
  758MPD2    H111201   1.019   1.156  16.099 -1.3248  0.2615 -2.3258
  758MPD2    H211202   1.158   0.975  15.726  0.6703 -0.8477 -0.6825
  758MPD2    H311203   0.975   1.055  15.875 -0.9045  2.5227  1.5193
  758MPD2     N11204   1.250   1.192  16.200 -0.0755 -0.3026 -0.5695
  758MPD2    H511205   1.166   1.217  16.249  0.0214  0.6869 -0.9086
  758MPD2    N111206   1.412   0.965  15.795 -0.0447 -0.1555  0.2387
  758MPD2    H711207   1.403   0.952  15.694 -0.6546  2.5740 -0.0519
  759MPD2     C11208   0.304   3.359   9.369 -0.4644 -0.5173 -0.4405
  759MPD2    C111209   0.284   3.484   9.423  0.7644 -0.0838 -0.4348
  759MPD2    C211210   0.289   3.597   9.343  0.1717 -0.1277 -0.8104
  759MPD2    C311211   0.335   3.591   9.215 -0.6585 -0.1549 -0.0182
  759MPD2    C411212   0.363   3.462   9.165 -0.5749  0.2442  0.1487
  759MPD2    C511213   0.340   3.350   9.240 -0.3648 -0.7529 -0.3759
  759MPD2     H11214   0.249   3.685   9.390 -2.2979 -0.3959 -2.3827
  759MPD2    H111215   0.386   3.439   9.061 -1.5858 -0.0285 -0.0183
  759MPD2    H211216   0.302   3.268   9.428  1.1002 -0.9743 -1.0932
  759MPD2    H311217   0.357   3.250   9.202 -0.4080 -1.3047  1.0364
  759MPD2     N11218   0.370   3.714   9.153  0.0660  0.0761  0.8816
  759MPD2    H511219   0.352   3.804   9.197  3.1611  2.2164 -2.1486
  759MPD2    N111220   0.239   3.504   9.553 -0.4414 -0.5875  0.4554
  759MPD2    H711221   0.223   3.598   9.587  2.6628 -0.2453  0.9524
  760MPD2     C11222   4.117   1.734  11.796  0.0598 -0.1397 -0.8456
  760MPD2    C111223   4.231   1.745  11.722 -0.4153 -0.6343 -0.1144
  760MPD2    C211224   4.326   1.646  11.741 -0.3344 -0.5774 -0.2221
  760MPD2    C311225   4.308   1.535  11.822  0.3627  1.1046 -0.1212
  760MPD2    C411226   4.195   1.529  11.894 -0.4318  0.2619 -0.1371
  760MPD2    C511227   4.103   1.628  11.880 -0.4479 -0.3155 -0.7487
  760MPD2     H11228   4.417   1.655  11.684  0.2883 -0.5996  0.7619
  760MPD2    H111229   4.171   1.456  11.971 -1.0968 -0.7182 -1.2687
  760MPD2    H211230   4.035   1.803  11.780  1.9000  2.0721 -0.8982
  760MPD2    H311231   4.011   1.616  11.937 -0.0621 -1.8644 -0.4384
  760MPD2     N11232   4.403   1.434  11.831 -0.2182 -0.6632  0.8435
  760MPD2    H511233   4.379   1.353  11.888 -0.9739 -2.4807 -2.1090
  760MPD2    N111234   4.253   1.843  11.618 -0.2080  0.0964 -0.4391
  760MPD2    H711235   4.349   1.841  11.587 -0.4026 -0.8049 -0.9775
  761MPD2     C11236   0.589   0.868  10.843 -0.2387 -0.4586 -0.1989
  761MPD2    C111237   0.647   0.867  10.725 -0.0872 -0.2298 -0.1047
  761MPD2    C211238   0.723   0.979  10.691  0.0209  0.4086 -0.0210
  761MPD2    C311239   0.749   1.083  10.778 -0.2065 -0.2720 -0.2784
  761MPD2    C411240   0.698   1.075  10.908 -0.7039  0.1475 -0.6730
  761MPD2    C511241   0.615   0.971  10.936  0.4704 -0.0611 -0.0932
  761MPD2     H11242   0.759   0.979  10.589  2.4390 -0.3708  0.8347
  761MPD2    H111243   0.719   1.155  10.978 -1.5969  1.3143 -1.7405
  761MPD2    H211244   0.540   0.778  10.880  0.4519 -2.0743 -3.2412
  761MPD2    H311245   0.584   0.972  11.040 -0.8745 -0.2963 -0.5006
  761MPD2     N11246   0.838   1.197  10.755  0.0013  0.4120  0.3747
  761MPD2    H511247   0.857   1.265  10.828  0.9086  2.4549 -1.7628
  761MPD2    N111248   0.620   0.752  10.644 -0.1535 -0.4322 -0.3542
  761MPD2    H711249   0.550   0.686  10.678  0.3410  1.1953  3.9005
  762MPD2     C11250   1.032   0.869  10.319  0.3229 -0.4745  0.4666
  762MPD2    C111251   1.017   0.756  10.247  0.1452  0.3345  0.7522
  762MPD2    C211252   1.128   0.714  10.173  0.0355 -0.1452  0.3514
  762MPD2    C311253   1.250   0.777  10.175 -0.4368  0.5085  0.5536
  762MPD2    C411254   1.254   0.892  10.246 -0.0968 -0.4796  0.3970
  762MPD2    C511255   1.144   0.941  10.313 -0.0734  0.3497  0.1256
  762MPD2     H11256   1.126   0.620  10.119 -0.5593 -1.3611  2.4694
  762MPD2    H111257   1.340   0.958  10.244 -0.0873 -0.5246 -0.7655
  762MPD2    H211258   0.945   0.906  10.371  0.4812 -0.0392  0.4192
  762MPD2    H311259   1.157   1.036  10.364 -0.9008  0.2288  0.5427
  762MPD2     N11260   1.358   0.722  10.109 -0.3813  0.2494 -0.1116
  762MPD2    H511261   1.345   0.638  10.054 -0.3710 -0.0938  0.4218
  762MPD2    N111262   0.888   0.688  10.261 -0.3697  0.0665  0.0512
  762MPD2    H711263   0.819   0.742  10.312 -1.0870 -0.8848  0.0893
  763MPD2     C11264   3.347   1.322  16.040 -0.2081  0.2964 -0.6566
  763MPD2    C111265   3.253   1.421  16.023 -0.6230  0.1798  0.0687
  763MPD2    C211266   3.253   1.531  16.098  0.7240  0.0276 -0.5845
  763MPD2    C311267   3.337   1.549  16.206  0.3007 -0.5127  0.7387
  763MPD2    C411268   3.431   1.446  16.221 -0.4315 -0.7833 -0.1324
  763MPD2    C511269   3.442   1.343  16.128 -0.0230 -0.3088  0.0458
  763MPD2     H11270   3.189   1.613  16.070  0.4233 -0.3567 -1.0258
  763MPD2    H111271   3.512   1.462  16.291 -1.2308 -0.9295  0.8231
  763MPD2    H211272   3.348   1.229  15.984 -0.2907  0.7361 -1.4039
  763MPD2    H311273   3.511   1.260  16.139  0.5088  0.2571  0.9890
  763MPD2     N11274   3.361   1.666  16.275 -0.1024 -0.3812  0.0738
  763MPD2    H511275   3.428   1.668  16.351  0.4878 -0.5516 -0.4385
  763MPD2    N111276   3.156   1.418  15.925  0.3646 -0.7145 -0.1136
  763MPD2    H711277   3.085   1.491  15.924  0.7528 -0.3400  0.0620
  764MPD2     C11278   2.368   3.296  17.229  0.0362  0.4001 -0.3387
  764MPD2    C111279   2.285   3.194  17.184 -0.5394  0.4816  0.2718
  764MPD2    C211280   2.233   3.105  17.272  0.0754  0.2585  0.1924
  764MPD2    C311281   2.263   3.121  17.406  0.7564 -0.1615 -0.5418
  764MPD2    C411282   2.348   3.219  17.452  0.7650  0.2246 -0.8025
  764MPD2    C511283   2.399   3.310  17.361  0.4028 -0.1390 -0.2500
  764MPD2     H11284   2.167   3.026  17.239  0.3540 -0.3408  1.0636
  764MPD2    H111285   2.365   3.233  17.558  0.8022  1.3218 -0.9503
  764MPD2    H211286   2.414   3.370  17.164  0.0039  1.0922  0.4416
  764MPD2    H311287   2.456   3.394  17.398  2.2956 -2.2913  1.6927
  764MPD2     N11288   2.209   3.023  17.486  0.3856 -0.3718 -0.0353
  764MPD2    H511289   2.144   2.958  17.443  0.5602 -0.2155 -0.5312
  764MPD2    N111290   2.246   3.174  17.052 -0.4093 -0.0788 -0.1093
  764MPD2    H711291   2.167   3.112  17.038 -1.4138  1.6205 -2.0229
  765MPD2     C11292   0.731   0.775  15.947 -0.1437 -0.3974 -0.5274
  765MPD2    C111293   0.769   0.838  15.828  0.9922 -0.1041  0.6288
  765MPD2    C211294   0.877   0.787  15.758  0.4503 -0.1420 -0.3528
  765MPD2    C311295   0.962   0.691  15.814 -0.5082  0.4499  0.0567
  765MPD2    C411296   0.919   0.640  15.938  0.2433  0.1051  0.4298
  765MPD2    C511297   0.805   0.681  16.005  0.4864  0.1726  0.1202
  765MPD2     H11298   0.901   0.826  15.659  1.3116 -0.1205 -0.1390
  765MPD2    H111299   0.985   0.575  15.993  0.6058  0.2027  0.1074
  765MPD2    H211300   0.636   0.800  15.992  1.1716 -1.8057  2.9655
  765MPD2    H311301   0.781   0.638  16.101  0.9189 -0.2838  0.0266
  765MPD2     N11302   1.073   0.643  15.745  0.0063  0.0378 -0.5618
  765MPD2    H511303   1.082   0.658  15.645 -1.2429 -1.7584 -0.9542
  765MPD2    N111304   0.690   0.947  15.781  0.1477 -0.7821 -0.2796
  765MPD2    H711305   0.610   0.979  15.835 -0.1614  0.3195 -1.3817
  766MPD2     C11306   0.238   0.990  15.320 -0.5568  0.3092 -0.5983
  766MPD2    C111307   0.345   1.084  15.311  0.4795  0.0426  0.6154
  766MPD2    C211308   0.416   1.102  15.193 -0.1125 -0.2710  0.0126
  766MPD2    C311309   0.395   1.013  15.099  0.1041  0.5344 -0.2546
  766MPD2    C411310   0.292   0.917  15.098 -0.1811  0.1450  0.1479
  766MPD2    C511311   0.208   0.907  15.213  0.1270  0.5779  0.1347
  766MPD2     H11312   0.498   1.172  15.185  0.0542 -0.5165 -0.4653
  766MPD2    H111313   0.271   0.853  15.013  0.5024  1.0194 -0.6759
  766MPD2    H211314   0.172   0.967  15.403 -1.1040  2.1310 -0.5283
  766MPD2    H311315   0.137   0.825  15.221  1.0534 -0.0855  1.5791
  766MPD2     N11316   0.471   1.012  14.977  0.3290 -0.1761  0.3608
  766MPD2    H511317   0.463   0.926  14.924  2.2644  0.4770 -1.0307
  766MPD2    N111318   0.395   1.158  15.422  0.0235 -0.3216  0.1528
  766MPD2    H711319   0.460   1.235  15.411 -1.4199  0.8453 -0.1241
  767MPD2     C11320   0.045   1.172  14.970  0.3499 -0.6951  0.4210
  767MPD2    C111321   0.152   1.212  14.891  0.1690 -0.5929  0.4437
  767MPD2    C211322   0.171   1.153  14.767 -0.0264 -0.1221 -0.0465
  767MPD2    C311323   0.090   1.055  14.713  0.0618  0.2494 -0.3292
  767MPD2    C411324   4.704   1.011  14.788 -0.2023 -0.1876  0.6118
  767MPD2    C511325   4.678   1.075  14.919  0.2974 -0.0069  0.0855
  767MPD2     H11326   0.252   1.183  14.703 -0.1894  0.3854 -0.0178
  767MPD2    H111327   4.645   0.925  14.761  1.1865 -0.8493 -0.3451
  767MPD2    H211328   0.033   1.209  15.071  0.2776 -1.0844  0.5581
  767MPD2    H311329   4.602   1.042  14.989 -0.2593  0.7072 -0.1683
  767MPD2     N11330   0.127   0.989  14.594  0.2547 -0.8046 -0.2202
  767MPD2    H511331   0.212   1.017  14.547 -0.5112  0.5219 -0.8116
  767MPD2    N111332   0.242   1.311  14.940 -0.5480  0.8900 -0.3766
  767MPD2    H711333   0.217   1.346  15.032 -1.3925  0.4123 -0.4223
  768MPD2     C11334   1.192   3.866  10.680 -0.8881 -0.2064  0.2965
  768MPD2    C111335   1.128   3.832  10.795 -0.5577  0.2723  0.0984
  768MPD2    C211336   1.166   3.892  10.920 -0.2213  0.3164 -0.4847
  768MPD2    C311337   1.265   3.988  10.923  0.4835  0.1632 -0.5892
  768MPD2    C411338   1.336   4.012  10.810 -0.0780  0.5235  0.2520
  768MPD2    C511339   1.302   3.950  10.694 -0.3082 -0.0396 -0.4040
  768MPD2     H11340   1.089   3.871  10.993  1.2832  0.4840  1.1513
  768MPD2    H111341   1.417   4.085  10.811  0.8403 -0.4532 -2.6464
  768MPD2    H211342   1.176   3.811  10.587 -1.4687  1.4895 -0.5967
  768MPD2    H311343   1.370   3.979  10.615 -2.3358 -1.4907 -2.6796
  768MPD2     N11344   1.302   4.051  11.039  0.0561  0.2711 -0.3356
  768MPD2    H511345   1.351   4.140  11.031 -0.5541  0.6287 -0.0604
  768MPD2    N111346   1.014   3.750  10.794 -0.1605  0.9021  0.1470
  768MPD2    H711347   0.976   3.746  10.888  1.4968 -0.8723  0.7455
  769MPD2     C11348   1.716   2.109  14.815  0.0938 -0.2357  0.4579
  769MPD2    C111349   1.697   2.245  14.818  0.1658  0.0266 -0.7247
  769MPD2    C211350   1.735   2.316  14.931 -1.2406  0.2280 -0.0136
  769MPD2    C311351   1.786   2.254  15.040  0.5368  1.1643  0.0054
  769MPD2    C411352   1.801   2.120  15.028 -0.3184  0.7041 -0.3036
  769MPD2    C511353   1.783   2.052  14.914 -0.2811  0.0944 -0.6896
  769MPD2     H11354   1.715   2.422  14.934  1.7074  0.7823 -0.3036
  769MPD2    H111355   1.844   2.064  15.110 -0.9100  0.3400 -0.2438
  769MPD2    H211356   1.670   2.050  14.737 -0.3322  0.9608 -0.1991
  769MPD2    H311357   1.805   1.946  14.912  0.8110  0.2906  0.6831
  769MPD2     N11358   1.820   2.327  15.162 -0.4626  0.9478  0.0016
  769MPD2    H511359   1.808   2.427  15.169 -0.2054  0.9111  0.9826
  769MPD2    N111360   1.635   2.297  14.704 -0.9624  0.0541 -0.6479
  769MPD2    H711361   1.616   2.226  14.635  2.9029  0.2624 -1.9389
  770MPD2     C11362   1.014   2.045  14.927 -1.0524  0.1232 -0.3761
  770MPD2    C111363   1.151   2.067  14.944  0.1091  0.0984  0.0028
  770MPD2    C211364   1.205   2.179  14.886 -0.1792 -0.0331 -0.7976
  770MPD2    C311365   1.129   2.253  14.791  0.3665 -0.3381  0.1153
  770MPD2    C411366   0.997   2.216  14.768  0.0119  0.0753  0.8307
  770MPD2    C511367   0.934   2.128  14.849  0.3516 -0.3857 -0.4780
  770MPD2     H11368   1.308   2.210  14.895 -0.5118  0.6918  0.5032
  770MPD2    H111369   0.928   2.269  14.704  0.0491  1.0208  1.5757
  770MPD2    H211370   0.960   1.959  14.965  0.6942  0.2091  2.2358
  770MPD2    H311371   0.832   2.099  14.827 -0.6618  0.8326  2.5329
  770MPD2     N11372   1.205   2.347  14.722  0.0258 -0.1850 -0.4155
  770MPD2    H511373   1.301   2.358  14.753  0.0118 -2.3492  0.3776
  770MPD2    N111374   1.235   1.977  15.014 -0.0212  0.1031 -0.9843
  770MPD2    H711375   1.188   1.892  15.045  0.5668  0.5030  0.9843
  771MPD2     C11376   2.851   4.511  13.540 -0.0140  0.0534 -0.2834
  771MPD2    C111377   2.800   4.644  13.522 -0.2154  0.0775 -0.4645
  771MPD2    C211378   2.676   4.666  13.482 -1.0368 -0.0875 -0.9969
  771MPD2    C311379   2.601   4.561  13.429 -0.2913  0.6696 -1.0214
  771MPD2    C411380   2.652   4.434  13.438 -0.5764 -0.0484 -0.0763
  771MPD2    C511381   2.777   4.404  13.495 -0.0906  0.0005 -0.1193
  771MPD2     H11382   2.658   0.053  13.479 -0.0348  0.1370  0.7184
  771MPD2    H111383   2.609   4.352  13.380 -0.4892  0.8891 -1.4738
  771MPD2    H211384   2.954   4.490  13.565 -0.4937 -1.9648  0.0109
  771MPD2    H311385   2.809   4.301  13.489 -0.3417 -0.1070  0.3906
  771MPD2     N11386   2.485   4.600  13.360 -0.5665 -0.1886 -0.5107
  771MPD2    H511387   2.475   4.701  13.357 -1.3967 -0.2492  0.1162
  771MPD2    N111388   2.880   0.037  13.549 -0.0917  0.3791  0.1384
  771MPD2    H711389   2.845   0.130  13.529 -1.0068  0.3183  1.4505
  772MPD2     C11390   2.874   0.751  13.443 -0.0720 -0.1383 -0.3111
  772MPD2    C111391   2.853   0.640  13.514 -0.0145 -0.2110 -0.1628
  772MPD2    C211392   2.731   0.629  13.577  1.2094 -0.1235 -0.1936
  772MPD2    C311393   2.637   0.728  13.573  0.2184 -0.0861  0.1566
  772MPD2    C411394   2.664   0.835  13.501 -0.5749 -0.0027 -0.5041
  772MPD2    C511395   2.776   0.851  13.434 -0.4108  0.3236  0.2102
  772MPD2     H11396   2.712   0.560  13.658 -0.3296  2.0096  1.2575
  772MPD2    H111397   2.597   0.920  13.512  0.9142  0.7480  2.8635
  772MPD2    H211398   2.965   0.772  13.389  0.0205  1.7848  0.6042
  772MPD2    H311399   2.790   0.945  13.382  0.3997 -1.5191 -2.9081
  772MPD2     N11400   2.513   0.723  13.631 -0.6286 -0.8038 -1.1443
  772MPD2    H511401   2.451   0.803  13.636  0.7439  0.3188 -1.9977
  772MPD2    N111402   2.937   0.521  13.524  0.0672  0.4825  0.6753
  772MPD2    H711403   2.899   0.436  13.563  2.1716  0.5117  2.7158
  773MPD2     C11404   2.141   1.663   0.575  0.1990  0.0833 -0.7382
  773MPD2    C111405   2.067   1.571   0.505 -0.1716  0.3125 -0.1745
  773MPD2    C211406   2.127   1.448   0.479 -0.8303  0.5195 -1.3855
  773MPD2    C311407   2.257   1.414   0.524  0.1785  0.1179  0.4543
  773MPD2    C411408   2.335   1.515   0.577 -0.3180  0.2183  0.3897
  773MPD2    C511409   2.270   1.631   0.607 -0.2102 -0.5279 -0.2365
  773MPD2     H11410   2.072   1.371   0.425  0.4150  0.0650 -2.0119
  773MPD2    H111411   2.439   1.513   0.609  0.0805  3.1879 -0.7167
  773MPD2    H211412   2.110   1.765   0.594 -0.3334 -0.1372 -0.4274
  773MPD2    H311413   2.333   1.704   0.657  1.6208 -1.1794 -1.5660
  773MPD2     N11414   2.291   1.277   0.498 -1.0695 -0.0290 -1.3453
  773MPD2    H511415   2.231   1.214   0.446  0.4998 -2.4646 -0.2408
  773MPD2    N111416   1.941   1.591   0.449  0.4776 -0.7921  0.0470
  773MPD2    H711417   1.899   1.516   0.396  0.0842 -0.5300 -0.0078
  774MPD2     C11418   0.699   1.167  13.550 -0.8077 -0.1304 -0.2568
  774MPD2    C111419   0.839   1.172  13.554  0.4527  0.0280 -0.3920
  774MPD2    C211420   0.906   1.289  13.523  0.2591 -0.2948 -0.4529
  774MPD2    C311421   0.832   1.394  13.468  0.4306 -0.4020  0.5278
  774MPD2    C411422   0.694   1.380  13.450 -0.4304 -0.0936  0.8286
  774MPD2    C511423   0.635   1.269  13.501 -1.1095  0.1701 -0.4110
  774MPD2     H11424   1.010   1.307  13.545  0.6068 -2.4823 -0.2730
  774MPD2    H111425   0.627   1.457  13.414 -0.8070 -0.4106  0.8525
  774MPD2    H211426   0.639   1.080  13.575 -0.9719  0.2406  0.6092
  774MPD2    H311427   0.527   1.262  13.486 -1.7084  0.6929  3.6871
  774MPD2     N11428   0.899   1.515  13.442  0.5000  0.0141  0.6887
  774MPD2    H511429   0.997   1.526  13.469  0.9776 -2.2297 -0.1536
  774MPD2    N111430   0.901   1.053  13.589  0.2184 -0.1178  0.1205
  774MPD2    H711431   0.833   0.984  13.621 -0.4228  0.1800 -0.6019
  775MPD2     C11432   2.300   2.186  15.618  0.4983 -0.4443 -0.7148
  775MPD2    C111433   2.363   2.291  15.674 -0.3874  1.0369 -0.2619
  775MPD2    C211434   2.376   2.415  15.611  0.0099  0.2209 -0.1592
  775MPD2    C311435   2.348   2.426  15.477  0.1828  0.6452  0.1060
  775MPD2    C411436   2.278   2.319  15.421 -0.5287 -0.2300  0.0395
  775MPD2    C511437   2.258   2.207  15.486  0.0618 -0.8572  0.2149
  775MPD2     H11438   2.437   2.486  15.665 -0.5003  0.0302  0.6579
  775MPD2    H111439   2.243   2.334  15.320 -1.8572  0.1940  0.5595
  775MPD2    H211440   2.272   2.098  15.675 -0.5767  0.5371  0.2599
  775MPD2    H311441   2.201   2.131  15.433  0.9357  0.3273 -2.4454
  775MPD2     N11442   2.372   2.534  15.395  0.5190  0.1033 -0.3035
  775MPD2    H511443   2.364   2.535  15.294  2.8850  1.7691 -0.4837
  775MPD2    N111444   2.395   2.263  15.810 -0.1733 -0.6935 -1.1651
  775MPD2    H711445   2.361   2.178  15.853 -0.7635  0.6121  0.9715
  776MPD2     C11446   1.541   2.482  11.469 -0.1498  0.3290  0.3772
  776MPD2    C111447   1.434   2.554  11.416 -0.8571 -0.2275  0.1925
  776MPD2    C211448   1.439   2.693  11.427  0.3026 -0.2167  0.3303
  776MPD2    C311449   1.533   2.753  11.508 -0.7892  0.0172  0.4295
  776MPD2    C411450   1.641   2.675  11.558 -0.0338 -0.6017  0.2243
  776MPD2    C511451   1.642   2.549  11.536 -0.0685 -0.0468 -0.4423
  776MPD2     H11452   1.364   2.749  11.372  1.3244 -0.3441 -1.2065
  776MPD2    H111453   1.715   2.713  11.628  0.0126 -1.3402  0.5779
  776MPD2    H211454   1.542   2.374  11.461  3.4324  0.2507  1.7163
  776MPD2    H311455   1.724   2.482  11.560  0.8571  1.2143 -0.1384
  776MPD2     N11456   1.533   2.890  11.532 -0.1762 -0.1403  0.1785
  776MPD2    H511457   1.618   2.926  11.573  0.2851 -1.6246  0.5282
  776MPD2    N111458   1.340   2.480  11.343  0.2183 -0.5678  0.3359
  776MPD2    H711459   1.354   2.379  11.345  0.7874 -0.4552  1.8299
  777MPD2     C11460   2.336   0.131   0.871 -0.4067  0.9848 -0.3620
  777MPD2    C111461   2.430   0.050   0.924  0.7480 -0.4415  0.2127
  777MPD2    C211462   2.446   4.645   0.873  0.0583 -0.4145  0.3698
  777MPD2    C311463   2.356   4.603   0.772  0.2849 -0.3405  0.9624
  777MPD2    C411464   2.259   4.687   0.718 -0.4059 -0.4205  0.2041
  777MPD2    C511465   2.251   0.093   0.769  0.2398  0.4538  0.9874
  777MPD2     H11466   2.520   4.577   0.913 -0.5100 -1.4560 -0.3447
  777MPD2    H111467   2.186   4.649   0.648  0.7538 -0.3363 -1.0447
  777MPD2    H211468   2.326   0.234   0.902 -0.7773  0.6845  0.4912
  777MPD2    H311469   2.172   0.153   0.726  0.5028 -0.3278 -0.5723
  777MPD2     N11470   2.367   4.468   0.728 -0.1771 -0.1376  0.4813
  777MPD2    H511471   2.396   4.403   0.800  1.0297 -1.2284 -1.0085
  777MPD2    N111472   2.510   0.106   1.024 -0.0625  0.1471  0.2714
  777MPD2    H711473   2.497   0.205   1.043  1.2564  0.5213 -0.8493
  778MPD2     C11474   3.148   0.126  14.260  0.0861 -0.3429 -0.4255
  778MPD2    C111475   3.172   0.148  14.393 -0.9948  0.3615  0.3438
  778MPD2    C211476   3.267   0.243  14.432  0.2621 -0.8430  0.2594
  778MPD2    C311477   3.347   0.299  14.336 -0.0440 -0.4588  0.2936
  778MPD2    C411478   3.323   0.281  14.204 -0.0059 -0.4807 -1.2057
  778MPD2    C511479   3.225   0.195  14.169 -0.7391 -0.0109 -0.2560
  778MPD2     H11480   3.293   0.258  14.536  1.5902 -2.4922  0.1664
  778MPD2    H111481   3.365   0.338  14.123 -0.5714  1.1391 -0.3472
  778MPD2    H211482   3.071   0.060  14.223  0.0755 -2.4262  3.2907
  778MPD2    H311483   3.202   0.188  14.063  0.8077  1.5383 -0.6924
  778MPD2     N11484   3.459   0.384  14.375  0.1065  0.0735  0.0676
  778MPD2    H511485   3.481   0.385  14.474 -0.7686  2.5077  0.2227
  778MPD2    N111486   3.101   0.062  14.482  0.0565 -0.5043  0.5358
  778MPD2    H711487   3.045   4.705  14.448  0.8578 -0.7163 -0.3251
  779MPD2     C11488   2.756   3.654  13.637 -0.5714 -0.5431  0.0776
  779MPD2    C111489   2.809   3.650  13.764 -0.5510  0.3355  0.2389
  779MPD2    C211490   2.832   3.772  13.826  0.2170  0.3314 -0.3533
  779MPD2    C311491   2.796   3.892  13.759 -0.1328  0.0636  0.3445
  779MPD2    C411492   2.732   3.881  13.637 -0.3101  0.0124 -0.0244
  779MPD2    C511493   2.713   3.764  13.582  0.3866 -0.1566 -0.0494
  779MPD2     H11494   2.864   3.781  13.929 -0.0195  1.5029 -0.3888
  779MPD2    H111495   2.715   3.963  13.567 -1.2781  1.2323  1.6484
  779MPD2    H211496   2.728   3.562  13.585  1.1556  0.0492 -1.9136
  779MPD2    H311497   2.652   3.760  13.493 -0.6574 -0.1921  0.6721
  779MPD2     N11498   2.826   4.018  13.822 -0.4143  0.0659  0.1814
  779MPD2    H511499   2.876   4.019  13.910 -2.4437  1.7814  1.3050
  779MPD2    N111500   2.835   3.533  13.839 -0.2605 -0.0191 -0.1786
  779MPD2    H711501   2.859   3.550  13.936  1.9049  0.1963 -0.7440
  780MPD2     C11502   3.363   3.815   0.978 -0.2570 -0.5872 -0.0164
  780MPD2    C111503   3.229   3.855   0.947 -0.6285  0.1433  0.2579
  780MPD2    C211504   3.189   3.871   0.817 -0.2353  0.6959  0.3168
  780MPD2    C311505   3.271   3.846   0.713  0.0093  0.2452  0.2257
  780MPD2    C411506   3.399   3.792   0.742  0.2989 -0.0371 -0.2076
  780MPD2    C511507   3.441   3.789   0.872  0.5644  0.2044  1.0577
  780MPD2     H11508   3.093   3.917   0.794  1.8255  5.1013  0.5647
  780MPD2    H111509   3.476   3.787   0.666  0.2946  3.4675 -0.4155
  780MPD2    H211510   3.404   3.798   1.077  0.7815 -4.0202 -1.0172
  780MPD2    H311511   3.537   3.740   0.875 -0.5904 -2.1644 -0.6841
  780MPD2     N11512   3.217   3.865   0.583 -0.1850  0.7208 -0.0388
  780MPD2    H511513   3.127   3.913   0.577 -1.4682 -1.7478 -0.5164
  780MPD2    N111514   3.139   3.872   1.063  0.3248  0.0073  0.2714
  780MPD2    H711515   3.163   3.830   1.152  0.6487  1.2634  0.7766
  781MPD2     C11516   4.076   0.923  11.722 -0.0942  0.0594  0.2876
  781MPD2    C111517   3.998   0.821  11.767  0.4394  0.3994  0.6064
  781MPD2    C211518   3.914   0.749  11.685 -0.1402  0.0848 -0.2271
  781MPD2    C311519   3.901   0.781  11.549 -0.0912 -1.1438 -0.3489
  781MPD2    C411520   3.989   0.883  11.499 -0.1741 -0.2172 -0.0059
  781MPD2    C511521   4.058   0.961  11.588 -0.5560  0.2283  0.0571
  781MPD2     H11522   3.856   0.664  11.722  2.0800 -0.4800  1.9668
  781MPD2    H111523   3.973   0.906  11.394  1.1066  0.3396 -0.0735
  781MPD2    H211524   4.139   0.983  11.787  1.1046 -2.2627  1.2809
  781MPD2    H311525   4.101   1.054  11.552 -1.0023 -0.5602 -2.4762
  781MPD2     N11526   3.813   0.726  11.455  0.1171  0.0147 -0.3169
  781MPD2    H511527   3.804   0.779  11.369 -0.9119  0.2127 -0.0865
  781MPD2    N111528   3.989   0.789  11.905 -0.2963 -0.3042 -0.0417
  781MPD2    H711529   3.936   0.708  11.935  0.3266 -0.0610  1.7357
  782MPD2     C11530   1.630   1.509  10.058 -0.0441  0.6008  0.1557
  782MPD2    C111531   1.763   1.504  10.100 -0.4184 -0.2010  0.0514
  782MPD2    C211532   1.813   1.624  10.149  0.1375  0.1060 -0.0641
  782MPD2    C311533   1.739   1.735  10.174  0.6481 -0.2222  0.1178
  782MPD2    C411534   1.603   1.724  10.142 -0.4725  0.3128  0.3848
  782MPD2    C511535   1.546   1.615  10.089  0.2245 -0.5315  0.3956
  782MPD2     H11536   1.913   1.620  10.191  0.1629  1.5729  0.0147
  782MPD2    H111537   1.525   1.796  10.164 -1.2823 -0.5645  0.3615
  782MPD2    H211538   1.590   1.419  10.013  0.4282  0.2355  0.4634
  782MPD2    H311539   1.444   1.608  10.052  0.8940  1.5903 -1.8855
  782MPD2     N11540   1.785   1.847  10.253 -0.5293  0.4456  0.0624
  782MPD2    H511541   1.885   1.849  10.269 -0.0897 -0.7417 -2.4879
  782MPD2    N111542   1.837   1.387  10.084  0.1582 -0.4037  0.1627
  782MPD2    H711543   1.786   1.305  10.054  0.9586 -0.5586 -0.7760
  783MPD2     C11544   1.421   0.868  10.544  0.7294  0.3017  1.2564
  783MPD2    C111545   1.453   0.997  10.552 -0.4347 -0.1998 -0.2746
  783MPD2    C211546   1.579   1.039  10.505 -0.0413  0.0850  0.2063
  783MPD2    C311547   1.668   0.952  10.431 -0.1840 -0.7016 -0.6958
  783MPD2    C411548   1.624   0.822  10.429  0.2295  0.6268  0.5841
  783MPD2    C511549   1.511   0.781  10.483  0.3942  0.0675  0.6357
  783MPD2     H11550   1.617   1.140  10.513 -0.6412  0.5501 -2.9325
  783MPD2    H111551   1.674   0.747  10.369  0.0317  1.8517 -1.0941
  783MPD2    H211552   1.323   0.836  10.579  1.0878 -0.8079  1.2310
  783MPD2    H311553   1.474   0.679  10.482  0.2765  0.1089  0.6821
  783MPD2     N11554   1.778   1.004  10.359 -0.7323 -0.0576  0.2845
  783MPD2    H511555   1.783   1.105  10.368 -1.1129 -0.0295  0.1789
  783MPD2    N111556   1.353   1.093  10.590  0.6410 -0.7705  0.2187
  783MPD2    H711557   1.261   1.058  10.615 -0.2549 -0.1665 -2.2533
  784MPD2     C11558   4.251   2.048   0.955  0.3941  0.2669  1.2578
  784MPD2    C111559   4.309   2.173   0.968  0.1932 -0.1712 -1.3226
  784MPD2    C211560   4.231   2.274   1.027 -1.0172 -0.7480 -0.2867
  784MPD2    C311561   4.110   2.256   1.077  0.8733 -0.6438  0.4087
  784MPD2    C411562   4.051   2.130   1.062 -0.4907 -0.9003 -0.4178
  784MPD2    C511563   4.126   2.026   1.010  0.0715  0.4826 -0.0469
  784MPD2     H11564   4.280   2.370   1.039  0.6590 -1.8885  1.9460
  784MPD2    H111565   3.946   2.115   1.088  0.2015 -1.7386  1.9701
  784MPD2    H211566   4.302   1.962   0.911 -0.2968  0.2664  0.4527
  784MPD2    H311567   4.074   1.931   1.002  1.0046 -0.2302  2.3492
  784MPD2     N11568   4.050   2.367   1.143 -0.1583 -0.2437  0.1127
  784MPD2    H511569   4.086   2.462   1.139 -0.4727 -0.1429 -0.3055
  784MPD2    N111570   4.442   2.193   0.936  0.4392 -0.3054 -0.1192
  784MPD2    H711571   4.470   2.291   0.928 -1.5469  0.2852  0.1410
  785MPD2     C11572   3.856   4.709   9.936 -0.4967 -0.1177 -0.0195
  785MPD2    C111573   3.742   4.718  10.016  0.1662  0.1707 -0.3169
  785MPD2    C211574   3.624   4.666   9.974  0.1024 -0.0049 -0.3450
  785MPD2    C311575   3.614   4.619   9.844 -0.0727 -0.2823  0.3016
  785MPD2    C411576   3.724   4.611   9.762  0.4166 -0.2446 -0.4764
  785MPD2    C511577   3.847   4.649   9.814  0.8424 -0.3757  0.1920
  785MPD2     H11578   3.529   4.670  10.027 -0.3940 -1.9103 -1.0710
  785MPD2    H111579   3.717   4.571   9.662 -0.3311  0.2288 -0.6118
  785MPD2    H211580   3.950   0.037   9.965 -0.7598 -0.1869  0.9385
  785MPD2    H311581   3.927   4.633   9.741  0.3050 -1.1669 -0.2240
  785MPD2     N11582   3.486   4.580   9.803  0.0613  0.3526 -0.8741
  785MPD2    H511583   3.410   4.588   9.869  0.0576 -1.0618 -0.7189
  785MPD2    N111584   3.765   0.069  10.134  0.4335 -0.5208 -0.3412
  785MPD2    H711585   3.854   0.118  10.131  1.2673 -1.9839  0.5958
  786MPD2     C11586   3.399   3.348  14.143 -0.0128 -0.2837  0.1996
  786MPD2    C111587   3.432   3.213  14.135 -0.3078 -0.2507  0.6605
  786MPD2    C211588   3.517   3.155  14.228  0.6282 -0.3978 -0.0001
  786MPD2    C311589   3.577   3.238  14.322  0.1619  0.2595  0.1208
  786MPD2    C411590   3.539   3.373  14.328 -0.4941  0.0808 -0.1655
  786MPD2    C511591   3.450   3.430  14.240 -0.5464  0.1915 -0.4293
  786MPD2     H11592   3.541   3.050  14.216 -0.3836 -0.7573  1.1350
  786MPD2    H111593   3.572   3.428  14.415 -0.0931  1.4056 -1.1444
  786MPD2    H211594   3.348   3.398  14.062  0.6747 -1.9742 -1.2739
  786MPD2    H311595   3.438   3.536  14.257 -2.7022  0.1618 -1.9051
  786MPD2     N11596   3.670   3.187  14.421 -0.2649  0.2448  0.0401
  786MPD2    H511597   3.692   3.247  14.499  1.6814 -0.2295 -0.1602
  786MPD2    N111598   3.376   3.128  14.037 -0.0979  0.1570 -0.4599
  786MPD2    H711599   3.411   3.033  14.038  0.8303  0.5255  1.1135
  787MPD2     C11600   3.068   2.365  13.970  0.1007  0.2587  0.0359
  787MPD2    C111601   3.174   2.453  13.982 -0.7552 -0.5125  0.3467
  787MPD2    C211602   3.285   2.407  14.052 -0.1802  0.3230  1.0884
  787MPD2    C311603   3.286   2.287  14.123 -0.1022  0.1344 -0.1500
  787MPD2    C411604   3.180   2.201  14.102  0.1268  0.2626  0.6973
  787MPD2    C511605   3.077   2.247  14.033 -0.6506  0.1443  0.2615
  787MPD2     H11606   3.376   2.466  14.062 -0.6512  1.2542 -0.2034
  787MPD2    H111607   3.173   2.101  14.144 -0.7329 -0.5655 -1.4125
  787MPD2    H211608   2.973   2.375  13.920  0.3165 -0.5225 -0.5526
  787MPD2    H311609   2.989   2.185  14.018  1.0073 -1.6354 -2.1699
  787MPD2     N11610   3.396   2.268  14.214 -0.0074 -0.4690 -0.3052
  787MPD2    H511611   3.473   2.334  14.212  0.7579 -1.3308  0.6769
  787MPD2    N111612   3.174   2.590  13.924 -0.5101  0.6426 -0.4298
  787MPD2    H711613   3.098   2.616  13.862  2.7208  1.1743 -4.1577
  788MPD2     C11614   1.164   1.383  17.418 -0.0994  0.7528 -0.0460
  788MPD2    C111615   1.124   1.386  17.550  0.3600  0.9770 -0.4258
  788MPD2    C211616   1.097   1.267  17.618  0.0898  0.0677 -0.8672
  788MPD2    C311617   1.099   1.146  17.553  0.2104 -0.3453 -0.1494
  788MPD2    C411618   1.146   1.145  17.425  0.1669  0.3701  0.3372
  788MPD2    C511619   1.178   1.257  17.357  0.3036 -0.1759  0.2210
  788MPD2     H11620   1.073   1.289   0.039  1.6409 -0.7485 -0.3433
  788MPD2    H111621   1.157   1.046  17.382  0.7807  0.5241  0.1483
  788MPD2    H211622   1.209   1.470  17.371 -1.3233  1.4319  0.0419
  788MPD2    H311623   1.200   1.254  17.251 -2.9502 -0.4836 -0.4488
  788MPD2     N11624   1.090   1.032  17.627  0.7693 -0.0791 -0.6329
  788MPD2    H511625   1.119   0.945  17.583  0.5126 -0.0095 -0.9404
  788MPD2    N111626   1.121   1.498  17.637 -0.3022 -0.2876  0.3688
  788MPD2    H711627   1.098   1.479   0.051 -1.6298 -0.6833 -0.0263
  789MPD2     C11628   1.378   0.819  16.570  0.6190  0.1805  0.6959
  789MPD2    C111629   1.304   0.838  16.453  0.4662  0.5732 -0.5506
  789MPD2    C211630   1.197   0.918  16.443  0.9229 -0.0946 -0.3105
  789MPD2    C311631   1.158   0.987  16.560  0.0546  1.3070 -0.1972
  789MPD2    C411632   1.230   0.968  16.682  0.2394  0.4911  0.0142
  789MPD2    C511633   1.342   0.881  16.684  0.2083 -0.2049 -0.2914
  789MPD2     H11634   1.146   0.925  16.348  0.8143  0.4933 -0.2148
  789MPD2    H111635   1.206   1.015  16.776 -0.0570 -4.3982  2.3798
  789MPD2    H211636   1.460   0.749  16.582  1.8268  1.3472 -0.7365
  789MPD2    H311637   1.389   0.875  16.782 -1.3130  0.2131  0.4777
  789MPD2     N11638   1.034   1.056  16.578 -0.2725 -0.8488 -0.6203
  789MPD2    H511639   1.005   1.072  16.674 -0.0010  0.8509 -0.8208
  789MPD2    N111640   1.326   0.758  16.336 -0.6612  0.6121  0.1831
  789MPD2    H711641   1.256   0.745  16.263  0.1178  1.1633 -0.6593
  790MPD2     C11642   1.556   2.667  13.492  0.0995 -0.6356  0.8521
  790MPD2    C111643   1.614   2.548  13.452  0.4486 -0.0701 -0.0294
  790MPD2    C211644   1.560   2.465  13.348  0.5002 -0.3262 -0.8581
  790MPD2    C311645   1.441   2.506  13.289  1.0827 -0.6891 -0.0448
  790MPD2    C411646   1.391   2.637  13.319 -0.3841  0.0999 -0.0703
  790MPD2    C511647   1.444   2.715  13.424  0.0695  0.3760 -0.3946
  790MPD2     H11648   1.604   2.377  13.302 -0.4444 -1.9579  1.3268
  790MPD2    H111649   1.307   2.677  13.264 -0.2210  0.6866  0.1067
  790MPD2    H211650   1.610   2.728  13.564 -1.4107  2.5653 -0.7426
  790MPD2    H311651   1.408   2.816  13.440  1.3411  0.6123  0.9914
  790MPD2     N11652   1.388   2.422  13.183  0.1764  0.2454  0.0756
  790MPD2    H511653   1.435   2.334  13.162 -2.2061 -0.8775 -0.6352
  790MPD2    N111654   1.738   2.518  13.508  0.4808 -0.1928 -0.1638
  790MPD2    H711655   1.780   2.587  13.569 -0.6435  1.1583 -0.9188
  791MPD2     C11656   0.744   2.554  12.796 -0.0850 -0.4428  0.0749
  791MPD2    C111657   0.780   2.435  12.755 -0.4133  0.2889 -0.1366
  791MPD2    C211658   0.722   2.377  12.647  0.2574  0.1886 -0.1838
  791MPD2    C311659   0.610   2.441  12.590  0.5923 -0.1611  0.7357
  791MPD2    C411660   0.577   2.569  12.623 -0.3002 -0.1575  0.8392
  791MPD2    C511661   0.646   2.624  12.732  0.0770  0.3371 -0.2612
  791MPD2     H11662   0.754   2.280  12.611 -2.3153 -0.7445  0.0441
  791MPD2    H111663   0.510   2.642  12.580 -0.0562 -1.5730 -1.9002
  791MPD2    H211664   0.814   2.611  12.855 -1.6522  0.2248  1.3025
  791MPD2    H311665   0.631   2.729  12.752  1.2713  0.4368  0.1040
  791MPD2     N11666   0.538   2.371  12.488 -0.1480 -0.1083  0.7144
  791MPD2    H511667   0.575   2.285  12.450 -0.1534 -0.0824  0.6503
  791MPD2    N111668   0.902   2.386  12.808 -0.5388  0.2594  0.0403
  791MPD2    H711669   0.949   2.456  12.864 -1.4013 -0.5726  1.7917
  792MPD2     C11670   1.759   2.269  11.197  0.2993  0.0068  0.1102
  792MPD2    C111671   1.674   2.352  11.111  0.8034  1.0619  0.1456
  792MPD2    C211672   1.597   2.289  11.015  0.3352 -0.3320 -0.0193
  792MPD2    C311673   1.602   2.149  10.993 -0.0940  0.8509  0.2650
  792MPD2    C411674   1.683   2.074  11.074  0.8764  0.5431  0.2010
  792MPD2    C511675   1.757   2.132  11.172  0.0515  0.4331  0.0540
  792MPD2     H11676   1.536   2.354  10.953  0.0816 -1.7764 -1.2882
  792MPD2    H111677   1.686   1.966  11.071  0.0941  0.5626 -1.0046
  792MPD2    H211678   1.820   2.298  11.282  1.2276 -0.7868 -0.2861
  792MPD2    H311679   1.828   2.071  11.226 -1.8198  0.4164  2.4529
  792MPD2     N11680   1.538   2.073  10.893  0.4172 -0.0614  0.3585
  792MPD2    H511681   1.561   1.976  10.875  0.1764  0.3805 -2.3794
  792MPD2    N111682   1.662   2.489  11.133 -0.6754  0.7040 -0.5482
  792MPD2    H711683   1.708   2.516  11.220 -1.0142 -0.1210 -0.1070
  793MPD2     C11684   1.237   2.083   9.835  0.5524  0.6481 -0.2178
  793MPD2    C111685   1.365   2.052   9.881  0.8454  0.2534 -0.9459
  793MPD2    C211686   1.385   2.031  10.014 -0.3546 -0.6022 -0.3285
  793MPD2    C311687   1.294   2.061  10.112  0.3195 -0.6160 -0.3244
  793MPD2    C411688   1.173   2.108  10.066  0.8766 -0.4942  0.0168
  793MPD2    C511689   1.147   2.121   9.933  0.4040  0.1568 -0.1299
  793MPD2     H11690   1.482   1.994  10.046 -0.3534 -0.1360  0.2157
  793MPD2    H111691   1.098   2.129  10.141  0.7313 -1.1669  0.0584
  793MPD2    H211692   1.209   2.090   9.731  0.0820 -1.8878 -0.2522
  793MPD2    H311693   1.054   2.164   9.898 -0.4845 -1.0972  0.6940
  793MPD2     N11694   1.322   2.039  10.249  0.1442 -0.0184 -0.2224
  793MPD2    H511695   1.408   1.993  10.275 -1.1442 -1.4653  1.4708
  793MPD2    N111696   1.474   2.040   9.791  0.2594 -0.6733  0.5169
  793MPD2    H711697   1.560   2.012   9.837  0.3285 -3.3293 -1.2186
  794MPD2     C11698   1.676   2.226  17.578 -0.3267 -0.5387 -0.3867
  794MPD2    C111699   1.705   2.098  17.527  0.1027 -1.0601 -0.1812
  794MPD2    C211700   1.727   2.083  17.398  0.2708 -0.2017 -0.1589
  794MPD2    C311701   1.743   2.191  17.314 -0.0888 -0.4412 -0.9023
  794MPD2    C411702   1.742   2.316  17.362 -0.1888 -0.2857 -0.6824
  794MPD2    C511703   1.689   2.333  17.489  0.0275 -0.2139  0.3915
  794MPD2     H11704   1.751   1.978  17.381 -1.0324 -0.6339  0.6418
  794MPD2    H111705   1.752   2.400  17.294 -0.7236 -0.5502 -1.0879
  794MPD2    H211706   1.656   2.254  17.681 -1.8818 -1.3979 -0.4386
  794MPD2    H311707   1.673   2.435  17.524 -2.0219 -1.0202  1.7834
  794MPD2     N11708   1.778   2.186  17.175  0.4863  0.0295  0.6216
  794MPD2    H511709   1.795   2.273  17.125  0.0155 -0.9333 -1.2570
  794MPD2    N111710   1.719   1.985  17.610  0.1248 -0.3408 -0.0869
  794MPD2    H711711   1.760   1.901  17.570  0.7149  0.4276 -1.1084
  795MPD2     C11712   3.617   4.086  13.364  0.0637  0.4086 -0.1911
  795MPD2    C111713   3.574   3.986  13.282 -0.0327 -0.5952 -0.6372
  795MPD2    C211714   3.666   3.886  13.252  0.4411  0.3509  0.0033
  795MPD2    C311715   3.800   3.897  13.295 -0.4402  0.4438  0.1342
  795MPD2    C411716   3.844   4.007  13.363  0.1003 -1.0563  0.2290
  795MPD2    C511717   3.749   4.100  13.395  0.3071  0.2791  0.4351
  795MPD2     H11718   3.634   3.801  13.193 -0.2400  0.1127  0.7280
  795MPD2    H111719   3.948   4.013  13.395  0.6026 -3.5703 -0.9513
  795MPD2    H211720   3.556   4.167  13.401 -1.9715 -0.5735 -1.3259
  795MPD2    H311721   3.780   4.187  13.453  1.0280 -0.4767  1.1753
  795MPD2     N11722   3.902   3.800  13.268  0.1806  0.6680  0.5378
  795MPD2    H511723   3.994   3.819  13.307  0.4766 -0.5622  0.4562
  795MPD2    N111724   3.437   3.977  13.232 -0.5991  0.5712 -0.8404
  795MPD2    H711725   3.405   3.898  13.178 -0.6998 -0.6896  1.0859
  796MPD2     C11726   3.344   0.631  15.580 -0.1611  0.8712  0.0927
  796MPD2    C111727   3.401   0.675  15.695  0.4155 -0.7407 -0.1381
  796MPD2    C211728   3.421   0.812  15.702  0.8657 -0.3179  0.6666
  796MPD2    C311729   3.397   0.896  15.596  0.1925  0.3254  0.1059
  796MPD2    C411730   3.339   0.846  15.478  0.2446  0.3115 -0.0085
  796MPD2    C511731   3.312   0.714  15.467  0.1868  0.1015  0.2189
  796MPD2     H11732   3.454   0.858  15.794  2.6001 -0.0988 -0.0762
  796MPD2    H111733   3.311   0.913  15.398 -1.0496  0.8712  0.9191
  796MPD2    H211734   3.335   0.525  15.557 -0.7832  1.0661 -0.5721
  796MPD2    H311735   3.276   0.675  15.372 -0.7600  1.6757 -0.0708
  796MPD2     N11736   3.423   1.036  15.621  0.2957  0.2985 -0.3424
  796MPD2    H511737   3.474   1.065  15.704 -1.0676 -3.6090  1.8405
  796MPD2    N111738   3.433   0.589  15.792 -0.2279  1.2558 -0.7840
  796MPD2    H711739   3.414   0.492  15.768 -3.6429  1.7130  0.0245
  797MPD2     C11740   4.499   0.188  17.398 -0.4942  0.7238  0.1552
  797MPD2    C111741   4.563   0.300  17.354 -0.9880 -0.8178  0.0567
  797MPD2    C211742   4.508   0.368  17.253  0.0181  0.1056  0.0227
  797MPD2    C311743   4.396   0.336  17.180  0.2573  0.4444  0.1285
  797MPD2    C411744   4.333   0.218  17.220  1.1315 -0.3614 -0.4325
  797MPD2    C511745   4.382   0.149  17.333 -0.2188 -0.0470 -0.4023
  797MPD2     H11746   4.561   0.458  17.225 -0.9354  1.4136  2.3590
  797MPD2    H111747   4.253   0.178  17.159 -1.0731  4.3232 -0.6499
  797MPD2    H211748   4.530   0.135  17.487  0.7763  2.7117  0.9044
  797MPD2    H311749   4.342   0.055  17.370  1.3416 -1.4872 -2.3354
  797MPD2     N11750   4.347   0.434  17.084 -0.6486 -0.0436  0.1986
  797MPD2    H511751   4.382   0.529  17.087  0.1939 -0.3903  1.3305
  797MPD2    N111752   4.683   0.337  17.404 -0.1762 -0.5268  0.8686
  797MPD2    H711753   0.010   0.412  17.355  1.8530 -1.7411  0.9913
  798MPD2     C11754   0.097   0.852  16.975 -0.0011  1.1504 -0.3114
  798MPD2    C111755   4.712   0.800  17.045  0.0889  0.6399  0.1289
  798MPD2    C211756   0.016   0.762  17.173  0.0473  0.2809  0.8499
  798MPD2    C311757   0.142   0.759  17.230  0.4764  0.8391  0.3680
  798MPD2    C411758   0.249   0.796  17.149 -0.1834 -0.3777  0.1687
  798MPD2    C511759   0.223   0.857  17.022  0.1389 -0.2767  0.2762
  798MPD2     H11760   4.653   0.723  17.232  0.6319 -0.8750  0.9049
  798MPD2    H111761   0.354   0.789  17.176 -0.1452 -0.3147  0.0364
  798MPD2    H211762   0.080   0.895  16.877 -0.2511 -0.7912 -1.1176
  798MPD2    H311763   0.308   0.890  16.963 -0.2494  0.2079 -0.0128
  798MPD2     N11764   0.155   0.704  17.357  0.2131  0.0668 -0.0802
  798MPD2    H511765   0.073   0.676  17.410  0.1758 -0.8626 -0.6358
  798MPD2    N111766   4.585   0.801  16.978  0.1417 -0.6196 -0.1020
  798MPD2    H711767   4.588   0.834  16.882 -0.3362  3.8315  1.3757
  799MPD2     C11768   3.438   1.667  14.487 -0.1963  0.6137  0.2196
  799MPD2    C111769   3.421   1.557  14.397  0.0043  0.7383  0.8400
  799MPD2    C211770   3.309   1.551  14.321 -0.9481 -0.3742 -0.3661
  799MPD2    C311771   3.204   1.650  14.331 -0.3557  0.1509  0.3781
  799MPD2    C411772   3.227   1.756  14.411  0.8652 -0.1796 -0.6365
  799MPD2    C511773   3.337   1.754  14.497  0.1153 -0.0580  0.6612
  799MPD2     H11774   3.294   1.463  14.259 -1.4236  0.6966 -1.7703
  799MPD2    H111775   3.156   1.837  14.424  1.0380 -0.1932  0.3683
  799MPD2    H211776   3.529   1.695  14.539 -0.3874  0.9350  0.3841
  799MPD2    H311777   3.340   1.831  14.574 -0.0272  1.2541 -0.6316
  799MPD2     N11778   3.097   1.657  14.246  0.1812 -0.2586 -0.4263
  799MPD2    H511779   3.047   1.745  14.252  0.0465 -0.4000  0.5213
  799MPD2    N111780   3.522   1.469  14.362 -0.0096  0.6393  0.6682
  799MPD2    H711781   3.511   1.395  14.293 -1.9295  0.2647  1.3878
  800MPD2     C11782   3.563   3.108  13.136  0.0127 -0.4366  0.2942
  800MPD2    C111783   3.601   3.090  13.270  0.3562  0.6899 -0.3651
  800MPD2    C211784   3.593   2.960  13.321  0.1792 -0.5168  0.4881
  800MPD2    C311785   3.545   2.853  13.249 -0.5677  0.5947  1.1451
  800MPD2    C411786   3.525   2.872  13.111  0.4676 -0.2783 -0.4834
  800MPD2    C511787   3.529   2.999  13.057  0.0347 -0.4857  0.0865
  800MPD2     H11788   3.630   2.947  13.422 -0.8180  1.3013  1.0880
  800MPD2    H111789   3.500   2.791  13.045 -0.2896  1.4004 -2.2555
  800MPD2    H211790   3.548   3.206  13.093  2.5161  0.0624  0.5522
  800MPD2    H311791   3.483   3.023  12.962  2.0636 -0.1274 -0.7931
  800MPD2     N11792   3.541   2.731  13.324  0.7125 -0.7537  0.1639
  800MPD2    H511793   3.549   2.745  13.424  0.5938  1.7866 -0.2000
  800MPD2    N111794   3.655   3.196  13.338 -0.7527 -0.4956  1.2597
  800MPD2    H711795   3.668   3.282  13.286 -1.7782 -0.4128  1.1395
  801MPD2     C11796   3.482   3.900  13.588  0.5873  0.1555  0.3827
  801MPD2    C111797   3.609   3.878  13.632 -0.2012 -0.1787 -0.4020
  801MPD2    C211798   3.682   3.971  13.700 -0.6537 -0.4874  0.4208
  801MPD2    C311799   3.626   4.084  13.752 -0.0001 -0.1587  0.3831
  801MPD2    C411800   3.494   4.110  13.718  0.7721  0.0243  0.0938
  801MPD2    C511801   3.428   4.021  13.626  0.3033  0.4570 -0.3905
  801MPD2     H11802   3.777   3.942  13.744  0.5417  0.0391 -1.8132
  801MPD2    H111803   3.451   4.204  13.748 -1.7932 -1.0615 -0.2145
  801MPD2    H211804   3.429   3.846  13.509 -0.5792  1.1020  0.5103
  801MPD2    H311805   3.329   4.037  13.585 -0.2516 -3.5699 -0.6269
  801MPD2     N11806   3.702   4.163  13.845  0.8127  0.7512  0.2345
  801MPD2    H511807   3.645   4.219  13.908  1.4943  3.2895 -1.4014
  801MPD2    N111808   3.677   3.754  13.606  0.5526  0.1323 -0.0034
  801MPD2    H711809   3.767   3.730  13.645  1.0768 -0.3363 -1.5037
  802MPD2     C11810   3.863   4.282   0.466 -0.2173  0.3331 -0.4608
  802MPD2    C111811   3.779   4.357   0.385  0.6179 -0.3755 -0.3604
  802MPD2    C211812   3.762   4.314   0.254  0.4291 -0.2731 -0.3140
  802MPD2    C311813   3.813   4.194   0.216 -0.2284  0.1083 -0.1566
  802MPD2    C411814   3.896   4.118   0.296  0.0992  0.7101  0.7672
  802MPD2    C511815   3.930   4.168   0.421 -0.7250 -0.0782 -0.4125
  802MPD2     H11816   3.718   4.379   0.179 -0.4765 -1.4317 -0.7956
  802MPD2    H111817   3.939   4.026   0.260 -0.8425  0.4790  0.2071
  802MPD2    H211818   3.907   4.310   0.561 -0.6205  0.3466 -0.2774
  802MPD2    H311819   3.993   4.113   0.490  0.8145  1.1469 -0.8556
  802MPD2     N11820   3.782   4.153   0.089  0.3233  0.4961 -0.1778
  802MPD2    H511821   3.729   4.216   0.030 -3.2361  0.0275  2.5309
  802MPD2    N111822   3.714   4.478   0.424  0.6765 -0.1776  0.0986
  802MPD2    H711823   3.664   4.525   0.350 -0.5549  0.5190  1.3694
  803MPD2     C11824   4.328   2.428  11.374 -0.2346  0.2532  0.1257
  803MPD2    C111825   4.373   2.480  11.498  0.4102 -0.2912  0.2863
  803MPD2    C211826   4.288   2.484  11.609 -0.5324  0.3762 -0.1664
  803MPD2    C311827   4.164   2.426  11.604 -0.3648  0.0823  0.1293
  803MPD2    C411828   4.132   2.363  11.483  0.3882  0.6252 -0.2594
  803MPD2    C511829   4.204   2.365  11.370 -0.3454 -0.3454  0.7411
  803MPD2     H11830   4.316   2.538  11.699 -1.3396 -0.7033  0.7271
  803MPD2    H111831   4.050   2.291  11.481 -0.7636  1.8762  1.6877
  803MPD2    H211832   4.395   2.415  11.290  0.5609 -2.9428  1.2408
  803MPD2    H311833   4.168   2.315  11.281  0.6907 -0.9073  0.6362
  803MPD2     N11834   4.086   2.404  11.722  0.2205  0.3960 -0.1266
  803MPD2    H511835   3.996   2.358  11.717 -0.2294  0.9876  2.5798
  803MPD2    N111836   4.501   2.540  11.512  0.5221 -0.4199 -0.8978
  803MPD2    H711837   4.526   2.595  11.594  0.2930  0.3174 -1.3233
  804MPD2     C11838   3.921   3.741  16.985 -0.5275 -0.6372  0.2761
  804MPD2    C111839   3.984   3.685  17.094 -0.2539 -0.3272  0.4861
  804MPD2    C211840   4.081   3.763  17.156  0.6039 -0.0793  0.5947
  804MPD2    C311841   4.127   3.884  17.103  0.1409 -0.7405 -0.5157
  804MPD2    C411842   4.061   3.943  17.000  0.2659 -0.1337 -0.1308
  804MPD2    C511843   3.959   3.872  16.947  0.4376  0.3027  0.0908
  804MPD2     H11844   4.122   3.719  17.245  1.0826  0.9916  0.8985
  804MPD2    H111845   4.069   4.048  16.975  0.0243 -0.4145 -1.3924
  804MPD2    H211846   3.845   3.689  16.928 -1.6371  0.9068  0.3462
  804MPD2    H311847   3.909   3.914  16.862  2.2002  0.3233 -0.9378
  804MPD2     N11848   4.237   3.950  17.159 -0.1657  0.3279 -0.9980
  804MPD2    H511849   4.273   3.896  17.238  1.1221 -0.1502 -1.9012
  804MPD2    N111850   3.961   3.553  17.144 -0.0238  0.4774 -0.2387
  804MPD2    H711851   3.993   3.528  17.237  1.5481  0.1300 -0.8787
  805MPD2     C11852   3.510   2.267  15.551  0.1989 -0.2857  1.1966
  805MPD2    C111853   3.539   2.164  15.463  0.1416  0.1477  0.2910
  805MPD2    C211854   3.652   2.097  15.482 -0.3122 -0.1672  0.4863
  805MPD2    C311855   3.734   2.108  15.595  0.2176  0.3160 -0.3888
  805MPD2    C411856   3.710   2.213  15.680  0.3808  0.1635  0.1106
  805MPD2    C511857   3.601   2.296  15.652  0.2724  0.3649 -0.1050
  805MPD2     H11858   3.674   2.019  15.409  0.4137 -0.9584  1.5453
  805MPD2    H111859   3.763   2.233  15.773  1.6006  1.4428 -0.8662
  805MPD2    H211860   3.424   2.333  15.546  0.7093  0.3246  0.3702
  805MPD2    H311861   3.570   2.372  15.722  0.8730  1.0039 -0.5432
  805MPD2     N11862   3.836   2.016  15.611 -0.2045 -0.2656  0.7094
  805MPD2    H511863   3.863   1.973  15.523 -2.5329  0.0180 -0.1479
  805MPD2    N111864   3.466   2.130  15.353 -0.2761  0.0917 -0.9183
  805MPD2    H711865   3.511   2.059  15.296 -0.2253  0.8863 -1.8692
  806MPD2     C11866   3.659   1.314  17.634 -0.2538  0.8971 -0.4105
  806MPD2    C111867   3.746   1.370   0.043  0.3680 -1.2664 -0.5162
  806MPD2    C211868   3.844   1.444  17.666 -0.2717  0.1993 -0.1428
  806MPD2    C311869   3.865   1.463  17.530  0.7184 -0.1875  0.1219
  806MPD2    C411870   3.777   1.401  17.438 -0.0659 -0.4192  0.5466
  806MPD2    C511871   3.675   1.328  17.499 -0.5230  0.4516 -0.1447
  806MPD2     H11872   3.916   1.484   0.054 -1.4595 -0.5106  1.4609
  806MPD2    H111873   3.767   1.414  17.331  0.5368  0.2235  0.5646
  806MPD2    H211874   3.579   1.250  17.670 -0.6086  0.8473 -1.3022
  806MPD2    H311875   3.589   1.298  17.441 -0.5921 -1.4535  0.9484
  806MPD2     N11876   3.974   1.543  17.495  0.4439  0.1620 -0.3176
  806MPD2    H511877   4.006   1.608  17.566  0.0722  0.7305 -0.6701
  806MPD2    N111878   3.723   1.364   0.181  0.3104  0.0754 -0.1509
  806MPD2    H711879   3.642   1.317   0.221  0.5397  0.2102  0.4734
  807MPD2     C11880   3.967   0.778   0.585 -0.0663 -0.4309  0.1179
  807MPD2    C111881   3.929   0.861   0.686 -0.4287 -0.2060  0.1831
  807MPD2    C211882   3.922   0.815   0.817 -0.4063  0.1528  0.0237
  807MPD2    C311883   3.954   0.684   0.846 -0.6882 -0.1978  1.0098
  807MPD2    C411884   4.003   0.608   0.740  0.2678 -0.5452 -0.2549
  807MPD2    C511885   4.018   0.651   0.613 -0.7363  0.1916 -0.0768
  807MPD2     H11886   3.895   0.877   0.901  1.0718 -0.8966  1.2743
  807MPD2    H111887   4.038   0.508   0.761  0.6967 -0.1171  1.0849
  807MPD2    H211888   3.964   0.800   0.479 -0.2612 -1.4817 -0.0958
  807MPD2    H311889   4.056   0.595   0.528  0.9039  0.6747  0.3351
  807MPD2     N11890   3.938   0.630   0.978 -0.1527  0.3064 -0.9287
  807MPD2    H511891   3.882   0.686   1.041  0.4120 -0.3825  0.2027
  807MPD2    N111892   3.891   0.989   0.660  0.1026  0.2805 -0.1140
  807MPD2    H711893   3.883   1.050   0.741  0.8433 -0.8383  0.7982
  808MPD2     C11894   3.410   3.364   9.157  0.1204  0.1861  0.0502
  808MPD2    C111895   3.408   3.228   9.133 -0.0097  0.2182  0.0730
  808MPD2    C211896   3.500   3.153   9.199 -0.0367 -0.0210 -0.0248
  808MPD2    C311897   3.589   3.198   9.297  0.2922  0.2806 -0.4507
  808MPD2    C411898   3.584   3.332   9.321 -0.2206  0.9628  0.4229
  808MPD2    C511899   3.502   3.413   9.248  0.5183  0.8889 -0.8032
  808MPD2     H11900   3.499   3.047   9.174 -0.1961  0.3260 -1.4574
  808MPD2    H111901   3.662   3.374   9.383  0.0695 -0.1637  0.8140
  808MPD2    H211902   3.357   3.433   9.092 -0.0629 -0.9088 -0.9720
  808MPD2    H311903   3.506   3.520   9.264 -3.5541  1.1388 -1.4473
  808MPD2     N11904   3.689   3.119   9.351 -0.1079 -0.2791 -0.7591
  808MPD2    H511905   3.756   3.163   9.413  0.4696 -0.1132 -1.4926
  808MPD2    N111906   3.329   3.168   9.029 -0.2884  0.1832  0.0191
  808MPD2    H711907   3.332   3.067   9.015  2.7252  0.4081 -1.0022
  809MPD2     C11908   3.672   2.213   9.640  0.2638  0.7849 -0.0873
  809MPD2    C111909   3.807   2.235   9.633 -0.2313 -0.6836 -0.3471
  809MPD2    C211910   3.864   2.358   9.610 -0.2482 -0.0054 -1.0182
  809MPD2    C311911   3.784   2.464   9.599 -0.1609  0.4680 -0.4065
  809MPD2    C411912   3.645   2.446   9.610 -0.8561 -0.5537 -0.4451
  809MPD2    C511913   3.592   2.323   9.634 -0.4806 -0.9154 -0.0929
  809MPD2     H11914   3.970   2.364   9.590  0.0300 -2.0756 -0.1270
  809MPD2    H111915   3.582   2.534   9.606 -1.6525 -1.1162 -0.2948
  809MPD2    H211916   3.628   2.115   9.653 -1.6018  1.3977 -1.8993
  809MPD2    H311917   3.486   2.308   9.652  0.0657 -0.6303  3.3665
  809MPD2     N11918   3.830   2.600   9.580 -0.4959 -0.4301  0.6370
  809MPD2    H511919   3.749   2.660   9.590  0.3900  0.6056  1.6532
  809MPD2    N111920   3.902   2.128   9.650  0.0601 -0.0194  0.0767
  809MPD2    H711921   4.002   2.145   9.657  0.4299 -1.3641 -1.8113
  810MPD2     C11922   3.143   2.535  10.468  0.1691 -0.0656  0.9094
  810MPD2    C111923   3.173   2.538  10.332  0.5485 -0.2608  0.1360
  810MPD2    C211924   3.100   2.619  10.251  0.2806  0.1291  0.3504
  810MPD2    C311925   3.003   2.702  10.304 -0.1072 -0.6416  0.0989
  810MPD2    C411926   2.977   2.699  10.433 -0.2294 -0.5078 -0.4639
  810MPD2    C511927   3.044   2.615  10.518 -0.4458 -0.7118 -0.2856
  810MPD2     H11928   3.118   2.619  10.144 -1.9754 -0.9908 -0.0234
  810MPD2    H111929   2.892   2.753  10.474  0.2768  1.5429 -2.1310
  810MPD2    H211930   3.201   2.478  10.539  0.8055 -1.7497 -0.9657
  810MPD2    H311931   3.031   2.619  10.626  0.1328 -0.3772 -0.2267
  810MPD2     N11932   2.922   2.797  10.231 -0.1258 -0.2774 -0.0142
  810MPD2    H511933   2.869   2.865  10.284  1.3645  0.0478  1.0502
  810MPD2    N111934   3.268   2.444  10.278  0.2352 -0.2967  0.6828
  810MPD2    H711935   3.275   2.366  10.343  2.0539 -1.5907 -1.0909
  811MPD2     C11936   2.994   2.054   9.537  0.4238  0.2445 -0.4498
  811MPD2    C111937   3.039   2.164   9.605 -0.4175  0.2446  0.8591
  811MPD2    C211938   2.981   2.281   9.582 -0.0444 -0.1936  0.0843
  811MPD2    C311939   2.899   2.292   9.473  0.6470  0.0905 -0.0235
  811MPD2    C411940   2.854   2.179   9.406  0.0578 -0.1351 -0.3172
  811MPD2    C511941   2.895   2.058   9.448 -0.0574 -0.3887 -0.9719
  811MPD2     H11942   3.009   2.376   9.627  0.4763 -0.0112 -0.6168
  811MPD2    H111943   2.791   2.181   9.318 -0.6004  1.3449  0.1830
  811MPD2    H211944   3.028   1.956   9.567  1.9155  1.7297  2.6251
  811MPD2    H311945   2.863   1.967   9.400  0.5006 -0.7889 -0.5793
  811MPD2     N11946   2.854   2.426   9.438  0.9350 -0.0067 -0.6165
  811MPD2    H511947   2.899   2.502   9.488  1.9255 -0.3268 -1.0130
  811MPD2    N111948   3.122   2.133   9.715  0.1543  0.5001 -0.2204
  811MPD2    H711949   3.157   2.040   9.732 -0.7294 -0.0511 -1.4309
  812MPD2     C11950   2.334   2.272  11.982 -0.4919  0.3808 -0.2948
  812MPD2    C111951   2.237   2.306  12.070  0.1557 -0.4047  0.8839
  812MPD2    C211952   2.180   2.221  12.167 -0.8780  0.8098 -1.1995
  812MPD2    C311953   2.219   2.091  12.171  0.2845 -0.2820  0.4428
  812MPD2    C411954   2.312   2.047  12.083 -0.7031  0.1223 -0.1125
  812MPD2    C511955   2.364   2.139  11.990 -0.0803  0.2807 -0.0243
  812MPD2     H11956   2.101   2.262  12.229 -0.0464  0.6267 -0.0196
  812MPD2    H111957   2.362   1.951  12.085 -0.0645  0.4397 -0.8187
  812MPD2    H211958   2.378   2.340  11.911 -0.0749  0.3681 -0.0435
  812MPD2    H311959   2.428   2.094  11.915 -0.1088  0.7123 -0.3064
  812MPD2     N11960   2.182   2.012  12.286 -0.1963 -0.1502  0.3547
  812MPD2    H511961   2.124   2.053  12.358 -2.5912  1.1552 -2.2888
  812MPD2    N111962   2.188   2.443  12.057 -0.5287  0.3079  0.2916
  812MPD2    H711963   2.240   2.504  11.996 -0.3418 -0.5032 -0.3560
  813MPD2     C11964   1.434   4.336  12.544 -0.2646 -0.6649 -0.4288
  813MPD2    C111965   1.397   4.467  12.542  0.4333  0.8677 -0.1303
  813MPD2    C211966   1.310   4.515  12.639  0.0568 -1.2186 -0.5336
  813MPD2    C311967   1.263   4.441  12.743 -0.3559  0.0497 -0.2488
  813MPD2    C411968   1.298   4.307  12.740 -0.5957  0.1894  0.6670
  813MPD2    C511969   1.376   4.256  12.640 -0.2061  0.1192 -0.3049
  813MPD2     H11970   1.288   4.621  12.629  0.9240 -1.1421 -1.5750
  813MPD2    H111971   1.263   4.231  12.809  0.6337  0.5850  1.7295
  813MPD2    H211972   1.509   4.303  12.473 -0.8846 -2.1605 -0.3804
  813MPD2    H311973   1.406   4.151  12.645 -0.3240  0.1194  0.3489
  813MPD2     N11974   1.181   4.499  12.840 -0.0920  0.6083  0.4076
  813MPD2    H511975   1.136   4.589  12.826  2.4957  1.4846 -2.2773
  813MPD2    N111976   1.456   4.538  12.432  0.0030 -0.0365  0.1440
  813MPD2    H711977   1.535   4.501  12.380  0.5755  0.4189  0.6941
  814MPD2     C11978   1.513   0.908  12.089  0.3211  0.0191  0.2913
  814MPD2    C111979   1.539   0.963  11.961  0.4899 -0.0321  0.1426
  814MPD2    C211980   1.623   1.075  11.956  0.5667  0.3831  0.2485
  814MPD2    C311981   1.685   1.121  12.066 -0.0650 -0.6616 -0.6432
  814MPD2    C411982   1.655   1.066  12.195 -0.3130  0.7400  0.4744
  814MPD2    C511983   1.573   0.960  12.205 -0.2432 -0.6699  0.7165
  814MPD2     H11984   1.643   1.120  11.860  0.7236 -1.2630 -0.4970
  814MPD2    H111985   1.698   1.098  12.289  0.9413 -1.5481  0.6827
  814MPD2    H211986   1.447   0.822  12.101 -0.5262  0.7069  0.5966
  814MPD2    H311987   1.537   0.922  12.300  1.8155 -0.9389  1.3892
  814MPD2     N11988   1.766   1.231  12.065 -0.0579 -0.5938  0.3570
  814MPD2    H511989   1.811   1.249  12.155 -0.5805 -1.0673  0.7139
  814MPD2    N111990   1.484   0.899  11.852  0.0121 -0.3566  0.0999
  814MPD2    H711991   1.536   0.907  11.766 -0.9969  0.9443 -0.3841
  815MPD2     C11992   2.362   4.093  11.754  0.7236 -0.1376  0.3773
  815MPD2    C111993   2.339   3.966  11.794  0.0930  0.1617  0.0641
  815MPD2    C211994   2.271   3.952  11.918  0.3271  0.1471 -0.1726
  815MPD2    C311995   2.252   4.063  12.005 -0.1157  0.1008 -0.8508
  815MPD2    C411996   2.297   4.186  11.963 -0.2136 -0.0010  0.4366
  815MPD2    C511997   2.350   4.203  11.837 -0.4004  0.4447  0.0640
  815MPD2     H11998   2.229   3.859  11.955  0.5631 -0.3493 -1.1551
  815MPD2    H111999   2.297   4.271  12.031  0.4012  2.0014 -2.0612
  815MPD2    H212000   2.401   4.100  11.654 -1.6284  2.1520 -0.3877
  815MPD2    H312001   2.395   4.298  11.813  2.2678 -0.1311  2.7159
  815MPD2     N12002   2.183   4.045  12.125 -0.3510  0.0175  0.0298
  815MPD2    H512003   2.155   3.950  12.147 -0.9631  0.2354  0.1808
  815MPD2    N112004   2.381   3.863  11.716  0.3315 -0.3441 -0.0145
  815MPD2    H712005   2.417   3.887  11.624  1.3074 -1.4811  0.0616
  816MPD2     C12006   3.191   3.431  17.338 -0.6222  0.0928 -0.0165
  816MPD2    C112007   3.067   3.437  17.272  0.1954 -0.6464  0.0237
  816MPD2    C212008   3.053   3.356  17.158 -0.2661  0.3251 -0.3302
  816MPD2    C312009   3.153   3.265  17.121  0.7900 -0.5883  0.3345
  816MPD2    C412010   3.263   3.244  17.209  0.2780  0.2203  0.3158
  816MPD2    C512011   3.282   3.336  17.307 -0.3456 -0.2807  0.0352
  816MPD2     H12012   2.972   3.385  17.092 -1.2974  0.9658  1.2315
  816MPD2    H112013   3.349   3.180  17.187 -1.8049 -1.9290 -1.5877
  816MPD2    H212014   3.213   3.499  17.419  1.2061  1.5744 -1.7700
  816MPD2    H312015   3.381   3.346  17.350 -0.6248  2.8711 -0.0825
  816MPD2     N12016   3.127   3.192  17.001 -0.0606 -0.2215  0.2356
  816MPD2    H512017   3.038   3.206  16.954 -0.9783 -0.0244  2.0317
  816MPD2    N112018   2.980   3.541  17.309  0.1793 -0.6839  0.0179
  816MPD2    H712019   3.009   3.599  17.387 -0.3494 -1.8910  1.1196
  817MPD2     C12020   1.652   4.303  10.101 -0.5725  0.2367  0.7144
  817MPD2    C112021   1.697   4.289   9.974  0.5323  1.2813  0.0114
  817MPD2    C212022   1.708   4.404   9.898 -0.3536  0.6969 -0.0372
  817MPD2    C312023   1.693   4.527   9.946 -0.5682 -0.3855  0.0032
  817MPD2    C412024   1.658   4.540  10.078 -0.5056  0.9269 -0.2570
  817MPD2    C512025   1.623   4.431  10.148 -0.0442 -0.9066  0.3323
  817MPD2     H12026   1.738   4.386   9.795 -4.1550 -1.7650 -0.7338
  817MPD2    H112027   1.650   4.638  10.122 -0.7158  1.3574 -1.2548
  817MPD2    H212028   1.635   4.219  10.167  1.0989  1.7164  3.0198
  817MPD2    H312029   1.583   4.433  10.249 -1.5600  2.5596 -0.3430
  817MPD2     N12030   1.741   4.624   9.859 -0.0210  0.9817  0.0748
  817MPD2    H512031   1.787   4.591   9.775 -1.3765 -0.0167 -0.2842
  817MPD2    N112032   1.706   4.161   9.911  0.0299  0.0838  0.2676
  817MPD2    H712033   1.726   4.154   9.811 -1.6928  2.6724 -0.2690
  818MPD2     C12034   0.582   4.003   9.495  0.0443 -0.5288 -0.4781
  818MPD2    C112035   0.549   3.960   9.622 -0.2234  0.1683  0.3046
  818MPD2    C212036   0.554   3.823   9.654  0.5291  0.3882  0.2458
  818MPD2    C312037   0.587   3.732   9.552  0.1092 -0.4082 -0.3961
  818MPD2    C412038   0.589   3.779   9.428 -0.0663 -0.1540  0.0691
  818MPD2    C512039   0.596   3.911   9.397  0.5781  0.6476  0.2590
  818MPD2     H12040   0.533   3.785   9.754  0.2454 -0.8453 -0.2868
  818MPD2    H112041   0.605   3.714   9.344  1.2642 -2.1109  1.8399
  818MPD2    H212042   0.585   4.106   9.463  0.4177 -0.3813  0.0436
  818MPD2    H312043   0.604   3.938   9.292 -2.2037 -0.1938 -0.1583
  818MPD2     N12044   0.606   3.595   9.559 -0.6400 -0.3620 -0.3090
  818MPD2    H512045   0.632   3.546   9.474 -0.4978 -1.1093  0.1710
  818MPD2    N112046   0.504   4.045   9.730  0.9049  0.4684  0.4441
  818MPD2    H712047   0.472   4.006   9.818  1.2353  0.9318  0.7751
  819MPD2     C12048   4.146   1.556  15.402  0.4050 -0.3482  0.3499
  819MPD2    C112049   4.127   1.429  15.447  0.5796 -0.3233  0.1190
  819MPD2    C212050   4.218   1.374  15.529  0.2528  0.6782  0.4474
  819MPD2    C312051   4.315   1.450  15.588 -0.8939 -0.6125  0.5834
  819MPD2    C412052   4.330   1.584  15.545  0.0657  0.2859 -0.0143
  819MPD2    C512053   4.245   1.639  15.452  0.6456  0.1262 -0.6744
  819MPD2     H12054   4.199   1.274  15.568  0.6251  0.8087  0.9645
  819MPD2    H112055   4.404   1.652  15.586 -0.3403 -0.0859  1.3142
  819MPD2    H212056   4.074   1.604  15.336 -0.4821 -1.9717  0.1309
  819MPD2    H312057   4.261   1.745  15.439  1.8726 -0.1699 -1.5324
  819MPD2     N12058   4.394   1.381  15.680 -0.6979 -0.4466 -0.2529
  819MPD2    H512059   4.372   1.283  15.689 -0.1860 -0.5361  0.0615
  819MPD2    N112060   4.014   1.358  15.400  0.2465 -0.6101  0.4451
  819MPD2    H712061   3.948   1.407  15.342  0.1110 -0.0508  1.0725
  820MPD2     C12062   3.094   1.449  15.044 -0.1357 -0.3934 -0.3906
  820MPD2    C112063   3.192   1.512  15.101  0.1825  0.2979 -0.1217
  820MPD2    C212064   3.296   1.442  15.153 -0.5495  0.0314  0.5561
  820MPD2    C312065   3.311   1.308  15.137  0.8098  0.3238 -0.5085
  820MPD2    C412066   3.203   1.237  15.077 -0.5919  0.3221 -0.5320
  820MPD2    C512067   3.093   1.311  15.038  0.1196 -0.5481 -0.2570
  820MPD2     H12068   3.376   1.500  15.198 -1.0978  0.0574  1.4794
  820MPD2    H112069   3.207   1.129  15.073 -1.4304  0.3448 -1.8286
  820MPD2    H212070   3.012   1.501  14.996 -1.8791 -1.9887  0.8550
  820MPD2    H312071   3.008   1.261  14.994 -3.7112  3.2492  2.8345
  820MPD2     N12072   3.429   1.232  15.181 -0.0462  0.5043  0.9931
  820MPD2    H512073   3.426   1.131  15.175  1.5465  0.6374 -2.0287
  820MPD2    N112074   3.177   1.654  15.105 -0.6330 -0.1710 -0.7717
  820MPD2    H712075   3.100   1.696  15.053  1.4738  2.5871 -1.6900
  821MPD2     C12076   3.936   2.544  12.823 -0.7465  0.1467  0.0331
  821MPD2    C112077   3.988   2.588  12.943  0.3043  0.3021 -0.6836
  821MPD2    C212078   4.093   2.675  12.940  0.0579 -0.7071 -0.0139
  821MPD2    C312079   4.141   2.721  12.820 -0.5999  0.3104  0.1496
  821MPD2    C412080   4.084   2.678  12.701 -0.5490  0.5384 -0.4930
  821MPD2    C512081   3.989   2.578  12.703 -0.8723  0.5204 -0.2976
  821MPD2     H12082   4.142   2.704  13.033  1.3454  1.9685 -1.5112
  821MPD2    H112083   4.114   2.719  12.604 -0.4605  1.3059 -0.1452
  821MPD2    H212084   3.861   2.466  12.820 -0.3551 -0.2552  0.7684
  821MPD2    H312085   3.942   2.530  12.618  1.8018  0.6088 -1.8360
  821MPD2     N12086   4.235   2.826  12.806 -0.3938  0.6334  0.0160
  821MPD2    H512087   4.237   2.879  12.720 -3.8669  0.9761  0.1388
  821MPD2    N112088   3.948   2.548  13.071  0.6039 -0.4272 -0.3083
  821MPD2    H712089   3.998   2.594  13.147  0.6145 -1.5227  0.3600
  822MPD2     C12090   4.527   3.190  15.590  0.0357 -0.6143  0.2796
  822MPD2    C112091   4.586   3.163  15.713  0.6803 -0.1384 -0.6485
  822MPD2    C212092   4.547   3.243  15.824 -0.0437  0.2591  0.2034
  822MPD2    C312093   4.463   3.351  15.809 -0.2748  0.7858 -0.1596
  822MPD2    C412094   4.407   3.378  15.682  0.2572  0.1729 -0.6783
  822MPD2    C512095   4.437   3.302  15.579 -0.3029  0.2760  0.2170
  822MPD2     H12096   4.597   3.234  15.920 -0.9006 -0.6814  0.5617
  822MPD2    H112097   4.328   3.449  15.663 -0.5201 -0.1301  1.3894
  822MPD2    H212098   4.544   3.135  15.499  0.8187 -0.8265  0.5538
  822MPD2    H312099   4.386   3.319  15.485 -0.3593  2.4826  0.6642
  822MPD2     N12100   4.439   3.428  15.918  0.9648 -0.3070  0.8930
  822MPD2    H512101   4.455   3.385  16.009  2.2301  0.6920  1.1375
  822MPD2    N112102   4.672   3.051  15.735 -0.5696  0.3310  0.3054
  822MPD2    H712103   4.716   3.048  15.827  0.1179  0.8787 -0.0069
  823MPD2     C12104   4.187   3.533  16.715 -0.2792  0.3759  0.1949
  823MPD2    C112105   4.261   3.483  16.610 -0.2043 -0.6232 -0.2515
  823MPD2    C212106   4.319   3.358  16.629  0.0996 -0.6141 -0.1495
  823MPD2    C312107   4.303   3.286  16.752  0.7099 -0.3419 -0.1675
  823MPD2    C412108   4.230   3.336  16.850 -0.1668 -0.3430 -0.3014
  823MPD2    C512109   4.170   3.462  16.833 -0.0696 -0.4236 -0.0999
  823MPD2     H12110   4.382   3.307  16.557  1.6203  0.8895  0.1205
  823MPD2    H112111   4.230   3.295  16.950  0.9482  2.3135  0.7892
  823MPD2    H212112   4.137   3.629  16.709 -0.4959  0.3452  1.6474
  823MPD2    H312113   4.114   3.508  16.914  0.1540 -1.2155  0.5036
  823MPD2     N12114   4.370   3.165  16.781 -0.4856 -0.3269  0.1349
  823MPD2    H512115   4.360   3.131  16.876 -1.8489 -1.7168 -0.5135
  823MPD2    N112116   4.288   3.559  16.497 -0.2815 -0.0920  0.5886
  823MPD2    H712117   4.284   3.659  16.511  0.1992 -0.1280  0.9950
  824MPD2     C12118   0.069   2.229  15.516 -0.7544  0.1194 -0.1387
  824MPD2    C112119   0.135   2.348  15.486 -0.3454  0.2366 -0.2471
  824MPD2    C212120   0.232   2.351  15.387 -0.2346 -0.5885  0.0038
  824MPD2    C312121   0.268   2.234  15.319  0.1077  0.0388 -0.4840
  824MPD2    C412122   0.207   2.115  15.346 -0.2331 -0.2897 -0.0941
  824MPD2    C512123   0.107   2.113  15.443 -0.3977 -0.1895  0.3783
  824MPD2     H12124   0.294   2.439  15.378 -1.7185  0.2783 -1.9469
  824MPD2    H112125   0.234   2.020  15.301 -1.5075 -0.3632 -0.7089
  824MPD2    H212126   4.718   2.223  15.598 -0.1501  2.2218  0.5522
  824MPD2    H312127   0.067   2.016  15.472  1.2556 -0.7887  0.6418
  824MPD2     N12128   0.383   2.248  15.232 -0.8737 -0.3806 -0.0988
  824MPD2    H512129   0.422   2.342  15.232  2.5827 -1.8211  0.5525
  824MPD2    N112130   0.109   2.462  15.564  0.1838 -0.1815 -0.0729
  824MPD2    H712131   0.150   2.545  15.521  0.3647  0.1202  0.6773
  825MPD2     C12132   1.150   2.552  14.997  0.5478 -0.0923 -0.5860
  825MPD2    C112133   1.012   2.559  14.987 -0.5773 -0.2776 -0.5248
  825MPD2    C212134   0.964   2.675  14.938  0.2803  0.1571 -0.5776
  825MPD2    C312135   1.045   2.773  14.889  0.5709 -0.2332 -0.5843
  825MPD2    C412136   1.178   2.764  14.899  0.0172  0.4384  0.8641
  825MPD2    C512137   1.231   2.651  14.951 -0.5146 -0.2284 -0.2046
  825MPD2     H12138   0.857   2.685  14.946  0.2249 -0.7136 -0.2779
  825MPD2    H112139   1.241   2.849  14.876 -1.7720  1.1609 -1.3692
  825MPD2    H212140   1.188   2.466  15.050 -1.8404 -0.6251  0.2226
  825MPD2    H312141   1.338   2.646  14.969 -0.4770  1.1863 -0.0083
  825MPD2     N12142   0.992   2.908  14.875  0.0180 -0.0596 -0.6515
  825MPD2    H512143   1.057   2.986  14.869 -0.7180  0.8194  3.2644
  825MPD2    N112144   0.937   2.452  15.050  0.2048  0.0152  0.7327
  825MPD2    H712145   0.984   2.374  15.095 -0.3590 -0.2077  0.9325
  826MPD2     C12146   0.144   2.296  13.409 -0.5318 -0.4569 -0.0852
  826MPD2    C112147   0.089   2.363  13.305  0.0575  0.2847 -0.0154
  826MPD2    C212148   4.717   2.464  13.325  0.1957 -0.3916 -0.2885
  826MPD2    C312149   4.671   2.495  13.450 -0.7099  0.3666  0.2026
  826MPD2    C412150   0.019   2.435  13.553  0.1775 -0.8157  0.9621
  826MPD2    C512151   0.116   2.337  13.535  0.0470  0.8487 -0.0398
  826MPD2     H12152   4.676   2.518  13.240  1.9306  1.4401  0.0544
  826MPD2    H112153   0.004   2.468  13.655  1.0538  1.0095  0.4883
  826MPD2    H212154   0.229   2.231  13.390  1.4718  1.4129  2.3829
  826MPD2    H312155   0.181   2.301  13.614  0.5947  0.3033 -0.7474
  826MPD2     N12156   4.585   2.603  13.485 -0.6028  0.0938 -0.2251
  826MPD2    H512157   4.574   2.626  13.584  1.1896  0.8026 -0.1842
  826MPD2    N112158   0.139   2.320  13.178 -0.6051  0.2107 -0.1432
  826MPD2    H712159   0.213   2.251  13.180 -2.3665 -1.7226 -1.8089
  827MPD2     C12160   1.136   3.723  10.202  0.7745 -0.1108 -0.6424
  827MPD2    C112161   1.133   3.588  10.245 -0.6321 -0.3515 -0.2177
  827MPD2    C212162   1.135   3.488  10.157 -0.9165 -0.4568  0.5020
  827MPD2    C312163   1.147   3.519  10.020 -0.3140  0.0324  0.9775
  827MPD2    C412164   1.170   3.647   9.974 -0.1400 -0.0752  0.4690
  827MPD2    C512165   1.162   3.748  10.072 -0.4404 -0.4490 -0.6360
  827MPD2     H12166   1.123   3.388  10.196  1.6658 -0.7209  0.5705
  827MPD2    H112167   1.178   3.670   9.868 -2.3433  1.5587  0.6442
  827MPD2    H212168   1.130   3.810  10.267  1.2845  0.3063 -1.1495
  827MPD2    H312169   1.174   3.847  10.029 -1.6935 -0.0349 -0.0281
  827MPD2     N12170   1.130   3.411   9.933 -1.0631  0.0770 -0.0599
  827MPD2    H512171   1.114   3.326   9.986 -0.5075 -0.1651 -0.2884
  827MPD2    N112172   1.119   3.559  10.384 -0.1540  0.8304 -0.2605
  827MPD2    H712173   1.106   3.638  10.446  0.5371  2.1500 -1.7911
  828MPD2     C12174   4.381   3.444  12.152 -0.4359  0.3602  0.5573
  828MPD2    C112175   4.389   3.449  12.013  0.4778  0.1926 -0.6084
  828MPD2    C212176   4.509   3.410  11.955  0.3341 -0.6291  0.2288
  828MPD2    C312177   4.612   3.354  12.031 -0.6448 -0.2312 -0.4043
  828MPD2    C412178   4.605   3.363  12.168  0.5123  0.7425 -0.3387
  828MPD2    C512179   4.485   3.404  12.232 -0.0516  0.2686  0.4437
  828MPD2     H12180   4.519   3.420  11.847 -2.1498  1.1250  0.1491
  828MPD2    H112181   4.689   3.327  12.226 -0.2671  0.3530  0.5662
  828MPD2    H212182   4.292   3.477  12.205 -0.5081  0.1238  0.5828
  828MPD2    H312183   4.476   3.404  12.340 -1.5738  0.5732  0.3145
  828MPD2     N12184   0.013   3.305  11.962  0.0039 -0.4428 -0.5267
  828MPD2    H512185   0.090   3.281  12.022  0.8325 -0.1622 -1.4767
  828MPD2    N112186   4.285   3.476  11.922 -0.0305  1.0082 -0.0083
  828MPD2    H712187   4.301   3.441  11.828 -1.4261  0.1578  0.0752
  829MPD2     C12188   3.901   2.997  11.149 -0.7522  0.2505 -0.0220
  829MPD2    C112189   3.798   2.999  11.230  0.8945  0.0170  0.1307
  829MPD2    C212190   3.818   3.053  11.357 -0.2644 -0.4255 -0.5659
  829MPD2    C312191   3.931   3.130  11.391  0.6736 -0.2349  0.1117
  829MPD2    C412192   4.025   3.139  11.290  0.0320 -0.1169  0.1160
  829MPD2    C512193   4.013   3.068  11.174 -0.1435  0.8254  0.3702
  829MPD2     H12194   3.737   3.044  11.429  3.7771 -0.1195  4.0723
  829MPD2    H112195   4.107   3.210  11.293  0.0109 -0.0179 -1.2610
  829MPD2    H212196   3.898   2.946  11.054 -0.5724 -1.1464  0.7184
  829MPD2    H312197   4.084   3.078  11.093  0.5211  0.1842  0.8757
  829MPD2     N12198   3.933   3.201  11.511  0.4884  0.1858  0.3240
  829MPD2    H512199   3.850   3.195  11.569  1.0924 -0.2290  1.1546
  829MPD2    N112200   3.677   2.939  11.190 -0.1175 -0.0796 -0.0014
  829MPD2    H712201   3.666   2.910  11.094  0.9866  1.9020 -0.7093
  830MPD2     C12202   4.403   0.758  15.766  0.4672 -0.7899 -0.1659
  830MPD2    C112203   4.464   0.867  15.701 -0.0993  0.9991  0.2865
  830MPD2    C212204   4.485   0.866  15.562 -0.5723 -0.1430  0.3365
  830MPD2    C312205   4.425   0.760  15.484  0.5858 -0.1298  0.3818
  830MPD2    C412206   4.359   0.656  15.550 -0.2316  0.3042 -0.0590
  830MPD2    C512207   4.356   0.658  15.686 -0.5023 -0.0016  0.4167
  830MPD2     H12208   4.519   0.957  15.515 -0.5007 -0.3975 -0.1033
  830MPD2    H112209   4.326   0.562  15.507  0.8420  0.3699 -1.0232
  830MPD2    H212210   4.378   0.754  15.871 -0.4387 -1.8731 -0.4207
  830MPD2    H312211   4.297   0.581  15.734 -1.7577 -0.8425 -2.4572
  830MPD2     N12212   4.453   0.744  15.345  0.0569  0.6427  0.8094
  830MPD2    H512213   4.433   0.650  15.312  1.8460  0.9513 -1.2474
  830MPD2    N112214   4.511   0.982  15.769  0.1537  0.7290  0.3452
  830MPD2    H712215   4.554   1.055  15.713  0.6868  0.1978  0.0536
  831MPD2     C12216   0.033   3.463  16.239  0.5251  0.2316 -0.2432
  831MPD2    C112217   0.032   3.364  16.147 -1.0393 -1.0945 -0.0554
  831MPD2    C212218   4.678   3.249  16.174  0.3905  0.2678 -0.2849
  831MPD2    C312219   4.592   3.247  16.282 -0.3170 -0.6922 -0.2119
  831MPD2    C412220   4.607   3.343  16.380 -0.8156 -0.1749 -0.1473
  831MPD2    C512221   4.688   3.450  16.351  0.3153 -0.4942  0.0455
  831MPD2     H12222   4.676   3.168  16.102 -2.3420 -1.1561  1.3721
  831MPD2    H112223   4.551   3.342  16.473  0.5364  1.6086  0.6800
  831MPD2    H212224   0.095   3.551  16.222  1.3444 -0.4498 -0.7963
  831MPD2    H312225   4.715   3.523  16.427 -0.9090 -0.8444  0.8271
  831MPD2     N12226   4.487   3.152  16.299  0.5935  0.4953  0.2318
  831MPD2    H512227   4.453   3.134  16.392 -0.5706  0.1016 -0.2713
  831MPD2    N112228   0.113   3.380  16.036  0.2806 -0.0046 -0.1929
  831MPD2    H712229   0.163   3.468  16.024 -0.0985  0.1982 -0.2853
  832MPD2     C12230   3.241   4.427  17.277  0.0473  0.0972 -0.0184
  832MPD2    C112231   3.264   4.531  17.186  0.2636 -0.0899  0.6630
  832MPD2    C212232   3.168   4.569  17.097  0.1543 -0.3921 -0.3500
  832MPD2    C312233   3.048   4.499  17.092  0.3704 -0.4055  0.1349
  832MPD2    C412234   3.028   4.394  17.183 -0.0666  0.0701 -0.1086
  832MPD2    C512235   3.121   4.355  17.272  0.4096  0.2469 -0.1443
  832MPD2     H12236   3.179   4.658  17.035 -1.5118 -0.2562 -0.4379
  832MPD2    H112237   2.934   4.342  17.168 -0.5485  1.0071 -0.3145
  832MPD2    H212238   3.310   4.403  17.357 -0.1167 -1.4416 -0.3315
  832MPD2    H312239   3.105   4.280  17.348 -0.5050  0.7085  0.1141
  832MPD2     N12240   2.939   4.543  17.016 -0.2365  0.2097  0.0469
  832MPD2    H512241   2.850   4.501  17.040  0.9116 -0.2145  3.4612
  832MPD2    N112242   3.384   4.606  17.207  0.1089 -0.2567 -0.5265
  832MPD2    H712243   3.442   4.565  17.280 -0.0421 -0.0580 -0.2929
  833MPD2     C12244   0.142   0.747  11.785  0.0116  0.7774  0.2153
  833MPD2    C112245   0.201   0.869  11.762 -0.0936 -0.3949  0.2021
  833MPD2    C212246   0.241   0.903  11.633  0.2961  0.3726 -0.1313
  833MPD2    C312247   0.224   0.814  11.526 -0.7562 -0.1711  0.0366
  833MPD2    C412248   0.160   0.695  11.548  0.2678  0.2702 -0.6872
  833MPD2    C512249   0.116   0.665  11.680  0.4015  0.1094 -1.0623
  833MPD2     H12250   0.270   1.002  11.601  1.2936  0.0089 -0.3626
  833MPD2    H112251   0.142   0.622  11.469 -2.3130  0.5196 -0.3320
  833MPD2    H212252   0.115   0.724  11.888  0.1184 -2.6614 -0.5333
  833MPD2    H312253   0.062   0.571  11.689 -1.4502  1.1946 -0.9576
  833MPD2     N12254   0.263   0.854  11.397 -0.0860  0.1900 -0.6522
  833MPD2    H512255   0.216   0.808  11.320  0.9135 -1.1840 -0.4406
  833MPD2    N112256   0.213   0.959  11.869  0.3567  0.3636 -0.1656
  833MPD2    H712257   0.197   0.919  11.961 -1.2465 -0.0345 -0.6304
  834MPD2     C12258   0.264   0.786  10.452 -0.0066 -0.0595 -0.2949
  834MPD2    C112259   0.169   0.754  10.543 -0.4759 -0.1413  0.4978
  834MPD2    C212260   0.169   0.817  10.670 -0.6948 -0.2821 -0.4104
  834MPD2    C312261   0.259   0.913  10.698 -0.1727  0.0249  0.2857
  834MPD2    C412262   0.347   0.949  10.599 -0.2249 -0.0951  0.2655
  834MPD2    C512263   0.359   0.881  10.485  0.6548  0.4246 -0.2596
  834MPD2     H12264   0.099   0.794  10.750  0.2771 -1.0717  0.2212
  834MPD2    H112265   0.427   1.016  10.625 -1.7479  1.4835  0.8412
  834MPD2    H212266   0.262   0.745  10.352 -0.1719 -2.3695  0.6474
  834MPD2    H312267   0.438   0.908  10.415 -0.1604  0.0201 -1.3395
  834MPD2     N12268   0.271   0.978  10.826  0.1434  0.0804 -0.0635
  834MPD2    H512269   0.356   1.033  10.837 -0.8280  1.7265 -0.6732
  834MPD2    N112270   0.066   0.660  10.499 -0.4719  0.6364 -0.0891
  834MPD2    H712271   0.079   0.619  10.407  0.4329 -1.4744  0.9917
  835MPD2     C12272   0.476   3.443  10.769 -0.0156  0.9830  0.4065
  835MPD2    C112273   0.387   3.540  10.806 -0.2037  0.8159 -0.1177
  835MPD2    C212274   0.378   3.580  10.938  0.9558 -0.0908 -0.6445
  835MPD2    C312275   0.465   3.531  11.036  0.9660 -0.0416 -0.3921
  835MPD2    C412276   0.549   3.430  11.004 -0.1283  0.8597 -0.6377
  835MPD2    C512277   0.554   3.391  10.873 -0.1451  0.4737  0.5476
  835MPD2     H12278   0.295   3.638  10.975  0.5258 -1.1238  0.0129
  835MPD2    H112279   0.622   3.384  11.069 -0.4529  1.8527  0.4204
  835MPD2    H212280   0.480   3.405  10.667 -0.5469  0.0801  0.7234
  835MPD2    H312281   0.624   3.311  10.850  0.2611  0.5378  1.5739
  835MPD2     N12282   0.478   3.595  11.162  0.1430 -0.6170  0.1552
  835MPD2    H512283   0.403   3.660  11.183 -1.0308 -1.1891 -2.3554
  835MPD2    N112284   0.288   3.606  10.722  0.0997 -0.2603 -0.2328
  835MPD2    H712285   0.241   3.688  10.760 -2.0537 -1.2964 -0.6508
  836MPD2     C12286   4.700   3.636  11.461  0.8606  1.2261 -0.7528
  836MPD2    C112287   0.062   3.640  11.563 -0.3564 -0.4987  0.6108
  836MPD2    C212288   0.017   3.680  11.683  0.1123  0.0068 -0.2697
  836MPD2    C312289   4.607   3.720  11.699 -0.1999  0.6480 -0.0879
  836MPD2    C412290   4.520   3.720  11.592  0.7985 -0.2011 -0.0364
  836MPD2    C512291   4.567   3.676  11.468  0.5544 -0.5547 -1.1422
  836MPD2     H12292   0.089   3.693  11.763 -0.6381  0.2348  0.3698
  836MPD2    H112293   4.422   3.763  11.603  0.8773  0.0218 -0.2122
  836MPD2    H212294   0.017   3.602  11.365 -2.2476 -3.0262 -0.4763
  836MPD2    H312295   4.510   3.681  11.375 -0.9280 -1.0357 -0.2669
  836MPD2     N12296   4.560   3.777  11.824  0.0273 -0.7819  0.1280
  836MPD2    H512297   4.465   3.813  11.821 -0.1449 -1.0615  2.2078
  836MPD2    N112298   0.192   3.617  11.532  0.9240  0.5538  0.2008
  836MPD2    H712299   0.221   3.601  11.436  0.7894  2.0835 -0.1006
  837MPD2     C12300   2.952   3.109   9.716  0.2105 -0.4812  0.1113
  837MPD2    C112301   2.843   3.113   9.635  0.2975  0.7741  0.4582
  837MPD2    C212302   2.749   3.207   9.645 -0.1345  0.0624  0.1755
  837MPD2    C312303   2.747   3.295   9.754 -0.2251 -0.3420 -0.4485
  837MPD2    C412304   2.851   3.294   9.841  0.4119 -0.1120 -0.1808
  837MPD2    C512305   2.952   3.209   9.823  0.8878  0.1389  0.3649
  837MPD2     H12306   2.677   3.193   9.566 -1.7589  0.0258  1.6592
  837MPD2    H112307   2.858   3.367   9.921  0.4485  0.0416 -0.3227
  837MPD2    H212308   3.032   3.036   9.715  1.2129  0.6252  0.4227
  837MPD2    H312309   3.038   3.212   9.889  1.4273 -1.6884 -0.2384
  837MPD2     N12310   2.641   3.389   9.760  0.5730 -0.3756 -0.4632
  837MPD2    H512311   2.570   3.386   9.688 -0.7258 -0.6862  0.8110
  837MPD2    N112312   2.818   3.021   9.538 -0.2193 -0.0587 -0.0063
  837MPD2    H712313   2.740   3.032   9.474 -1.1912  0.5187  1.2730
  838MPD2     C12314   1.243   1.195  10.957 -0.1453 -0.6325  0.0942
  838MPD2    C112315   1.282   1.268  11.069 -0.6805 -0.2974  0.1977
  838MPD2    C212316   1.191   1.313  11.161 -0.5773  0.2257 -0.0272
  838MPD2    C312317   1.060   1.274  11.151  0.1379 -0.2576  0.3635
  838MPD2    C412318   1.027   1.184  11.050 -0.4983  0.4776  0.1637
  838MPD2    C512319   1.113   1.152  10.948  0.1722 -0.2518  0.2669
  838MPD2     H12320   1.220   1.389  11.234  1.2547 -0.7545  0.2719
  838MPD2    H112321   0.929   1.147  11.025  0.3267 -2.4487  1.3370
  838MPD2    H212322   1.307   1.164  10.875  0.0281 -1.1346  0.4160
  838MPD2    H312323   1.078   1.089  10.867 -1.5232  0.7220  0.2517
  838MPD2     N12324   0.964   1.322  11.240 -0.4468  0.3473  0.3718
  838MPD2    H512325   0.994   1.405  11.291 -3.0035  3.0935 -2.6064
  838MPD2    N112326   1.409   1.309  11.091  0.5959 -0.6983 -0.2747
  838MPD2    H712327   1.433   1.365  11.172 -3.0240  0.7569 -0.2099
  839MPD2     C12328   1.144   1.083  11.568 -0.4562  0.2859 -0.2175
  839MPD2    C112329   1.167   1.037  11.440 -0.4751  0.3607  0.0441
  839MPD2    C212330   1.295   1.037  11.381  0.3754 -0.0561 -0.1506
  839MPD2    C312331   1.400   1.092  11.448  0.2613 -0.4263  0.0383
  839MPD2    C412332   1.372   1.144  11.575  0.1092  0.5438  0.2937
  839MPD2    C512333   1.250   1.139  11.635  0.4972  0.1242  0.3949
  839MPD2     H12334   1.314   0.983  11.289 -0.5494  2.1150 -1.6429
  839MPD2    H112335   1.451   1.177  11.641 -0.8087  0.8564  1.2371
  839MPD2    H212336   1.046   1.079  11.614  1.0407 -0.7562  2.9036
  839MPD2    H312337   1.237   1.171  11.738 -1.2518  1.8724 -0.3656
  839MPD2     N12338   1.525   1.091  11.385 -0.6369 -0.3246 -0.2674
  839MPD2    H512339   1.525   1.064  11.287  0.1045 -0.0355 -0.3444
  839MPD2    N112340   1.063   0.980  11.359  0.0117 -0.0201  0.1412
  839MPD2    H712341   1.097   0.948  11.269  2.9373  2.0753  0.5181
  840MPD2     C12342   1.721   3.541  10.556 -0.6979 -0.8474 -0.0852
  840MPD2    C112343   1.648   3.555  10.673  0.1934  0.6701  0.7122
  840MPD2    C212344   1.714   3.609  10.778 -0.1260 -0.2902  0.2150
  840MPD2    C312345   1.851   3.635  10.784 -0.3195  0.0424  0.5088
  840MPD2    C412346   1.925   3.611  10.668 -0.3867  1.1661  0.0573
  840MPD2    C512347   1.851   3.572  10.560 -0.1321 -1.1104 -0.0280
  840MPD2     H12348   1.653   3.632  10.865 -1.1872  0.8159 -0.8216
  840MPD2    H112349   2.032   3.628  10.666  0.1999 -2.3679  0.6645
  840MPD2    H212350   1.677   3.486  10.474 -0.8910  3.0100 -2.5761
  840MPD2    H312351   1.917   3.555  10.476  0.8948 -0.2279  0.5841
  840MPD2     N12352   1.927   3.686  10.899  0.2273 -0.2245 -0.2321
  840MPD2    H512353   2.025   3.704  10.883  0.1276  1.3197  0.9009
  840MPD2    N112354   1.507   3.522  10.668  0.2611  0.3183 -0.5394
  840MPD2    H712355   1.476   3.486  10.578 -1.4430 -0.8914  0.5300
  841MPD2     C12356   1.530   4.606  14.940 -0.1453  0.7506  0.4563
  841MPD2    C112357   1.510   4.497  14.853 -0.1621 -0.4474  0.6792
  841MPD2    C212358   1.556   4.509  14.722  0.5417  0.1414 -0.9274
  841MPD2    C312359   1.612   4.620  14.669  1.1652 -0.5415  0.0184
  841MPD2    C412360   1.624   0.010  14.754 -0.5078  0.5605 -0.4838
  841MPD2    C512361   1.586   0.005  14.887 -0.1830 -0.1588  0.0019
  841MPD2     H12362   1.555   4.426  14.652 -1.6909 -0.3814 -0.2650
  841MPD2    H112363   1.660   0.107  14.721 -0.7630  1.1909  1.0620
  841MPD2    H212364   1.503   4.608  15.045 -1.5422  0.3250  0.1065
  841MPD2    H312365   1.603   0.090  14.952 -3.4464  0.1599  0.4505
  841MPD2     N12366   1.657   4.605  14.537 -0.0316  0.2673 -0.3849
  841MPD2    H512367   1.629   4.517  14.496  0.0138  0.8241 -1.6012
  841MPD2    N112368   1.452   4.371  14.891 -0.2668 -0.0736  0.3665
  841MPD2    H712369   1.429   4.299  14.823 -1.8015  1.4259 -0.6805
  842MPD2     C12370   2.609   0.248  16.859  0.5702  0.2662 -0.3775
  842MPD2    C112371   2.500   0.162  16.870  0.3187  0.4863 -0.0149
  842MPD2    C212372   2.456   0.108  16.988  0.0162 -0.0653  0.1895
  842MPD2    C312373   2.518   0.150  17.103  0.7675  0.5706  0.1999
  842MPD2    C412374   2.617   0.246  17.094  0.6003 -0.5526  0.3313
  842MPD2    C512375   2.671   0.293  16.976 -0.5066  0.5349  0.3460
  842MPD2     H12376   2.367   0.047  16.994  0.3228 -0.3610  1.8931
  842MPD2    H112377   2.662   0.285  17.185  5.8131 -0.7849 -2.1544
  842MPD2    H212378   2.638   0.287  16.762  1.4770 -1.6244 -0.8493
  842MPD2    H312379   2.750   0.367  16.972  0.3941 -0.5062 -1.2964
  842MPD2     N12380   2.479   0.097  17.227  0.3523 -0.8244  0.2542
  842MPD2    H512381   2.505   0.155  17.306 -2.7517  1.5491 -0.4887
  842MPD2    N112382   2.441   0.123  16.749  0.9115 -0.2306 -0.2965
  842MPD2    H712383   2.467   0.177  16.667  2.6657 -1.3255 -0.4594
  843MPD2     C12384   0.067   4.020  17.411 -0.5022  0.2211 -0.6695
  843MPD2    C112385   0.052   4.060  17.539 -0.4318 -0.1032  0.0323
  843MPD2    C212386   0.116   4.170  17.588 -0.0570 -0.2783  0.0272
  843MPD2    C312387   0.200   4.242  17.503  0.1711  0.7366 -0.4847
  843MPD2    C412388   0.217   4.201  17.374  0.0868  0.2162 -0.3236
  843MPD2    C512389   0.149   4.089  17.329 -0.5413  0.2967 -0.3074
  843MPD2     H12390   0.108   4.200   0.010 -0.7215  0.0046 -0.1073
  843MPD2    H112391   0.283   4.259  17.309  0.0246  0.5810 -0.0633
  843MPD2    H212392   0.029   3.926  17.373 -1.2907 -0.5790  2.0739
  843MPD2    H312393   0.159   4.054  17.227  1.2042 -1.3018  0.4104
  843MPD2     N12394   0.285   4.343  17.547  0.8056  0.4326  0.7807
  843MPD2    H512395   0.368   4.362  17.491  1.0134  0.1232  0.9786
  843MPD2    N112396   4.697   3.969  17.631  0.0165 -0.3987 -0.3650
  843MPD2    H712397   4.646   3.896  17.584 -0.7487 -1.1289  1.5859
  844MPD2     C12398   2.709   4.147  16.642  0.0372 -0.1325  0.1202
  844MPD2    C112399   2.770   4.166  16.520  0.2841 -0.3646 -0.2206
  844MPD2    C212400   2.869   4.267  16.507  0.0716 -0.2357 -0.4089
  844MPD2    C312401   2.932   4.306  16.628  0.4821  0.3138  0.3804
  844MPD2    C412402   2.858   4.294  16.745 -0.6131  0.6453  0.0507
  844MPD2    C512403   2.747   4.213  16.751 -0.8290 -0.5317  0.2293
  844MPD2     H12404   2.916   4.292  16.413 -3.4828 -0.8542 -2.3651
  844MPD2    H112405   2.883   4.348  16.836 -0.6218  1.4315 -0.4196
  844MPD2    H212406   2.630   4.073  16.648  0.7291 -0.8643  0.2212
  844MPD2    H312407   2.705   4.209  16.851  0.6822 -2.8109  0.7709
  844MPD2     N12408   3.055   4.370  16.629  0.1138 -0.2656  0.3297
  844MPD2    H512409   3.087   4.408  16.541 -1.4206  2.0407  0.7702
  844MPD2    N112410   2.737   4.091  16.408 -0.0873 -0.0194  0.4050
  844MPD2    H712411   2.783   4.114  16.320  0.4734 -0.3838  0.5985
  845MPD2     C12412   3.442   0.517  16.551 -0.0736  0.3150  0.1361
  845MPD2    C112413   3.429   0.469  16.676 -0.4876  0.2326  0.0345
  845MPD2    C212414   3.423   0.337  16.701  0.2330  0.7668 -0.0535
  845MPD2    C312415   3.429   0.244  16.604 -0.4884 -0.2878 -0.6916
  845MPD2    C412416   3.432   0.289  16.478 -0.4137  0.8485 -0.2125
  845MPD2    C512417   3.452   0.421  16.450  0.2269  0.8359  0.0779
  845MPD2     H12418   3.419   0.302  16.803 -0.1062 -0.7497 -0.5841
  845MPD2    H112419   3.431   0.216  16.397  1.7066  1.1447 -0.5113
  845MPD2    H212420   3.451   0.623  16.533  0.5133 -0.2494 -2.8717
  845MPD2    H312421   3.454   0.455  16.347 -1.3742  0.5844 -0.0396
  845MPD2     N12422   3.420   0.110  16.640  0.1917  0.1756 -0.2135
  845MPD2    H512423   3.431   0.089  16.739  0.0254  0.7872 -0.0653
  845MPD2    N112424   3.431   0.568  16.779  0.0060 -0.0703 -0.3805
  845MPD2    H712425   3.419   0.661  16.741  0.0370 -0.9144 -2.4634
  846MPD2     C12426   4.579   0.746  13.628 -0.4693 -0.4462  0.0093
  846MPD2    C112427   4.489   0.843  13.652  0.7288  0.2984 -0.2616
  846MPD2    C212428   4.459   0.880  13.780 -0.2958  0.0413  0.0978
  846MPD2    C312429   4.515   0.809  13.883  0.0365 -0.3269 -0.3737
  846MPD2    C412430   4.601   0.700  13.860 -0.1658 -0.3255 -0.1031
  846MPD2    C512431   4.639   0.682  13.728 -0.4264  0.4641  0.3399
  846MPD2     H12432   4.387   0.956  13.808  0.0195  0.0837  0.7855
  846MPD2    H112433   4.642   0.635  13.936  0.1731  0.0692  0.0561
  846MPD2    H212434   4.616   0.715  13.531  1.4795 -1.9104  1.2298
  846MPD2    H312435   4.688   0.592  13.693 -0.1509 -0.8851  4.1602
  846MPD2     N12436   4.469   0.838  14.012 -0.1856 -0.1709  0.4765
  846MPD2    H512437   4.423   0.928  14.020 -2.0711 -1.0968 -0.1598
  846MPD2    N112438   4.442   0.920  13.538 -0.0283  0.0444  0.1651
  846MPD2    H712439   4.388   1.003  13.560 -0.6595 -0.5439  0.8193
  847MPD2     C12440   0.000   1.741  14.068 -0.3606  0.1180 -0.0027
  847MPD2    C112441   0.051   1.802  14.182  0.7094 -0.4602 -1.1575
  847MPD2    C212442   0.077   1.718  14.290  0.6237 -0.5304  0.3586
  847MPD2    C312443   0.047   1.587  14.280  0.2375 -0.3560  0.4484
  847MPD2    C412444   4.706   1.530  14.170  0.1763 -0.3770  0.0709
  847MPD2    C512445   4.693   1.605  14.060 -0.3069  0.3863  0.0543
  847MPD2     H12446   0.115   1.765  14.380 -0.5500  0.6728  0.2231
  847MPD2    H112447   4.678   1.426  14.169 -0.5519 -0.1883  0.4203
  847MPD2    H212448   4.703   1.791  13.973 -2.0689  0.2852  0.3944
  847MPD2    H312449   4.645   1.562  13.974  0.3788  3.2120 -1.7540
  847MPD2     N12450   0.067   1.516  14.395 -0.6590 -0.1160 -0.6346
  847MPD2    H512451   0.118   1.567  14.466 -1.2385  2.0141 -1.7500
  847MPD2    N112452   0.064   1.939  14.198  0.1358 -0.0482 -0.2526
  847MPD2    H712453   0.100   1.969  14.288  1.6968 -2.3290 -0.1089
  848MPD2     C12454   2.559   0.010  16.283  0.3101 -0.4096  0.2388
  848MPD2    C112455   2.648   0.066  16.363 -0.3396  0.4041 -0.2346
  848MPD2    C212456   2.693   0.199  16.333 -0.2319 -0.6481 -0.6272
  848MPD2    C312457   2.640   0.272  16.224 -0.0515  0.2732 -0.1199
  848MPD2    C412458   2.545   0.209  16.149 -0.1213 -0.8774 -0.3258
  848MPD2    C512459   2.500   0.084  16.189 -0.4171  0.3202  0.2547
  848MPD2     H12460   2.780   0.227  16.392  0.8762 -3.0719 -1.1023
  848MPD2    H112461   2.510   0.254  16.057 -1.3450 -0.8213  0.1557
  848MPD2    H212462   2.517   4.630  16.285 -0.5746 -0.0415  0.1571
  848MPD2    H312463   2.428   0.038  16.123  1.6648  0.0454 -1.8144
  848MPD2     N12464   2.687   0.396  16.174  0.2543 -0.6002  0.2787
  848MPD2    H512465   2.653   0.427  16.083  0.4340 -1.6225 -0.1384
  848MPD2    N112466   2.698   0.004  16.484  0.2729  0.0223  0.1030
  848MPD2    H712467   2.772   0.042  16.542 -1.7081  1.1866  1.8219
  849MPD2     C12468   1.431   4.636  13.822  0.2545 -1.1060  0.4698
  849MPD2    C112469   1.521   0.022  13.812  0.2222 -0.0691  0.3773
  849MPD2    C212470   1.640   4.718  13.874  0.2678  0.0743 -0.5797
  849MPD2    C312471   1.674   4.600  13.940 -0.2309 -0.3149  1.0487
  849MPD2    C412472   1.580   4.502  13.941 -0.7826 -0.5828 -0.5792
  849MPD2    C512473   1.468   4.518  13.873 -0.0449  0.2326 -0.6594
  849MPD2     H12474   1.725   0.064  13.857 -0.7356  1.7397  0.8333
  849MPD2    H112475   1.600   4.405  13.986 -0.0629  0.1268  0.6288
  849MPD2    H212476   1.335   4.643  13.773  0.0934 -0.0280  0.9500
  849MPD2    H312477   1.399   4.435  13.866 -1.3626  1.4018 -1.7635
  849MPD2     N12478   1.795   4.572  14.006 -0.1797 -0.0141 -0.8054
  849MPD2    H512479   1.810   4.476  14.033 -1.8868 -0.3155 -0.9474
  849MPD2    N112480   1.496   0.140  13.733  0.0086  0.1449  0.2452
  849MPD2    H712481   1.411   0.149  13.678  0.4037  0.5301 -0.2953
  850MPD2     C12482   4.321   2.550  14.674  0.1452 -0.0919  0.3431
  850MPD2    C112483   4.403   2.445  14.674 -0.1824 -0.4012  0.2532
  850MPD2    C212484   4.539   2.456  14.712 -0.9971  0.3648  0.0921
  850MPD2    C312485   4.584   2.583  14.740  0.0906 -0.4338 -0.7495
  850MPD2    C412486   4.501   2.694  14.740  0.9689  0.4052 -0.1137
  850MPD2    C512487   4.369   2.677  14.709 -0.6321  0.4184  0.3210
  850MPD2     H12488   4.612   2.375  14.710 -1.1540  0.1464  3.5355
  850MPD2    H112489   4.529   2.796  14.768 -1.0142  1.1761 -0.9468
  850MPD2    H212490   4.219   2.549  14.638  0.3126  0.4015 -0.1430
  850MPD2    H312491   4.294   2.755  14.711 -0.2530  0.8132 -1.0876
  850MPD2     N12492   4.717   2.603  14.769 -0.3580 -0.0240 -0.7086
  850MPD2    H512493   0.024   2.701  14.771  0.2392 -0.1733 -1.5523
  850MPD2    N112494   4.342   2.319  14.642 -0.3275  0.1044 -0.6238
  850MPD2    H712495   4.241   2.323  14.651 -0.1197 -0.4839  2.1659
  851MPD2     C12496   4.631   1.832  15.303  0.1345  0.4377  0.2629
  851MPD2    C112497   4.596   1.793  15.178 -0.1231  0.4150  0.1756
  851MPD2    C212498   4.565   1.663  15.151 -1.3027 -0.4253 -0.0929
  851MPD2    C312499   4.593   1.562  15.242  0.6049 -0.2910  0.0244
  851MPD2    C412500   4.642   1.600  15.366  0.3546  0.0181 -0.4018
  851MPD2    C512501   4.655   1.731  15.394 -0.7504  0.3343 -0.2599
  851MPD2     H12502   4.521   1.635  15.056 -0.8362 -1.2543 -0.0684
  851MPD2    H112503   4.655   1.527  15.445 -2.8109 -0.2813 -0.1301
  851MPD2    H212504   4.623   1.934  15.337 -2.4876  1.3376 -3.0042
  851MPD2    H312505   4.679   1.751  15.497 -1.2597  0.2060 -0.1152
  851MPD2     N12506   4.559   1.427  15.215  0.2545 -0.2740 -0.0957
  851MPD2    H512507   4.505   1.413  15.131 -0.0608  1.9957 -0.2678
  851MPD2    N112508   4.555   1.901  15.099 -0.2161  0.1685 -0.1219
  851MPD2    H712509   4.568   1.992  15.142  1.7858  0.0256 -0.4262
  852MPD2     C12510   3.205   0.424   9.369  0.6301  0.6382 -0.2445
  852MPD2    C112511   3.282   0.388   9.479  0.3123  0.3668 -0.0250
  852MPD2    C212512   3.396   0.463   9.508  0.0703  0.7125 -0.2392
  852MPD2    C312513   3.438   0.570   9.427 -0.0563 -0.5697  0.3639
  852MPD2    C412514   3.349   0.613   9.324  0.7237 -0.4145 -0.0732
  852MPD2    C512515   3.234   0.540   9.297 -0.0065 -0.2852 -0.0906
  852MPD2     H12516   3.457   0.424   9.588  0.6360  0.7760 -0.6427
  852MPD2    H112517   3.371   0.703   9.269  2.5085 -0.0803  1.1498
  852MPD2    H212518   3.117   0.369   9.339  1.9964 -0.4900 -2.2378
  852MPD2    H312519   3.175   0.570   9.211  0.4752  2.5766  0.5595
  852MPD2     N12520   3.550   0.645   9.473  0.2661 -0.1696 -0.3045
  852MPD2    H512521   3.589   0.609   9.559  0.8095 -1.5177 -1.1053
  852MPD2    N112522   3.261   0.268   9.557  0.4615 -0.1647  0.0535
  852MPD2    H712523   3.315   0.244   9.640 -0.0641  2.0177  1.0337
  853MPD2     C12524   0.907   0.059  12.115  0.3415 -0.0776 -0.2391
  853MPD2    C112525   0.817   0.156  12.070  0.3608 -0.6598 -0.3118
  853MPD2    C212526   0.808   0.173  11.930 -0.1902 -0.5777  0.2452
  853MPD2    C312527   0.879   0.092  11.844  1.0696  0.1313 -0.1568
  853MPD2    C412528   0.958   4.706  11.892  0.1586 -0.6428  0.3392
  853MPD2    C512529   0.969   4.693  12.028  0.7864  0.2512 -0.1263
  853MPD2     H12530   0.746   0.254  11.893  2.8597  0.2059 -3.0898
  853MPD2    H112531   1.016   4.642  11.826 -0.4245 -0.0268 -0.7692
  853MPD2    H212532   0.925   0.039  12.220  2.4830 -0.6815 -0.7219
  853MPD2    H312533   1.032   4.613  12.066 -0.7158 -1.2425 -0.7980
  853MPD2     N12534   0.892   0.123  11.710 -0.4259  0.2591  0.3274
  853MPD2    H512535   0.968   0.078  11.660 -0.7841 -0.4944  0.4604
  853MPD2    N112536   0.768   0.244  12.165  0.0251 -0.3374  0.0287
  853MPD2    H712537   0.796   0.227  12.261 -1.3822  1.8616  0.8307
  854MPD2     C12538   2.481   4.714  12.765  0.3092 -0.4570 -0.6774
  854MPD2    C112539   2.538   0.022  12.638 -0.0570  0.5371  0.2518
  854MPD2    C212540   2.652   4.682  12.588  0.2154 -0.7023 -0.3246
  854MPD2    C312541   2.730   4.614  12.683  0.5266 -0.2250  0.1216
  854MPD2    C412542   2.679   4.595  12.808 -0.6003 -0.4821 -0.0674
  854MPD2    C512543   2.559   4.644  12.848 -0.0586  0.3679  0.1649
  854MPD2     H12544   2.695   4.688  12.489  0.3969 -1.6740 -0.3007
  854MPD2    H112545   2.744   4.560  12.887  1.2079  1.7440 -0.5508
  854MPD2    H212546   2.390   0.040  12.801 -0.5498 -1.9828 -0.9430
  854MPD2    H312547   2.539   4.635  12.954 -1.0548  2.6120  0.1677
  854MPD2     N12548   2.859   4.561  12.664 -0.4276 -0.4507 -0.5996
  854MPD2    H512549   2.911   4.531  12.746  0.5358  0.7596 -0.7643
  854MPD2    N112550   2.462   0.110  12.560  0.3688  0.2795 -0.5582
  854MPD2    H712551   2.367   0.116  12.595  0.2443 -1.0607 -0.6419
  855MPD2     C12552   3.730   4.416  13.101 -0.3903  0.0087 -0.5269
  855MPD2    C112553   3.597   4.428  13.140  0.0271 -0.0854  0.0204
  855MPD2    C212554   3.500   4.426  13.042  0.5148  0.1369  0.3359
  855MPD2    C312555   3.540   4.429  12.909  0.7889  0.0014 -0.4201
  855MPD2    C412556   3.666   4.416  12.867  0.2734 -0.6934  0.1260
  855MPD2    C512557   3.766   4.396  12.966 -0.1751 -0.6902 -0.5752
  855MPD2     H12558   3.397   4.433  13.075  1.0991 -1.5553  2.5675
  855MPD2    H112559   3.683   4.412  12.760 -0.8010  1.7632 -0.1381
  855MPD2    H212560   3.815   4.412  13.169 -0.1760  2.2583 -0.6630
  855MPD2    H312561   3.867   4.367  12.943 -0.2625 -0.8891 -0.7103
  855MPD2     N12562   3.451   4.439  12.809  0.7977  0.2628  0.3594
  855MPD2    H512563   3.481   4.442  12.713  1.5207  0.6884  0.5990
  855MPD2    N112564   3.553   4.438  13.272 -0.3289  0.3315  0.0923
  855MPD2    H712565   3.453   4.424  13.285  0.2170 -0.0597  3.7700
  856MPD2     C12566   0.717   1.212  13.896 -0.1961  0.0190  0.9272
  856MPD2    C112567   0.800   1.324  13.874  0.4105 -0.1671 -0.2274
  856MPD2    C212568   0.742   1.435  13.819  0.2754  0.1275 -0.7212
  856MPD2    C312569   0.609   1.439  13.788  0.2923  1.1842  0.2700
  856MPD2    C412570   0.528   1.335  13.815 -0.1700  0.8376  0.4697
  856MPD2    C512571   0.583   1.222  13.876 -0.0825  0.4424 -0.0983
  856MPD2     H12572   0.802   1.525  13.807 -2.6079  2.1005 -0.4369
  856MPD2    H112573   0.422   1.330  13.795 -0.4792 -0.4741  2.3687
  856MPD2    H212574   0.760   1.124  13.942  0.9751 -0.3320 -0.8073
  856MPD2    H312575   0.520   1.136  13.892  0.5569  0.1789  1.0136
  856MPD2     N12576   0.550   1.547  13.723  0.1158  0.6928  1.0943
  856MPD2    H512577   0.458   1.531  13.683  1.1406 -1.9881 -0.1790
  856MPD2    N112578   0.937   1.327  13.901 -0.0962  0.8406 -0.2773
  856MPD2    H712579   0.989   1.414  13.895  0.0010  0.5885 -2.8758
  857MPD2     C12580   1.884   2.955  12.618  0.0058 -0.1834 -0.5666
  857MPD2    C112581   2.016   2.943  12.573  0.0084 -0.3806  0.1880
  857MPD2    C212582   2.093   3.058  12.578  1.0708  0.3326  0.1307
  857MPD2    C312583   2.041   3.179  12.601 -0.4893  0.3143 -0.0896
  857MPD2    C412584   1.906   3.193  12.631  1.1774 -0.9497  0.4434
  857MPD2    C512585   1.830   3.078  12.655 -0.1262 -1.3590 -0.7906
  857MPD2     H12586   2.200   3.055  12.566  0.9060 -1.2865 -0.9796
  857MPD2    H112587   1.854   3.281  12.667  0.3561 -0.9577 -0.7427
  857MPD2    H212588   1.817   2.872  12.640  1.4451 -0.8654  1.2998
  857MPD2    H312589   1.727   3.085  12.688 -0.1839  1.3455 -1.5440
  857MPD2     N12590   2.130   3.288  12.603  0.3421 -0.7720  0.0191
  857MPD2    H512591   2.227   3.265  12.589  0.7569 -1.0945  3.2576
  857MPD2    N112592   2.058   2.813  12.541 -0.1364  0.1125 -0.1092
  857MPD2    H712593   1.994   2.734  12.544 -0.5502  0.3937 -1.5258
  858MPD2     C12594   3.353   1.769  16.921  0.3466  0.4189  0.6328
  858MPD2    C112595   3.434   1.868  16.880 -0.5305  0.3534 -0.2178
  858MPD2    C212596   3.477   1.959  16.974  0.4148 -0.4242 -0.7351
  858MPD2    C312597   3.443   1.956  17.110  0.0900 -0.4480 -0.2233
  858MPD2    C412598   3.360   1.855  17.141 -1.4850  0.1545 -0.6195
  858MPD2    C512599   3.320   1.758  17.052  1.3081 -0.0138 -0.6649
  858MPD2     H12600   3.540   2.037  16.934  0.4730 -0.5208 -0.8345
  858MPD2    H112601   3.321   1.844  17.241 -0.2735  0.1894 -0.1470
  858MPD2    H212602   3.310   1.693  16.857 -1.4101  2.5237 -0.6804
  858MPD2    H312603   3.250   1.680  17.081  0.3963  1.4743  1.1076
  858MPD2     N12604   3.483   2.045  17.211  0.4839 -0.1603  0.3875
  858MPD2    H512605   3.441   2.023  17.301 -1.1596 -0.8711 -0.5521
  858MPD2    N112606   3.452   1.874  16.743  0.5414 -0.0113 -0.4915
  858MPD2    H712607   3.417   1.793  16.693 -2.8068  0.7584  0.6332
  859MPD2     C12608   1.822   4.660  15.334 -0.0028  0.1581 -0.3188
  859MPD2    C112609   1.859   4.618  15.207  0.7880  0.3392 -0.1533
  859MPD2    C212610   1.863   4.480  15.175 -0.3879  0.9097 -0.2387
  859MPD2    C312611   1.821   4.380  15.262 -1.0097 -0.9328 -0.3132
  859MPD2    C412612   1.775   4.429  15.385 -0.3727  0.1554 -0.2123
  859MPD2    C512613   1.782   4.563  15.422  0.2151 -0.7256 -0.3301
  859MPD2     H12614   1.898   4.456  15.075 -1.9160 -1.3263 -0.2315
  859MPD2    H112615   1.733   4.356  15.453 -0.6787 -0.8958 -1.5445
  859MPD2    H212616   1.819   0.043  15.370  0.8231  1.0764 -2.8535
  859MPD2    H312617   1.750   4.580  15.523 -1.2187 -0.7342 -0.7861
  859MPD2     N12618   1.812   4.239  15.235  0.0544  0.1967  0.4087
  859MPD2    H512619   1.784   4.176  15.308 -0.4518 -1.6877 -1.4250
  859MPD2    N112620   1.898   4.719  15.111  0.4010 -0.4068 -0.0781
  859MPD2    H712621   1.927   4.684  15.020  0.6319 -0.7700  0.1362
  860MPD2     C12622   3.957   0.354  11.101 -0.7553 -0.0689  0.4122
  860MPD2    C112623   3.988   0.365  11.231 -0.2870 -0.3207 -0.7446
  860MPD2    C212624   3.902   0.309  11.326  0.8858  0.7004  0.4963
  860MPD2    C312625   3.792   0.236  11.287  1.0165 -0.7210 -0.0487
  860MPD2    C412626   3.757   0.237  11.157 -0.4004 -0.7163 -0.3656
  860MPD2    C512627   3.837   0.295  11.062  0.8307 -0.5938 -0.1839
  860MPD2     H12628   3.926   0.311  11.431  2.2005  0.1372  0.2131
  860MPD2    H112629   3.662   0.197  11.123 -0.1577 -1.5949  0.0081
  860MPD2    H212630   4.030   0.381  11.026 -2.7355 -2.8163 -2.5175
  860MPD2    H312631   3.812   0.286  10.957  0.7080  2.0576 -0.3746
  860MPD2     N12632   3.710   0.175  11.392  0.2437 -0.1377  0.1638
  860MPD2    H512633   3.730   0.208  11.486  1.1724  0.6410 -0.3108
  860MPD2    N112634   4.111   0.415  11.273 -0.1252  0.6409 -0.4240
  860MPD2    H712635   4.134   0.403  11.371 -1.4961  2.3919  0.1190
  861MPD2     C12636   2.416   2.611  10.963 -0.1267 -0.8793 -0.1670
  861MPD2    C112637   2.302   2.609  11.038 -0.8445 -0.0852  0.6993
  861MPD2    C212638   2.180   2.650  10.986 -0.1685  0.1537  0.0397
  861MPD2    C312639   2.172   2.713  10.863 -1.4488  0.1104  0.0803
  861MPD2    C412640   2.290   2.712  10.787  0.0221 -0.2354 -0.0123
  861MPD2    C512641   2.401   2.663  10.838 -0.0736 -0.4011  0.0977
  861MPD2     H12642   2.088   2.636  11.041  0.0102  1.4870  0.6975
  861MPD2    H112643   2.290   2.751  10.686  0.9009 -0.1591  0.0260
  861MPD2    H212644   2.508   2.573  11.006 -0.1290 -3.8462 -2.7649
  861MPD2    H312645   2.485   2.671  10.770 -0.0574  2.4264  0.4564
  861MPD2     N12646   2.060   2.784  10.812 -0.0001 -0.2742  0.4047
  861MPD2    H512647   2.076   2.830  10.723 -1.3991 -0.6586 -0.0445
  861MPD2    N112648   2.307   2.574  11.176  0.2230  0.3998  0.3807
  861MPD2    H712649   2.219   2.594  11.223 -1.8718 -2.2209 -2.4266
  862MPD2     C12650   1.843   2.886  10.229 -0.3601  0.1798  0.4508
  862MPD2    C112651   1.938   2.879  10.331  0.2257 -0.5979  0.9270
  862MPD2    C212652   2.029   2.775  10.330 -0.0685  0.5488  0.3895
  862MPD2    C312653   2.018   2.661  10.250  0.4081  0.2733 -1.3333
  862MPD2    C412654   1.919   2.672  10.151  0.4203 -0.4371  0.0287
  862MPD2    C512655   1.838   2.783  10.142  0.6398  0.7184 -1.1818
  862MPD2     H12656   2.098   2.775  10.414 -1.3625 -2.9107  1.4550
  862MPD2    H112657   1.908   2.585  10.087  0.8336  0.7764 -1.6868
  862MPD2    H212658   1.769   2.965  10.233 -0.9953 -0.3934  0.0675
  862MPD2    H312659   1.756   2.775  10.071  2.0602 -0.3979 -2.7006
  862MPD2     N12660   2.089   2.543  10.265 -0.4114  0.7842 -0.2883
  862MPD2    H512661   2.092   2.478  10.188 -2.4271 -0.8179  0.9905
  862MPD2    N112662   1.935   2.949  10.453 -0.0226  0.5640  0.1637
  862MPD2    H712663   2.005   2.935  10.525 -0.9905 -1.3470  0.7405
  863MPD2     C12664   1.774   0.898  16.621  0.6389 -0.7446 -0.0718
  863MPD2    C112665   1.735   1.018  16.689  0.2466 -0.4025  0.2855
  863MPD2    C212666   1.802   1.052  16.808 -0.2938  0.1610 -0.0802
  863MPD2    C312667   1.902   0.972  16.857 -1.2509  0.0717 -0.5026
  863MPD2    C412668   1.926   0.856  16.787 -0.4852  0.1429 -0.2170
  863MPD2    C512669   1.863   0.820  16.673 -0.8521  0.1034 -0.6977
  863MPD2     H12670   1.786   1.147  16.858  1.8463 -0.6837  2.2333
  863MPD2    H112671   1.991   0.781  16.830  0.3985  1.3468  0.5337
  863MPD2    H212672   1.736   0.869  16.524  1.5530 -0.4722 -0.5110
  863MPD2    H312673   1.879   0.724  16.625  1.3060  0.8932 -1.5575
  863MPD2     N12674   1.981   1.002  16.971 -0.4333  0.2691  0.3088
  863MPD2    H512675   2.045   0.934  17.010  0.6198  0.9133 -0.3059
  863MPD2    N112676   1.620   1.088  16.646  0.0746  0.0393  0.2011
  863MPD2    H712677   1.586   1.069  16.553 -1.3319  0.2858  0.6667
  864MPD2     C12678   2.562   2.382  17.421 -0.4527  0.3188  0.0045
  864MPD2    C112679   2.584   2.327  17.301 -0.3661 -0.9107 -0.1894
  864MPD2    C212680   2.617   2.411  17.197 -0.1833  0.6358  0.0755
  864MPD2    C312681   2.628   2.547  17.214 -0.1325 -0.1241  0.0968
  864MPD2    C412682   2.585   2.604  17.332 -0.1887  0.6568 -0.0292
  864MPD2    C512683   2.548   2.519  17.437 -0.6190  0.1734  0.1838
  864MPD2     H12684   2.642   2.370  17.100  0.9522  0.4971  0.4253
  864MPD2    H112685   2.581   2.711  17.343 -1.3366  0.7177 -1.0361
  864MPD2    H212686   2.540   2.327  17.512  0.5146 -1.7948 -1.0316
  864MPD2    H312687   2.529   2.559  17.537  0.6048 -1.4001  1.0535
  864MPD2     N12688   2.662   2.634  17.103  0.2097  0.3024  0.4647
  864MPD2    H512689   2.655   2.735  17.117 -0.7608  0.1579  1.0531
  864MPD2    N112690   2.574   2.188  17.300  0.2518  0.0307 -0.8140
  864MPD2    H712691   2.536   2.138  17.380  1.3089  1.7285  0.7525
  865MPD2     C12692   2.383   2.853  16.244 -1.1980  0.6014 -0.0208
  865MPD2    C112693   2.425   2.753  16.324  0.2339  0.1162  0.0379
  865MPD2    C212694   2.474   2.796  16.445  0.4941  0.6640 -0.3306
  865MPD2    C312695   2.488   2.928  16.483 -0.0217 -0.0537  1.0468
  865MPD2    C412696   2.454   3.028  16.397  0.2014  0.0162 -0.1077
  865MPD2    C512697   2.406   2.987  16.278  0.4887  0.1680  0.2116
  865MPD2     H12698   2.506   2.716  16.512 -1.1547 -0.3040 -0.6793
  865MPD2    H112699   2.478   3.132  16.413 -0.6351  0.0708  0.7881
  865MPD2    H212700   2.347   2.826  16.145  1.1849  1.4924 -1.1160
  865MPD2    H312701   2.375   3.058  16.202 -1.6225 -0.9791 -0.0094
  865MPD2     N12702   2.527   2.969  16.610 -0.2170 -0.0392 -0.5679
  865MPD2    H512703   2.568   3.061  16.625  1.8535 -1.1697  0.6475
  865MPD2    N112704   2.426   2.618  16.281 -0.1631 -0.6224  0.6592
  865MPD2    H712705   2.391   2.595  16.189 -3.3505 -0.1840  1.7512
  866MPD2     C12706   3.259   2.491  10.984  0.1874 -0.7451  0.7910
  866MPD2    C112707   3.270   2.590  10.891  0.3300  0.8753  0.4212
  866MPD2    C212708   3.173   2.685  10.889  0.3649 -0.0466  0.6995
  866MPD2    C312709   3.062   2.685  10.979  0.4152  0.7406 -1.0733
  866MPD2    C412710   3.058   2.578  11.071  0.4228 -0.1360  0.1085
  866MPD2    C512711   3.162   2.492  11.077 -0.1051  0.6381  0.5040
  866MPD2     H12712   3.165   2.760  10.811 -0.4174  1.0463  1.8357
  866MPD2    H112713   2.978   2.566  11.143 -0.5375  1.4677 -0.6880
  866MPD2    H212714   3.345   2.426  10.992 -1.4014 -2.7099  2.0439
  866MPD2    H312715   3.168   2.430  11.165 -1.7118  0.3731  0.4177
  866MPD2     N12716   2.948   2.770  10.983 -0.1600  0.4234  0.3362
  866MPD2    H512717   2.865   2.741  11.034 -0.5179 -1.2212 -1.1597
  866MPD2    N112718   3.380   2.573  10.797 -0.3842  1.3361  0.4627
  866MPD2    H712719   3.442   2.493  10.809  0.8433  2.1777 -0.2785
  867MPD2     C12720   1.750   2.570  16.434  0.5157 -0.2224  0.7000
  867MPD2    C112721   1.812   2.554  16.560 -0.5890 -0.0846 -1.0327
  867MPD2    C212722   1.872   2.663  16.621 -0.1851  0.1281 -0.2356
  867MPD2    C312723   1.879   2.788  16.562 -0.5008  0.1046 -0.2418
  867MPD2    C412724   1.799   2.808  16.456 -0.2788 -0.2439  0.1967
  867MPD2    C512725   1.740   2.701  16.396 -0.7082  0.0936 -0.3837
  867MPD2     H12726   1.941   2.641  16.702 -0.0116 -0.7739 -0.6206
  867MPD2    H112727   1.802   2.905  16.406  0.5858  0.7582  2.1721
  867MPD2    H212728   1.695   2.494  16.381  0.6490  1.5083 -1.9192
  867MPD2    H312729   1.670   2.714  16.314 -1.9772 -0.8680  0.5579
  867MPD2     N12730   1.946   2.901  16.608 -0.1878  0.0660  1.0742
  867MPD2    H512731   1.927   2.987  16.558 -0.6412 -0.9033 -0.4359
  867MPD2    N112732   1.814   2.428  16.614  0.3086  0.1983 -0.0924
  867MPD2    H712733   1.747   2.367  16.568 -1.2165  0.3897  1.8304
  868MPD2     C12734   2.456   0.360  12.808 -0.5255 -0.4387  0.3311
  868MPD2    C112735   2.485   0.494  12.807  0.4475  0.2990 -0.5406
  868MPD2    C212736   2.381   0.591  12.824 -0.3603  0.0541 -0.7470
  868MPD2    C312737   2.256   0.548  12.849 -0.1891  0.5305 -0.5258
  868MPD2    C412738   2.226   0.413  12.857 -0.1469 -0.3040 -0.4652
  868MPD2    C512739   2.330   0.320  12.844 -0.1702  0.5808  0.1011
  868MPD2     H12740   2.409   0.696  12.823 -0.9478  0.2207  2.0355
  868MPD2    H112741   2.133   0.377  12.899  1.3612 -2.1922  1.2627
  868MPD2    H212742   2.531   0.282  12.805 -0.1663 -0.0977  0.5558
  868MPD2    H312743   2.306   0.220  12.876  0.3964  0.5292  0.3714
  868MPD2     N12744   2.158   0.648  12.887 -0.3328 -0.3937 -0.1518
  868MPD2    H512745   2.202   0.739  12.889 -1.4684  0.1555 -0.4975
  868MPD2    N112746   2.618   0.527  12.787 -0.0412  0.2052  0.2174
  868MPD2    H712747   2.683   0.450  12.789 -1.1557 -0.7322  0.5189
  869MPD2     C12748   0.453   4.083   1.829 -0.7536 -0.1491  0.4740
  869MPD2    C112749   0.387   3.984   1.766 -0.9953 -0.2089  0.0439
  869MPD2    C212750   0.283   4.011   1.682  0.2419  0.3864  0.2103
  869MPD2    C312751   0.260   4.146   1.642 -0.0658  0.5848  1.2104
  869MPD2    C412752   0.327   4.244   1.707  0.2029 -0.4971  0.0612
  869MPD2    C512753   0.418   4.211   1.802  0.1214  0.2411 -0.2006
  869MPD2     H12754   0.254   3.926   1.622 -2.7416 -0.1540  2.4060
  869MPD2    H112755   0.323   4.348   1.675 -0.8033 -0.1619  1.2765
  869MPD2    H212756   0.530   4.058   1.901  1.6308  0.3547 -1.9005
  869MPD2    H312757   0.469   4.297   1.844  0.9543 -0.4129  0.1320
  869MPD2     N12758   0.183   4.173   1.526  0.3169 -0.2400 -0.6239
  869MPD2    H512759   0.186   4.270   1.496  1.7472 -0.6488 -1.7465
  869MPD2    N112760   0.426   3.849   1.789  0.9421  0.2990 -0.2478
  869MPD2    H712761   0.358   3.780   1.755  0.5697 -1.0088  3.1492
  870MPD2     C12762   3.682   3.655   1.863  0.1930  0.0629 -0.3835
  870MPD2    C112763   3.781   3.621   1.776 -0.3030  0.1733  0.6660
  870MPD2    C212764   3.815   3.709   1.678 -0.1434 -0.2611  0.1900
  870MPD2    C312765   3.741   3.820   1.652  0.1263  0.1541 -0.3437
  870MPD2    C412766   3.647   3.856   1.745 -0.2883 -0.2849 -0.2359
  870MPD2    C512767   3.616   3.778   1.854  0.1660 -0.2173 -0.5748
  870MPD2     H12768   3.889   3.685   1.602  2.0072  0.1359  2.1606
  870MPD2    H112769   3.593   3.950   1.746  0.2271 -0.0005  0.3772
  870MPD2    H212770   3.651   3.592   1.946 -0.7745  2.1837  0.8598
  870MPD2    H312771   3.539   3.804   1.926  0.7463  0.4880 -0.2057
  870MPD2     N12772   3.776   3.898   1.539 -0.6084 -0.5149 -0.2615
  870MPD2    H512773   3.867   3.875   1.501 -1.2670 -1.1242 -1.4944
  870MPD2    N112774   3.861   3.506   1.791 -0.4498  0.0809 -0.0300
  870MPD2    H712775   3.825   3.445   1.864 -0.9243 -0.6638 -0.9032
  871MPD2     C12776   4.693   2.577  16.353  0.2955 -0.0016  0.2114
  871MPD2    C112777   4.706   2.571  16.493  0.0580 -0.5221  0.1884
  871MPD2    C212778   0.016   2.447  16.544  0.0703  0.7496  0.1173
  871MPD2    C312779   0.030   2.329  16.469 -0.0088  0.3207  0.5255
  871MPD2    C412780   0.005   2.344  16.336  0.2080 -0.4013 -0.7483
  871MPD2    C512781   4.694   2.461  16.280  0.9498 -0.4878  0.1836
  871MPD2     H12782   0.042   2.426  16.647  1.5542 -1.1907 -0.6477
  871MPD2    H112783   4.713   2.264  16.264 -2.7410  1.3008 -2.1570
  871MPD2    H212784   4.679   2.674  16.307 -0.9371  0.2235  1.0778
  871MPD2    H312785   4.671   2.471  16.174 -1.6633 -0.0040  0.8081
  871MPD2     N12786   0.068   2.205  16.529 -0.0289 -0.4991  0.0149
  871MPD2    H512787   0.108   2.212  16.623  1.1141 -1.5069 -0.3982
  871MPD2    N112788   4.699   2.693  16.568 -0.3714  0.0943 -0.0923
  871MPD2    H712789   4.683   2.775  16.511 -0.5920 -0.1520 -0.3915
  872MPD2     C12790   0.656   0.445  13.459 -0.6721 -0.2933  0.0305
  872MPD2    C112791   0.684   0.505  13.582  0.5961  0.0307 -0.3685
  872MPD2    C212792   0.592   0.499  13.689  0.1101  0.0688  0.4067
  872MPD2    C312793   0.468   0.453  13.677  0.6612  0.4847 -0.3564
  872MPD2    C412794   0.433   0.410  13.550 -0.1910  0.5490  0.1126
  872MPD2    C512795   0.523   0.407  13.444 -0.0447 -0.3501  1.0534
  872MPD2     H12796   0.630   0.545  13.779 -2.6818  2.5932  0.2909
  872MPD2    H112797   0.335   0.371  13.527 -0.7589  0.9134  1.9094
  872MPD2    H212798   0.722   0.444  13.372  0.2326  1.2506  0.6882
  872MPD2    H312799   0.486   0.363  13.352 -0.6134 -0.3527  1.2811
  872MPD2     N12800   0.369   0.444  13.781 -0.3782  0.5710  0.8419
  872MPD2    H512801   0.281   0.398  13.761  0.0741  0.9107 -1.8997
  872MPD2    N112802   0.799   0.586  13.603  0.6291  0.1315  0.6935
  872MPD2    H712803   0.797   0.630  13.694  0.5793 -1.2400  1.3533
  873MPD2     C12804   2.534   0.333   0.674  0.2923  0.1307 -0.6442
  873MPD2    C112805   2.643   0.297   0.750  0.2140 -0.3068 -0.0330
  873MPD2    C212806   2.691   0.169   0.739  0.1163  0.3184  0.6564
  873MPD2    C312807   2.645   0.079   0.646  0.7753  0.0631 -0.4416
  873MPD2    C412808   2.544   0.124   0.563  0.6560 -0.8131  0.0912
  873MPD2    C512809   2.484   0.245   0.580  0.2116 -0.0395 -0.4479
  873MPD2     H12810   2.772   0.138   0.803  0.2242  0.0963  0.4086
  873MPD2    H112811   2.499   0.053   0.493  2.3782 -3.4954  1.7061
  873MPD2    H212812   2.482   0.428   0.681 -1.8233 -1.1158  0.5644
  873MPD2    H312813   2.396   0.272   0.523  0.6723 -0.0006 -1.1358
  873MPD2     N12814   2.703   4.672   0.631  0.3787  0.0604  0.1823
  873MPD2    H512815   2.652   4.614   0.564  1.6497 -0.0392 -0.6911
  873MPD2    N112816   2.695   0.400   0.835 -0.2398 -0.2872 -0.4176
  873MPD2    H712817   2.653   0.492   0.828  0.7001  0.1285 -0.5914
  874MPD2     C12818   2.111   0.448  16.059 -0.0346 -0.8185 -0.3770
  874MPD2    C112819   2.203   0.425  16.161  0.8906 -0.4575  0.8591
  874MPD2    C212820   2.315   0.502  16.166 -0.6369  0.0441  0.9164
  874MPD2    C312821   2.346   0.589  16.060  0.8206 -0.2724  0.5619
  874MPD2    C412822   2.255   0.610  15.961 -0.4845 -0.1792  0.2589
  874MPD2    C512823   2.137   0.537  15.960  0.0755  0.2135 -0.3032
  874MPD2     H12824   2.382   0.488  16.251 -0.9957  0.9358  1.3472
  874MPD2    H112825   2.268   0.685  15.883 -1.2730  2.1039  2.3262
  874MPD2    H212826   2.026   0.386  16.035 -0.2861  0.1839 -2.0497
  874MPD2    H312827   2.070   0.540  15.874  0.1322 -0.7626 -0.3821
  874MPD2     N12828   2.459   0.673  16.079  0.2860 -0.9003 -0.0587
  874MPD2    H512829   2.508   0.662  16.168  1.9114  2.8286 -0.5066
  874MPD2    N112830   2.177   0.321  16.251 -0.3949 -0.0538  0.1936
  874MPD2    H712831   2.095   0.263  16.237 -0.9902  1.5643 -3.0132
  875MPD2     C12832   3.180   3.344  14.435  0.5508 -0.7078 -0.0839
  875MPD2    C112833   3.054   3.403  14.404 -0.5042  0.3777  0.0029
  875MPD2    C212834   3.005   3.494  14.488  0.0430  0.1938  0.0944
  875MPD2    C312835   3.061   3.527  14.609 -0.5951  0.1526  0.5175
  875MPD2    C412836   3.189   3.477  14.627  0.5137 -0.4062  0.5562
  875MPD2    C512837   3.238   3.377  14.551  0.2496  0.3403  0.0627
  875MPD2     H12838   2.913   3.542  14.456 -0.4873 -0.0729  1.2437
  875MPD2    H112839   3.238   3.499  14.721 -0.0033  1.8092  0.3099
  875MPD2    H212840   3.242   3.290  14.364  1.0035 -2.0948  1.3676
  875MPD2    H312841   3.334   3.333  14.578  1.6842  2.3139 -1.7697
  875MPD2     N12842   3.015   3.618  14.700  0.3864 -0.3680 -0.5848
  875MPD2    H512843   3.060   3.637  14.788 -0.9476  0.6465 -0.1252
  875MPD2    N112844   2.996   3.383  14.274 -0.0216  0.3996  1.0858
  875MPD2    H712845   2.917   3.436  14.239  1.0020  1.4959  0.3878
  876MPD2     C12846   2.325   0.243  15.781 -0.4779 -0.0333  0.5592
  876MPD2    C112847   2.397   0.166  15.692 -0.7088  0.1211 -0.1649
  876MPD2    C212848   2.404   0.034  15.705  0.8283 -0.0244  0.4375
  876MPD2    C312849   2.344   4.697  15.812  0.3340 -0.0278  0.3968
  876MPD2    C412850   2.273   0.053  15.901 -0.1314 -0.1938  0.1382
  876MPD2    C512851   2.261   0.187  15.881 -0.2194  0.0195 -0.0410
  876MPD2     H12852   2.456   4.681  15.643  0.5025  1.0457 -1.1054
  876MPD2    H112853   2.230   0.010  15.991 -0.5204 -0.4407 -0.1638
  876MPD2    H212854   2.298   0.348  15.774 -0.8946 -0.1980 -0.3179
  876MPD2    H312855   2.205   0.246  15.953  2.0044  0.7043  1.1071
  876MPD2     N12856   2.370   4.562  15.837  0.2230  0.4749 -0.0221
  876MPD2    H512857   2.399   4.516  15.751 -0.3088  0.6938 -0.3176
  876MPD2    N112858   2.466   0.236  15.596 -0.1291  0.4889  0.2124
  876MPD2    H712859   2.461   0.338  15.594  0.2313  0.4306 -3.8981
  877MPD2     C12860   2.225   0.706  15.049  0.1029  0.2259 -0.1656
  877MPD2    C112861   2.347   0.661  15.004  0.0009  0.4479 -0.5055
  877MPD2    C212862   2.387   0.684  14.872  0.6277  0.1416 -0.4934
  877MPD2    C312863   2.304   0.743  14.780 -1.0141  0.3897  0.0652
  877MPD2    C412864   2.183   0.790  14.822  0.3810 -0.0072 -0.1054
  877MPD2    C512865   2.139   0.766  14.952 -0.2409  0.2750 -0.0069
  877MPD2     H12866   2.484   0.648  14.839 -0.5756 -2.8546 -0.7848
  877MPD2    H112867   2.110   0.828  14.752  1.4999  3.0056  0.3640
  877MPD2    H212868   2.188   0.694  15.150  0.3972  1.3905  0.0865
  877MPD2    H312869   2.039   0.799  14.979 -1.4618 -0.2701 -3.8290
  877MPD2     N12870   2.325   0.745  14.639  0.0333 -0.2125  0.0935
  877MPD2    H512871   2.244   0.785  14.592 -0.7756 -2.2388 -0.2504
  877MPD2    N112872   2.442   0.592  15.087  0.1836 -0.1137  0.6111
  877MPD2    H712873   2.530   0.566  15.044  1.3589  1.4551  2.1182
  878MPD2     C12874   1.317   0.130  12.808  0.3304  0.1195 -0.0138
  878MPD2    C112875   1.450   0.100  12.813  0.8659  0.0537 -0.0770
  878MPD2    C212876   1.512   0.092  12.937 -0.7083 -0.2482 -0.5354
  878MPD2    C312877   1.440   0.111  13.052  0.1732  0.2391  0.2304
  878MPD2    C412878   1.299   0.142  13.045  0.2405 -0.0132 -0.2030
  878MPD2    C512879   1.244   0.159  12.922 -0.7681 -0.6219  0.4642
  878MPD2     H12880   1.619   0.077  12.947 -0.2678  3.1814 -0.0940
  878MPD2    H112881   1.235   0.164  13.129 -2.4331 -1.7840 -1.7794
  878MPD2    H212882   1.270   0.145  12.711 -0.1597  0.0325  0.2104
  878MPD2    H312883   1.139   0.184  12.922 -1.0369 -1.7444  1.1809
  878MPD2     N12884   1.518   0.086  13.162 -0.0996 -0.0418  0.0102
  878MPD2    H512885   1.616   0.068  13.141  0.1996  1.0346  0.4755
  878MPD2    N112886   1.523   0.095  12.695 -0.3812  0.5723 -0.5138
  878MPD2    H712887   1.468   0.117  12.612  1.0758 -0.0382 -1.6362
  879MPD2     C12888   2.467   1.314  16.970  0.2190 -0.1454 -0.2759
  879MPD2    C112889   2.505   1.183  16.996 -0.1430  0.2891  0.0931
  879MPD2    C212890   2.436   1.079  16.932  0.1265  1.1565 -0.3477
  879MPD2    C312891   2.343   1.103  16.840 -0.6324 -0.0118 -0.1846
  879MPD2    C412892   2.302   1.232  16.826 -0.1230 -0.1673  0.6225
  879MPD2    C512893   2.372   1.338  16.874  0.1740 -0.7829  0.5094
  879MPD2     H12894   2.471   0.978  16.949  1.1681  1.4318 -0.8094
  879MPD2    H112895   2.219   1.258  16.761  0.2624 -0.5487 -0.0240
  879MPD2    H212896   2.522   1.394  17.018 -0.4978 -1.5453  2.8790
  879MPD2    H312897   2.353   1.442  16.851 -0.4437 -0.6500  1.6253
  879MPD2     N12898   2.285   1.002  16.751 -0.2964  0.3904  0.3725
  879MPD2    H512899   2.233   1.036  16.671  1.2905 -1.1164 -1.2787
  879MPD2    N112900   2.606   1.162  17.090  0.3922 -0.0554  0.6839
  879MPD2    H712901   2.647   1.252  17.112 -0.8622  0.7366 -0.2341
  880MPD2     C12902   4.208   3.210   1.090  0.1639 -0.0141  0.3148
  880MPD2    C112903   4.123   3.150   0.999 -0.5810 -0.4148  0.4937
  880MPD2    C212904   4.069   3.030   1.044 -0.0793 -0.3805 -0.0997
  880MPD2    C312905   4.093   2.973   1.167 -1.2496  0.2619  0.2892
  880MPD2    C412906   4.174   3.036   1.250 -0.4030  0.3685 -0.5998
  880MPD2    C512907   4.240   3.152   1.211 -0.0882 -1.0352  0.5882
  880MPD2     H12908   4.011   2.973   0.973 -0.0064  0.3570 -0.7525
  880MPD2    H112909   4.203   2.987   1.342 -0.9329  0.6880 -0.2608
  880MPD2    H212910   4.257   3.305   1.079  1.3154 -0.4334  1.7906
  880MPD2    H312911   4.310   3.197   1.281  0.3762 -0.4143 -0.2594
  880MPD2     N12912   4.024   2.851   1.201  0.9244  0.1850  0.1229
  880MPD2    H512913   3.959   2.813   1.133  1.0208  1.6060 -0.7695
  880MPD2    N112914   4.084   3.223   0.883  0.3323 -0.3531  0.2723
  880MPD2    H712915   4.110   3.321   0.881 -1.6484  0.1770  0.6290
  881MPD2     C12916   3.540   3.364  17.626 -0.0041  0.3274  0.2106
  881MPD2    C112917   3.667   3.309  17.635 -0.4332  0.6161  0.4018
  881MPD2    C212918   3.729   3.316   0.076  0.5826  0.0825 -0.2259
  881MPD2    C312919   3.663   3.363   0.196  0.0516  0.2650  0.3047
  881MPD2    C412920   3.533   3.413   0.186 -0.0877  0.2318 -0.3637
  881MPD2    C512921   3.473   3.410   0.057  0.1460  0.9126  0.4587
  881MPD2     H12922   3.832   3.285   0.089  0.0568 -1.3030  0.6519
  881MPD2    H112923   3.489   3.469   0.267  0.0241  0.1898 -0.2735
  881MPD2    H212924   3.492   3.384  17.531  0.0513 -0.1996  0.0703
  881MPD2    H312925   3.383   3.470   0.047 -0.0187  0.5046 -0.4714
  881MPD2     N12926   3.726   3.374   0.317  0.0811  0.0477 -0.2260
  881MPD2    H512927   3.686   3.433   0.389 -2.9990 -2.0014 -0.2369
  881MPD2    N112928   3.736   3.292  17.516 -0.1098  0.0305  0.0277
  881MPD2    H712929   3.687   3.288  17.427 -1.7728 -1.7289  1.0379
  882MPD2     C12930   2.173   0.420  14.009  0.3407  0.0422  0.1357
  882MPD2    C112931   2.131   0.547  14.039  0.0486 -0.1902 -0.5017
  882MPD2    C212932   2.001   0.589  14.011  0.8538 -1.1324  0.4327
  882MPD2    C312933   1.904   0.504  13.969 -0.6988  0.2927 -0.1512
  882MPD2    C412934   1.949   0.380  13.924  0.4926 -0.5385  0.2064
  882MPD2    C512935   2.078   0.334  13.958 -0.2198  0.0885 -0.5135
  882MPD2     H12936   1.970   0.681  14.060  0.9617 -1.7475  1.6710
  882MPD2    H112937   1.882   0.299  13.896 -0.4800 -0.1668  1.4397
  882MPD2    H212938   2.272   0.382  14.031 -0.0070 -1.2892 -0.6339
  882MPD2    H312939   2.115   0.234  13.939 -0.9426 -0.4981  1.1724
  882MPD2     N12940   1.769   0.527  13.965  0.3640 -0.0033 -0.5932
  882MPD2    H512941   1.708   0.451  13.939 -1.7564  1.2014  0.9224
  882MPD2    N112942   2.230   0.633  14.095  0.2593 -0.2481 -0.6526
  882MPD2    H712943   2.325   0.600  14.107 -0.2776 -0.6611  2.5050
  883MPD2     C12944   4.398   0.257  16.651  0.1700 -0.2197  0.1716
  883MPD2    C112945   4.463   0.290  16.534 -0.7223  0.2203 -0.9081
  883MPD2    C212946   4.586   0.341  16.546  0.2544  0.1562  0.0765
  883MPD2    C312947   4.659   0.357  16.662  0.1866 -0.3049 -0.5985
  883MPD2    C412948   4.594   0.319  16.780 -0.2263 -0.0267  0.2092
  883MPD2    C512949   4.467   0.272  16.772  0.0789 -0.0298 -0.4668
  883MPD2     H12950   4.633   0.370  16.453 -2.9145  0.4518 -1.4443
  883MPD2    H112951   4.653   0.314  16.871 -0.7036  1.1726  0.5873
  883MPD2    H212952   4.297   0.220  16.650 -0.0896  0.5010 -0.8856
  883MPD2    H312953   4.426   0.240  16.868  2.5295 -2.0704 -0.0833
  883MPD2     N12954   0.068   0.415  16.647  0.5121  0.4753  0.1169
  883MPD2    H512955   0.100   0.448  16.557 -1.1796  1.0605 -0.2527
  883MPD2    N112956   4.410   0.272  16.404  0.2104 -0.0948 -0.4949
  883MPD2    H712957   4.459   0.315  16.326  1.6007 -2.4714 -0.9536
  884MPD2     C12958   1.087   1.456  15.442 -0.1167 -0.4437 -0.3017
  884MPD2    C112959   1.085   1.552  15.348 -0.2553 -0.3077 -0.2328
  884MPD2    C212960   0.962   1.558  15.276 -0.1558 -0.0194  0.1328
  884MPD2    C312961   0.852   1.477  15.296 -0.4545 -0.8799  0.1790
  884MPD2    C412962   0.858   1.378  15.390 -0.3025  0.1027  0.6922
  884MPD2    C512963   0.980   1.368  15.463  0.4629 -0.4199 -0.5069
  884MPD2     H12964   0.954   1.637  15.202  2.2261 -0.0482 -0.1483
  884MPD2    H112965   0.775   1.312  15.412 -0.4897  0.3686  0.7898
  884MPD2    H212966   1.172   1.435  15.506  0.1104  1.4091 -0.0173
  884MPD2    H312967   0.981   1.295  15.543  1.7049  0.0408 -0.0902
  884MPD2     N12968   0.739   1.512  15.224 -0.2089 -0.9896  0.7185
  884MPD2    H512969   0.751   1.573  15.144 -0.8509 -1.8278 -0.0151
  884MPD2    N112970   1.189   1.642  15.312  0.4656 -0.1329  0.1099
  884MPD2    H712971   1.151   1.712  15.249  1.2711  0.9445  0.8064
  885MPD2     C12972   4.335   1.380   0.063 -0.5808  0.0439 -0.3107
  885MPD2    C112973   4.461   1.411   0.006  0.6090 -0.0675 -0.6895
  885MPD2    C212974   4.494   1.372  17.560  0.5523  0.1562 -0.5637
  885MPD2    C312975   4.399   1.345  17.471  0.5689  0.9492  0.0334
  885MPD2    C412976   4.274   1.318  17.523  0.5449  0.1813 -0.9658
  885MPD2    C512977   4.244   1.337  17.658 -0.8401  0.0838 -0.4856
  885MPD2     H12978   4.592   1.373  17.514 -0.4381  0.0252 -2.7101
  885MPD2    H112979   4.192   1.293  17.456 -1.7279  1.1308  1.4456
  885MPD2    H212980   4.310   1.396   0.167 -1.7001  0.9427 -0.7128
  885MPD2    H312981   4.142   1.323   0.010 -0.6867 -3.2385 -1.3500
  885MPD2     N12982   4.426   1.324  17.335  0.3436  0.3391  0.3024
  885MPD2    H512983   4.519   1.351  17.305 -0.2073  0.6422 -1.1529
  885MPD2    N112984   4.548   1.470   0.099 -0.3989  0.5165  0.0616
  885MPD2    H712985   4.506   1.496   0.188 -0.3581 -2.1078  0.8599
  886MPD2     C12986   0.822   0.221  15.433 -0.1349  0.6762  0.3552
  886MPD2    C112987   0.877   0.220  15.305  0.5572 -0.4314 -0.7855
  886MPD2    C212988   0.909   0.344  15.247  0.5939  1.2821  0.5440
  886MPD2    C312989   0.906   0.461  15.324 -0.3860 -0.1965 -0.4017
  886MPD2    C412990   0.868   0.456  15.456  0.0504  0.0620  0.7149
  886MPD2    C512991   0.827   0.336  15.501  0.0446 -0.1792  0.1341
  886MPD2     H12992   0.937   0.356  15.143  0.0331  2.8149  0.5593
  886MPD2    H112993   0.876   0.535  15.530  1.0820 -0.4735  1.1723
  886MPD2    H212994   0.801   0.129  15.485 -1.6932  0.2321 -1.0517
  886MPD2    H312995   0.815   0.335  15.608  1.8127 -0.0864  0.3265
  886MPD2     N12996   0.950   0.584  15.268 -0.2450  0.1664  0.2347
  886MPD2    H512997   0.959   0.595  15.167  1.0070  0.5626  0.3841
  886MPD2    N112998   0.880   0.109  15.220  0.1268  0.0186 -0.0624
  886MPD2    H712999   0.890   0.114  15.119 -0.1607  2.2669  0.0013
  887MPD2     C13000   1.328   0.196  14.909  0.7485  0.9186  0.2798
  887MPD2    C113001   1.275   0.139  15.027  0.7256  0.0215 -0.2226
  887MPD2    C213002   1.274   0.210  15.145 -0.2584 -0.2025 -0.2717
  887MPD2    C313003   1.318   0.345  15.135  0.1934 -0.7246  0.0334
  887MPD2    C413004   1.365   0.400  15.016  0.2302  0.0204  0.3320
  887MPD2    C513005   1.379   0.323  14.900 -0.3887  0.1938  0.4917
  887MPD2     H13006   1.228   0.173  15.236 -1.6464  1.9521 -0.1004
  887MPD2    H113007   1.385   0.507  15.016  1.4490 -0.1914 -1.0946
  887MPD2    H213008   1.322   0.142  14.815 -2.1065  1.1965  0.2827
  887MPD2    H313009   1.419   0.362  14.807 -1.1685  0.8038  0.4112
  887MPD2     N13010   1.320   0.433  15.242 -0.1317  0.2739  0.2780
  887MPD2    H513011   1.344   0.529  15.219  0.9541 -0.0311  0.1454
  887MPD2    N113012   1.207   0.020  15.026 -0.5024 -1.0048  0.2685
  887MPD2    H713013   1.189   4.703  15.119  1.7174  0.1400  1.1510
  888MPD2     C13014   3.359   4.642  14.870  0.0237 -0.6562 -0.6497
  888MPD2    C113015   3.273   4.711  14.955  0.0731  0.4769 -0.4763
  888MPD2    C213016   3.282   0.124  14.962  0.6483 -0.1911 -0.1258
  888MPD2    C313017   3.360   0.199  14.875  0.4203  0.6771 -0.2365
  888MPD2    C413018   3.453   0.133  14.795 -0.0477 -0.6014  0.0341
  888MPD2    C513019   3.451   4.718  14.803 -0.0598  0.3627 -0.0346
  888MPD2     H13020   3.213   0.173  15.029  1.3847  3.6317 -2.1314
  888MPD2    H113021   3.523   0.185  14.731 -0.9602  0.3457 -0.2046
  888MPD2    H213022   3.370   4.534  14.874  0.7782 -0.5638 -0.3123
  888MPD2    H313023   3.531   4.666  14.751 -1.0625 -0.6895 -0.5137
  888MPD2     N13024   3.360   0.339  14.885 -0.1825 -0.0963 -0.1311
  888MPD2    H513025   3.295   0.385  14.948 -1.5249 -2.1156 -0.0553
  888MPD2    N113026   3.176   4.638  15.027  0.1634 -0.0797 -0.1626
  888MPD2    H713027   3.132   4.670  15.113  0.3662  1.2585 -0.5598
  889MPD2     C13028   2.339   4.154  12.538  0.2378  0.3892  0.1613
  889MPD2    C113029   2.301   4.086  12.654  0.5217 -0.8387  0.8483
  889MPD2    C213030   2.282   4.160  12.769  0.2046  0.1741  0.1623
  889MPD2    C313031   2.259   4.295  12.756 -0.9624  0.7074  0.2282
  889MPD2    C413032   2.270   4.366  12.639  0.3880 -0.3665 -0.5456
  889MPD2    C513033   2.306   4.290  12.529 -0.6538 -0.2464  0.8227
  889MPD2     H13034   2.259   4.123  12.868 -0.5157  0.2620  0.0282
  889MPD2    H113035   2.244   4.468  12.613  1.7211 -0.1612 -1.0712
  889MPD2    H213036   2.381   4.112  12.447 -0.6631 -0.6886  0.2425
  889MPD2    H313037   2.329   4.342  12.436 -0.0080 -3.0163 -0.5479
  889MPD2     N13038   2.219   4.363  12.872 -0.3743 -0.0038 -0.2987
  889MPD2    H513039   2.225   4.304  12.954  1.1314  0.2212 -0.2369
  889MPD2    N113040   2.326   3.947  12.668 -0.3951  0.6038 -0.4571
  889MPD2    H713041   2.304   3.917  12.763 -0.3054  1.3215 -0.2014
  890MPD2     C13042   1.825   1.721  14.755 -0.7611  0.7321 -0.0295
  890MPD2    C113043   1.959   1.734  14.779  0.4717 -0.3648 -0.2417
  890MPD2    C213044   2.029   1.629  14.840 -0.9134  0.0490  0.1099
  890MPD2    C313045   1.957   1.521  14.877  0.8202 -0.4086  0.5914
  890MPD2    C413046   1.826   1.508  14.852  0.2991  0.8180 -0.3093
  890MPD2    C513047   1.758   1.613  14.799  0.3365  0.3362 -0.8370
  890MPD2     H13048   2.135   1.631  14.862 -0.7337 -1.5165 -0.6188
  890MPD2    H113049   1.765   1.425  14.887  1.0476 -0.6754 -2.5517
  890MPD2    H213050   1.767   1.799  14.708  0.2973  1.9033  0.5970
  890MPD2    H313051   1.650   1.612  14.802  0.4627 -0.7211  2.9596
  890MPD2     N13052   2.035   1.413  14.925 -0.5959 -0.3418  0.1841
  890MPD2    H513053   2.134   1.434  14.934 -1.3371  3.1583 -0.0845
  890MPD2    N113054   2.009   1.864  14.748 -0.5295  0.1094  1.0442
  890MPD2    H713055   1.945   1.920  14.693 -0.7351  0.7035  1.8840
  891MPD2     C13056   0.168   4.503  16.161 -0.0262  0.3481 -0.1727
  891MPD2    C113057   0.117   4.430  16.270 -0.3811  0.2986 -0.4495
  891MPD2    C213058   0.204   4.425  16.383  0.1324 -0.5775  0.1467
  891MPD2    C313059   0.342   4.479  16.383 -0.3568 -0.5690 -0.7881
  891MPD2    C413060   0.385   4.547  16.274 -0.3388 -0.1591 -0.6151
  891MPD2    C513061   0.299   4.551  16.163  0.1549  0.1534 -0.3291
  891MPD2     H13062   0.170   4.377  16.474 -0.0338 -0.6128  0.0671
  891MPD2    H113063   0.483   4.592  16.259 -0.6371 -0.3295 -3.0734
  891MPD2    H213064   0.119   4.519  16.065  1.7334 -0.9346 -1.2807
  891MPD2    H313065   0.319   4.621  16.083 -2.1468 -1.0264 -1.9377
  891MPD2     N13066   0.427   4.456  16.501  0.2063 -0.1679  0.5974
  891MPD2    H513067   0.389   4.398  16.575  1.0997 -1.7800 -0.2182
  891MPD2    N113068   4.712   4.363  16.256  0.0904  0.2490 -0.5140
  891MPD2    H713069   4.677   4.375  16.161 -1.7010 -1.3837 -0.0560
  892MPD2     C13070   1.211   1.177  14.513 -0.6533  0.3814 -0.5179
  892MPD2    C113071   1.122   1.085  14.472 -0.4552  0.6445 -0.6658
  892MPD2    C213072   1.153   0.996  14.372  0.3923 -1.2042 -0.0786
  892MPD2    C313073   1.287   0.990  14.333 -0.1559 -0.1235 -0.0840
  892MPD2    C413074   1.382   1.075  14.389  0.7485 -0.0761  0.2290
  892MPD2    C513075   1.342   1.169  14.483  0.1123  0.0247  0.3969
  892MPD2     H13076   1.077   0.924  14.342 -1.7680  2.3047 -3.0146
  892MPD2    H113077   1.485   1.058  14.359  0.5394  2.0226 -1.7162
  892MPD2    H213078   1.178   1.253  14.582 -1.8923 -0.3486 -0.3075
  892MPD2    H313079   1.416   1.238  14.523  1.0268  0.8024 -2.6643
  892MPD2     N13080   1.339   0.893  14.244  0.2062  0.1516 -0.2336
  892MPD2    H513081   1.439   0.891  14.226  0.5028 -0.9315  1.5551
  892MPD2    N113082   0.983   1.093  14.511 -0.1848 -0.2886  0.5315
  892MPD2    H713083   0.911   1.045  14.460  0.4933 -0.9467  0.1897
  893MPD2     C13084   3.759   4.148   2.086  0.7767 -0.0207 -0.5748
  893MPD2    C113085   3.828   4.038   2.139 -0.0865  0.3332 -0.1780
  893MPD2    C213086   3.785   3.986   2.262 -0.5372  0.0862  0.1979
  893MPD2    C313087   3.675   4.035   2.330 -0.1641  0.1128 -0.1377
  893MPD2    C413088   3.606   4.141   2.271 -0.2636  0.3176 -0.0663
  893MPD2    C513089   3.643   4.185   2.146  0.2542 -0.6372  0.1434
  893MPD2     H13090   3.841   3.899   2.295 -0.9074 -0.4955 -0.6994
  893MPD2    H113091   3.510   4.169   2.311 -0.3916 -0.6561  0.3300
  893MPD2    H213092   3.784   4.186   1.987  2.4924 -1.3917 -0.6806
  893MPD2    H313093   3.583   4.262   2.099  1.4141  0.7400  0.9106
  893MPD2     N13094   3.621   3.964   2.432 -0.2258 -0.4396  0.0711
  893MPD2    H513095   3.530   4.001   2.457 -1.0386 -1.6051 -1.1866
  893MPD2    N113096   3.932   3.980   2.060 -0.4386  0.5657  0.3497
  893MPD2    H713097   3.958   4.032   1.977  0.7082 -1.1769 -0.4005
  894MPD2     C13098   1.162   2.215   0.629  0.3074  0.5065 -0.1215
  894MPD2    C113099   1.225   2.102   0.677  0.4074 -0.5944  1.0534
  894MPD2    C213100   1.343   2.136   0.743 -0.0446  0.3746  0.0643
  894MPD2    C313101   1.401   2.259   0.743 -0.3622 -0.1879  0.4447
  894MPD2    C413102   1.337   2.364   0.683  0.4021 -0.1991  0.1868
  894MPD2    C513103   1.216   2.344   0.630  0.3889  0.5239 -0.4524
  894MPD2     H13104   1.405   2.062   0.792 -1.2097 -0.3480  0.4344
  894MPD2    H113105   1.378   2.465   0.687  0.0496 -0.0974  1.0574
  894MPD2    H213106   1.062   2.218   0.587  1.3188  0.8326 -2.5250
  894MPD2    H313107   1.161   2.426   0.587 -1.5798  0.9647  2.9031
  894MPD2     N13108   1.516   2.282   0.828  0.0710 -0.1640  0.4172
  894MPD2    H513109   1.537   2.217   0.904 -0.3321 -1.4695 -0.5896
  894MPD2    N113110   1.169   1.972   0.682  0.6450  0.0965 -0.1648
  894MPD2    H713111   1.218   1.897   0.731  2.2399  1.1694 -0.0948
  895MPD2     C13112   4.556   0.077  12.996  0.0320  0.1431  0.2496
  895MPD2    C113113   4.501   4.690  12.925  0.0118  0.7413 -0.4421
  895MPD2    C213114   4.574   4.573  12.901 -0.3625  0.5594 -0.5138
  895MPD2    C313115   4.692   4.553  12.966  1.0301 -0.7739  0.2426
  895MPD2    C413116   0.017   4.653  13.048 -0.8117 -0.0932  0.6695
  895MPD2    C513117   4.675   0.055  13.059  0.1613  0.0460  0.2867
  895MPD2     H13118   4.522   4.492  12.850 -1.4675  0.8053  0.2120
  895MPD2    H113119   0.105   4.641  13.110 -0.0250  2.5398  0.0398
  895MPD2    H213120   4.512   0.173  13.020 -1.1992 -0.1454 -0.8148
  895MPD2    H313121   4.720   0.140  13.109 -2.7030  1.4725  0.4346
  895MPD2     N13122   0.046   4.428  12.950  0.2091 -0.8307  0.0208
  895MPD2    H513123   0.015   4.380  12.866 -0.3195  0.8196 -0.7253
  895MPD2    N113124   4.364   4.683  12.873 -0.0658  0.4211  0.1179
  895MPD2    H713125   4.342   4.589  12.844  1.9824 -0.2058  0.6101
  896MPD2     C13126   3.389   1.912   1.208  0.3889 -0.0820  0.0962
  896MPD2    C113127   3.320   2.024   1.251  0.4260 -0.0066  0.0658
  896MPD2    C213128   3.188   2.015   1.289 -0.3897  0.4866  0.1804
  896MPD2    C313129   3.118   1.888   1.299 -0.1612  0.1045 -0.3047
  896MPD2    C413130   3.193   1.777   1.262 -0.0190 -0.1217  0.9668
  896MPD2    C513131   3.322   1.796   1.211  0.6207 -0.2614 -0.5751
  896MPD2     H13132   3.134   2.102   1.324  0.0359  0.1173  1.7242
  896MPD2    H113133   3.148   1.678   1.266  0.7586 -0.5125 -0.0856
  896MPD2    H213134   3.492   1.920   1.175  0.5273  0.0053  0.5450
  896MPD2    H313135   3.373   1.711   1.168  1.1421 -1.3344  2.1683
  896MPD2     N13136   2.981   1.881   1.333 -0.2731 -0.3677  0.2502
  896MPD2    H513137   2.939   1.973   1.337 -0.7820 -0.4812 -2.6486
  896MPD2    N113138   3.386   2.145   1.245 -0.4916  0.0851  0.6509
  896MPD2    H713139   3.474   2.137   1.194 -1.3122 -0.7590 -0.6398
  897MPD2     C13140   3.463   4.398  10.688 -0.7377 -0.0743  0.1372
  897MPD2    C113141   3.461   4.265  10.643  0.0389  0.5742 -0.1579
  897MPD2    C213142   3.414   4.168  10.727 -0.2631  0.0723 -0.3925
  897MPD2    C313143   3.381   4.194  10.856  0.2344 -0.2456 -0.0476
  897MPD2    C413144   3.389   4.331  10.903 -0.1870  0.7978 -0.0940
  897MPD2    C513145   3.424   4.433  10.818  0.0544  0.1967  0.1177
  897MPD2     H13146   3.400   4.067  10.689  0.0237  0.1901 -0.8203
  897MPD2    H113147   3.386   4.356  11.009  4.1500  2.6627 -0.4009
  897MPD2    H213148   3.481   4.477  10.617  1.1816  1.1264  1.9584
  897MPD2    H313149   3.434   4.537  10.847 -1.0827 -0.2573  2.1372
  897MPD2     N13150   3.326   4.084  10.940  0.1895 -0.1030 -0.2105
  897MPD2    H513151   3.324   3.994  10.894  1.3705  0.1420 -0.7262
  897MPD2    N113152   3.502   4.244  10.512  0.4271  0.1281  0.1100
  897MPD2    H713153   3.529   4.323  10.454  2.8895 -1.0864 -0.4356
  898MPD2     C13154   1.348   4.260  17.594  0.3108 -0.2700  0.4421
  898MPD2    C113155   1.409   4.381  17.579  0.0537  0.4657 -0.3383
  898MPD2    C213156   1.359   4.463  17.485 -0.3496 -0.6087 -0.1086
  898MPD2    C313157   1.249   4.427  17.406 -0.1741 -0.1784 -0.1368
  898MPD2    C413158   1.176   4.319  17.443 -0.1944 -0.1366  0.8144
  898MPD2    C513159   1.224   4.239  17.539  0.4699 -0.0793  0.4615
  898MPD2     H13160   1.403   4.562  17.476 -0.6747 -0.4582 -0.0465
  898MPD2    H113161   1.097   4.273  17.384  0.6030 -1.1475  0.5325
  898MPD2    H213162   1.390   4.185  17.659 -0.2054 -1.6950 -0.8789
  898MPD2    H313163   1.174   4.147  17.567 -1.5779  1.4168  1.7459
  898MPD2     N13164   1.220   4.509  17.292 -0.4557  0.3806 -0.0419
  898MPD2    H513165   1.286   4.585  17.275 -0.3351  0.2764 -0.0377
  898MPD2    N113166   1.529   4.418  17.644  0.2556 -0.1490  0.0879
  898MPD2    H713167   1.569   4.501  17.601 -1.3273 -0.4310 -1.9610
  899MPD2     C13168   1.900   0.578  17.426 -0.9962  0.4179 -0.1244
  899MPD2    C113169   1.960   0.683  17.486 -0.3369 -0.3475 -0.3451
  899MPD2    C213170   1.963   0.687  17.627  0.5119 -0.2638 -0.5158
  899MPD2    C313171   1.895   0.588   0.017 -0.3714  0.3698  0.4522
  899MPD2    C413172   1.836   0.486  17.633  0.1335 -0.5638  0.2096
  899MPD2    C513173   1.839   0.481  17.499  0.3909  0.3024  0.1381
  899MPD2     H13174   2.001   0.771   0.002  2.6198  0.2087 -2.6055
  899MPD2    H113175   1.790   0.404   0.005  1.1821 -2.8964 -2.4407
  899MPD2    H213176   1.896   0.563  17.319  2.1572 -1.2267  0.0196
  899MPD2    H313177   1.795   0.394  17.451  1.7612  0.6747 -1.7843
  899MPD2     N13178   1.884   0.588   0.155  0.5660 -0.7119  0.3666
  899MPD2    H513179   1.849   0.500   0.191 -1.1785 -0.1544  0.0538
  899MPD2    N113180   2.021   0.783  17.407  0.2980 -0.2138 -0.5671
  899MPD2    H713181   2.018   0.775  17.306  2.7941  0.5359 -0.6927
  900MPD2     C13182   1.070   2.596  12.525 -0.2884  0.4102  0.6224
  900MPD2    C113183   1.050   2.510  12.424  0.1750  1.2955  0.3524
  900MPD2    C213184   0.949   2.513  12.335  0.5393  0.5034 -0.1092
  900MPD2    C313185   0.859   2.621  12.340  0.5391 -0.3384 -0.2828
  900MPD2    C413186   0.871   2.708  12.442  0.0407 -0.5148  0.9596
  900MPD2    C513187   0.976   2.701  12.529  0.3971 -0.4451  0.3110
  900MPD2     H13188   0.937   2.442  12.255  0.2881  0.4630 -0.0364
  900MPD2    H113189   0.805   2.793  12.449  0.3661 -0.1761  0.0021
  900MPD2    H213190   1.140   2.583  12.607 -2.2506 -3.0772  1.7038
  900MPD2    H313191   0.980   2.782  12.601 -4.3869  1.9867 -2.1478
  900MPD2     N13192   0.772   2.638  12.229  0.1872 -0.1854  0.4649
  900MPD2    H513193   0.791   2.571  12.155 -3.1605  0.2608 -0.8045
  900MPD2    N113194   1.124   2.394  12.412 -0.6449 -0.3036  0.2143
  900MPD2    H713195   1.103   2.330  12.335 -1.8158  3.0105 -2.2293
  901MPD2     C13196   0.711   1.562  12.394 -0.2935 -0.2539 -0.5509
  901MPD2    C113197   0.842   1.526  12.402 -0.5328 -0.6978 -0.2263
  901MPD2    C213198   0.940   1.614  12.374 -0.2260  0.0813  0.0282
  901MPD2    C313199   0.916   1.747  12.342 -0.0267 -0.0309 -0.4856
  901MPD2    C413200   0.781   1.784  12.322 -0.3125 -0.8499  0.0998
  901MPD2    C513201   0.682   1.690  12.347  0.2945  0.3730 -0.3383
  901MPD2     H13202   1.043   1.582  12.381 -0.6573 -1.0393  1.2676
  901MPD2    H113203   0.747   1.882  12.291  1.4382  0.1475  1.3094
  901MPD2    H213204   0.633   1.490  12.418  0.5621 -0.6913  0.9423
  901MPD2    H313205   0.578   1.710  12.324  0.2145 -1.2235 -1.3487
  901MPD2     N13206   1.028   1.831  12.323 -0.4778 -0.3568  0.1240
  901MPD2    H513207   1.113   1.789  12.358  0.9887  3.2877  0.9400
  901MPD2    N113208   0.865   1.386  12.426  0.0152 -0.4200 -0.1251
  901MPD2    H713209   0.787   1.328  12.457  0.3337 -0.0954  1.3121
  902MPD2     C13210   0.026   0.195  12.687 -0.3659  0.5473 -0.3141
  902MPD2    C113211   0.045   0.301  12.603 -0.5812 -0.2742  0.8100
  902MPD2    C213212   0.118   0.292  12.488 -0.2836  0.6247 -0.1008
  902MPD2    C313213   0.183   0.171  12.462 -0.3187 -0.5024 -0.0955
  902MPD2    C413214   0.158   0.063  12.540 -0.0865 -0.4015 -0.5065
  902MPD2    C513215   0.073   0.071  12.644 -0.1569  0.2169  0.1313
  902MPD2     H13216   0.115   0.373  12.416  1.1625  0.6462 -0.1447
  902MPD2    H113217   0.213   4.691  12.526  3.4076  1.2515  2.5510
  902MPD2    H213218   4.673   0.198  12.767 -0.4463  0.5812 -0.3878
  902MPD2    H313219   0.062   4.706  12.710  0.8519 -0.7128 -0.8911
  902MPD2     N13220   0.270   0.159  12.354 -0.2368 -0.1432  0.6963
  902MPD2    H513221   0.309   0.070  12.325 -0.9479 -0.1903 -0.1278
  902MPD2    N113222   4.713   0.433  12.632  0.0017 -0.1174  0.6219
  902MPD2    H713223   4.711   0.505  12.561 -1.5661 -2.4940 -1.7631
  903MPD2     C13224   0.451   0.344  11.449  0.7156 -0.3476  0.5348
  903MPD2    C113225   0.359   0.334  11.551 -0.8865  0.5474  0.5229
  903MPD2    C213226   0.228   0.346  11.508 -0.5398  0.4837 -0.2715
  903MPD2    C313227   0.183   0.354  11.374 -0.0349  0.3179 -0.0957
  903MPD2    C413228   0.277   0.356  11.276 -0.0242 -0.8368 -0.0543
  903MPD2    C513229   0.412   0.345  11.319 -0.1410 -0.1514  0.0182
  903MPD2     H13230   0.152   0.337  11.585 -0.4415  2.3443  0.0505
  903MPD2    H113231   0.252   0.366  11.171 -0.2598  2.7756  0.3184
  903MPD2    H213232   0.556   0.328  11.474  1.0649 -1.2350 -1.5331
  903MPD2    H313233   0.490   0.361  11.246  1.3490  1.1706  1.9128
  903MPD2     N13234   0.044   0.356  11.356 -0.5927  0.7441  0.1105
  903MPD2    H513235   4.707   0.330  11.436  1.2371  1.6966  1.7288
  903MPD2    N113236   0.407   0.313  11.683  0.5043 -0.1477 -0.4637
  903MPD2    H713237   0.506   0.295  11.693  0.5035 -1.4917 -2.9534
  904MPD2     C13238   0.035   3.800  13.726 -0.0880  0.1098 -0.2496
  904MPD2    C113239   0.111   3.894  13.667 -0.1574 -0.8155  0.2164
  904MPD2    C213240   0.240   3.916  13.707  0.2796  0.1242  0.1641
  904MPD2    C313241   0.289   3.851  13.819  0.4775 -0.1029 -0.3717
  904MPD2    C413242   0.214   3.743  13.867 -0.3757  0.4013 -0.8155
  904MPD2    C513243   0.086   3.719  13.824  0.3181  0.2609  0.6266
  904MPD2     H13244   0.288   4.003  13.665 -1.6434  1.2690  0.3923
  904MPD2    H113245   0.259   3.666  13.928 -0.5997  1.1361  0.2706
  904MPD2    H213246   4.651   3.782  13.699  0.5714 -0.9456 -2.0724
  904MPD2    H313247   0.031   3.633  13.861  0.5303  0.0520  0.4584
  904MPD2     N13248   0.417   3.890  13.875 -0.4123  0.1613  0.4101
  904MPD2    H513249   0.468   3.961  13.824 -2.0343  0.3752 -0.9354
  904MPD2    N113250   0.059   3.978  13.562 -0.1226  0.3983 -0.3205
  904MPD2    H713251   0.115   4.054  13.526  0.8067  0.7481  1.8608
  905MPD2     C13252   4.465   3.812  12.885  0.4247  0.1320  0.0428
  905MPD2    C113253   4.532   3.926  12.922  0.0066 -0.6451  0.2888
  905MPD2    C213254   4.640   3.969  12.849 -0.7227 -0.5708  0.4297
  905MPD2    C313255   4.691   3.891  12.744  0.0889  0.3711  0.3823
  905MPD2    C413256   4.619   3.782  12.705  0.4421  0.2740  0.1034
  905MPD2    C513257   4.509   3.748  12.774  0.7536 -0.1680 -0.1464
  905MPD2     H13258   4.674   4.067  12.880  1.3736 -1.4381  0.8457
  905MPD2    H113259   4.659   3.719  12.626  1.1439  0.6848  0.1235
  905MPD2    H213260   4.384   3.757  12.931  2.2469 -1.7178  1.0430
  905MPD2    H313261   4.456   3.661  12.738 -0.7337 -0.2445  2.2212
  905MPD2     N13262   0.084   3.929  12.672  0.3533 -0.2843 -0.2709
  905MPD2    H513263   0.097   3.871  12.590  1.9764  0.0018 -0.2000
  905MPD2    N113264   4.498   3.987  13.044 -0.1512  0.1070  0.0155
  905MPD2    H713265   4.449   3.931  13.113 -1.6242  1.5164  0.1128
  906MPD2     C13266   1.969   3.750  11.767  0.3152 -0.1810 -0.0135
  906MPD2    C113267   1.880   3.753  11.666 -0.0694 -0.5056 -0.2968
  906MPD2    C213268   1.747   3.724  11.688  0.3942 -0.1160  0.1751
  906MPD2    C313269   1.700   3.673  11.802  0.0353 -0.3194 -0.0353
  906MPD2    C413270   1.795   3.664  11.898 -0.1693  1.3232 -0.6911
  906MPD2    C513271   1.926   3.704  11.890 -0.8408  0.2808  0.0450
  906MPD2     H13272   1.675   3.731  11.607  0.9028 -2.5578 -0.4891
  906MPD2    H113273   1.764   3.599  11.979 -0.5032  0.1366 -1.7777
  906MPD2    H213274   2.073   3.777  11.750  1.5988 -5.5493 -0.8030
  906MPD2    H313275   1.998   3.691  11.971 -1.7581  0.7163  0.9314
  906MPD2     N13276   1.573   3.613  11.815  0.3572  0.4125  0.1201
  906MPD2    H513277   1.545   3.572  11.903  2.0334  0.3443  0.6223
  906MPD2    N113278   1.908   3.782  11.530 -0.5187 -0.2120  0.3075
  906MPD2    H713279   1.835   3.765  11.462  0.6224  1.0505 -1.2248
  907MPD2     C13280   1.026   3.466  15.323 -0.1165  0.4277  0.1926
  907MPD2    C113281   1.091   3.382  15.242 -0.2811  0.7786  0.2149
  907MPD2    C213282   1.217   3.332  15.274 -0.3847 -0.7517  0.2035
  907MPD2    C313283   1.286   3.381  15.380  0.3344 -0.4919 -0.2193
  907MPD2    C413284   1.227   3.473  15.458 -0.3333 -0.0432  0.9340
  907MPD2    C513285   1.099   3.515  15.427  0.1431 -0.7885 -0.4155
  907MPD2     H13286   1.257   3.247  15.219 -1.6123 -0.1323 -1.6719
  907MPD2    H113287   1.264   3.510  15.553  2.9979  0.3013 -0.4765
  907MPD2    H213288   0.922   3.497  15.317  0.1887  1.0447 -1.9775
  907MPD2    H313289   1.045   3.587  15.489  0.1802 -0.9093 -0.2430
  907MPD2     N13290   1.405   3.315  15.420  0.1072 -0.2385 -0.2463
  907MPD2    H513291   1.442   3.239  15.364  0.9959 -0.3844  0.5218
  907MPD2    N113292   1.040   3.327  15.125 -0.5305  0.2289 -0.0524
  907MPD2    H713293   1.094   3.263  15.067 -1.6215 -1.0926  0.4022
  908MPD2     C13294   3.508   3.472   9.745  0.0872  0.8335 -0.3244
  908MPD2    C113295   3.397   3.553   9.727 -0.2097  0.8854 -0.3770
  908MPD2    C213296   3.370   3.653   9.819 -0.1681  0.2590  0.7771
  908MPD2    C313297   3.458   3.685   9.920 -0.1450 -0.1386 -0.0904
  908MPD2    C413298   3.573   3.608   9.924 -0.2587  0.0029  0.1458
  908MPD2    C513299   3.597   3.502   9.842  0.2224  0.2997  0.7227
  908MPD2     H13300   3.288   3.723   9.812  0.9779  1.4164 -0.9030
  908MPD2    H113301   3.656   3.632   9.989  0.7536 -1.1255 -0.7466
  908MPD2    H213302   3.522   3.380   9.689 -0.1838  0.2366  0.5931
  908MPD2    H313303   3.690   3.449   9.852  0.1704 -0.2944 -1.8077
  908MPD2     N13304   3.444   3.805   9.991 -0.3675 -0.1799 -0.2408
  908MPD2    H513305   3.356   3.856   9.984  1.0000  2.4875  2.0937
  908MPD2    N113306   3.311   3.504   9.625 -0.3068 -0.3815 -0.0920
  908MPD2    H713307   3.316   3.415   9.578  1.9427 -0.5190  0.3937
  909MPD2     C13308   4.022   1.755  11.329 -0.1070 -0.0395 -0.4288
  909MPD2    C113309   3.953   1.872  11.281  0.4851 -0.4761  0.2184
  909MPD2    C213310   3.850   1.917  11.353  0.6087  0.3027 -0.3115
  909MPD2    C313311   3.799   1.854  11.465 -0.0158 -0.7671 -0.3564
  909MPD2    C413312   3.870   1.748  11.514 -0.0795 -0.0336 -0.7075
  909MPD2    C513313   3.980   1.697  11.446  0.2550 -0.3765 -0.0571
  909MPD2     H13314   3.800   2.007  11.319  0.4131  0.0094 -0.8083
  909MPD2    H113315   3.833   1.685  11.593  4.0348 -0.9171  0.5223
  909MPD2    H213316   4.107   1.712  11.277 -0.1995  1.0191 -1.4507
  909MPD2    H313317   4.027   1.607  11.483  2.1251  0.5079 -0.3197
  909MPD2     N13318   3.687   1.908  11.528 -0.2821 -0.2904 -0.3910
  909MPD2    H513319   3.654   2.000  11.500 -1.3552 -0.1908  1.1783
  909MPD2    N113320   3.992   1.946  11.162  0.0711 -0.3155  0.8084
  909MPD2    H713321   3.915   2.008  11.139 -0.0729  0.4056  3.2086
  910MPD2     C13322   0.287   3.731  15.596 -0.3942 -0.2191 -0.1023
  910MPD2    C113323   0.407   3.720  15.517 -0.0345 -0.9025  0.1053
  910MPD2    C213324   0.420   3.783  15.401  0.3508  0.4793  0.0183
  910MPD2    C313325   0.327   3.874  15.353  0.6695 -0.3435  0.5213
  910MPD2    C413326   0.210   3.893  15.426 -0.4202 -0.5748 -0.0259
  910MPD2    C513327   0.190   3.821  15.543 -0.0568  0.5621 -0.2032
  910MPD2     H13328   0.504   3.751  15.341 -1.0872 -0.3852 -1.5264
  910MPD2    H113329   0.134   3.962  15.392 -1.3268 -1.5102  0.0735
  910MPD2    H213330   0.263   3.667  15.680  2.0549  0.4898  1.1585
  910MPD2    H313331   0.099   3.831  15.602  0.2619 -0.8366  0.5453
  910MPD2     N13332   0.322   3.940  15.221  0.0002 -0.6733  0.0688
  910MPD2    H513333   0.237   3.989  15.193 -0.5062 -1.2330  0.6151
  910MPD2    N113334   0.508   3.625  15.550 -0.1844  0.1438 -0.2219
  910MPD2    H713335   0.588   3.610  15.490  0.0764  0.5248  0.0345
  911MPD2     C13336   3.119   4.195  16.011 -0.9489  0.9267  0.0331
  911MPD2    C113337   3.162   4.275  16.113  0.2886  0.0826 -0.0791
  911MPD2    C213338   3.139   4.412  16.105 -0.6562 -0.1126  0.2982
  911MPD2    C313339   3.078   4.461  15.989  0.1850 -0.5067 -0.2902
  911MPD2    C413340   3.043   4.369  15.888 -0.0383  0.5383  0.1260
  911MPD2    C513341   3.044   4.233  15.905 -0.3231 -0.4950 -0.2271
  911MPD2     H13342   3.166   4.478  16.187 -0.2232  1.1443 -0.8597
  911MPD2    H113343   3.006   4.411  15.795  3.2227  1.2271 -0.8484
  911MPD2    H213344   3.139   4.089  16.020 -0.3760  1.1804  1.6941
  911MPD2    H313345   3.013   4.164  15.828 -0.8640 -0.8631  0.3280
  911MPD2     N13346   3.054   4.598  15.963 -0.6923  0.8483 -0.8075
  911MPD2    H513347   3.035   4.628  15.868 -0.6040  0.1140 -1.0532
  911MPD2    N113348   3.227   4.213  16.225 -0.4730  0.1036  0.3265
  911MPD2    H713349   3.245   4.116  16.199 -0.6913  0.4369 -1.0433
  912MPD2     C13350   2.678   4.439  15.623  0.4610  0.0562 -0.2340
  912MPD2    C113351   2.701   4.471  15.753 -0.0420 -0.1850  0.2093
  912MPD2    C213352   2.698   4.373  15.849  0.9091  0.2857 -0.7724
  912MPD2    C313353   2.679   4.241  15.814  0.2606  0.4608  0.1835
  912MPD2    C413354   2.671   4.202  15.681 -0.1703 -0.0338  0.9656
  912MPD2    C513355   2.659   4.305  15.590  0.2170  0.5671 -0.8469
  912MPD2     H13356   2.713   4.393  15.954 -0.4932  2.2088 -0.9231
  912MPD2    H113357   2.661   4.101  15.646 -0.4429 -0.1308  1.3182
  912MPD2    H213358   2.665   4.521  15.554  2.1404 -0.1001 -0.7414
  912MPD2    H313359   2.640   4.281  15.486 -2.1682 -1.2659 -0.0048
  912MPD2     N13360   2.691   4.144  15.920  0.6467 -0.1702 -0.1907
  912MPD2    H513361   2.732   4.172  16.009  0.4741  1.8437 -0.7453
  912MPD2    N113362   2.717   4.611  15.781 -0.5595  0.3396  0.1149
  912MPD2    H713363   2.708   4.675  15.703  0.7476  0.1782 -0.1770
  913MPD2     C13364   2.555   0.291  10.567 -0.2886 -0.2105 -0.5907
  913MPD2    C113365   2.667   0.371  10.573  0.2873 -0.1491  0.6558
  913MPD2    C213366   2.710   0.443  10.462 -0.2478  0.2498  0.1562
  913MPD2    C313367   2.649   0.431  10.341 -0.3329  0.0762 -0.2168
  913MPD2    C413368   2.535   0.350  10.338 -0.2773 -0.8685 -0.0095
  913MPD2    C513369   2.482   0.281  10.446  0.3553  0.1629  0.0800
  913MPD2     H13370   2.801   0.502  10.469 -0.3216  0.4624 -0.7628
  913MPD2    H113371   2.479   0.344  10.245 -0.4962  0.0074  0.0601
  913MPD2    H213372   2.515   0.252  10.660  0.8597 -1.4267 -0.6113
  913MPD2    H313373   2.387   0.228  10.442 -0.2733  1.1273  2.0347
  913MPD2     N13374   2.695   0.470  10.210  0.2926  0.4245 -0.2138
  913MPD2    H513375   2.644   0.429  10.133  1.1930  0.7281 -0.9753
  913MPD2    N113376   2.730   0.382  10.701 -0.4638 -0.0531 -0.1521
  913MPD2    H713377   2.692   0.330  10.780  1.0349 -2.0563 -0.7682
  914MPD2     C13378   0.571   0.934  11.770  0.2367 -0.3245 -0.0062
  914MPD2    C113379   0.627   1.059  11.781  0.6427  0.0917  0.0654
  914MPD2    C213380   0.697   1.091  11.898 -0.5092 -0.5735 -0.0658
  914MPD2    C313381   0.709   0.999  12.002  0.0288 -0.1860  0.0447
  914MPD2    C413382   0.633   0.877  11.988 -0.1739  0.4742  0.4675
  914MPD2    C513383   0.570   0.844  11.873  0.3845 -0.0561 -0.7235
  914MPD2     H13384   0.751   1.185  11.908 -0.0870 -0.8884  0.6219
  914MPD2    H113385   0.635   0.804  12.068 -3.5694 -1.0196 -0.8365
  914MPD2    H213386   0.522   0.903  11.678  1.2150 -0.8506 -0.3602
  914MPD2    H313387   0.541   0.741  11.856 -0.8162  0.4497 -1.7034
  914MPD2     N13388   0.788   1.034  12.112  0.3504 -0.2401  0.2565
  914MPD2    H513389   0.823   1.128  12.105  0.5742 -0.2705  1.0015
  914MPD2    N113390   0.623   1.146  11.674 -0.0267 -0.0522  0.1920
  914MPD2    H713391   0.592   1.113  11.583 -1.1905  0.2840  0.4675
  915MPD2     C13392   4.073   0.385  15.501  0.5207  0.3282 -0.1179
  915MPD2    C113393   4.076   0.512  15.437  0.4969  0.4795 -0.1439
  915MPD2    C213394   4.035   0.621  15.513 -0.2875 -0.3635  0.5435
  915MPD2    C313395   3.988   0.605  15.651  0.3906  0.9245 -0.1303
  915MPD2    C413396   3.985   0.479  15.709 -0.1342 -0.9375 -0.3528
  915MPD2    C513397   4.030   0.374  15.631  0.1534  0.5459 -0.7346
  915MPD2     H13398   4.021   0.720  15.469 -1.1779  0.5347  2.8904
  915MPD2    H113399   3.957   0.456  15.811  2.8565  2.7425  1.2868
  915MPD2    H213400   4.096   0.299  15.439  0.8722 -0.4792  1.1365
  915MPD2    H313401   4.038   0.277  15.679 -0.1325 -0.2193 -2.2125
  915MPD2     N13402   3.966   0.718  15.731 -0.0132 -0.7272  1.1446
  915MPD2    H513403   3.977   0.807  15.684  1.0085 -2.2853 -1.5486
  915MPD2    N113404   4.096   0.513  15.301  0.9966  0.4919  0.1485
  915MPD2    H713405   4.127   0.422  15.269 -0.6679  0.5565 -1.6574
  916MPD2     C13406   2.193   4.236  15.348  0.0112  0.6717  0.1573
  916MPD2    C113407   2.239   4.134  15.428  0.1844 -0.1550  0.9709
  916MPD2    C213408   2.250   4.009  15.373  0.1073  0.1454 -0.4872
  916MPD2    C313409   2.216   3.977  15.242  0.4182  0.3143  0.5634
  916MPD2    C413410   2.181   4.087  15.160 -0.1819 -0.4166  0.1042
  916MPD2    C513411   2.172   4.210  15.217  0.1492 -0.0202  0.2062
  916MPD2     H13412   2.293   3.929  15.432  0.0199 -0.1019 -0.7610
  916MPD2    H113413   2.165   4.082  15.053 -1.1170  1.6486  0.1669
  916MPD2    H213414   2.175   4.342  15.365 -0.1987  0.6578  0.0170
  916MPD2    H313415   2.133   4.287  15.152 -0.8931  1.3487  2.4597
  916MPD2     N13416   2.209   3.840  15.198 -0.5365  0.2538 -0.2928
  916MPD2    H513417   2.228   3.775  15.274  1.2003  1.5741  0.4036
  916MPD2    N113418   2.280   4.171  15.565 -0.1951 -0.0106  0.4201
  916MPD2    H713419   2.248   4.265  15.587  1.3416  0.6473 -0.1295
  917MPD2     C13420   2.448   1.361  11.061 -0.0885  0.3626  0.4651
  917MPD2    C113421   2.527   1.354  11.171  0.2635 -0.2280 -0.0536
  917MPD2    C213422   2.653   1.414  11.172  1.0567  0.1560  0.0267
  917MPD2    C313423   2.705   1.478  11.056  0.5391 -0.2066  0.4046
  917MPD2    C413424   2.624   1.471  10.943  0.6726  0.1174 -0.4626
  917MPD2    C513425   2.501   1.415  10.950  0.4451  0.5437  0.5569
  917MPD2     H13426   2.703   1.418  11.268  2.5257 -1.1875 -0.6867
  917MPD2    H113427   2.650   1.506  10.844 -2.7604  0.3697 -1.2556
  917MPD2    H213428   2.347   1.323  11.056 -0.1264  0.4741  0.3905
  917MPD2    H313429   2.447   1.405  10.857 -0.8638  0.4383  1.3343
  917MPD2     N13430   2.824   1.560  11.052  0.1326 -0.3667  0.2787
  917MPD2    H513431   2.835   1.618  10.969 -1.5780  0.9374  0.9539
  917MPD2    N113432   2.473   1.282  11.280  0.2264  0.1767 -0.7014
  917MPD2    H713433   2.375   1.254  11.276  0.4584 -0.9070  1.0935
  918MPD2     C13434   2.570   1.689  12.054 -1.0164 -0.4488  0.0259
  918MPD2    C113435   2.650   1.569  12.077  0.1218  0.7873  0.0705
  918MPD2    C213436   2.618   1.449  12.012 -0.2573 -0.2105 -0.1434
  918MPD2    C313437   2.490   1.445  11.948 -0.0434 -0.4590  0.4546
  918MPD2    C413438   2.413   1.559  11.938  0.1656 -0.3783  0.4060
  918MPD2    C513439   2.458   1.683  11.987 -0.5076  0.4475  0.8154
  918MPD2     H13440   2.681   1.361  11.999  0.0328 -0.2923  1.9506
  918MPD2    H113441   2.326   1.559  11.873  1.6698  0.8070 -1.6088
  918MPD2    H213442   2.594   1.789  12.089 -2.1723 -0.5549  1.0942
  918MPD2    H313443   2.405   1.777  11.977 -0.1920  0.2795 -2.4233
  918MPD2     N13444   2.456   1.327  11.878 -0.6869  0.3320  0.3577
  918MPD2    H513445   2.515   1.244  11.883 -0.9936  0.1717  1.2132
  918MPD2    N113446   2.776   1.565  12.141  0.0750 -0.1046  0.3415
  918MPD2    H713447   2.827   1.478  12.129  0.5416 -0.0960  2.3037
  919MPD2     C13448   2.748   0.543  11.518  0.3423 -0.2102  0.1289
  919MPD2    C113449   2.654   0.461  11.448 -0.2426 -0.8134 -0.1564
  919MPD2    C213450   2.641   0.484  11.314  0.7253 -0.2293  0.0471
  919MPD2    C313451   2.703   0.587  11.249 -0.2980 -0.1357 -0.2669
  919MPD2    C413452   2.801   0.655  11.314  0.5264 -0.4626  0.3727
  919MPD2    C513453   2.820   0.642  11.449 -0.2593 -0.4525 -0.9752
  919MPD2     H13454   2.568   0.423  11.262 -1.3124  1.9706  0.3216
  919MPD2    H113455   2.853   0.735  11.263  0.3031 -1.8101 -1.9942
  919MPD2    H213456   2.766   0.543  11.625  1.8176 -0.2283 -0.1247
  919MPD2    H313457   2.890   0.700  11.507  0.4140 -0.6448 -1.6016
  919MPD2     N13458   2.664   0.626  11.114  0.6239  0.2114  0.2347
  919MPD2    H513459   2.720   0.699  11.072 -0.9677  0.9288 -0.6610
  919MPD2    N113460   2.576   0.363  11.514  0.4399 -0.3109 -0.6664
  919MPD2    H713461   2.529   0.308  11.443 -1.0148 -0.7898  0.6816
  920MPD2     C13462   2.931   1.077  10.272  0.7061 -0.0212  0.2044
  920MPD2    C113463   2.810   1.034  10.237  0.3677 -0.4161 -0.5312
  920MPD2    C213464   2.742   0.950  10.323  0.2107  0.6001  0.2470
  920MPD2    C313465   2.797   0.902  10.437  0.3669  0.0664 -0.2468
  920MPD2    C413466   2.929   0.925  10.459  0.3924 -0.9832 -0.4359
  920MPD2    C513467   2.994   1.020  10.383  0.0485  0.5904  0.1092
  920MPD2     H13468   2.636   0.937  10.302 -0.0739  0.3709  1.8317
  920MPD2    H113469   2.985   0.871  10.535  0.3913 -0.3755  0.0004
  920MPD2    H213470   2.999   1.124  10.202 -0.3616  1.9574  0.4950
  920MPD2    H313471   3.100   1.031  10.403  0.2729 -0.2956 -0.5832
  920MPD2     N13472   2.714   0.829  10.529 -0.1145  0.0004  0.5488
  920MPD2    H513473   2.618   0.822  10.496 -0.7919  2.3943  2.0187
  920MPD2    N113474   2.747   1.062  10.112 -0.2942  0.5018  0.2411
  920MPD2    H713475   2.666   1.004  10.093  0.7005 -0.5170 -0.8764
  921MPD2     C13476   4.143   4.292  16.771 -0.2772  0.1797 -0.1298
  921MPD2    C113477   4.090   4.292  16.641 -0.4251 -0.6248  0.9686
  921MPD2    C213478   3.950   4.282  16.626 -0.6308 -0.0121 -0.6575
  921MPD2    C313479   3.860   4.282  16.731  0.1563  0.4080 -0.4922
  921MPD2    C413480   3.918   4.290  16.856  0.1843  0.5962 -0.8027
  921MPD2    C513481   4.050   4.297  16.876 -0.0567 -0.9583 -0.4961
  921MPD2     H13482   3.921   4.259  16.525  1.4709 -0.4939 -1.1344
  921MPD2    H113483   3.845   4.296  16.935  0.7208  0.5306 -0.3009
  921MPD2    H213484   4.250   4.307  16.782 -0.4013  0.0459  1.2138
  921MPD2    H313485   4.084   4.304  16.979  0.1428  0.9393 -0.6919
  921MPD2     N13486   3.726   4.247  16.710 -0.0297 -0.2156 -0.1550
  921MPD2    H513487   3.669   4.211  16.786 -1.3333  1.4282 -0.3371
  921MPD2    N113488   4.190   4.281  16.537  0.2726 -0.2368  0.5741
  921MPD2    H713489   4.288   4.292  16.563  0.7154  0.0563 -1.2227
  922MPD2     C13490   0.933   2.278  16.940  0.3761  0.1933  0.1568
  922MPD2    C113491   0.956   2.365  17.045 -0.1178 -0.0088 -0.6959
  922MPD2    C213492   0.875   2.343  17.164  0.5742  0.1287 -0.0073
  922MPD2    C313493   0.777   2.247  17.164  0.4014 -0.9130 -0.1694
  922MPD2    C413494   0.760   2.164  17.057 -0.8876  0.0327  0.9849
  922MPD2    C513495   0.835   2.184  16.942  0.2211  0.1432  0.4017
  922MPD2     H13496   0.900   2.393  17.257 -0.2369  1.6370 -0.5961
  922MPD2    H113497   0.676   2.097  17.040 -0.8970 -0.3484  2.5336
  922MPD2    H213498   0.998   2.275  16.853  1.4277 -2.2075  1.0462
  922MPD2    H313499   0.823   2.110  16.864  0.2057 -0.7208  1.2190
  922MPD2     N13500   0.698   2.241  17.275 -0.0852  0.4347  0.1703
  922MPD2    H513501   0.718   2.298  17.357  0.3661 -1.3892  1.3376
  922MPD2    N113502   1.058   2.462  17.045 -0.5061  0.3512  0.2279
  922MPD2    H713503   1.073   2.501  17.138  0.6001 -1.6799  0.9007
  923MPD2     C13504   1.524   3.082   9.307 -0.0941  0.2983  0.2036
  923MPD2    C113505   1.497   3.207   9.366  0.2858 -0.4044  0.2385
  923MPD2    C213506   1.484   3.224   9.504  0.2821  0.1076 -0.0418
  923MPD2    C313507   1.497   3.110   9.585  0.5280  0.3602 -0.0290
  923MPD2    C413508   1.517   2.981   9.529  0.0543  0.3418  0.4829
  923MPD2    C513509   1.541   2.975   9.395  0.1561  0.3454  0.0400
  923MPD2     H13510   1.466   3.323   9.546  0.5229  0.3058 -0.4057
  923MPD2    H113511   1.533   2.895   9.594  2.0636  0.2603 -0.1248
  923MPD2    H213512   1.542   3.064   9.202  0.5611  1.0656  0.1809
  923MPD2    H313513   1.580   2.881   9.357  0.6991  0.5964 -0.0298
  923MPD2     N13514   1.497   3.120   9.726 -0.5190 -0.2233  0.1217
  923MPD2    H513515   1.523   3.042   9.784 -1.3776 -0.4713  0.1754
  923MPD2    N113516   1.494   3.321   9.275 -0.0954 -0.6449  0.7137
  923MPD2    H713517   1.539   3.306   9.185  0.1668  2.6065  0.3060
  924MPD2     C13518   1.595   2.659  15.106 -0.1779 -0.4568 -0.2957
  924MPD2    C113519   1.610   2.645  15.243  0.0690  0.2696  0.5323
  924MPD2    C213520   1.645   2.752  15.324  0.3144  0.2126 -0.0122
  924MPD2    C313521   1.691   2.872  15.269  0.5550 -0.2850  0.1544
  924MPD2    C413522   1.678   2.886  15.137  0.0499  0.1838 -0.3189
  924MPD2    C513523   1.621   2.782  15.056  0.2345 -0.5864 -0.7808
  924MPD2     H13524   1.652   2.735  15.431  0.4569  2.5457  0.3336
  924MPD2    H113525   1.719   2.976  15.093 -0.6682  0.1756 -0.9988
  924MPD2    H213526   1.574   2.575  15.041  2.4891 -1.4596  0.1141
  924MPD2    H313527   1.630   2.791  14.948 -1.2818 -1.8080 -0.9960
  924MPD2     N13528   1.744   2.971  15.347 -0.2382  0.5737 -0.3326
  924MPD2    H513529   1.769   3.061  15.307  0.0797  0.5572 -0.1707
  924MPD2    N113530   1.541   2.535  15.295  0.2774  0.4074  0.5380
  924MPD2    H713531   1.487   2.468  15.242  1.4379 -2.3626  2.8333
  925MPD2     C13532   0.544   0.407  14.545 -0.2936 -0.0089  0.7011
  925MPD2    C113533   0.408   0.377  14.530  0.0382 -0.3463  0.2899
  925MPD2    C213534   0.325   0.380  14.642 -0.1520 -0.5164  0.2530
  925MPD2    C313535   0.369   0.417  14.765 -0.5272  0.4383  0.1358
  925MPD2    C413536   0.497   0.450  14.782  0.1983  0.4331  0.1347
  925MPD2    C513537   0.587   0.438  14.674  1.0056  0.1657 -0.2504
  925MPD2     H13538   0.218   0.362  14.637 -0.3170  0.1384  1.3989
  925MPD2    H113539   0.535   0.477  14.880 -1.5837  0.8367  0.7162
  925MPD2    H213540   0.606   0.410  14.457 -2.2889  1.5466 -0.6441
  925MPD2    H313541   0.689   0.473  14.682  1.6045 -2.3463  3.0229
  925MPD2     N13542   0.276   0.424  14.871  0.6021  0.5395 -0.2912
  925MPD2    H513543   0.184   0.384  14.853  1.1571 -1.2827  0.9159
  925MPD2    N113544   0.360   0.356  14.402  0.5107 -0.2200  0.1146
  925MPD2    H713545   0.433   0.340  14.333  0.2631  0.3006 -0.2702
  926MPD2     C13546   3.250   3.260  13.253 -0.0626  0.4018  0.1727
  926MPD2    C113547   3.284   3.391  13.294 -0.7411 -0.3866 -1.0701
  926MPD2    C213548   3.316   3.480  13.191  0.1396  0.4229  0.5099
  926MPD2    C313549   3.318   3.439  13.056 -0.3832  0.1755  0.5130
  926MPD2    C413550   3.282   3.315  13.022 -0.2740 -0.2760  0.4753
  926MPD2    C513551   3.254   3.219  13.117 -0.5340 -0.5484  0.2676
  926MPD2     H13552   3.343   3.582  13.216  0.8450  0.7521 -1.5971
  926MPD2    H113553   3.275   3.282  12.919 -0.3327 -0.8322  0.6573
  926MPD2    H213554   3.222   3.184  13.324  0.3979  1.4692  1.4916
  926MPD2    H313555   3.218   3.118  13.100 -1.3473  0.2201 -2.6734
  926MPD2     N13556   3.367   3.513  12.946 -0.1946 -0.3647  0.4027
  926MPD2    H513557   3.381   3.478  12.852 -0.0703 -1.7125  0.9174
  926MPD2    N113558   3.284   3.436  13.434  0.0990  0.1363 -0.2634
  926MPD2    H713559   3.309   3.532  13.454 -2.7752  0.3909  2.0313
  927MPD2     C13560   3.403   0.897  17.496 -0.5460 -0.0609  0.5526
  927MPD2    C113561   3.528   0.883  17.559 -0.5162  0.8734 -0.1476
  927MPD2    C213562   3.639   0.933  17.494  0.1631  0.1873 -0.5081
  927MPD2    C313563   3.629   0.998  17.373  0.1943  0.2045 -0.2475
  927MPD2    C413564   3.499   1.007  17.315  0.4370  0.3179  0.3060
  927MPD2    C513565   3.393   0.959  17.378  0.4813 -0.2476  0.3542
  927MPD2     H13566   3.741   0.922  17.531 -0.3685  0.3933  1.0013
  927MPD2    H113567   3.484   1.052  17.217 -0.9399 -1.4106 -0.2752
  927MPD2    H213568   3.318   0.847  17.542 -0.8518  0.7349  0.8391
  927MPD2    H313569   3.298   0.978  17.329  2.4223  0.1355 -3.2297
  927MPD2     N13570   3.749   1.035  17.314 -0.8662 -0.4512 -1.4607
  927MPD2    H513571   3.841   1.012  17.351 -1.0796  0.4816 -0.3642
  927MPD2    N113572   3.531   0.813   0.003  0.7758 -0.0982 -0.5741
  927MPD2    H713573   3.444   0.778   0.042  0.4147  1.9307  0.4413
  928MPD2     C13574   2.131   3.952   1.295 -0.2084  0.2027 -0.0061
  928MPD2    C113575   2.127   4.083   1.260  0.2025 -0.1432 -0.5549
  928MPD2    C213576   2.145   4.119   1.130  0.8923 -0.1424  0.3469
  928MPD2    C313577   2.182   4.021   1.035  0.3261  0.1482  1.1727
  928MPD2    C413578   2.190   3.886   1.073  0.1908 -0.4093 -0.2696
  928MPD2    C513579   2.162   3.852   1.204 -0.5649 -0.2642  0.6924
  928MPD2     H13580   2.152   4.223   1.099  1.3465  0.0848  1.2348
  928MPD2    H113581   2.206   3.809   0.998  2.8487 -0.2169  0.0990
  928MPD2    H213582   2.130   3.913   1.396 -0.7069  3.1381  1.1373
  928MPD2    H313583   2.173   3.749   1.236  0.6929 -0.7030 -1.1650
  928MPD2     N13584   2.205   4.067   0.901 -0.4603 -0.6975  0.5594
  928MPD2    H513585   2.206   4.166   0.879 -3.0195 -1.0410 -1.0794
  928MPD2    N113586   2.100   4.175   1.357  0.4319  0.3467 -0.5543
  928MPD2    H713587   2.092   4.142   1.453 -2.8440  0.8046 -0.6769
  929MPD2     C13588   0.828   3.634   9.174  0.6853  0.4602 -0.1854
  929MPD2    C113589   0.867   3.570   9.293  1.3334 -1.1119  0.2841
  929MPD2    C213590   0.845   3.433   9.316  0.3567  0.0632 -0.2064
  929MPD2    C313591   0.753   3.377   9.226  1.2011 -0.2620  0.3771
  929MPD2    C413592   0.710   3.439   9.111 -0.1586 -0.1155  0.0258
  929MPD2    C513593   0.758   3.568   9.085 -0.0801  0.8259  0.0273
  929MPD2     H13594   0.877   3.377   9.402 -0.7499 -0.5874 -0.2132
  929MPD2    H113595   0.645   3.395   9.036 -1.4520  0.5069  0.8016
  929MPD2    H213596   0.863   3.734   9.152 -1.5281  0.9077 -1.6887
  929MPD2    H313597   0.734   3.619   8.992 -0.5084  1.2549  0.3753
  929MPD2     N13598   0.698   3.248   9.247  0.4767  0.1259 -1.0664
  929MPD2    H513599   0.671   3.209   9.158 -1.6442  0.6824 -0.6653
  929MPD2    N113600   0.933   3.653   9.392 -0.5022  0.0174 -0.2439
  929MPD2    H713601   0.954   3.750   9.370  1.1010  0.5794  3.6480
  930MPD2     C13602   3.061   0.980  13.791  0.0587  0.3005 -0.2743
  930MPD2    C113603   3.162   1.054  13.733  0.5134  0.5484 -0.8953
  930MPD2    C213604   3.249   0.996  13.642 -0.4028 -0.3353 -0.2126
  930MPD2    C313605   3.239   0.861  13.605  0.2905  0.0870 -0.2685
  930MPD2    C413606   3.131   0.798  13.663 -0.2596 -0.5612  0.8925
  930MPD2    C513607   3.045   0.853  13.757  0.2575 -0.1171  0.3398
  930MPD2     H13608   3.340   1.046  13.610  0.0726 -2.4117 -2.0609
  930MPD2    H113609   3.110   0.692  13.647  0.5211 -0.5993  0.0399
  930MPD2    H213610   2.994   1.014  13.869 -1.1727 -0.4061 -1.0074
  930MPD2    H313611   2.966   0.791  13.798 -0.6456  0.0406 -1.1403
  930MPD2     N13612   3.327   0.803  13.501  0.3270  0.5189 -0.6135
  930MPD2    H513613   3.311   0.703  13.495  0.9566  0.4461 -1.1332
  930MPD2    N113614   3.170   1.191  13.759  0.1054 -0.0112 -0.1362
  930MPD2    H713615   3.100   1.223  13.826  1.5041  1.4074  0.6496
  931MPD2     C13616   3.928   0.295   0.377  0.2192  0.3817 -0.5325
  931MPD2    C113617   3.848   0.363   0.466  0.4450  0.0142 -0.4115
  931MPD2    C213618   3.854   0.319   0.598 -0.5401  0.6757 -0.4854
  931MPD2    C313619   3.901   0.200   0.638  0.2640  0.1499  0.2889
  931MPD2    C413620   3.983   0.133   0.549  0.2646 -0.2630  0.1749
  931MPD2    C513621   3.998   0.182   0.420 -0.8753 -0.1037  0.2366
  931MPD2     H13622   3.798   0.376   0.671 -1.9137 -0.9712 -0.2566
  931MPD2    H113623   4.038   0.040   0.565 -1.7115 -1.2814  1.0131
  931MPD2    H213624   3.956   0.326   0.277 -1.5218 -0.6021 -1.3143
  931MPD2    H313625   4.066   0.129   0.355 -0.9210 -0.0305  0.1280
  931MPD2     N13626   3.894   0.147   0.770 -0.1098 -0.7181 -0.3823
  931MPD2    H513627   3.953   0.065   0.781 -0.1633 -0.9553 -1.8124
  931MPD2    N113628   3.784   0.482   0.427  0.1887 -0.4049 -0.4137
  931MPD2    H713629   3.816   0.518   0.337  0.7990 -0.5576 -0.2562
  932MPD2     C13630   4.396   0.061  10.989 -0.3905 -0.6686 -0.3732
  932MPD2    C113631   4.509   0.040  10.914 -0.0878 -0.5063 -0.3182
  932MPD2    C213632   4.593   4.661  10.951  0.5970 -0.5530  0.3020
  932MPD2    C313633   4.567   4.586  11.068 -0.3530  0.6458 -0.3803
  932MPD2    C413634   4.456   4.605  11.139 -0.2918  0.2143 -0.9531
  932MPD2    C513635   4.370   4.697  11.090 -0.1477  0.6002 -1.0015
  932MPD2     H13636   4.681   4.641  10.891  0.6539  0.2265  0.1366
  932MPD2    H113637   4.426   4.552  11.228  1.0791  0.7858 -0.1501
  932MPD2    H213638   4.315   0.129  10.964  0.8710  0.7486 -0.6062
  932MPD2    H313639   4.278   4.718  11.143  0.8366  0.3620  0.8068
  932MPD2     N13640   4.656   4.478  11.105 -0.2220  0.3856  0.7831
  932MPD2    H513641   4.634   4.425  11.189 -0.1870  1.9927  1.8129
  932MPD2    N113642   4.537   0.113  10.802 -0.0138  0.7583 -0.1103
  932MPD2    H713643   4.613   0.082  10.743 -0.2038  0.1869 -0.0524
  933MPD2     C13644   1.497   4.614   1.537  0.8253  0.1522 -0.2140
  933MPD2    C113645   1.614   4.689   1.534  0.5158 -0.3318 -0.6517
  933MPD2    C213646   1.605   0.107   1.530  0.2470  0.1284 -0.1681
  933MPD2    C313647   1.474   0.163   1.542  0.1801 -0.7257 -0.6875
  933MPD2    C413648   1.359   0.086   1.554 -0.4581  0.2073  0.0871
  933MPD2    C513649   1.371   4.669   1.544  0.6985 -0.1151  0.0369
  933MPD2     H13650   1.692   0.171   1.522 -0.5846  1.4969  1.6192
  933MPD2    H113651   1.260   0.130   1.565 -1.2017 -1.4662  0.1175
  933MPD2    H213652   1.499   4.505   1.542  1.2052  0.1422 -0.5564
  933MPD2    H313653   1.290   4.597   1.539 -1.7201  2.4483  2.1649
  933MPD2     N13654   1.471   0.304   1.546  0.3481 -0.6631 -0.2117
  933MPD2    H513655   1.559   0.352   1.537  0.2157 -0.5158 -0.7083
  933MPD2    N113656   1.740   4.622   1.521 -0.3819  0.1642 -0.6898
  933MPD2    H713657   1.739   4.521   1.522 -2.2122  0.1963  0.4232
  934MPD2     C13658   2.790   2.194   1.830 -0.1959 -0.1707 -0.2716
  934MPD2    C113659   2.798   2.056   1.832 -0.8784 -0.5577  0.2057
  934MPD2    C213660   2.682   1.981   1.847 -0.1082 -0.5003 -0.2860
  934MPD2    C313661   2.557   2.042   1.861 -0.6868  0.4786  0.4584
  934MPD2    C413662   2.547   2.181   1.871  0.2142  0.5430 -0.8415
  934MPD2    C513663   2.664   2.248   1.857 -0.3935  0.4704  0.5161
  934MPD2     H13664   2.695   1.874   1.838 -0.1185 -0.8290  3.7215
  934MPD2    H113665   2.453   2.233   1.884 -0.3903 -0.6806 -0.2235
  934MPD2    H213666   2.870   2.266   1.820  0.9546 -1.4362 -0.1879
  934MPD2    H313667   2.656   2.356   1.853 -0.9083  0.3397 -1.9424
  934MPD2     N13668   2.435   1.972   1.865  0.0483 -0.1867 -0.0293
  934MPD2    H513669   2.355   2.032   1.882  0.1432  0.4716 -1.9441
  934MPD2    N113670   2.918   1.985   1.815 -0.2883  0.0607 -0.9689
  934MPD2    H713671   2.917   1.885   1.804  1.0845 -0.5111  3.9207
  935MPD2     C13672   2.736   1.399   1.472  0.0387 -0.1969 -0.1105
  935MPD2    C113673   2.615   1.381   1.406  0.6325  0.1392 -0.8112
  935MPD2    C213674   2.498   1.425   1.467  0.2298 -0.4932 -1.0819
  935MPD2    C313675   2.508   1.498   1.584  0.0850 -0.1630 -0.3873
  935MPD2    C413676   2.628   1.518   1.647 -0.6671  0.4430  0.3723
  935MPD2    C513677   2.739   1.464   1.594  0.0797 -0.3333  0.0193
  935MPD2     H13678   2.404   1.404   1.418  0.2176 -1.6169 -0.5816
  935MPD2    H113679   2.629   1.582   1.734  0.0943 -1.2575  1.6061
  935MPD2    H213680   2.828   1.361   1.431  0.4382  1.2723 -0.5778
  935MPD2    H313681   2.837   1.475   1.639  0.3974 -1.0374 -0.4846
  935MPD2     N13682   2.402   1.555   1.653  0.0813 -0.6595  0.1663
  935MPD2    H513683   2.415   1.597   1.744 -0.4026 -1.6906  0.7091
  935MPD2    N113684   2.611   1.312   1.284 -0.1801  0.0020  0.6796
  935MPD2    H713685   2.516   1.289   1.256 -0.3218 -0.3107  1.4244
  936MPD2     C13686   0.884   3.119  12.568 -0.0992 -0.0775 -0.0060
  936MPD2    C113687   0.914   3.160  12.698  0.5837 -0.2000  0.3515
  936MPD2    C213688   0.937   3.295  12.719  0.2961 -0.3132  0.6173
  936MPD2    C313689   0.951   3.386  12.614 -0.3686  0.2326 -1.0928
  936MPD2    C413690   0.918   3.345  12.488 -0.1634  1.2142 -0.4160
  936MPD2    C513691   0.890   3.210  12.464 -0.2592 -0.9966  0.0248
  936MPD2     H13692   0.968   3.332  12.816  0.4547 -2.8240  1.5387
  936MPD2    H113693   0.914   3.411  12.403 -1.6871 -0.6759 -1.8237
  936MPD2    H213694   0.851   3.018  12.544 -0.3196  0.8035 -3.3424
  936MPD2    H313695   0.849   3.190  12.366  1.1078 -2.2532 -0.2842
  936MPD2     N13696   0.980   3.520  12.657 -0.0183  0.2085  0.9651
  936MPD2    H513697   0.973   3.540  12.756  0.2833 -1.0535  1.2291
  936MPD2    N113698   0.914   3.082  12.815  0.2509  0.1221 -0.2401
  936MPD2    H713699   0.932   3.123  12.906  0.6549  0.8943 -0.6679
  937MPD2     C13700   2.375   4.524  11.223  0.2450  0.2524 -0.3403
  937MPD2    C113701   2.490   4.596  11.255  0.5908 -0.0373 -0.2074
  937MPD2    C213702   2.552   4.657  11.147 -0.6126  0.2377 -0.3626
  937MPD2    C313703   2.519   4.640  11.012  0.1097  0.2348  0.0346
  937MPD2    C413704   2.412   4.563  10.988  0.0970 -0.1694  0.3908
  937MPD2    C513705   2.341   4.508  11.093  0.0223  0.2535  0.0853
  937MPD2     H13706   2.628   0.010  11.174  1.3990 -2.5336  1.4509
  937MPD2    H113707   2.372   4.544  10.889  1.0955 -1.3698  0.2061
  937MPD2    H213708   2.307   4.480  11.295 -0.8102 -1.5353 -2.4346
  937MPD2    H313709   2.256   4.445  11.072  0.3930 -0.0482 -0.5202
  937MPD2     N13710   2.606   4.694  10.911 -0.0469  0.0639  0.5031
  937MPD2    H513711   2.678   0.038  10.942 -0.6244  0.3657  1.2387
  937MPD2    N113712   2.518   4.638  11.387  0.0792 -0.5525 -0.5011
  937MPD2    H713713   2.605   4.690  11.395 -0.0792 -0.0617 -2.0778
  938MPD2     C13714   1.348   1.135   1.665 -0.6888  0.3738 -0.2997
  938MPD2    C113715   1.476   1.169   1.631  0.2655 -0.0152 -0.0418
  938MPD2    C213716   1.580   1.096   1.686 -0.3530 -0.1186 -0.1752
  938MPD2    C313717   1.562   0.980   1.761  0.5061 -0.0577  0.5173
  938MPD2    C413718   1.430   0.935   1.781 -0.3071  0.0966  0.1765
  938MPD2    C513719   1.329   1.018   1.742 -0.0955 -0.1499 -0.6129
  938MPD2     H13720   1.677   1.126   1.648  1.5353 -3.9407  1.5771
  938MPD2    H113721   1.410   0.839   1.828  1.8536  0.2324  1.3775
  938MPD2    H213722   1.257   1.187   1.636 -1.6381 -0.2496  1.5592
  938MPD2    H313723   1.234   0.979   1.776 -0.5002  1.2960 -0.1052
  938MPD2     N13724   1.663   0.891   1.791  0.4610 -0.2383  0.1643
  938MPD2    H513725   1.623   0.804   1.825  1.4421 -0.9701 -0.5427
  938MPD2    N113726   1.512   1.284   1.551  0.1633  0.3701 -0.2553
  938MPD2    H713727   1.608   1.289   1.519  0.2014 -3.0306 -0.6520
  939MPD2     C13728   3.191   2.764   1.559 -0.4720 -0.4673  0.4394
  939MPD2    C113729   3.259   2.868   1.508 -1.1079 -0.3037 -0.1910
  939MPD2    C213730   3.274   2.865   1.369 -0.4660 -0.0672 -0.7970
  939MPD2    C313731   3.227   2.758   1.297 -0.6119 -0.1067 -0.8699
  939MPD2    C413732   3.140   2.667   1.351 -0.0481 -0.1609  0.0218
  939MPD2    C513733   3.124   2.669   1.485 -0.1215 -0.3215  0.1151
  939MPD2     H13734   3.326   2.929   1.299 -0.4586  1.3185  0.4907
  939MPD2    H113735   3.096   2.582   1.299  0.0668  0.0491 -0.4217
  939MPD2    H213736   3.190   2.761   1.668 -2.3128 -1.2539  0.4127
  939MPD2    H313737   3.075   2.586   1.535 -0.7626  0.3167  0.5521
  939MPD2     N13738   3.268   2.755   1.163 -0.0431 -0.1085 -0.3885
  939MPD2    H513739   3.327   2.831   1.131 -1.1324  1.4110  1.2275
  939MPD2    N113740   3.319   2.955   1.593 -0.6288  0.1675  0.0727
  939MPD2    H713741   3.300   2.943   1.692 -0.5193 -0.1767  0.0483
  940MPD2     C13742   1.136   3.233  13.596  0.2196  0.1053 -0.1690
  940MPD2    C113743   1.141   3.375  13.599 -0.0988 -0.4484  0.0372
  940MPD2    C213744   1.185   3.434  13.482  0.5156 -0.0338  0.1552
  940MPD2    C313745   1.227   3.351  13.372 -0.0020 -0.0913 -0.2700
  940MPD2    C413746   1.235   3.215  13.382  0.0410  0.9120 -0.8325
  940MPD2    C513747   1.183   3.160  13.492 -0.4054  0.6521 -0.2099
  940MPD2     H13748   1.166   3.538  13.461 -1.0940 -0.4432 -0.4470
  940MPD2    H113749   1.264   3.154  13.297 -0.5991  1.3900 -1.3946
  940MPD2    H213750   1.092   3.175  13.677  1.3679 -3.1289 -1.8625
  940MPD2    H313751   1.182   3.052  13.501 -1.5986  0.9031  2.7673
  940MPD2     N13752   1.269   3.411  13.251  0.0534 -0.4013 -0.6327
  940MPD2    H513753   1.302   3.347  13.180 -0.4217  0.0673 -1.2776
  940MPD2    N113754   1.115   3.452  13.711  0.2202 -0.0285 -0.2051
  940MPD2    H713755   1.107   3.552  13.700 -0.3910 -0.3460 -2.4769
  941MPD2     C13756   3.905   1.886   9.349 -0.2776 -0.0943  0.3641
  941MPD2    C113757   4.028   1.914   9.309 -0.7752  0.1950 -0.3279
  941MPD2    C213758   4.128   1.816   9.307  1.1242  0.1383  0.3076
  941MPD2    C313759   4.096   1.689   9.335  0.1027 -0.0672  0.3760
  941MPD2    C413760   3.975   1.657   9.369  0.1495 -0.3951  0.5075
  941MPD2    C513761   3.881   1.760   9.378 -0.3838  0.5514  0.0317
  941MPD2     H13762   4.225   1.844   9.268  0.2115 -0.4717 -2.3792
  941MPD2    H113763   3.949   1.558   9.406  3.0619 -0.9448  1.0477
  941MPD2    H213764   3.820   1.954   9.345 -1.6651 -1.7636  1.2941
  941MPD2    H313765   3.781   1.729   9.405 -0.2276  0.2252  0.2320
  941MPD2     N13766   4.189   1.582   9.330  0.1430  0.5690 -0.2494
  941MPD2    H513767   4.157   1.492   9.367  0.1692  0.4150 -0.6039
  941MPD2    N113768   4.071   2.041   9.275  0.1554  0.4668  0.5692
  941MPD2    H713769   4.172   2.049   9.282  0.0980 -0.5494  2.6575
  942MPD2     C13770   2.996   4.392   9.492 -1.0729 -0.2788  0.0429
  942MPD2    C113771   3.010   4.319   9.612 -0.0182  0.1453  0.2531
  942MPD2    C213772   3.127   4.258   9.640  0.3491 -0.3431  0.5453
  942MPD2    C313773   3.235   4.269   9.554  0.6776  0.3536  0.2922
  942MPD2    C413774   3.217   4.334   9.436  0.1028  0.1510  0.3129
  942MPD2    C513775   3.101   4.393   9.404 -0.3530  0.0067  0.3222
  942MPD2     H13776   3.140   4.198   9.729  1.1447 -0.0495  0.6216
  942MPD2    H113777   3.296   4.337   9.362  0.0548  2.6482  0.3676
  942MPD2    H213778   2.903   4.441   9.464 -1.1027 -0.2194  0.2505
  942MPD2    H313779   3.090   4.450   9.313 -0.1231 -0.8482 -0.2332
  942MPD2     N13780   3.366   4.214   9.583  0.9977 -0.1599 -0.0535
  942MPD2    H513781   3.440   4.255   9.528  1.3130 -1.4440 -0.5946
  942MPD2    N113782   2.898   4.273   9.679  0.0331  0.4220  0.1451
  942MPD2    H713783   2.908   4.205   9.754 -0.8772  0.8900  0.6905
  943MPD2     C13784   2.455   1.378   9.172  0.7230 -0.0073  0.1484
  943MPD2    C113785   2.547   1.470   9.132 -0.3732 -0.0800 -0.0835
  943MPD2    C213786   2.506   1.596   9.089  0.1050 -0.1904 -0.3288
  943MPD2    C313787   2.367   1.621   9.073 -0.5927 -0.2122  0.2220
  943MPD2    C413788   2.277   1.528   9.123  0.0069 -0.9922  0.0376
  943MPD2    C513789   2.323   1.411   9.175  0.0141 -0.4543  0.0320
  943MPD2     H13790   2.578   1.667   9.049 -0.6609  0.5552 -0.4071
  943MPD2    H113791   2.170   1.540   9.128 -0.0833 -2.2437  0.9141
  943MPD2    H213792   2.489   1.286   9.218 -2.3519 -1.0886  0.2458
  943MPD2    H313793   2.252   1.337   9.208 -1.9180  0.4082 -2.1752
  943MPD2     N13794   2.321   1.742   9.023 -0.5202  0.1291 -0.5907
  943MPD2    H513795   2.221   1.759   9.032 -0.4210  1.6840 -2.3391
  943MPD2    N113796   2.683   1.419   9.150  0.1995  0.5930 -0.0855
  943MPD2    H713797   2.702   1.323   9.175  0.7532  0.4275 -1.1073
  944MPD2     C13798   3.488   1.182  10.582 -0.0463  0.4855 -0.3832
  944MPD2    C113799   3.602   1.256  10.583 -0.2806  0.3815  0.0027
  944MPD2    C213800   3.653   1.316  10.701 -0.4644  0.0111 -0.2050
  944MPD2    C313801   3.570   1.306  10.809 -0.4400  0.8958 -0.0497
  944MPD2    C413802   3.445   1.240  10.804 -0.0056 -0.0197  0.9388
  944MPD2    C513803   3.407   1.177  10.692 -0.0520  0.2913 -1.0871
  944MPD2     H13804   3.739   1.381  10.703 -0.3246 -0.2285  2.7813
  944MPD2    H113805   3.376   1.243  10.887 -1.6205 -0.7788 -0.4026
  944MPD2    H213806   3.451   1.128  10.496  1.3635  0.2409 -0.8351
  944MPD2    H313807   3.317   1.118  10.678  0.9131 -1.2309 -0.8752
  944MPD2     N13808   3.618   1.366  10.928 -0.2880  0.2154 -0.2531
  944MPD2    H513809   3.712   1.403  10.928  0.2918 -1.2452  1.7390
  944MPD2    N113810   3.672   1.251  10.460 -0.1224 -0.0074 -0.0242
  944MPD2    H713811   3.622   1.212  10.381  1.8051 -1.4303 -0.5371
    1TCq1    O113812   2.166   1.840  13.611 -0.0843  0.5536 -0.5346
    1TCq1    C113813   2.106   1.718  13.635  0.4641  0.7591 -0.0271
    1TCq1    O213814   2.146   1.614  13.584  0.7301  0.5420  0.0775
    1TCq1    C213815   2.077   1.709  13.782  0.8566  0.5227  0.2846
    1TCq1    C313816   2.031   1.583  13.823  0.0247 -0.9818  0.1003
    1TCq1    C413817   2.031   1.552  13.950 -0.1003 -0.1300 -0.3073
    1TCq1    C513818   2.083   1.638  14.045  0.7840  0.6386 -0.4653
    1TCq1    C613819   2.121   1.757  14.006 -0.1519  0.7086 -0.4018
    1TCq1    C713820   2.126   1.797  13.877  0.1646 -0.3519 -0.0637
    1TCq1    C813821   2.159   1.840  14.108 -0.2495  0.2834  0.3446
    1TCq1    O413822   2.192   1.788  14.216 -0.2825 -0.3359  0.5051
    1TCq1    C913823   1.996   1.414  13.994  0.8611  0.2646 -0.0013
    1TCq1    O513824   1.976   1.401  14.116 -0.7687 -0.0694  0.0443
    1TCq1    O613825   1.977   1.323  13.904  0.7532 -0.2021  0.2442
    1TCq1    H113826   2.132   1.910  13.671 -0.4400 -0.3308  0.2973
    1TCq1    H213827   2.011   1.506  13.748  2.5493 -0.5300 -1.0379
    1TCq1    H313828   2.092   1.597  14.145 -0.0786  1.9954  0.1700
    1TCq1    H413829   2.165   1.895  13.851  0.3485 -0.3846  0.0908
    2MPD2     C13830   2.229   2.297  14.302  0.6488 -0.1587  0.1720
    2MPD2    C113831   2.147   2.313  14.190 -0.1049  0.2451 -0.3066
    2MPD2    C213832   2.115   2.194  14.124  0.0389  0.3724  0.3328
    2MPD2    C313833   2.153   2.073  14.168  0.3021 -0.1361 -0.3225
    2MPD2    C413834   2.223   2.061  14.287 -0.3332 -0.0477  1.0740
    2MPD2    C513835   2.263   2.171  14.348  0.4496  0.4417 -0.5889
    2MPD2     H13836   2.055   2.210  14.035  3.0737 -1.0990 -2.0024
    2MPD2    H113837   2.263   1.975  14.340 -1.3757 -1.0742  0.1760
    2MPD2    H213838   2.267   2.383  14.355  0.6690 -0.9730  1.4727
    2MPD2    H313839   2.321   2.161  14.439 -0.9366  0.6086  0.3106
    2MPD2     N13840   2.120   1.969  14.084  0.3024 -0.2726 -0.0237
    2MPD2    H513841   2.071   2.000  14.001  0.4628  1.7445  0.6142
    2MPD2    N113842   2.116   2.444  14.149  0.3058  0.4095  0.0471
    2MPD2    H713843   2.161   2.514  14.206  2.1932  0.2776 -1.2992
    3TMC2    C113844   2.014   2.619  14.019 -0.1028 -0.3685 -0.6540
    3TMC2    C213845   2.075   2.713  14.089 -0.1074 -0.2435 -0.2917
    3TMC2    C313846   2.036   2.843  14.070  0.5039  0.0125 -0.4610
    3TMC2    C413847   1.930   2.643  13.908  0.5652  0.3479  0.4962
    3TMC2    C513848   1.903   2.775  13.892  0.2134 -0.1601 -0.1800
    3TMC2    C613849   1.956   2.874  13.971 -0.3921  0.0156  0.2925
    3TMC2     C13850   2.042   2.477  14.042 -0.3285  0.2860 -0.0316
    3TMC2     O13851   1.977   2.398  13.971 -0.0281  0.3025 -0.7302
    3TMC2     H13852   2.122   2.694  14.185  0.3913 -1.5807 -0.7915
    3TMC2    H113853   1.893   2.565  13.843 -1.6425  1.1171  0.8064
    3TMC2    H213854   1.951   2.977  13.940  0.7045  0.1520  0.5886
    3TMC2    C713855   1.818   2.802  13.777  0.4882 -0.0528 -0.5783
    3TMC2    C813856   2.131   2.940  14.100  0.4836 -0.2998 -0.9092
    3TMC2    O113857   1.815   2.721  13.684  0.0433  0.0533 -0.2283
    3TMC2    O213858   2.116   3.062  14.108 -0.3240  0.3075 -0.1773
    3TMC2    O513859   2.250   2.875  14.123  0.3104 -0.2640  0.0315
    3TMC2    H513860   2.250   2.783  14.088 -0.3455 -0.4995  0.6494
    4MPD2     C13861   0.861   4.022  13.449  0.2131  0.4139 -0.5971
    4MPD2    C113862   0.950   4.019  13.345 -0.0372 -0.1906 -0.4263
    4MPD2    C213863   1.075   3.962  13.367  0.2258  0.3690  0.2811
    4MPD2    C313864   1.114   3.907  13.486 -0.0598  0.6719  0.2434
    4MPD2    C413865   1.031   3.926  13.597 -0.7186 -0.7259  0.2934
    4MPD2    C513866   0.905   3.985  13.575 -0.3033 -0.2646 -0.1414
    4MPD2     H13867   1.142   3.936  13.286 -1.3372 -0.4041 -0.7651
    4MPD2    H113868   1.061   3.896  13.697 -0.5970 -1.2419  0.0989
    4MPD2    H213869   0.765   4.070  13.437  0.0422  0.6582  1.7816
    4MPD2    H313870   0.843   4.017  13.658 -2.1287 -0.7913 -1.2977
    4MPD2     N13871   1.242   3.842  13.493 -0.5574  0.3530 -0.3829
    4MPD2    H513872   1.288   3.818  13.406 -0.7258 -1.0240 -0.0827
    4MPD2    N113873   0.913   4.059  13.220 -0.6987  0.5448 -0.7264
    4MPD2    H713874   0.814   4.076  13.208 -0.1831  2.4013 -2.4062
    5TCq2    C113875   1.298   3.791  13.605 -0.8509 -0.1633  0.3775
    5TCq2    O213876   1.244   3.775  13.715  0.3905 -0.1862  0.1394
    5TCq2    C213877   1.423   3.731  13.591  0.1582  0.1069  0.1375
    5TCq2    C313878   1.510   3.776  13.499 -0.8520 -0.2935 -0.4494
    5TCq2    C413879   1.626   3.710  13.469 -0.0002 -0.4283  0.3256
    5TCq2    C513880   1.650   3.590  13.528 -0.0965  0.0599 -0.7697
    5TCq2    C613881   1.559   3.550  13.621  0.3212 -0.1604  0.7936
    5TCq2    C713882   1.446   3.616  13.655 -0.3113 -0.7050 -0.7912
    5TCq2    C813883   1.567   3.410  13.664 -0.7868 -0.2118 -0.5396
    5TCq2    O413884   1.575   3.382  13.784 -0.7126  0.0952 -0.3020
    5TCq2    C913885   1.719   3.745  13.366 -0.6046  0.3013  0.1734
    5TCq2    O513886   1.776   3.650  13.308 -0.1786  0.0951  0.0823
    5TCq2    O613887   1.734   3.868  13.339 -0.1413 -0.5246 -0.1252
    5TCq2    H213888   1.483   3.866  13.445 -3.3170 -1.4185 -1.0688
    5TCq2    H313889   1.741   3.535  13.505  1.2424  1.6923  0.6192
    5TCq2    H413890   1.373   3.584  13.729 -1.1943  4.2371  0.5004
    6MPD1     C13891   0.279   0.936  12.674 -0.4753  0.5781  0.0723
    6MPD1    C113892   0.306   0.871  12.788  0.2176  0.0518 -0.1589
    6MPD1    C213893   0.331   0.732  12.790  0.2341 -0.3630 -0.0764
    6MPD1    C313894   0.316   0.666  12.670  0.3827  0.1615 -0.3973
    6MPD1    C413895   0.281   0.729  12.553 -0.5634 -0.6547 -0.3966
    6MPD1    C513896   0.263   0.864  12.559 -0.3768 -0.0395  0.0797
    6MPD1     H13897   0.355   0.687  12.886 -1.5185 -0.2670  0.4078
    6MPD1    H113898   0.264   0.681  12.458 -1.0300 -0.7215 -0.2836
    6MPD1    H213899   0.256   1.041  12.659  1.4136  0.8132 -1.2268
    6MPD1    H313900   0.226   0.913  12.469  0.8934 -0.3587 -0.6179
    6MPD1     N13901   0.323   0.521  12.662  0.1045  0.1035 -0.0004
    6MPD1    H513902   0.314   0.474  12.572  0.7951 -2.3708  1.2157
    6MPD1    N113903   0.319   0.939  12.907 -0.1567  0.4812 -0.4451
    6MPD1    H613904   0.251   1.014  12.906  0.4547  1.0764  1.6892
    6MPD1    H713905   0.306   0.886  12.994 -2.4491 -0.0652 -1.1243
    7MPD2     C13906   0.328   4.545  12.773 -0.9508  0.3750  0.2502
    7MPD2    C113907   0.416   4.516  12.881 -0.5812 -0.5143  0.3719
    7MPD2    C213908   0.493   4.399  12.880 -0.2540 -0.0402 -0.4234
    7MPD2    C313909   0.485   4.315  12.767  0.2661  0.7668  0.7348
    7MPD2    C413910   0.418   4.357  12.653  1.0792 -0.5000 -0.5108
    7MPD2    C513911   0.330   4.465  12.661  0.3894  0.0979 -0.0045
    7MPD2     H13912   0.543   4.367  12.970 -1.7990 -1.9116 -0.2238
    7MPD2    H113913   0.420   4.296  12.564  1.9875  0.4355 -1.1285
    7MPD2    H213914   0.260   4.629  12.775 -0.6761  0.5904  0.5617
    7MPD2    H313915   0.265   4.489  12.577 -2.6784 -0.8381  2.0819
    7MPD2     N13916   0.557   4.188  12.762 -0.6348 -0.4339  0.3739
    7MPD2    H513917   0.578   4.155  12.669  0.5787 -1.0822  0.8785
    7MPD2    N113918   0.419   4.608  12.987 -0.1768  0.3986  0.0738
    7MPD2    H713919   0.441   4.567  13.077 -0.9111  2.3786  1.1758
    8TMC3    C113920   0.723   4.034  12.845 -0.1196 -0.0839 -0.0238
    8TMC3    C213921   0.784   4.026  12.967 -0.4089 -0.1039 -0.0831
    8TMC3    C313922   0.912   4.067  12.979 -0.1798  0.8216  0.9369
    8TMC3    C413923   0.787   4.066  12.732 -0.8083 -0.0440 -0.3857
    8TMC3    C513924   0.910   4.131  12.750  0.2731  0.3865  0.4289
    8TMC3    C613925   0.970   4.126  12.871  0.6373  0.7251 -0.5783
    8TMC3     C13926   0.607   4.121  12.866  0.5833  0.5347  0.1494
    8TMC3     O13927   0.582   4.140  12.985 -0.1418 -0.4325 -0.2191
    8TMC3     H13928   0.728   3.974  13.044 -1.2024  1.9983  0.7506
    8TMC3    H113929   0.743   4.054  12.634  0.1928  0.6901 -0.9150
    8TMC3    H213930   1.061   4.182  12.888  0.9130  0.0318  0.2516
    8TMC3    C713931   0.897   4.269  12.704  0.2700 -0.2207 -0.7673
    8TMC3    C813932   0.983   4.065  13.106  0.3400  0.0956  0.6071
    8TMC3    O113933   0.900   4.354  12.792  0.6129 -0.1151  0.1649
    8TMC3    O213934   1.105   4.051  13.089  0.3104  0.6813 -0.3425
    9TMC3    C113935   0.351   0.295  12.749 -0.0797  0.7270  0.0976
    9TMC3    C213936   0.428   0.261  12.641  0.5867  0.7378 -0.3967
    9TMC3    C313937   0.501   0.151  12.664 -0.0437  0.2836  0.4920
    9TMC3    C413938   0.320   0.208  12.859  0.2604 -0.3560  0.1763
    9TMC3    C513939   0.394   0.098  12.867  0.1834 -0.1968  0.2502
    9TMC3    C613940   0.497   0.072  12.783 -0.0373 -0.6527  0.5266
    9TMC3     C13941   0.332   0.432  12.774  0.1197  0.1008 -0.2007
    9TMC3     O13942   0.321   0.454  12.893 -0.8149 -0.2174 -0.5270
    9TMC3     H13943   0.443   0.323  12.553  0.3397  1.6741  0.2183
    9TMC3    H113944   0.245   0.226  12.935 -0.2307 -0.1825 -0.3537
    9TMC3    H213945   0.549   4.697  12.780  0.2150 -0.4954 -0.2344
    9TMC3    C713946   0.384   0.022  12.989 -0.7040 -0.7209  1.1206
    9TMC3    C813947   0.577   0.096  12.551 -0.2545 -0.4172 -0.0530
    9TMC3    O113948   0.347   0.082  13.089  0.6354  0.2265  0.1115
    9TMC3    O213949   0.560   0.128  12.435  0.2651  0.1823  0.1188
   10MPD2     C13950   0.810   4.403  12.365 -0.5803 -0.2874 -0.0743
   10MPD2    C113951   0.816   4.396  12.501 -0.3328  0.7592  0.2095
   10MPD2    C213952   0.775   4.505  12.572  0.3653  0.3839 -0.9853
   10MPD2    C313953   0.728   4.613  12.511  0.0207 -0.3643 -0.0215
   10MPD2    C413954   0.732   4.626  12.370 -0.4949 -0.5476  0.6902
   10MPD2    C513955   0.772   4.516  12.305  0.7721 -0.2347 -0.2266
   10MPD2     H13956   0.771   4.498  12.681 -0.6342 -0.1158 -1.0614
   10MPD2    H113957   0.696   4.710  12.312  1.0159  0.3851  1.1197
   10MPD2    H213958   0.837   4.315  12.308  0.8481 -0.5494  1.0133
   10MPD2    H313959   0.788   4.519  12.198 -0.7766 -0.0161 -0.4466
   10MPD2     N13960   0.662   4.713  12.586 -0.5998  0.7356  0.2479
   10MPD2    H513961   0.685   4.709  12.685 -0.5186  3.0866  0.3248
   10MPD2    N113962   0.874   4.278  12.565 -0.2922  0.3573  0.2611
   10MPD2    H713963   0.917   4.208  12.505  1.2930  0.1450  1.6597
   11MPD2     C13964   1.753   2.955  13.527  0.0264 -0.4435  0.1026
   11MPD2    C113965   1.734   3.010  13.656  0.3051  0.0953  0.4412
   11MPD2    C213966   1.672   3.134  13.660  0.5610  0.5922 -0.1061
   11MPD2    C313967   1.623   3.194  13.547 -0.8112 -0.5591 -0.3450
   11MPD2    C413968   1.632   3.132  13.424  0.7936 -0.4606  0.1067
   11MPD2    C513969   1.698   3.017  13.415  0.0482  0.1043 -0.1796
   11MPD2     H13970   1.652   3.174  13.760  0.5668 -0.3498  0.2705
   11MPD2    H113971   1.597   3.175  13.330  0.8586  2.6687  1.5201
   11MPD2    H213972   1.810   2.866  13.504 -1.2124 -0.7602 -1.7410
   11MPD2    H313973   1.709   2.975  13.316 -0.4120 -2.2163  0.7716
   11MPD2     N13974   1.574   3.328  13.548 -0.3861 -1.2574  0.1632
   11MPD2    H513975   1.564   3.365  13.454  0.6387 -3.2074 -0.7043
   11MPD2    N113976   1.782   2.938  13.770 -0.5251  0.0729  0.0325
   11MPD2    H713977   1.788   2.989  13.857 -0.0443  0.5278 -0.2714
    1MPD1     C13978   4.320   4.467  17.280 -0.1218 -0.3338 -0.5931
    1MPD1    C113979   4.438   4.541  17.281  0.3313  0.0289 -0.1720
    1MPD1    C213980   4.486   4.598  17.161 -0.2174 -0.1300  0.5037
    1MPD1    C313981   4.419   4.573  17.042 -0.7395  0.1088 -0.4282
    1MPD1    C413982   4.311   4.496  17.042 -0.9924  0.2563 -0.8005
    1MPD1    C513983   4.261   4.440  17.159  0.1798 -0.3206 -0.5124
    1MPD1     H13984   4.574   4.658  17.181  0.2040 -0.5510 -0.1232
    1MPD1    H113985   4.258   4.465  16.952 -0.8964 -0.6505 -0.5525
    1MPD1    H213986   4.284   4.425  17.373 -0.0239  1.5794  0.2944
    1MPD1    H313987   4.179   4.369  17.159 -1.2786  1.3689  0.4810
    1MPD1     N13988   4.459   4.609  16.910 -0.3352 -0.5703 -0.0781
    1MPD1    H513989   4.391   4.607  16.835  0.3444  0.1987 -0.7257
    1MPD1    N113990   4.530   4.560  17.395 -0.2037 -0.0336  0.3189
    1MPD1    H613991   4.554   4.656  17.416  2.0165 -1.0334  2.4079
    1MPD1    H713992   4.503   4.512  17.480  0.1448 -0.5432  0.1480
    2MPD1     C13993   0.637   0.179  16.537  0.2630 -0.1666  0.0192
    2MPD1    C113994   0.579   0.206  16.659  0.5264  0.7976  0.2259
    2MPD1    C213995   0.452   0.165  16.676  0.8438 -0.0076  0.7597
    2MPD1    C313996   0.377   0.118  16.575 -0.0584  0.0885  0.0036
    2MPD1    C413997   0.430   0.116  16.446  0.2303  0.2855  0.1879
    2MPD1    C513998   0.561   0.146  16.431 -0.0846 -0.0820  0.2003
    2MPD1     H13999   0.405   0.167  16.773  0.6576 -1.4879  0.6939
    2MPD1    H114000   0.374   0.083  16.359 -1.7028  0.2351  1.4401
    2MPD1    H214001   0.744   0.190  16.522  0.2037 -0.8379 -0.9002
    2MPD1    H314002   0.605   0.141  16.333 -1.5345  0.6382 -0.4996
    2MPD1     N14003   0.244   0.079  16.604  0.3220 -0.7179  0.3653
    2MPD1    H514004   0.226   0.060  16.702  0.5015 -1.9306  0.1646
    2MPD1    N114005   0.661   0.227  16.771  0.1238  0.7495  0.0519
    2MPD1    H614006   0.606   0.277  16.840 -0.0173 -1.3892  1.4799
    2MPD1    H714007   0.748   0.278  16.755  0.0330  0.7317 -0.5265
    3TMC3    C114008   0.016   0.018  16.558 -0.6528 -0.2837  0.0211
    3TMC3    C214009   4.653   4.672  16.468 -0.3340  0.4127  0.3035
    3TMC3    C314010   4.533   4.635  16.513  0.0417 -0.1893 -0.3585
    3TMC3    C414011   4.701   0.040  16.690  0.0555  0.7768  0.3707
    3TMC3    C514012   4.586   4.708  16.731  0.3612  0.0868  0.3512
    3TMC3    C614013   4.499   4.650  16.644 -0.5749 -0.7851  0.9850
    3TMC3     C14014   0.143   0.063  16.509  0.0656 -0.1541 -0.3313
    3TMC3     O14015   0.143   0.085  16.384 -0.2058 -0.2218 -0.3088
    3TMC3     H14016   4.689   4.635  16.372 -0.4820  1.4856 -0.1665
    3TMC3    H114017   0.050   0.092  16.756 -1.0144 -0.6143  2.5629
    3TMC3    H214018   4.395   4.631  16.669 -1.7591  2.4816 -1.4618
    3TMC3    C714019   4.579   4.671  16.874  0.1307  0.0236  0.1696
    3TMC3    C814020   4.423   4.601  16.418 -0.0681  0.2000 -0.6622
    3TMC3    O114021   4.668   4.709  16.942  0.4698  0.2670 -0.2024
    3TMC3    O214022   4.328   4.538  16.465 -0.3711 -0.1699 -0.2750
    4MPD1     C14023   4.211   4.523  15.947 -0.6170  0.0400 -0.0921
    4MPD1    C114024   4.338   4.572  15.933 -1.0043  0.2811  0.2720
    4MPD1    C214025   4.410   4.604  16.041 -0.4946  0.3465  0.2428
    4MPD1    C314026   4.365   4.589  16.173 -0.5059 -0.6170 -0.3010
    4MPD1    C414027   4.236   4.541  16.187 -0.2002 -0.0596 -0.3714
    4MPD1    C514028   4.163   4.519  16.074  0.1026  0.4148 -0.6663
    4MPD1     H14029   4.506   4.653  16.025 -1.4673  1.8265 -1.0165
    4MPD1    H114030   4.188   4.542  16.285  0.0473  1.9695 -0.2645
    4MPD1    H214031   4.150   4.478  15.870 -1.4932  0.1211  0.5538
    4MPD1    H314032   4.055   4.515  16.085  0.3949 -0.0502  2.0609
    4MPD1     N14033   4.450   4.626  16.281 -0.4498  0.0249  0.6115
    4MPD1    H514034   4.529   4.685  16.259 -0.0542 -0.9413 -0.6314
    4MPD1    N114035   4.392   4.593  15.800  0.2309  0.5122 -0.1846
    4MPD1    H614036   4.493   4.583  15.790  0.1213 -0.5745 -0.2634
    4MPD1    H714037   4.345   4.531  15.734  0.9198 -0.4876  0.2681
    1TCq1    O114038   0.611   4.148  10.849  0.0506 -0.1032 -0.2785
    1TCq1    C114039   0.652   4.253  10.777  0.1890  0.2341  0.1787
    1TCq1    O214040   0.740   4.254  10.696 -0.2863  0.0680  0.7893
    1TCq1    C214041   0.558   4.359  10.776 -0.7190 -0.5575 -0.9596
    1TCq1    C314042   0.524   4.421  10.662  0.3782  0.2105  0.1781
    1TCq1    C414043   0.429   4.520  10.663 -0.5607  0.8004 -0.7208
    1TCq1    C514044   0.353   4.555  10.772 -0.0150  0.3916  0.0828
    1TCq1    C614045   0.408   4.501  10.894 -0.4461 -0.3517 -0.3154
    1TCq1    C714046   0.500   4.399  10.896  0.4988 -0.0346  0.2364
    1TCq1    C814047   0.397   4.575  11.018  0.1151 -0.1247  0.1146
    1TCq1    O414048   0.309   4.662  11.024 -0.0006 -0.0264 -0.2090
    1TCq1    C914049   0.385   4.563  10.542 -0.3911 -0.0412 -0.2322
    1TCq1    O514050   0.456   4.520  10.446  0.0617 -0.5735  0.5123
    1TCq1    O614051   0.292   4.648  10.540  0.0886  0.3435 -0.3350
    1TCq1    H114052   0.531   4.144  10.906 -0.1289 -0.0014 -0.5221
    1TCq1    H214053   0.557   4.369  10.573 -1.6328 -0.0922 -0.3947
    1TCq1    H314054   0.277   4.632  10.768 -1.8632 -1.4991 -1.4092
    1TCq1    H414055   0.511   4.343  10.988  0.1208  0.0245  0.3172
    2MPD1     C14056   0.547   4.666  11.504  0.1641 -0.4090 -0.5611
    2MPD1    C114057   0.603   4.555  11.453 -0.4171  0.5986  0.1366
    2MPD1    C214058   0.585   4.516  11.322 -0.1744 -0.2472 -0.1809
    2MPD1    C314059   0.494   4.576  11.242 -0.7578  0.4213  0.4174
    2MPD1    C414060   0.423   4.677  11.298 -0.3333  0.0696  0.1116
    2MPD1    C514061   0.448   4.719  11.428 -0.3431  0.6196  0.3966
    2MPD1     H14062   0.654   4.443  11.279  1.0833  0.9609 -0.2186
    2MPD1    H114063   0.334   0.002  11.255 -1.2020 -1.9031 -0.1413
    2MPD1    H214064   0.574   4.711  11.599  2.5209  0.1961 -1.5226
    2MPD1    H314065   0.390   0.081  11.469 -1.0876 -1.1892  2.9187
    2MPD1     N14066   0.486   4.529  11.110  0.0066 -0.5471 -0.0752
    2MPD1    H514067   0.544   4.446  11.103  0.6603 -0.1431  0.6926
    2MPD1    N114068   0.706   4.504  11.529 -0.0757  0.1498 -0.7365
    2MPD1    H614069   0.720   4.406  11.506  0.4735  0.2491 -0.8223
    2MPD1    H714070   0.662   4.506  11.621  0.9167  2.4895 -0.3079
    1TCq1    O114071   0.523   4.410   0.467 -0.1956  0.0939 -0.0803
    1TCq1    C114072   0.551   4.404   0.597 -0.2169 -0.4444  0.3206
    1TCq1    O214073   0.615   4.492   0.657  0.2504  0.5183 -0.1097
    1TCq1    C214074   0.537   4.270   0.651  0.7646 -0.6143 -0.3211
    1TCq1    C314075   0.593   4.266   0.775  0.2245  0.0187  0.0381
    1TCq1    C414076   0.628   4.149   0.836 -0.2891  0.0007  0.3590
    1TCq1    C514077   0.641   4.045   0.752  0.0330  0.3800  0.3204
    1TCq1    C614078   0.601   4.051   0.626  0.7651 -0.5108  0.1074
    1TCq1    C714079   0.551   4.164   0.569  0.3414 -0.2528  0.1695
    1TCq1    C814080   0.589   3.929   0.559 -0.7275  0.1443  0.2805
    1TCq1    O414081   0.575   3.835   0.637  0.3154 -0.0954  0.4313
    1TCq1    C914082   0.698   4.148   0.962 -0.2399  0.2208  0.0988
    1TCq1    O514083   0.761   4.047   0.992  0.2690 -0.2617  0.0995
    1TCq1    O614084   0.732   4.258   1.012 -0.1982 -0.3553  0.3117
    1TCq1    H114085   0.465   4.341   0.427 -2.2953  2.1066 -0.5138
    1TCq1    H214086   0.601   4.352   0.840  0.3853  1.1154 -1.4306
    1TCq1    H314087   0.687   3.953   0.788  0.2326  0.2322 -0.3209
    1TCq1    H414088   0.512   4.160   0.467  1.0017 -1.5278 -0.0301
    2MPD1     C14089   0.578   3.609   0.151 -0.2447 -0.1908  0.8153
    2MPD1    C114090   0.606   3.740   0.105 -0.3322 -0.1504  0.2747
    2MPD1    C214091   0.609   3.851   0.196 -0.0030 -0.7463 -0.1480
    2MPD1    C314092   0.593   3.826   0.330  0.2429  0.2073  0.3057
    2MPD1    C414093   0.557   3.697   0.372 -0.1849 -0.4633  0.1225
    2MPD1    C514094   0.544   3.593   0.283 -0.9777  0.4379  0.0278
    2MPD1     H14095   0.633   3.952   0.166 -2.4044  0.0918  0.7304
    2MPD1    H114096   0.556   3.672   0.478 -0.6572 -2.0443 -0.2535
    2MPD1    H214097   0.575   3.531   0.077  0.7925  0.6750 -0.1387
    2MPD1    H314098   0.523   3.493   0.319  1.0383  0.6825  1.9232
    2MPD1     N14099   0.613   3.932   0.424 -0.3805  0.2992  0.5749
    2MPD1    H514100   0.632   4.025   0.388  0.7889 -0.2505 -0.2301
    2MPD1    N114101   0.670   3.759  17.667 -0.0015 -0.7555  0.1748
    2MPD1    H614102   0.653   3.849  17.624 -0.5541 -0.4284  1.0929
    2MPD1    H714103   0.658   3.684  17.598 -3.0179 -0.3730  0.2938
    1MPD1     C14104   0.955   0.540  12.262  0.0399 -0.4789 -0.1181
    1MPD1    C114105   1.068   0.472  12.312 -0.3392  0.0263  0.2364
    1MPD1    C214106   1.160   0.413  12.218  0.0880 -0.0009 -0.0619
    1MPD1    C314107   1.140   0.434  12.079 -0.1563  0.2589  0.1023
    1MPD1    C414108   1.039   0.524  12.033  0.5662  0.4668  0.4627
    1MPD1    C514109   0.943   0.559  12.124 -0.0379 -0.3779 -0.0444
    1MPD1     H14110   1.237   0.344  12.251  0.0284 -0.5989 -1.1891
    1MPD1    H114111   1.013   0.521  11.928 -0.3896 -2.7504  0.7792
    1MPD1    H214112   0.873   0.578  12.322 -0.5315 -0.8202 -0.6763
    1MPD1    H314113   0.859   0.617  12.088  0.1965 -0.6224 -0.9862
    1MPD1     N14114   1.229   0.372  11.987 -0.0505 -0.0800 -0.3526
    1MPD1    H514115   1.300   0.319  12.036  1.5259  2.1608 -0.2062
    1MPD1    N114116   1.072   0.439  12.454  0.4788 -0.8488  0.5951
    1MPD1    H614117   1.167   0.423  12.486  0.0525 -1.1071  1.7300
    1MPD1    H714118   1.026   0.515  12.503  1.2923  0.1836 -0.2469
    2MPD1     C14119   2.891   4.325  10.961 -0.0629  0.4703  0.7265
    2MPD1    C114120   2.887   4.235  10.852  0.8808  0.4701 -0.4732
    2MPD1    C214121   2.760   4.196  10.809 -0.6518  0.3059  0.3156
    2MPD1    C314122   2.647   4.238  10.879 -0.2167  0.5005 -0.2644
    2MPD1    C414123   2.658   4.319  10.991  0.8470 -0.4261 -0.1268
    2MPD1    C514124   2.781   4.367  11.027  0.8489 -0.2466 -0.0600
    2MPD1     H14125   2.753   4.117  10.735  1.7694 -0.7757  1.2613
    2MPD1    H114126   2.577   4.348  11.057  0.6189 -0.0615 -0.5677
    2MPD1    H214127   2.985   4.363  11.001  1.1973 -2.1298  0.2947
    2MPD1    H314128   2.783   4.423  11.119  0.9892 -2.6108  1.3652
    2MPD1     N14129   2.521   4.206  10.835  0.1896 -0.0159 -0.2293
    2MPD1    H514130   2.444   4.229  10.898  1.6152 -1.6950  2.1102
    2MPD1    N114131   2.993   4.212  10.770  0.5368  0.4808  0.5592
    2MPD1    H614132   3.086   4.229  10.810 -0.2183  0.9927  2.1222
    2MPD1    H714133   2.979   4.116  10.740  0.9617  1.1102 -1.6416
    3MPD1     C14134   2.279   3.483  10.217  0.4588  0.1302  0.7140
    3MPD1    C114135   2.362   3.475  10.323  0.2700  0.0808 -0.3554
    3MPD1    C214136   2.359   3.576  10.412 -0.4252 -0.2700 -0.2523
    3MPD1    C314137   2.257   3.660  10.425  0.1711 -0.1742  0.3397
    3MPD1    C414138   2.158   3.655  10.329  0.6344  0.0697 -0.7207
    3MPD1    C514139   2.182   3.573  10.225  0.0951  0.1187  0.1684
    3MPD1     H14140   2.439   3.585  10.485 -1.4022 -2.6594  1.1070
    3MPD1    H114141   2.067   3.714  10.324 -0.1728 -1.0734  0.4170
    3MPD1    H214142   2.285   3.419  10.130 -0.1176  2.5504 -1.1304
    3MPD1    H314143   2.108   3.572  10.146 -0.6811 -1.3839  0.9078
    3MPD1     N14144   2.270   3.769  10.514  0.1681 -0.3915  0.3783
    3MPD1    H514145   2.355   3.793  10.564  1.4232 -1.3910 -1.2792
    3MPD1    N114146   2.475   3.404  10.299 -0.3813 -0.5651 -0.3756
    3MPD1    H614147   2.513   3.378  10.390  0.3073 -1.6818 -0.9872
    3MPD1    H714148   2.454   3.313  10.258 -1.5902 -2.0409  3.5531
    4MPD2     C14149   1.924   0.295  11.514  0.1465  0.6798  0.0194
    4MPD2    C114150   1.877   0.233  11.630  0.0863 -0.3178 -0.4967
    4MPD2    C214151   1.936   0.114  11.660 -0.7915 -0.6030  0.5015
    4MPD2    C314152   2.037   0.056  11.585  0.1904  0.9672 -0.0844
    4MPD2    C414153   2.084   0.124  11.474  0.1150  0.3217 -0.0247
    4MPD2    C514154   2.026   0.243  11.444  0.3043 -0.4664  0.3247
    4MPD2     H14155   1.903   0.055  11.746 -0.3459  0.5471  1.4565
    4MPD2    H114156   2.169   0.081  11.422  0.1628 -1.2995  1.4123
    4MPD2    H214157   1.885   0.390  11.479 -0.4389 -0.1827 -1.6866
    4MPD2    H314158   2.059   0.298  11.357  0.1649 -1.2328 -0.2173
    4MPD2     N14159   2.092   4.647  11.606  0.2181  0.1750 -0.2470
    4MPD2    H514160   2.147   4.616  11.526 -1.9876 -0.0878 -1.6756
    4MPD2    N114161   1.761   0.278  11.700 -0.2183 -0.1675  0.9585
    4MPD2    H714162   1.743   0.223  11.783 -2.7054 -0.4969  0.1879
    5TMC3    C114163   1.569   0.374  11.763 -0.0507 -0.2621 -0.5008
    5TMC3    C214164   1.441   0.391  11.724 -0.3850 -0.6346 -0.0581
    5TMC3    C314165   1.349   0.307  11.790 -0.9065 -0.4426  0.1977
    5TMC3    C414166   1.602   0.315  11.877  0.0384  0.1967  0.6015
    5TMC3    C514167   1.515   0.222  11.922 -0.2412  0.3167  0.2415
    5TMC3    C614168   1.389   0.214  11.884  0.3548 -0.7617 -0.3953
    5TMC3     C14169   1.678   0.376  11.669  0.1312 -0.4036 -0.1184
    5TMC3     O14170   1.666   0.435  11.562  0.2334  0.2281  0.3102
    5TMC3     H14171   1.422   0.458  11.641  0.2046 -1.6299 -0.9954
    5TMC3    H114172   1.699   0.330  11.922 -0.1439  1.1656  0.6811
    5TMC3    H214173   1.319   0.134  11.908 -0.4317  0.0755  0.1013
    5TMC3    C714174   1.584   0.095  11.945 -0.4450  0.0237 -0.8410
    5TMC3    C814175   1.238   0.385  11.846  0.4764 -0.0636 -0.5505
    5TMC3    O114176   1.705   0.101  11.928 -0.8859  0.8081  0.0276
    5TMC3    O214177   1.169   0.457  11.777 -0.4667  0.2022 -0.2831
    6TMC3    C114178   2.347   4.123  10.699 -0.0604 -0.5940 -0.1772
    6TMC3    C214179   2.320   4.017  10.622  0.3580 -0.4018 -0.2122
    6TMC3    C314180   2.201   3.957  10.631  0.1785 -0.4242  0.3207
    6TMC3    C414181   2.260   4.180  10.783 -0.1398  0.4101 -0.5477
    6TMC3    C514182   2.129   4.130  10.778 -0.2541  0.4253  0.0737
    6TMC3    C614183   2.099   4.020  10.701  0.7341  0.2494 -0.0389
    6TMC3     C14184   2.488   4.155  10.711  0.7047 -0.0794  0.5378
    6TMC3     O14185   2.550   4.146  10.604 -0.2630 -0.2535 -0.4852
    6TMC3     H14186   2.396   3.985  10.551 -0.8102  0.1565 -1.7056
    6TMC3    H114187   2.285   4.274  10.830  0.9922 -0.4246  0.5295
    6TMC3    H214188   1.999   3.977  10.694  1.0961 -0.4172 -1.1785
    6TMC3    C714189   2.059   4.158  10.905  0.8768  0.8351  0.2603
    6TMC3    C814190   2.164   3.854  10.538 -0.2297  0.2872 -0.5025
    6TMC3    O114191   2.111   4.242  10.971 -0.1542 -0.9219  0.4196
    6TMC3    O214192   2.043   3.833  10.527 -0.3156  0.2827  0.5021
    7MPD2     C14193   1.613   4.313  12.010 -0.1628 -0.9434  0.0695
    7MPD2    C114194   1.692   4.403  11.939 -0.1229  0.2508  0.8260
    7MPD2    C214195   1.654   4.532  11.925  0.3245  0.4063 -0.1280
    7MPD2    C314196   1.540   4.582  11.982 -0.1312  1.2212  0.4376
    7MPD2    C414197   1.461   4.489  12.053 -0.1581  0.9119  0.2226
    7MPD2    C514198   1.499   4.358  12.064  0.2551 -0.8832 -0.7591
    7MPD2     H14199   1.711   4.599  11.862 -0.2845  0.9936 -0.0500
    7MPD2    H114200   1.365   4.520  12.093 -1.9194 -2.9364 -1.0927
    7MPD2    H214201   1.643   4.210  12.025  1.1959 -0.4798  0.6441
    7MPD2    H314202   1.445   4.282  12.120 -0.9933  0.0621 -0.6782
    7MPD2     N14203   1.501   4.715  11.990  0.3434  0.2143  0.2818
    7MPD2    H514204   1.414   0.024  12.034  0.6875  0.9491  0.4772
    7MPD2    N114205   1.815   4.370  11.882  0.3422 -0.0975  0.8943
    7MPD2    H714206   1.859   4.445  11.829 -0.6780  0.8829  1.4365
    8TMC3    C114207   1.993   4.252  11.801  0.0696 -0.4931 -0.3432
    8TMC3    C214208   1.995   4.181  11.684 -0.5005 -0.6014 -0.2372
    8TMC3    C314209   2.061   4.233  11.575  0.1962  0.0914  0.2101
    8TMC3    C414210   2.054   4.374  11.810  0.1726  0.8158  0.4558
    8TMC3    C514211   2.102   4.435  11.707  0.3620  0.0655  0.4972
    8TMC3    C614212   2.096   4.367  11.582  0.0151  0.7451  0.0247
    8TMC3     C14213   1.867   4.245  11.870  0.3371  0.7312  0.4819
    8TMC3     O14214   1.830   4.141  11.926 -0.4031  0.3345 -0.1030
    8TMC3     H14215   1.959   4.079  11.681  0.5125 -1.0215  1.3177
    8TMC3    H114216   2.077   4.413  11.909  0.3186  0.5053  0.5459
    8TMC3    H214217   2.128   4.424  11.495  0.1962  0.7530  0.0967
    8TMC3    C714218   2.066   4.570  11.720 -0.1399 -0.0829  0.4358
    8TMC3    C814219   2.049   4.173  11.442  0.7206  0.0239  0.2891
    8TMC3    O114220   1.988   4.589  11.813 -0.0758 -0.4072 -0.0719
    8TMC3    O214221   2.135   4.192  11.363  0.2132  0.4032  0.3573
    9MPD2     C14222   1.756   4.021  11.299  0.2529  0.1705  0.9392
    9MPD2    C114223   1.872   4.085  11.292 -1.0094  0.0149 -0.2479
    9MPD2    C214224   1.936   4.109  11.174 -0.4988  0.3614 -0.0533
    9MPD2    C314225   1.876   4.075  11.053 -0.1040 -0.3742  0.0884
    9MPD2    C414226   1.762   3.997  11.063  0.3710  0.4539 -0.2031
    9MPD2    C514227   1.701   3.973  11.183  0.1478 -0.0709 -0.2927
    9MPD2     H14228   2.033   4.159  11.171  0.0750 -0.7564 -0.0170
    9MPD2    H114229   1.716   3.954  10.975 -0.8526  2.3185 -0.4684
    9MPD2    H214230   1.709   3.992  11.392  1.8635  2.5951  2.5143
    9MPD2    H314231   1.602   3.931  11.187 -0.4668  1.1956 -2.2385
    9MPD2     N14232   1.941   4.086  10.927 -0.4633  0.0862  0.2334
    9MPD2    H514233   1.894   4.034  10.854  0.3058 -1.8114  1.0795
    9MPD2    N114234   1.926   4.117  11.419 -0.5380 -0.4170 -0.3060
    9MPD2    H714235   1.864   4.100  11.497  0.0683  0.3102  0.3407
    1MPD1     C14236   2.668   3.694  16.932  0.1682  0.0808  0.3843
    1MPD1    C114237   2.584   3.586  16.930  0.3626 -0.3113  0.6704
    1MPD1    C214238   2.458   3.599  16.874 -0.0442  1.2402  0.0781
    1MPD1    C314239   2.405   3.722  16.848 -0.0089 -0.5014  0.1701
    1MPD1    C414240   2.492   3.833  16.853  0.2429  0.3377  0.0093
    1MPD1    C514241   2.626   3.813  16.888 -1.4397 -0.3712  0.0190
    1MPD1     H14242   2.402   3.506  16.873  1.9284 -0.0054  4.2743
    1MPD1    H114243   2.464   3.933  16.820 -0.5066 -0.2734 -1.2059
    1MPD1    H214244   2.769   3.681  16.968  0.4316 -1.8281 -1.0499
    1MPD1    H314245   2.685   3.904  16.880 -3.9263  1.1544 -1.0890
    1MPD1     N14246   2.273   3.738  16.796 -0.5957  0.7217 -0.6903
    1MPD1    H514247   2.244   3.832  16.776 -0.9180  0.5103 -1.2032
    1MPD1    N114248   2.637   3.456  16.960  0.3022  0.5660  0.1315
    1MPD1    H614249   2.715   3.449  17.025  0.4323  0.5200 -0.0310
    1MPD1    H714250   2.568   3.387  16.988  1.2081 -1.0560 -1.6328
    2MPD1     C14251   1.259   3.344  16.626 -0.0448 -0.0073  0.2038
    2MPD1    C114252   1.261   3.472  16.683 -0.0627 -0.1612  0.1875
    2MPD1    C214253   1.381   3.536  16.685 -1.1250  0.0764 -0.1748
    2MPD1    C314254   1.503   3.477  16.653 -0.0955  0.0362  0.0490
    2MPD1    C414255   1.496   3.343  16.615  0.0014 -0.0360 -0.2961
    2MPD1    C514256   1.378   3.278  16.598 -0.2481  0.0537  0.1636
    2MPD1     H14257   1.387   3.642  16.708 -3.2503  0.1323  0.0933
    2MPD1    H114258   1.581   3.282  16.589  0.7215  0.8142  0.0691
    2MPD1    H214259   1.168   3.293  16.597  1.1961  0.9595 -5.5039
    2MPD1    H314260   1.376   3.178  16.555  0.7019  0.1420 -0.0828
    2MPD1     N14261   1.621   3.551  16.667 -0.4000 -0.3807  0.6760
    2MPD1    H514262   1.604   3.646  16.699 -1.2731  1.2270 -4.5658
    2MPD1    N114263   1.140   3.551  16.697  0.5084 -0.1909  0.6912
    2MPD1    H614264   1.052   3.500  16.707 -0.4467  1.5279  1.1418
    2MPD1    H714265   1.145   3.628  16.763 -2.2463  0.5783  0.0435
    3TCq2    C114266   1.751   3.509  16.650 -0.0315  1.0330 -0.3009
    3TCq2    O214267   1.801   3.395  16.635 -0.6596  0.4743  0.2839
    3TCq2    C214268   1.847   3.609  16.648  0.2576 -0.0383 -0.2508
    3TCq2    C314269   1.799   3.739  16.658 -0.3561 -0.7025 -0.1529
    3TCq2    C414270   1.870   3.829  16.727  0.3235 -0.4786 -0.5882
    3TCq2    C514271   1.999   3.797  16.778 -0.6119  0.7344 -0.0680
    3TCq2    C614272   2.039   3.666  16.765  0.4354  0.0848 -0.6436
    3TCq2    C714273   1.965   3.571  16.703  0.3880  0.0065  0.0524
    3TCq2    C814274   2.182   3.635  16.787 -0.3056  0.2542  0.6422
    3TCq2    O414275   2.203   3.518  16.766 -0.3774 -0.1197 -0.0342
    3TCq2    C914276   1.824   3.961  16.755 -0.4928  0.1505 -0.2264
    3TCq2    O514277   1.705   3.980  16.712 -0.4230 -0.6460 -0.1528
    3TCq2    O614278   1.893   4.034  16.834  0.4641  0.0547 -0.4256
    3TCq2    H214279   1.701   3.765  16.619  0.3654  2.1072 -0.0848
    3TCq2    H314280   2.053   3.870  16.837  0.3580 -1.0240  1.2258
    3TCq2    H414281   1.984   3.464  16.708  0.2049 -0.0266  0.0424
    1TCq1    O114282   4.465   2.671  12.297 -0.4633  0.4662 -0.2841
    1TCq1    C114283   4.352   2.635  12.356 -0.0175  0.0863 -0.3661
    1TCq1    O214284   4.250   2.610  12.287  0.3104  0.2578  0.0839
    1TCq1    C214285   4.376   2.615  12.495  0.0859  0.4477  0.1056
    1TCq1    C314286   4.330   2.501  12.554 -0.2793 -0.3192  0.1556
    1TCq1    C414287   4.378   2.472  12.678 -0.1220 -0.6242  0.4200
    1TCq1    C514288   4.477   2.544  12.739 -0.5587  0.1690  0.4920
    1TCq1    C614289   4.524   2.647  12.671 -0.4169 -0.0761  0.4778
    1TCq1    C714290   4.468   2.691  12.556  0.5102  0.2644  0.4712
    1TCq1    C814291   4.636   2.726  12.720 -0.4625 -0.2273  0.1200
    1TCq1    O414292   4.671   2.826  12.659 -0.1567 -0.5036  0.1139
    1TCq1    C914293   4.323   2.355  12.738  0.2462 -0.2694 -0.2163
    1TCq1    O514294   4.225   2.299  12.682  0.4050  0.6452 -0.0707
    1TCq1    O614295   4.350   2.332  12.857 -0.4951 -0.0005 -0.0364
    1TCq1    H114296   4.543   2.660  12.356  0.8181 -2.2396 -2.4704
    1TCq1    H214297   4.246   2.449  12.508  0.5321  0.4195 -2.1513
    1TCq1    H314298   4.506   2.515  12.839  1.2929  0.3993  0.0203
    1TCq1    H414299   4.496   2.785  12.510 -0.5906 -0.1615 -1.0433
    2MPD2     C14300   0.202   2.767  12.811 -0.1134 -0.4488  0.0465
    2MPD2    C114301   0.105   2.708  12.885  0.3564 -0.5077 -0.4911
    2MPD2    C214302   0.129   2.666  13.014 -0.1012 -0.9724 -0.5440
    2MPD2    C314303   0.258   2.689  13.067  0.1871 -0.5277 -0.1294
    2MPD2    C414304   0.356   2.742  12.986  0.5695 -0.1488  0.2486
    2MPD2    C514305   0.322   2.790  12.863  0.5820  0.1095 -0.0961
    2MPD2     H14306   0.052   2.621  13.075 -0.4432  0.2582 -0.0768
    2MPD2    H114307   0.456   2.757  13.024  0.6697  0.9763 -0.4438
    2MPD2    H214308   0.184   2.799  12.710  3.5053 -0.7573 -0.7051
    2MPD2    H314309   0.392   2.849  12.806 -1.5666  1.1125 -1.7387
    2MPD2     N14310   0.284   2.634  13.193 -0.3731  0.2386  0.3075
    2MPD2    H514311   0.207   2.607  13.253 -0.9561 -1.0477 -1.0172
    2MPD2    N114312   4.697   2.675  12.833  0.3499  0.4171  0.8516
    2MPD2    H714313   4.642   2.605  12.882 -0.5308  1.0286  0.7422
    3TCq1    O114314   0.337   2.806  13.690 -0.1141  0.5601 -0.7133
    3TCq1    C114315   0.246   2.700  13.681 -0.1296 -0.1050  0.3397
    3TCq1    O214316   0.122   2.712  13.683  0.4244  0.3126  0.0423
    3TCq1    C214317   0.316   2.608  13.598 -0.3919 -0.6509 -0.4115
    3TCq1    C314318   0.436   2.572  13.652 -0.1192 -0.4210  0.4697
    3TCq1    C414319   0.529   2.512  13.565 -0.8120 -0.4609  0.3036
    3TCq1    C514320   0.512   2.515  13.429 -0.3577 -0.8211  0.2693
    3TCq1    C614321   0.403   2.575  13.383  0.3462 -0.1005  0.0059
    3TCq1    C714322   0.302   2.625  13.461  0.0561  0.0194  0.4141
    3TCq1    C814323   0.410   2.623  13.249  0.4734  0.9218  0.1732
    3TCq1    O414324   0.518   2.640  13.199  0.2837 -0.2400  0.4202
    3TCq1    C914325   0.645   2.445  13.617  0.0385  0.3088 -0.1068
    3TCq1    O514326   0.700   2.493  13.722 -0.0266 -0.8726 -0.2529
    3TCq1    O614327   0.674   2.334  13.568 -0.5184  0.0724  0.2972
    3TCq1    H114328   0.425   2.790  13.651 -0.3455  0.8345 -1.3506
    3TCq1    H214329   0.455   2.571  13.759 -3.4369 -0.5454  1.0606
    3TCq1    H314330   0.601   2.494  13.370 -0.1684 -0.4479  0.4214
    3TCq1    H414331   0.228   2.695  13.425  1.4790  1.3765  0.1349
    1MPD2     C14332   0.038   3.783  14.515 -0.2080  0.0216  0.8467
    1MPD2    C114333   4.661   3.684  14.521 -0.6903 -0.1336 -1.1974
    1MPD2    C214334   4.706   3.559  14.556  0.3915 -0.1422  0.1833
    1MPD2    C314335   0.114   3.535  14.604 -0.5137  0.4241  0.0210
    1MPD2    C414336   0.210   3.634  14.591 -0.1308 -0.2851  0.7899
    1MPD2    C514337   0.168   3.756  14.543 -0.1356  0.6271 -0.1947
    1MPD2     H14338   4.637   3.476  14.568 -0.2916  0.3567 -0.3206
    1MPD2    H114339   0.317   3.622  14.605  0.2034  0.8811 -0.7790
    1MPD2    H214340   0.013   3.887  14.493  0.4435  0.0540  0.2524
    1MPD2    H314341   0.235   3.841  14.543 -1.7092  1.8486  0.5021
    1MPD2     N14342   0.154   3.395  14.624 -0.2750 -0.9006 -0.1742
    1MPD2    H514343   0.074   3.334  14.617 -0.8681 -0.3930  2.0316
    1MPD2    N114344   4.529   3.704  14.477 -0.8436  0.1566  0.0520
    1MPD2    H714345   4.509   3.802  14.463 -0.6458  0.5158  2.2953
    2TMC3    C114346   4.292   3.678  14.435  0.8417 -0.2209  0.1474
    2TMC3    C214347   4.201   3.580  14.448  0.3748  0.3769 -0.0683
    2TMC3    C314348   4.134   3.527  14.344 -0.2068 -0.0678  1.2550
    2TMC3    C414349   4.297   3.752  14.324 -0.0026  0.8159  0.0675
    2TMC3    C514350   4.228   3.695  14.217 -0.3548 -0.5316 -0.5018
    2TMC3    C614351   4.145   3.582  14.226 -0.1666 -0.6153 -0.3824
    2TMC3     C14352   4.425   3.620  14.479  0.1023 -0.2503 -0.2746
    2TMC3     O14353   4.416   3.508  14.536  0.1687 -0.1164 -0.1747
    2TMC3     H14354   4.172   3.544  14.546  2.1621  0.7309  0.5843
    2TMC3    H114355   4.379   3.819  14.298  0.0486  1.2297  1.3017
    2TMC3    H214356   4.122   3.520  14.139 -1.4588 -0.0808 -0.4163
    2TMC3    C714357   4.225   3.755  14.086  0.0970  0.1715 -0.3054
    2TMC3    C814358   4.121   3.383  14.346 -0.1157 -0.5409 -0.0230
    2TMC3    O114359   4.124   3.733  14.019  0.2727 -0.2050 -0.6085
    2TMC3    O214360   4.033   3.333  14.274 -0.4447 -0.2045  0.2605
    3TCq1    O114361   4.693   0.082  13.757 -0.5535  0.6015 -0.1460
    3TCq1    C114362   0.075   0.029  13.820 -0.4886 -0.1147 -0.2013
    3TCq1    O214363   0.177   0.094  13.852 -0.2380 -0.0917  0.9223
    3TCq1    C214364   0.050   4.629  13.889 -0.0486  0.2655 -0.5603
    3TCq1    C314365   0.101   4.599  14.016  0.1330  0.3267 -0.1794
    3TCq1    C414366   0.080   4.482  14.076 -0.0509 -0.1319 -0.5724
    3TCq1    C514367   0.019   4.387  14.005  0.2773  0.3649  0.5916
    3TCq1    C614368   4.696   4.411  13.877  0.0449 -0.6272 -0.5951
    3TCq1    C714369   4.700   4.536  13.827 -0.2373  0.1641  0.0851
    3TCq1    C814370   4.605   4.321  13.810 -0.1057 -0.9538  0.0632
    3TCq1    O414371   4.533   4.366  13.723  0.5941  0.4458 -0.2523
    3TCq1    C914372   0.145   4.457  14.198  0.5422 -0.6236 -0.1374
    3TCq1    O514373   0.100   4.355  14.257 -0.0504  0.4128 -0.3116
    3TCq1    O614374   0.218   4.548  14.250 -0.0692  0.1566  0.6380
    3TCq1    H114375   4.612   0.026  13.757 -0.7244  0.8446 -0.7231
    3TCq1    H214376   0.155   4.681  14.064 -1.1783  0.2329  1.4422
    3TCq1    H314377   0.009   4.292  14.057  0.8629  0.0489  0.1307
    3TCq1    H414378   4.665   4.561  13.727 -0.8703  2.4743  0.8851
    4MPD2     C14379   4.392   4.113  13.756  0.2740 -0.1918  0.1448
    4MPD2    C114380   4.485   4.101  13.856  0.0383  0.5656  0.3930
    4MPD2    C214381   4.457   4.023  13.966  0.2819 -0.0231  0.3598
    4MPD2    C314382   4.343   3.940  13.968  0.8944 -0.3436  0.2616
    4MPD2    C414383   4.250   3.961  13.870  0.5102  0.4107  0.3447
    4MPD2    C514384   4.273   4.054  13.768  0.9199  0.4476 -0.3576
    4MPD2     H14385   4.532   4.011  14.044  2.1069 -0.5678 -1.4798
    4MPD2    H114386   4.154   3.911  13.864  0.2020  1.1753 -1.3348
    4MPD2    H214387   4.412   4.165  13.663 -1.6747  0.7367  0.2403
    4MPD2    H314388   4.199   4.074  13.691  1.7043  1.2664 -0.9065
    4MPD2     N14389   4.322   3.852  14.069 -0.0854  0.0316 -0.8360
    4MPD2    H514390   4.397   3.851  14.136  0.4984 -1.3604 -1.5193
    4MPD2    N114391   4.589   4.198  13.873  0.0454  0.1633  0.0611
    4MPD2    H714392   4.649   4.192  13.955  0.4031  3.5620  0.0693
    5TMC2    C114393   0.076   3.044  14.558 -0.0700 -0.3915  0.1452
    5TMC2    C214394   0.099   2.964  14.664  0.4630 -0.6904 -0.2538
    5TMC2    C314395   0.188   3.012  14.761  0.0844 -0.2012 -0.0320
    5TMC2    C414396   0.157   3.152  14.545  1.1380 -0.5173  0.5129
    5TMC2    C514397   0.254   3.187  14.634 -1.2285  0.5879  0.9417
    5TMC2    C614398   0.281   3.110  14.744  0.7633 -0.4487  0.4181
    5TMC2     C14399   4.662   3.094  14.559 -0.4216 -0.1501 -0.3890
    5TMC2     O14400   4.653   3.208  14.611 -0.0048  0.7663  0.7012
    5TMC2     H14401   0.015   2.906  14.702 -0.5456  0.7208 -0.3223
    5TMC2    H114402   0.157   3.213  14.455 -0.7292 -0.4308  0.5714
    5TMC2    H214403   0.346   3.146  14.823  0.1663  1.5896 -0.0172
    5TMC2    C714404   0.273   3.331  14.655  0.0793  0.3443  0.0502
    5TMC2    C814405   0.159   2.963  14.893  0.5683  0.2231 -0.5949
    5TMC2    O114406   0.383   3.372  14.702  0.2418  0.1663  0.2521
    5TMC2    O214407   0.103   2.853  14.907 -0.3285 -0.1118 -0.1176
    5TMC2    O514408   0.203   3.037  14.988  0.2250 -0.0269  0.0419
    5TMC2    H514409   0.218   3.131  14.963 -0.8681  0.8134  2.5419
    6MPD2     C14410   4.168   3.093  14.411 -0.1112  0.0101  0.0002
    6MPD2    C114411   4.258   3.197  14.433  0.2927 -0.0687 -0.1779
    6MPD2    C214412   4.387   3.165  14.475 -0.1064  0.1644 -0.0695
    6MPD2    C314413   4.433   3.037  14.487 -0.4426  0.3097 -0.3320
    6MPD2    C414414   4.351   2.934  14.456  0.2998 -0.3002 -0.3440
    6MPD2    C514415   4.217   2.962  14.424 -0.5843  0.2072  0.2758
    6MPD2     H14416   4.458   3.246  14.481  1.6648 -1.3475 -0.6030
    6MPD2    H114417   4.372   2.827  14.465  2.8981  0.0925 -1.8163
    6MPD2    H214418   4.061   3.085  14.391 -0.6078  2.6837  1.5645
    6MPD2    H314419   4.148   2.879  14.415 -0.6470  0.3418 -0.4792
    6MPD2     N14420   4.573   3.011  14.502 -0.0956  0.4496  0.6730
    6MPD2    H514421   4.604   2.915  14.485 -1.4854 -0.2405  2.0613
    6MPD2    N114422   4.228   3.335  14.406  0.5015 -0.4110  0.2509
    6MPD2    H714423   4.301   3.402  14.427 -1.8200  2.5975 -1.3480
  945NH4     N114424   0.330   4.226  14.320 -0.7207  0.9784  0.1249
  945NH4     H214425   0.243   4.280  14.300 -0.8188  0.7099 -0.1869
  945NH4     H314426   0.410   4.269  14.270  0.1560  1.5052  2.0142
  945NH4     H414427   0.310   4.126  14.298 -0.8881  0.9780  0.2792
  945NH4     H514428   0.350   4.226  14.422  1.3999 -2.3801 -0.2953
  946SOD     NA14429   0.963   2.217  10.452  0.0310 -0.3322 -0.4750
  947SOD     NA14430   4.613   0.868  11.085 -0.6733  0.1807  0.1372
  948SOD     NA14431   0.215   4.395   9.116  0.3380  0.0688 -0.0088
  949SOD     NA14432   2.725   3.480   0.417  0.4237 -0.2780  0.1958
  950SOD     NA14433   1.620   3.879  15.541 -0.5067  0.3535  0.1189
  951SOD     NA14434   2.947   3.476  11.347 -0.1552  0.3887  0.0590
  952SOD     NA14435   2.413   1.815   7.561  0.2551  0.2388 -0.1203
  953SOD     NA14436   2.913   1.928   0.488 -0.1457  0.2706 -0.0397
  954SOD     NA14437   2.598   0.924  12.909  0.0093  0.5598  0.0959
  955SOD     NA14438   4.329   1.468   9.937  0.2735  0.0636 -0.7138
  956SOD     NA14439   4.159   2.200  12.873 -0.6322 -0.3203  0.2709
  957SOD     NA14440   0.091   0.134   3.148 -0.3478  0.0025  0.0939
  958SOD     NA14441   0.078   0.169   0.275 -0.2567 -0.3378 -0.1844
  959SOD     NA14442   0.904   4.169   1.129  0.1270 -0.2290 -0.2474
  960SOD     NA14443   0.892   2.732  11.705  0.4270 -0.0828  0.0549
  961SOD     NA14444   0.847   3.388   1.628  0.4658 -0.3648 -0.1784
  962SOD     NA14445   3.397   2.726   9.970  0.2999 -0.5949  0.0528
  963SOD     NA14446   3.054   3.795   2.481 -0.0579  0.0726  0.9035
  964SOD     NA14447   4.427   2.446   9.761 -0.4648  0.6425 -0.1310
  965SOD     NA14448   4.714   1.141   1.680 -0.4417 -0.4062  0.1612
  966SOD     NA14449   0.985   3.537   1.906  0.5362  0.2096 -0.1755
  967SOD     NA14450   3.880   1.715   1.749  0.1109  0.1692  0.1734
  968SOD     NA14451   0.754   1.643   1.985 -0.0895  0.0333 -0.5570
  969SOD     NA14452   4.432   2.348  13.061 -0.1947  0.3267  0.0744
  970SOD     NA14453   0.734   3.075   2.061  0.4759 -0.1940 -0.5546
  971SOD     NA14454   1.864   3.774  13.152  0.4660  0.2154 -0.0025
  972SOD     NA14455   2.101   1.138  13.965  0.1616  0.4067  0.0264
  973SOD     NA14456   0.558   4.494   9.074 -0.2445 -0.0575 -0.3527
  974SOD     NA14457   0.483   2.274  11.721  0.1996  0.4953 -0.1658
  975SOD     NA14458   3.316   1.967  10.828 -0.2585 -0.7775 -0.0882
  976SOD     NA14459   1.806   0.951  13.963  0.0960 -0.0010  0.2281
  977SOD     NA14460   1.893   2.133  13.300  0.3790 -0.1438 -0.1898
  978SOD     NA14461   3.408   1.652   9.401 -0.7714  0.7024  0.2061
  979SOD     NA14462   4.591   4.011   6.821  0.3530 -0.4330  0.2185
  980SOD     NA14463   2.143   3.607  14.565 -0.4797  0.0122  0.0547
  981SOD     NA14464   4.001   1.585  10.102  0.0619 -0.1701  0.3645
  982SOD     NA14465   3.173   4.269   8.355 -0.0223  0.2746  0.0320
  983SOD     NA14466   4.615   4.109  14.536 -0.2891 -0.1296 -0.0457
  984SOD     NA14467   0.731   4.394  16.233 -0.1982 -0.3403  0.1732
  985SOD     NA14468   0.228   2.300  10.770 -0.5118 -1.1532  0.1215
  986SOD     NA14469   2.622   3.459  14.581  0.0983 -0.1193 -0.8890
  987SOD     NA14470   1.923   0.724  16.138  0.3828  0.3175 -0.2491
  988SOD     NA14471   1.383   0.147  15.547 -0.1328  0.2435  0.5841
  989SOD     NA14472   0.612   0.472   2.120  0.4736  0.0928  0.1525
  990SOD     NA14473   3.029   1.628   7.383 -0.3480 -0.1710 -0.0446
  991SOD     NA14474   1.530   3.086  17.243  0.1414 -0.6425 -0.2318
  992SOD     NA14475   3.783   1.662  14.656 -0.0649 -0.0866  0.3321
  993SOD     NA14476   0.329   2.017  11.795  0.0983 -0.1458  0.4097
  994SOD     NA14477   0.054   2.170  15.891  0.0931 -0.1963  0.2538
  995SOD     NA14478   0.564   2.455  11.495 -0.2777 -0.0577  0.4213
  996SOD     NA14479   2.854   2.416   8.836  0.5381  0.0060 -0.2700
  997SOD     NA14480   0.930   2.021   8.721 -0.3895 -0.1373  0.0835
  998SOD     NA14481   1.142   2.798  11.481  0.0145 -0.0477 -0.3590
  999SOD     NA14482   1.145   3.708  11.292 -0.2840 -0.1718  0.3076
 1000SOD     NA14483   1.634   0.357   3.482 -0.3373 -0.0984  0.0557
 1001SOD     NA14484   3.881   2.083  16.049 -0.6520 -0.1937  0.5144
 1002SOD     NA14485   2.264   0.477   8.040 -0.0011 -0.2524  0.1862
 1003SOD     NA14486   4.502   2.211   9.564 -0.2227 -0.3691 -0.5979
 1004SOD     NA14487   0.866   2.414  13.816  0.0919  0.0475  0.1808
 1005SOD     NA14488   0.895   3.819  14.864 -0.3418 -0.1346  0.3467
 1006SOD     NA14489   3.086   1.912  12.849 -0.0356 -0.3117  0.0084
 1007SOD     NA14490   4.032   3.753   2.392  0.5049  0.1027 -0.4918
 1008SOD     NA14491   2.869   2.273  16.956  0.3816 -0.0707  0.4047
 1009SOD     NA14492   1.583   3.554  11.069 -0.5067 -0.0473  0.4125
 1010SOD     NA14493   2.139   1.975   2.579 -0.3671  0.3670 -0.4646
 1011SOL     OW14494   0.106   0.364  13.629 -0.4811 -0.0367  0.5268
 1011SOL    HW114495   0.093   0.372  13.535  3.6077  1.0817  0.0728
 1011SOL    HW214496   0.060   0.285  13.656  0.3519 -1.0977 -1.1543
 1012SOL     OW14497   4.678   3.480   6.908 -0.0700 -0.0961 -0.2547
 1012SOL    HW114498   4.623   3.419   6.860  0.1505 -0.0059 -0.6264
 1012SOL    HW214499   4.620   3.554   6.924 -1.6272 -0.7288 -2.9882
 1013SOL     OW14500   1.044   1.744   9.125  0.3340 -0.3843 -0.1862
 1013SOL    HW114501   1.027   1.838   9.132  1.3258 -0.0502 -2.5098
 1013SOL    HW214502   1.003   1.718   9.208 -1.7653  0.2765 -1.0085
 1014SOL     OW14503   4.194   3.551   1.252 -0.1329  0.5642 -0.1555
 1014SOL    HW114504   4.160   3.585   1.169 -1.4503  0.0647  0.1769
 1014SOL    HW214505   4.285   3.545   1.224 -0.7297  0.3699 -2.1176
 1015SOL     OW14506   2.299   3.726   6.638  0.2419 -0.3805 -0.2823
 1015SOL    HW114507   2.256   3.771   6.565  0.4948  1.6220  0.8054
 1015SOL    HW214508   2.370   3.788   6.652  2.5239 -3.0681  0.1968
 1016SOL     OW14509   1.842   1.483  10.855  0.0360  0.4812 -0.3944
 1016SOL    HW114510   1.931   1.490  10.819  0.2403 -0.2383 -0.0155
 1016SOL    HW214511   1.803   1.400  10.827 -2.1473  1.5983 -0.6524
 1017SOL     OW14512   4.169   0.075   9.227 -0.2867 -0.2485  0.2788
 1017SOL    HW114513   4.164   0.159   9.182  2.0264 -1.5019 -2.3344
 1017SOL    HW214514   4.080   0.067   9.261 -0.4981  1.2074  0.0530
 1018SOL     OW14515   0.101   3.516   5.899  0.1311  0.1087 -0.7229
 1018SOL    HW114516   0.035   3.498   5.966 -0.1988 -1.1820 -1.4038
 1018SOL    HW214517   0.041   3.507   5.825  0.0807  0.6473 -0.7469
 1019SOL     OW14518   3.697   1.357   8.671 -0.6051 -0.4211 -0.3305
 1019SOL    HW114519   3.662   1.389   8.754 -0.3943 -1.3694  0.1139
 1019SOL    HW214520   3.773   1.414   8.659 -0.0398 -1.0061  0.5026
 1020SOL     OW14521   0.578   4.185   6.497  0.4787  0.1525 -0.4868
 1020SOL    HW114522   0.543   4.098   6.517  1.5412 -0.6175 -1.9739
 1020SOL    HW214523   0.552   4.238   6.572  1.3399  1.6362 -1.2299
 1021SOL     OW14524   4.440   1.547  12.600  0.1903 -0.4678  0.8189
 1021SOL    HW114525   4.521   1.515  12.559  0.8251  1.4529  0.5687
 1021SOL    HW214526   4.383   1.525  12.526  2.1076 -0.9679 -0.5079
 1022SOL     OW14527   2.330   1.451   6.076  0.0672  0.0617  0.5858
 1022SOL    HW114528   2.304   1.365   6.044  0.2805  0.2821 -0.1620
 1022SOL    HW214529   2.376   1.485   6.000 -0.1162  1.7364  1.2225
 1023SOL     OW14530   3.799   4.609   8.039  0.4660  0.5047 -0.2067
 1023SOL    HW114531   3.884   4.566   8.032  0.0467 -0.4534  0.5732
 1023SOL    HW214532   3.812   4.673   8.108 -1.2282 -0.0495  0.6367
 1024SOL     OW14533   2.691   2.917   4.710 -0.5911  0.4173  0.0907
 1024SOL    HW114534   2.768   2.957   4.669  1.6855 -1.5058  2.4450
 1024SOL    HW214535   2.713   2.950   4.797 -0.1650  3.5980 -1.2219
 1025SOL     OW14536   2.089   4.564   3.327  0.3829 -0.0664  0.3315
 1025SOL    HW114537   2.046   4.479   3.337  1.8584 -0.8946 -0.4118
 1025SOL    HW214538   2.155   4.545   3.260 -0.4652  0.7628 -0.7382
 1026SOL     OW14539   1.294   4.097   1.539 -0.0099 -0.3629 -0.3639
 1026SOL    HW114540   1.204   4.105   1.572  0.1779 -0.1580  0.1004
 1026SOL    HW214541   1.348   4.085   1.617 -0.0142 -1.1230 -0.4782
 1027SOL     OW14542   0.566   3.070  16.021 -0.2666  0.7575 -0.2077
 1027SOL    HW114543   0.657   3.056  16.045 -0.2944  0.0073 -0.5164
 1027SOL    HW214544   0.561   3.112  15.935  0.1332 -0.2993 -0.7494
 1028SOL     OW14545   3.321   3.341  10.026 -0.1047  0.1956 -0.0139
 1028SOL    HW114546   3.280   3.427  10.015 -0.6254 -0.0713 -0.1289
 1028SOL    HW214547   3.336   3.337  10.120 -1.8422  0.5787  0.2684
 1029SOL     OW14548   4.183   1.695  14.368 -0.4912  0.3592  0.1042
 1029SOL    HW114549   4.160   1.700  14.275 -0.8860  0.8985  0.2288
 1029SOL    HW214550   4.263   1.643  14.364  0.3534  1.8388 -2.1746
 1030SOL     OW14551   2.567   0.764   3.266  0.3771 -0.4772  0.5725
 1030SOL    HW114552   2.652   0.722   3.282  1.1819  0.5203 -1.0706
 1030SOL    HW214553   2.552   0.818   3.344 -1.2728 -2.1622  1.4035
 1031SOL     OW14554   4.466   4.331   8.401 -0.0884 -0.4134 -0.1543
 1031SOL    HW114555   4.383   4.311   8.358 -0.4083  1.4045 -0.3677
 1031SOL    HW214556   4.510   4.246   8.404 -0.5073 -0.6524 -0.7533
 1032SOL     OW14557   2.418   0.588   2.950  0.2432 -0.2726 -0.5402
 1032SOL    HW114558   2.491   0.571   2.890 -0.0982 -0.8757 -0.7806
 1032SOL    HW214559   2.445   0.671   2.991  0.3210 -1.2469  1.3896
 1033SOL     OW14560   3.056   1.444  15.361  0.0228 -0.2145 -0.2747
 1033SOL    HW114561   3.112   1.521  15.367 -0.7807  0.4093 -0.6598
 1033SOL    HW214562   3.084   1.393  15.286 -2.0649  0.1645 -1.3219
 1034SOL     OW14563   3.758   0.079   6.169  0.0670 -0.7990 -0.4982
 1034SOL    HW114564   3.761   0.053   6.261 -0.6624  0.9986  0.0353
 1034SOL    HW214565   3.684   0.139   6.174  0.6522 -0.2269  1.3139
 1035SOL     OW14566   0.953   4.650   2.904  0.2031  0.5105  0.2766
 1035SOL    HW114567   0.983   4.707   2.833 -0.6696  1.1647  0.4394
 1035SOL    HW214568   0.995   4.573   2.865 -1.2163 -0.8010  1.3526
 1036SOL     OW14569   3.949   2.864  16.212 -0.3178 -0.6715 -0.0641
 1036SOL    HW114570   3.934   2.885  16.120  2.6954 -2.7037 -1.0027
 1036SOL    HW214571   4.018   2.801  16.193  1.8610  1.5310  0.6360
 1037SOL     OW14572   1.365   1.545   4.414 -0.2282  0.2689 -0.1474
 1037SOL    HW114573   1.370   1.457   4.378  1.0819  0.3525 -0.1757
 1037SOL    HW214574   1.399   1.529   4.502 -0.7605  1.2758  0.2500
 1038SOL     OW14575   0.337   4.400   4.863  0.3771  0.0619 -0.1786
 1038SOL    HW114576   0.407   4.437   4.917  0.3369  0.6469 -0.5242
 1038SOL    HW214577   0.318   4.309   4.885 -0.8363 -0.0116 -1.5106
 1039SOL     OW14578   0.179   1.244   8.558  0.4611  0.3162 -0.4095
 1039SOL    HW114579   0.268   1.259   8.590  1.3125 -0.1520 -2.5482
 1039SOL    HW214580   0.151   1.166   8.605  0.2641  0.8568  0.3760
 1040SOL     OW14581   0.113   3.898   4.538  0.2656 -0.5318 -0.4182
 1040SOL    HW114582   0.025   3.867   4.516  0.4214 -0.0745 -1.6623
 1040SOL    HW214583   0.100   3.977   4.590 -0.2507 -2.2471  2.0815
 1041SOL     OW14584   0.214   4.460   1.437 -0.0875 -0.3380 -0.7064
 1041SOL    HW114585   0.186   4.464   1.346  2.8774 -2.2328 -1.6979
 1041SOL    HW214586   0.185   4.547   1.464 -1.0212 -1.4707  1.8976
 1042SOL     OW14587   3.712   3.778   5.570 -0.0523 -0.0549  0.5188
 1042SOL    HW114588   3.716   3.760   5.664  0.9425 -1.5986  0.1859
 1042SOL    HW214589   3.797   3.821   5.560 -0.5477  1.1949  1.7530
 1043SOL     OW14590   4.015   3.372   4.461 -0.2880  0.4360 -0.4361
 1043SOL    HW114591   4.068   3.298   4.434 -1.0432 -0.8988  1.7332
 1043SOL    HW214592   3.926   3.338   4.451 -1.1450  2.7714 -0.7855
 1044SOL     OW14593   4.215   0.872   1.974 -0.0098 -0.1198 -0.6345
 1044SOL    HW114594   4.185   0.781   1.982 -0.5941 -0.0579 -2.1663
 1044SOL    HW214595   4.136   0.925   1.971 -0.1846 -0.5696 -3.8086
 1045SOL     OW14596   1.034   2.337   9.585 -0.0454  0.0147 -0.5212
 1045SOL    HW114597   1.100   2.287   9.536 -1.2023 -3.3193  1.3452
 1045SOL    HW214598   1.088   2.396   9.638 -1.4866  2.1102 -1.3693
 1046SOL     OW14599   3.542   1.194  11.531  0.2188  0.0046  0.0271
 1046SOL    HW114600   3.496   1.145  11.599 -1.0317  0.8810 -0.1853
 1046SOL    HW214601   3.512   1.282  11.551 -2.1460 -0.2722 -2.3317
 1047SOL     OW14602   3.491   0.918  11.373  0.1327  0.3186 -0.0040
 1047SOL    HW114603   3.550   0.993  11.382 -1.1890  1.3265  0.2690
 1047SOL    HW214604   3.459   0.963  11.295  0.7902  1.6061  0.4647
 1048SOL     OW14605   0.233   3.812   7.372 -0.0998 -0.1617 -0.4672
 1048SOL    HW114606   0.234   3.796   7.467 -0.8788 -1.8013 -0.7360
 1048SOL    HW214607   0.266   3.728   7.340  1.2007 -0.4080  1.4966
 1049SOL     OW14608   3.601   2.588  15.182 -0.1710  0.0056 -0.0414
 1049SOL    HW114609   3.597   2.583  15.278 -0.2134  2.0424  0.0605
 1049SOL    HW214610   3.623   2.680  15.170  3.3508 -0.6780  1.0903
 1050SOL     OW14611   1.570   4.391   2.283 -0.1402  0.2261 -0.0365
 1050SOL    HW114612   1.604   4.398   2.372 -1.8276  0.4263  0.5938
 1050SOL    HW214613   1.580   4.483   2.258 -0.2195 -0.2362 -1.7512
 1051SOL     OW14614   1.186   1.535  11.443  0.1437 -0.3843 -0.1552
 1051SOL    HW114615   1.214   1.514  11.532 -0.7371 -2.8450 -0.4616
 1051SOL    HW214616   1.191   1.628  11.465 -3.5435 -0.3024  0.2841
 1052SOL     OW14617   2.974   0.354   5.324 -0.4026  0.3806  0.3659
 1052SOL    HW114618   3.057   0.341   5.371  0.2424 -1.2569 -1.2372
 1052SOL    HW214619   3.001   0.326   5.237  4.2633  1.8592  1.3066
 1053SOL     OW14620   0.285   1.912   2.560 -0.0179  0.5077 -0.4974
 1053SOL    HW114621   0.284   1.841   2.495 -1.3970  1.1403 -1.1839
 1053SOL    HW214622   0.353   1.892   2.624 -2.8905  0.0621  2.4172
 1054SOL     OW14623   2.947   3.476   2.096  0.1723 -0.1407  0.3296
 1054SOL    HW114624   2.959   3.383   2.080 -1.1502 -0.4070  0.9016
 1054SOL    HW214625   3.020   3.512   2.045  0.1806 -1.2086 -0.4021
 1055SOL     OW14626   3.608   2.086   2.620 -0.4590 -0.0391 -0.2126
 1055SOL    HW114627   3.533   2.081   2.679 -0.5978  0.9125 -0.3126
 1055SOL    HW214628   3.667   2.027   2.666  0.0275  1.9757  1.7072
 1056SOL     OW14629   4.659   3.838   5.065  0.2586 -0.1120  0.0153
 1056SOL    HW114630   0.031   3.852   5.041 -0.1234  0.9738 -0.8259
 1056SOL    HW214631   4.673   3.836   5.159  3.7123  0.3776 -0.4861
 1057SOL     OW14632   0.113   0.725   3.886 -0.4144  0.2753 -0.1454
 1057SOL    HW114633   0.173   0.788   3.844 -2.2559  1.8609 -0.4009
 1057SOL    HW214634   0.040   0.768   3.930 -0.5874 -1.3216  1.1059
 1058SOL     OW14635   2.909   1.083   2.018  0.2054  0.2110 -0.2858
 1058SOL    HW114636   2.963   1.013   1.981  1.4044  1.7799 -1.4765
 1058SOL    HW214637   2.967   1.159   2.016 -1.7973  1.7305  0.0110
 1059SOL     OW14638   0.574   0.283   3.198 -0.1551  0.2419  0.4328
 1059SOL    HW114639   0.484   0.281   3.166  0.1327 -1.7871 -0.2542
 1059SOL    HW214640   0.575   0.370   3.237 -3.2282  0.6874 -0.5113
 1060SOL     OW14641   2.314   2.799   7.355  0.2971  0.3413 -0.5494
 1060SOL    HW114642   2.299   2.793   7.450 -0.9669  1.7270 -0.6678
 1060SOL    HW214643   2.229   2.835   7.331  0.4963 -0.4103 -2.3207
 1061SOL     OW14644   2.918   1.410  12.573 -0.2034 -0.0664  0.2406
 1061SOL    HW114645   2.931   1.369  12.487 -0.1074  0.7060 -0.1104
 1061SOL    HW214646   2.947   1.334  12.624 -1.3497  0.6863  1.9761
 1062SOL     OW14647   2.823   1.410   6.574 -0.3029 -0.0474  0.3214
 1062SOL    HW114648   2.838   1.463   6.496  1.0104  0.4546  0.9073
 1062SOL    HW214649   2.889   1.457   6.625  0.4067 -1.4991  0.7221
 1063SOL     OW14650   0.083   4.508   5.523  0.2281 -0.0404  0.1477
 1063SOL    HW114651   0.177   4.500   5.508  0.5060  0.7769  1.4309
 1063SOL    HW214652   0.077   4.451   5.600  1.7109  1.8169  1.6332
 1064SOL     OW14653   3.086   0.445  15.691 -0.5359  0.2312 -0.2495
 1064SOL    HW114654   3.002   0.487  15.672 -0.3009 -0.2050 -2.3062
 1064SOL    HW214655   3.099   0.455  15.785  0.3377 -0.6100 -0.2808
 1065SOL     OW14656   0.146   2.507   8.528 -0.1926 -0.0352 -0.0439
 1065SOL    HW114657   0.225   2.465   8.562  0.1465  0.9976  0.4407
 1065SOL    HW214658   0.130   2.452   8.451  0.3376  1.6946 -1.3704
 1066SOL     OW14659   0.243   1.692   5.284  0.1985  0.4579 -0.9288
 1066SOL    HW114660   0.313   1.636   5.319  1.2696  1.3119 -1.6766
 1066SOL    HW214661   0.190   1.626   5.240  0.6343  1.0380 -2.3517
 1067SOL     OW14662   3.153   3.207   0.337  0.1764  0.2162  0.0740
 1067SOL    HW114663   3.192   3.196   0.250 -0.4212 -0.9048 -0.0539
 1067SOL    HW214664   3.230   3.236   0.386  0.4449 -0.3888  0.0066
 1068SOL     OW14665   3.711   4.204   8.295  0.0021 -0.3937 -0.4877
 1068SOL    HW114666   3.636   4.228   8.349  1.1948 -0.5225  1.2399
 1068SOL    HW214667   3.742   4.141   8.361 -2.0378 -0.1867  0.6582
 1069SOL     OW14668   0.234   3.752   4.757 -0.2926  0.5201  0.0295
 1069SOL    HW114669   0.227   3.792   4.670  1.1703 -0.9621 -0.7693
 1069SOL    HW214670   0.304   3.691   4.732 -0.0878  1.1102 -0.8615
 1070SOL     OW14671   0.742   2.951   5.750 -0.3046 -0.2459  0.3418
 1070SOL    HW114672   0.783   3.033   5.723  0.2603 -0.0612  1.7586
 1070SOL    HW214673   0.774   2.890   5.683  0.1892 -2.2496  2.4156
 1071SOL     OW14674   1.789   4.220  17.253  0.3491  0.0545 -0.1671
 1071SOL    HW114675   1.834   4.242  17.171  0.3158  0.4175 -0.0890
 1071SOL    HW214676   1.860   4.248  17.311 -0.8186  0.5847  1.0035
 1072SOL     OW14677   3.250   2.104   9.174 -0.1789  0.6790 -0.2691
 1072SOL    HW114678   3.203   2.035   9.127  0.2998 -0.3357  0.7294
 1072SOL    HW214679   3.209   2.187   9.149  0.8748  0.4194 -2.9055
 1073SOL     OW14680   1.581   0.257  17.374  0.4801  0.0618 -0.3290
 1073SOL    HW114681   1.635   0.251  17.295 -1.4339 -1.1785 -1.5112
 1073SOL    HW214682   1.556   0.349  17.382 -1.7903 -0.5175 -0.9759
 1074SOL     OW14683   0.609   3.551  15.241 -0.6375  0.0623 -0.5939
 1074SOL    HW114684   0.656   3.631  15.217 -0.6424  0.7277  1.6176
 1074SOL    HW214685   0.664   3.478  15.213  0.2360 -0.8891  3.5463
 1075SOL     OW14686   2.417   3.136   0.443 -0.0482  0.6649  0.2833
 1075SOL    HW114687   2.375   3.093   0.517  1.2975 -3.3776 -1.3224
 1075SOL    HW214688   2.492   3.081   0.420 -0.2842  0.1369  0.7596
 1076SOL     OW14689   0.224   1.482   8.183 -0.2087  0.2893 -0.0258
 1076SOL    HW114690   0.188   1.466   8.096  0.6703 -0.5374 -0.2365
 1076SOL    HW214691   0.189   1.409   8.233  0.8849  0.1487  0.5425
 1077SOL     OW14692   1.246   1.571   3.868  0.3746  0.0383  0.2860
 1077SOL    HW114693   1.153   1.553   3.883 -0.5810  2.5337 -2.5142
 1077SOL    HW214694   1.255   1.660   3.900 -1.0329  1.5517 -3.5046
 1078SOL     OW14695   0.325   4.298   7.464 -0.0267  0.0324  0.0491
 1078SOL    HW114696   0.275   4.250   7.530 -0.8401 -0.3300 -0.8273
 1078SOL    HW214697   0.257   4.362   7.444  1.4202  1.1415 -1.2940
 1079SOL     OW14698   4.592   0.317   8.349 -0.4042 -0.1995  0.3146
 1079SOL    HW114699   4.665   0.321   8.287  2.5514  0.2903  3.8032
 1079SOL    HW214700   4.567   0.410   8.348  1.7772  0.4073  2.3278
 1080SOL     OW14701   4.608   2.866   5.104 -0.1407 -0.8606 -0.0850
 1080SOL    HW114702   4.656   2.867   5.187  0.2125 -1.2127 -0.2878
 1080SOL    HW214703   4.569   2.954   5.107  1.9716  0.0464  0.7215
 1081SOL     OW14704   0.992   2.158   3.060  0.7492  0.3458  0.0892
 1081SOL    HW114705   0.997   2.252   3.075  0.7310  0.1056  1.6574
 1081SOL    HW214706   1.080   2.127   3.082  0.3188  0.1155  1.4949
 1082SOL     OW14707   2.344   1.249   7.686 -0.8602 -0.5360 -0.3449
 1082SOL    HW114708   2.408   1.239   7.616  0.2142  3.1716  0.1360
 1082SOL    HW214709   2.372   1.194   7.760  2.4999  1.5388 -0.1106
 1083SOL     OW14710   2.896   3.634  10.424  0.5647 -0.8950 -0.0785
 1083SOL    HW114711   2.895   3.619  10.329 -2.3600 -1.9717  0.1193
 1083SOL    HW214712   2.988   3.622  10.447  0.6730 -0.5403 -0.3345
 1084SOL     OW14713   2.211   2.232   0.716 -0.3310  0.0705  0.0400
 1084SOL    HW114714   2.241   2.261   0.801  0.8507  0.6947 -0.5877
 1084SOL    HW214715   2.116   2.230   0.725 -0.7006  1.9312 -3.2115
 1085SOL     OW14716   2.159   1.442  11.500 -0.6451  0.3799 -0.1627
 1085SOL    HW114717   2.129   1.445  11.591 -0.9607  0.6116 -0.2752
 1085SOL    HW214718   2.119   1.362  11.466  0.7271  0.9047 -2.9986
 1086SOL     OW14719   2.075   3.667   7.593  0.2523  0.0465  0.0175
 1086SOL    HW114720   2.104   3.616   7.668  1.0192 -0.7948 -0.8598
 1086SOL    HW214721   2.151   3.676   7.537 -1.0219  2.1367 -1.3709
 1087SOL     OW14722   1.887   0.361  14.258  0.3242 -0.3273 -0.3535
 1087SOL    HW114723   1.886   0.416  14.336  1.1303 -0.3166 -0.3452
 1087SOL    HW214724   1.947   0.411  14.202  0.0361 -0.2833 -0.6187
 1088SOL     OW14725   4.023   3.964  16.516 -0.0340  0.4147 -0.6932
 1088SOL    HW114726   3.999   4.042  16.566  1.5512  1.4785 -1.5519
 1088SOL    HW214727   3.978   3.989  16.435 -1.4523  2.1093  0.6119
 1089SOL     OW14728   2.663   2.018  12.798  0.1260 -0.6353  0.2840
 1089SOL    HW114729   2.640   2.072  12.874 -1.0057  0.0115 -0.5234
 1089SOL    HW214730   2.740   2.069  12.770  0.2493  0.3855  2.4334
 1090SOL     OW14731   0.792   1.851   0.943 -0.3097 -0.2213  0.2681
 1090SOL    HW114732   0.761   1.786   1.006  0.1486 -0.1088  0.6120
 1090SOL    HW214733   0.885   1.832   0.930 -0.1660  1.7916 -1.7048
 1091SOL     OW14734   2.355   3.902  13.146  0.2438  0.0159 -0.4169
 1091SOL    HW114735   2.372   3.990  13.180  1.6597 -0.2369 -0.4630
 1091SOL    HW214736   2.400   3.852  13.215  1.9411  1.0580 -0.7824
 1092SOL     OW14737   1.652   0.022  17.492 -0.6742  0.0860  0.1502
 1092SOL    HW114738   1.731   0.065  17.523 -0.6686  0.0791  0.1455
 1092SOL    HW214739   1.590   0.095  17.485 -0.7294  0.0340  0.0917
 1093SOL     OW14740   1.139   2.959   1.869 -0.3545 -0.8094  0.7642
 1093SOL    HW114741   1.226   2.927   1.842  0.1485  1.4229 -0.2852
 1093SOL    HW214742   1.072   2.892   1.854 -0.2222 -0.5683 -0.9646
 1094SOL     OW14743   3.927   2.102   7.247 -0.1570 -0.1724  0.1929
 1094SOL    HW114744   3.986   2.062   7.311  0.3930  1.0632  0.4735
 1094SOL    HW214745   3.894   2.182   7.289  2.7190 -0.1312  2.3416
 1095SOL     OW14746   3.762   2.525   5.873  0.0851  0.1951  0.4196
 1095SOL    HW114747   3.852   2.511   5.902 -0.3574 -2.6546  0.3787
 1095SOL    HW214748   3.718   2.441   5.884 -1.7591  0.9726 -1.0346
 1096SOL     OW14749   1.621   2.690   4.812 -0.4527 -0.2267 -0.1706
 1096SOL    HW114750   1.714   2.714   4.807 -0.5496  0.0315 -0.7379
 1096SOL    HW214751   1.596   2.692   4.720 -2.3232  1.4019  0.3725
 1097SOL     OW14752   2.194   1.438   2.754  0.2531  0.4740 -0.2940
 1097SOL    HW114753   2.180   1.421   2.847 -0.5363  2.0621 -0.1181
 1097SOL    HW214754   2.113   1.465   2.711 -0.5006  0.1282  0.9216
 1098SOL     OW14755   2.099   0.185   3.993 -0.1207  0.1072 -0.1240
 1098SOL    HW114756   2.105   0.089   3.990  2.1985  0.3304 -2.4305
 1098SOL    HW214757   2.191   0.210   3.993 -0.3332  0.8854  0.2500
 1099SOL     OW14758   0.771   0.347   8.943 -0.0214 -0.0247 -0.0739
 1099SOL    HW114759   0.767   0.418   8.878  1.2473 -0.2049 -0.3422
 1099SOL    HW214760   0.788   0.398   9.022 -0.0731 -1.0029  0.5666
 1100SOL     OW14761   0.517   2.885  11.783 -0.2401  0.2831 -0.5519
 1100SOL    HW114762   0.424   2.882  11.759 -0.0828  0.4820 -1.1745
 1100SOL    HW214763   0.509   2.940  11.861 -0.4343  0.2926 -0.5791
 1101SOL     OW14764   3.222   1.941   0.919 -0.4854 -0.0844  0.2282
 1101SOL    HW114765   3.160   2.012   0.934  1.0437  0.8965  1.8884
 1101SOL    HW214766   3.226   1.902   1.006  1.2016 -2.1127 -0.7769
 1102SOL     OW14767   4.491   0.654   3.385 -0.2694  0.3400 -0.6399
 1102SOL    HW114768   4.464   0.648   3.476 -0.3572  1.3281 -0.5996
 1102SOL    HW214769   4.531   0.567   3.382 -1.8562 -0.3688 -1.3804
 1103SOL     OW14770   0.740   2.753   6.664 -1.1325  0.0471 -0.1246
 1103SOL    HW114771   0.748   2.659   6.677  0.5695 -0.1096 -2.3299
 1103SOL    HW214772   0.765   2.790   6.749  0.3423 -1.9226  0.2862
 1104SOL     OW14773   0.402   1.882  16.054 -0.4993 -0.1093  0.3885
 1104SOL    HW114774   0.352   1.822  16.110  0.5921 -1.6052 -0.2330
 1104SOL    HW214775   0.383   1.831  15.975  0.3470 -0.7232  0.5857
 1105SOL     OW14776   0.641   4.227  11.202  0.1885  0.1278  0.1181
 1105SOL    HW114777   0.600   4.144  11.178 -2.8761  1.4380  0.7480
 1105SOL    HW214778   0.732   4.208  11.183 -0.3370 -1.4057 -0.8734
 1106SOL     OW14779   1.708   2.891   9.834  0.0432 -0.4152  0.5547
 1106SOL    HW114780   1.758   2.972   9.834 -1.2115  0.3679 -1.2284
 1106SOL    HW214781   1.752   2.845   9.763 -2.2820 -0.9726 -0.5307
 1107SOL     OW14782   1.667   1.354   0.494 -0.3705 -0.0848 -1.0726
 1107SOL    HW114783   1.651   1.273   0.542 -0.0364  1.6023  1.9175
 1107SOL    HW214784   1.589   1.368   0.441  0.6557  1.1262 -2.2810
 1108SOL     OW14785   1.413   2.459   8.602  0.2567  0.0420  0.6974
 1108SOL    HW114786   1.452   2.546   8.610  0.6547 -0.3970  3.6283
 1108SOL    HW214787   1.364   2.450   8.684 -1.9229  0.1972 -0.5715
 1109SOL     OW14788   0.219   1.132   3.866 -0.1086 -0.5662 -0.0651
 1109SOL    HW114789   0.129   1.158   3.889  0.7747  1.5348  1.0149
 1109SOL    HW214790   0.236   1.087   3.949  1.6160  1.4428  0.6669
 1110SOL     OW14791   4.700   0.402   5.280 -0.2054  0.1421  0.4456
 1110SOL    HW114792   4.701   0.395   5.184 -0.8459 -1.1481  0.5336
 1110SOL    HW214793   4.697   0.309   5.300  0.6929  0.6170  2.7422
 1111SOL     OW14794   3.598   3.073  17.020  0.1514  0.4639 -0.3101
 1111SOL    HW114795   3.506   3.088  17.042 -0.2443 -1.3080 -0.7175
 1111SOL    HW214796   3.601   3.142  16.954 -0.6544  1.4839  0.7336
 1112SOL     OW14797   1.082   0.814   3.576  0.4113  0.4312  0.4912
 1112SOL    HW114798   1.132   0.826   3.495  2.3332 -0.7596  1.4903
 1112SOL    HW214799   1.124   0.743   3.625 -0.7309 -1.9241 -1.9414
 1113SOL     OW14800   3.988   4.288  11.076 -0.0033 -0.1620  0.2030
 1113SOL    HW114801   4.031   4.293  10.991 -0.8104 -3.8653 -0.4039
 1113SOL    HW214802   4.002   4.380  11.101  2.4514 -0.5867  0.3763
 1114SOL     OW14803   3.674   3.475  11.239 -0.3693 -0.0731 -0.2938
 1114SOL    HW114804   3.754   3.509  11.199  1.1829 -3.1722  0.1308
 1114SOL    HW214805   3.629   3.444  11.160  2.0994 -0.8632 -1.3861
 1115SOL     OW14806   0.611   3.588  12.081  0.2956 -0.8128 -0.2996
 1115SOL    HW114807   0.602   3.674  12.041 -0.6938  0.3232  2.3756
 1115SOL    HW214808   0.529   3.545  12.056 -0.8250  1.4436 -0.4690
 1116SOL     OW14809   4.625   0.118  16.203 -0.4148  0.2976 -0.2311
 1116SOL    HW114810   4.705   0.159  16.236 -0.5186  1.6903 -1.6895
 1116SOL    HW214811   4.646   0.129  16.110 -1.0426 -1.4149 -0.5887
 1117SOL     OW14812   1.056   0.383   5.236  0.2441 -0.4319  0.2646
 1117SOL    HW114813   1.042   0.395   5.142  0.7275 -1.8877  0.0062
 1117SOL    HW214814   1.110   0.305   5.231  1.5847  0.5477 -0.4782
 1118SOL     OW14815   2.458   4.109   3.207  0.3288 -0.0932 -0.1919
 1118SOL    HW114816   2.500   4.130   3.123 -1.0947  0.0754 -0.8730
 1118SOL    HW214817   2.468   4.015   3.219  0.7985 -0.0930 -0.5731
 1119SOL     OW14818   3.112   2.157   7.072 -0.1267  0.1826  0.0627
 1119SOL    HW114819   3.159   2.135   6.991 -1.8639 -0.3334 -0.8145
 1119SOL    HW214820   3.027   2.173   7.030  0.3210 -0.4772 -1.1118
 1120SOL     OW14821   2.981   1.517   3.673  0.9163  0.0711  0.1306
 1120SOL    HW114822   2.888   1.508   3.692  0.4627  0.8073 -1.7547
 1120SOL    HW214823   3.020   1.572   3.741  0.0784  1.9848 -0.9218
 1121SOL     OW14824   1.797   3.961  10.544  0.1773  0.6487  0.0614
 1121SOL    HW114825   1.815   4.005  10.461 -0.4285 -0.6316 -0.7418
 1121SOL    HW214826   1.867   3.897  10.545 -0.7497 -0.3747 -0.5660
 1122SOL     OW14827   2.957   3.605   8.467  0.0851  0.1246  0.1332
 1122SOL    HW114828   3.034   3.572   8.514  1.3609  0.3780 -1.7543
 1122SOL    HW214829   2.941   3.683   8.520  4.2536  1.7837 -0.9988
 1123SOL     OW14830   1.327   4.288  10.277  0.3016  0.3428  0.3926
 1123SOL    HW114831   1.395   4.349  10.305  0.8421 -0.0695 -0.0363
 1123SOL    HW214832   1.315   4.264  10.368 -1.8838 -0.7319 -0.1871
 1124SOL     OW14833   1.677   3.584  12.206  0.7684 -0.0353  0.2583
 1124SOL    HW114834   1.684   3.650  12.275  0.3596  0.9509 -0.6285
 1124SOL    HW214835   1.747   3.524  12.234 -0.2001 -1.3875 -0.2423
 1125SOL     OW14836   0.842   2.779  15.751 -0.0200  0.3274  0.0500
 1125SOL    HW114837   0.832   2.872  15.732 -5.1219  0.1532  1.6602
 1125SOL    HW214838   0.934   2.779  15.777  0.3688 -1.1573 -1.3468
 1126SOL     OW14839   1.582   4.047  14.100 -0.1500  0.1007 -0.1389
 1126SOL    HW114840   1.600   4.071  14.010 -1.5271 -2.2641 -1.0434
 1126SOL    HW214841   1.606   4.123  14.154  1.0837 -0.3559 -0.0376
 1127SOL     OW14842   2.179   0.458  15.493 -0.1749  0.2343  0.6926
 1127SOL    HW114843   2.156   0.544  15.529  0.6664  0.7083  0.0870
 1127SOL    HW214844   2.234   0.499  15.426  0.7297 -1.2061  0.5599
 1128SOL     OW14845   0.878   4.170   6.507 -0.1973 -0.3796  0.0847
 1128SOL    HW114846   0.788   4.137   6.508 -0.7220  1.0413  0.0161
 1128SOL    HW214847   0.913   4.114   6.576 -1.4012 -0.8308  0.3387
 1129SOL     OW14848   1.885   3.545   8.485 -0.3644 -0.0228  0.4215
 1129SOL    HW114849   1.937   3.487   8.429 -0.3857 -0.9643  1.3754
 1129SOL    HW214850   1.957   3.590   8.531  0.6976 -3.5330  2.1732
 1130SOL     OW14851   2.589   4.463   5.278  0.3815  0.0882 -0.5971
 1130SOL    HW114852   2.494   4.465   5.284  0.3479  1.8364 -1.7828
 1130SOL    HW214853   2.614   4.408   5.353 -1.3366  1.5858  1.0834
 1131SOL     OW14854   0.460   2.135  16.056  0.5186 -0.0048  0.4000
 1131SOL    HW114855   0.445   2.041  16.054 -2.6833  0.5177 -1.1460
 1131SOL    HW214856   0.522   2.149  16.128 -1.3644  2.3700  1.5668
 1132SOL     OW14857   4.223   4.424   3.670 -0.2660  0.0516  0.0041
 1132SOL    HW114858   4.148   4.475   3.640 -1.9734 -1.2936  1.9554
 1132SOL    HW214859   4.243   4.472   3.750 -2.1509  0.5100  0.2061
 1133SOL     OW14860   2.572   0.037   5.674 -0.0838 -0.3463  0.4043
 1133SOL    HW114861   2.572   4.685   5.737  1.0849  1.3896  2.3664
 1133SOL    HW214862   2.479   0.060   5.680 -0.4587 -1.4438 -1.0102
 1134SOL     OW14863   4.246   1.386   5.505 -0.0440 -0.1908 -0.5072
 1134SOL    HW114864   4.271   1.341   5.424  1.3485  1.1101 -0.7887
 1134SOL    HW214865   4.217   1.467   5.463  1.2058 -0.0427 -1.1003
 1135SOL     OW14866   3.157   0.748   7.739  0.0250  0.1071 -0.2859
 1135SOL    HW114867   3.166   0.662   7.781 -1.1470 -0.0820 -0.4089
 1135SOL    HW214868   3.174   0.728   7.647 -0.6584 -1.4464 -0.0833
 1136SOL     OW14869   3.008   1.046   2.839 -0.1071 -0.6496  0.7135
 1136SOL    HW114870   2.972   1.091   2.762  1.7858 -1.6277 -0.7604
 1136SOL    HW214871   2.949   0.975   2.860 -1.4030  0.1545 -0.1932
 1137SOL     OW14872   1.703   3.294   2.685 -0.8778 -0.1934  0.0192
 1137SOL    HW114873   1.781   3.248   2.654 -1.4049 -1.2611  0.2645
 1137SOL    HW214874   1.636   3.259   2.626 -0.3108  0.4018 -0.9612
 1138SOL     OW14875   0.930   1.415   2.780 -0.0479  0.3594  0.2095
 1138SOL    HW114876   0.983   1.484   2.820  0.4812 -1.3278  2.4073
 1138SOL    HW214877   0.957   1.427   2.690  1.8494 -1.2157  0.5770
 1139SOL     OW14878   2.827   3.807   9.125  0.4884  0.3766 -0.4284
 1139SOL    HW114879   2.780   3.769   9.050 -2.8634  0.0626  1.7884
 1139SOL    HW214880   2.832   3.900   9.105 -2.2834  0.4989 -0.6597
 1140SOL     OW14881   3.290   0.699   0.104 -0.4809  0.6905  0.2557
 1140SOL    HW114882   3.209   0.728   0.146  0.2755 -0.1165  2.2630
 1140SOL    HW214883   3.336   0.655   0.176 -0.6173  2.3120  1.3230
 1141SOL     OW14884   4.127   1.469   7.570 -0.1780  0.0149  0.3049
 1141SOL    HW114885   4.199   1.406   7.579 -0.2779  0.1825  2.4216
 1141SOL    HW214886   4.043   1.431   7.595  0.0815 -1.1571 -0.6284
 1142SOL     OW14887   0.675   0.041   1.473  0.2696  1.3550  0.3657
 1142SOL    HW114888   0.697   0.009   1.561 -1.0588  1.8402  0.8735
 1142SOL    HW214889   0.585   0.013   1.458  0.4145  0.4831  1.1211
 1143SOL     OW14890   3.656   2.848  15.218  0.3744  0.1409 -0.2896
 1143SOL    HW114891   3.699   2.913  15.274  1.9699 -0.5360 -0.7060
 1143SOL    HW214892   3.564   2.871  15.228  0.6471  0.6738  1.0407
 1144SOL     OW14893   1.725   3.376   1.340  0.3480  0.1127 -0.1335
 1144SOL    HW114894   1.686   3.442   1.397  1.5390 -0.6781  1.5968
 1144SOL    HW214895   1.817   3.403   1.349  0.1149  1.1294 -0.8192
 1145SOL     OW14896   2.409   2.185   7.908  0.3380  0.4454  0.0456
 1145SOL    HW114897   2.349   2.160   7.838 -2.0781  2.6910  1.3098
 1145SOL    HW214898   2.382   2.126   7.979 -1.8757  3.2142  1.4920
 1146SOL     OW14899   4.275   1.887   3.635 -0.3085  0.0729  0.1413
 1146SOL    HW114900   4.292   1.794   3.622  0.5132 -0.0316  1.9333
 1146SOL    HW214901   4.331   1.921   3.566 -2.0783 -0.4492 -1.5474
 1147SOL     OW14902   3.882   2.177   5.684  0.3996 -0.0760  0.6601
 1147SOL    HW114903   3.808   2.200   5.741 -0.0735 -1.1326  0.4701
 1147SOL    HW214904   3.944   2.243   5.716  0.5090 -1.1306  2.6399
 1148SOL     OW14905   0.738   3.786   1.010 -0.2369  0.0473  0.1362
 1148SOL    HW114906   0.762   3.877   0.994 -1.5056  0.3483  0.0169
 1148SOL    HW214907   0.644   3.796   1.025 -0.2988  1.1723 -1.0041
 1149SOL     OW14908   2.318   0.836   4.153  0.4049  0.3981  0.1388
 1149SOL    HW114909   2.233   0.852   4.195  0.7690  1.4541  0.4832
 1149SOL    HW214910   2.351   0.768   4.212 -0.8507  0.2974  0.7342
 1150SOL     OW14911   0.743   3.599  12.316  0.1418  0.2103 -0.3287
 1150SOL    HW114912   0.698   3.584  12.233 -0.4270 -1.6633  0.3214
 1150SOL    HW214913   0.697   3.529  12.363  2.1594  0.5962  2.2295
 1151SOL     OW14914   4.117   3.865  10.914  0.0839 -0.0667  0.2159
 1151SOL    HW114915   4.043   3.899  10.964 -2.1060 -2.7798 -1.2112
 1151SOL    HW214916   4.188   3.897  10.970  2.0258  0.7033 -2.6839
 1152SOL     OW14917   4.551   2.155  15.994 -0.2881 -0.2786 -0.1651
 1152SOL    HW114918   4.525   2.069  16.027  1.1673  0.0493  1.8135
 1152SOL    HW214919   4.496   2.202  16.056  2.1820  1.4633  0.7039
 1153SOL     OW14920   1.405   4.653   9.932  0.8922 -0.3315 -0.0425
 1153SOL    HW114921   1.429   4.605  10.011  1.7210 -0.5350 -0.4121
 1153SOL    HW214922   1.468   0.006   9.933  0.5277 -0.0310  1.1167
 1154SOL     OW14923   3.933   1.474   4.765  0.1403 -0.8259  0.5385
 1154SOL    HW114924   3.926   1.536   4.692 -0.4717 -1.6157 -0.0735
 1154SOL    HW214925   3.872   1.509   4.829  0.1566  2.9903 -1.5427
 1155SOL     OW14926   4.256   0.456   2.935 -0.0995  0.8001  0.1970
 1155SOL    HW114927   4.301   0.532   2.973 -0.7621  0.9307  0.7220
 1155SOL    HW214928   4.287   0.385   2.990 -0.4543 -1.5114 -2.5917
 1156SOL     OW14929   0.698   4.537   8.596  0.4763 -0.2581 -0.0063
 1156SOL    HW114930   0.662   4.602   8.656 -0.9483 -0.5267 -0.5851
 1156SOL    HW214931   0.722   4.601   8.529  1.7554 -1.5063 -0.7565
 1157SOL     OW14932   3.344   3.606   4.348 -0.0812  0.2523 -0.3062
 1157SOL    HW114933   3.378   3.591   4.436 -0.6338  3.7100  0.5056
 1157SOL    HW214934   3.369   3.696   4.329  0.2040  0.1381 -0.4699
 1158SOL     OW14935   3.643   2.693  11.958 -0.1133 -0.0982  0.1407
 1158SOL    HW114936   3.627   2.694  11.864 -0.8441  0.2709  0.2683
 1158SOL    HW214937   3.601   2.774  11.987  1.5243  1.3134 -1.4455
 1159SOL     OW14938   2.536   4.477   2.403 -0.2125  0.4919 -0.4363
 1159SOL    HW114939   2.545   4.572   2.407 -0.0706  0.5029 -1.0610
 1159SOL    HW214940   2.547   4.450   2.495 -0.6564  0.9418 -0.2497
 1160SOL     OW14941   1.752   4.358   1.857 -0.3720 -0.1729  0.4227
 1160SOL    HW114942   1.843   4.367   1.884  0.3480 -3.5851 -0.8588
 1160SOL    HW214943   1.751   4.293   1.788 -1.3949  0.0858  0.1820
 1161SOL     OW14944   2.092   2.945   2.214  1.1550 -0.1357 -0.2806
 1161SOL    HW114945   2.095   2.948   2.118 -1.4496 -1.1667 -0.3981
 1161SOL    HW214946   2.183   2.924   2.236  1.2743 -1.1122 -1.6807
 1162SOL     OW14947   2.169   3.729   0.001  0.4220 -0.4284 -0.3363
 1162SOL    HW114948   2.144   3.716  17.592  1.1150  2.6521 -0.9528
 1162SOL    HW214949   2.085   3.748   0.042 -0.1757  0.5325 -2.0316
 1163SOL     OW14950   1.291   3.400  15.863 -0.5882  0.4366 -0.0133
 1163SOL    HW114951   1.345   3.416  15.785  2.1264  0.4013  1.8485
 1163SOL    HW214952   1.209   3.445  15.844  0.0205  2.6156  2.5806
 1164SOL     OW14953   2.673   3.974   3.856 -0.2063 -0.2993 -0.1852
 1164SOL    HW114954   2.741   3.944   3.795 -0.8835  0.3218 -1.2643
 1164SOL    HW214955   2.694   4.067   3.861 -1.0128 -0.0019 -2.0140
 1165SOL     OW14956   2.499   4.262   8.836  0.2335  0.1633  0.2747
 1165SOL    HW114957   2.465   4.179   8.871 -0.8415  0.5079  0.0560
 1165SOL    HW214958   2.424   4.320   8.850  1.0636  1.4819 -0.7852
 1166SOL     OW14959   3.290   1.452   7.854  0.1758 -0.2833 -0.5390
 1166SOL    HW114960   3.364   1.479   7.908 -0.4232  0.1075  0.0917
 1166SOL    HW214961   3.320   1.479   7.767  2.5701 -3.8720 -0.8010
 1167SOL     OW14962   3.500   3.802  10.895  0.5972 -0.5363  0.0673
 1167SOL    HW114963   3.592   3.827  10.898 -0.4410  3.1783  0.1790
 1167SOL    HW214964   3.505   3.708  10.916 -0.4970 -0.7568 -0.6411
 1168SOL     OW14965   2.733   0.205   4.868 -0.2027  0.4111 -0.1434
 1168SOL    HW114966   2.644   0.175   4.846  0.2294 -0.3434 -0.8899
 1168SOL    HW214967   2.713   0.236   4.956  0.9353 -1.8074  0.8804
 1169SOL     OW14968   0.171   0.264   0.451  0.4548  0.1747  0.4205
 1169SOL    HW114969   0.092   0.293   0.496  0.0336  0.2248 -0.3475
 1169SOL    HW214970   0.242   0.324   0.477  0.8373 -0.2150  0.2719
 1170SOL     OW14971   2.644   0.735  16.612 -0.8821 -0.2102 -0.1204
 1170SOL    HW114972   2.655   0.736  16.707  1.2042 -1.0864 -0.3607
 1170SOL    HW214973   2.588   0.657  16.604 -0.1984 -0.5535 -1.6383
 1171SOL     OW14974   1.692   0.236   0.502  0.7115 -0.2223 -0.2535
 1171SOL    HW114975   1.667   0.321   0.538 -0.3171 -0.9008  0.6313
 1171SOL    HW214976   1.724   0.185   0.576 -0.8743  0.0114  0.5951
 1172SOL     OW14977   0.787   1.242   0.829  0.2520  0.2384  0.2574
 1172SOL    HW114978   0.759   1.320   0.781  1.1382 -0.7630 -1.8988
 1172SOL    HW214979   0.704   1.196   0.836  1.0839 -1.2322  0.3891
 1173SOL     OW14980   1.941   1.452   7.284  0.1574  0.2857 -0.5112
 1173SOL    HW114981   1.921   1.544   7.303 -1.0248  0.3304 -1.9478
 1173SOL    HW214982   1.893   1.429   7.205  0.7499 -1.4276 -0.3659
 1174SOL     OW14983   1.666   4.318   2.552 -0.3132  0.0638 -0.1910
 1174SOL    HW114984   1.612   4.342   2.628 -0.3560  1.3899 -0.6467
 1174SOL    HW214985   1.738   4.275   2.598 -0.4578  3.0696  2.7995
 1175SOL     OW14986   4.186   2.814   8.911 -0.6579 -0.5088  0.6507
 1175SOL    HW114987   4.272   2.806   8.954 -0.6149  2.4888  1.0968
 1175SOL    HW214988   4.138   2.757   8.971 -0.6875 -0.5201  0.6166
 1176SOL     OW14989   2.631   2.740  16.100  0.2575  0.1750  0.2741
 1176SOL    HW114990   2.625   2.752  16.195 -0.9572  0.0218  0.2084
 1176SOL    HW214991   2.715   2.783  16.085  0.7339  0.5347  4.0587
 1177SOL     OW14992   3.256   0.455  10.765 -0.0167  0.4090  0.5537
 1177SOL    HW114993   3.327   0.431  10.705 -0.4277 -0.4817  0.4329
 1177SOL    HW214994   3.215   0.377  10.729  0.6731  0.0899  0.4624
 1178SOL     OW14995   1.639   4.516  17.338  0.5157  0.6499  0.2755
 1178SOL    HW114996   1.652   4.596  17.388  1.0356  0.3331  0.6421
 1178SOL    HW214997   1.728   4.482  17.334  0.2531 -0.2581  1.9389
 1179SOL     OW14998   0.983   1.909  10.813  0.2668  0.2307 -0.0515
 1179SOL    HW114999   1.013   1.823  10.844 -0.3564  0.5970  1.5877
 1179SOL    HW215000   1.019   1.973  10.875 -0.6603  1.5823 -0.9025
 1180SOL     OW15001   2.211   3.910   7.070  0.0864 -0.4184  0.0036
 1180SOL    HW115002   2.231   3.840   7.009 -0.5912  1.7430 -2.6976
 1180SOL    HW215003   2.284   3.967   7.045  1.3743 -2.3974 -0.7023
 1181SOL     OW15004   0.444   3.473  10.018  0.2713  0.2176  0.5346
 1181SOL    HW115005   0.493   3.538  10.069 -0.9686  1.5235  0.0435
 1181SOL    HW215006   0.469   3.511   9.934 -0.4194 -2.8580 -1.0419
 1182SOL     OW15007   3.229   2.771  12.904  0.3389  0.1486  0.1874
 1182SOL    HW115008   3.233   2.854  12.857  0.0725 -0.0300 -0.1574
 1182SOL    HW215009   3.270   2.715  12.837 -0.6047  1.5743 -1.5882
 1183SOL     OW15010   0.946   0.993   0.729  0.1210 -0.4160 -0.4194
 1183SOL    HW115011   0.867   1.046   0.724  1.6212  1.9538  0.8041
 1183SOL    HW215012   1.013   1.061   0.724  1.9221 -2.2984 -1.8042
 1184SOL     OW15013   3.816   3.130   7.108 -0.2789  0.6899  0.5207
 1184SOL    HW115014   3.857   3.135   7.194 -2.6563  2.1496  1.5846
 1184SOL    HW215015   3.732   3.091   7.133 -0.7594  2.3235  1.4362
 1185SOL     OW15016   2.309   4.364   8.111 -0.0218  0.0695 -0.6732
 1185SOL    HW115017   2.367   4.440   8.109  0.7646 -0.4550  2.1535
 1185SOL    HW215018   2.239   4.385   8.049 -1.4702 -0.8382  0.6481
 1186SOL     OW15019   0.574   1.636   5.947  0.3039  0.0169  0.0481
 1186SOL    HW115020   0.542   1.547   5.965  1.7321 -0.5015  0.0238
 1186SOL    HW215021   0.550   1.643   5.855 -0.3457  2.1329  0.3842
 1187SOL     OW15022   1.005   2.454  10.436  0.1628 -0.4871  0.2156
 1187SOL    HW115023   0.934   2.518  10.433  2.1946  1.6876 -0.7052
 1187SOL    HW215024   1.069   2.500  10.491  0.3475 -0.9137  0.3593
 1188SOL     OW15025   2.748   0.686   7.681  0.2012 -0.4273  0.0387
 1188SOL    HW115026   2.834   0.655   7.654  0.8818  2.0937 -0.6846
 1188SOL    HW215027   2.770   0.710   7.771 -1.0132  0.5857  0.0593
 1189SOL     OW15028   3.104   4.031   7.293 -0.4480  0.0912 -0.0853
 1189SOL    HW115029   3.037   3.982   7.245 -0.3792  0.1101 -0.1999
 1189SOL    HW215030   3.104   3.985   7.377  0.4398  0.1213 -0.0614
 1190SOL     OW15031   0.565   1.183   7.251 -0.1103  0.3938 -0.2436
 1190SOL    HW115032   0.645   1.134   7.270 -1.2663 -1.3835  0.0597
 1190SOL    HW215033   0.531   1.206   7.337 -0.2805 -1.7300  0.2658
 1191SOL     OW15034   0.682   1.828   7.409 -0.2042 -0.5957 -0.1121
 1191SOL    HW115035   0.726   1.743   7.401 -0.0712 -0.5150 -0.2389
 1191SOL    HW215036   0.594   1.803   7.380 -0.0799 -2.5768  1.2286
 1192SOL     OW15037   1.287   3.677   3.292  0.3346 -0.1507 -0.2085
 1192SOL    HW115038   1.306   3.662   3.199  1.8241  0.7280 -0.0486
 1192SOL    HW215039   1.216   3.740   3.280 -0.1084 -0.6125 -0.0156
 1193SOL     OW15040   1.032   3.998   5.173  0.4418  0.5810  0.8965
 1193SOL    HW115041   1.068   3.998   5.084  0.1418 -1.8984  0.7766
 1193SOL    HW215042   1.109   3.996   5.230  1.9671 -2.6672 -1.2791
 1194SOL     OW15043   2.144   0.472   2.586  0.2587  0.2047 -0.1874
 1194SOL    HW115044   2.152   0.546   2.647  0.0684  0.5072 -0.5316
 1194SOL    HW215045   2.236   0.445   2.595 -0.4322 -2.5017 -1.0961
 1195SOL     OW15046   2.864   4.269  10.512 -0.4385  0.3396 -0.2938
 1195SOL    HW115047   2.902   4.284  10.598 -1.6474 -0.2469  0.3384
 1195SOL    HW215048   2.771   4.262  10.529 -0.0874  1.2412  1.9870
 1196SOL     OW15049   2.876   4.501  16.237  0.3718 -0.1131 -0.2757
 1196SOL    HW115050   2.900   4.563  16.168  0.6287  1.4983  1.2719
 1196SOL    HW215051   2.898   4.551  16.315 -0.6872 -1.2780  0.7740
 1197SOL     OW15052   1.312   4.133  13.239 -0.4289 -0.1255  0.2300
 1197SOL    HW115053   1.305   4.214  13.188  0.6593 -1.0104 -1.3261
 1197SOL    HW215054   1.234   4.088  13.208  0.6821 -1.2071 -1.0176
 1198SOL     OW15055   2.744   4.623   4.889  0.5560  0.0666 -0.2901
 1198SOL    HW115056   2.753   4.582   4.803  1.4719 -0.0498 -0.1350
 1198SOL    HW215057   2.675   4.566   4.925 -0.0930  1.0005 -0.0467
 1199SOL     OW15058   3.853   1.368   3.506  0.0771  0.1659  0.7345
 1199SOL    HW115059   3.832   1.365   3.413  1.2010  1.8380  0.4310
 1199SOL    HW215060   3.870   1.274   3.516 -0.1100  0.0706  0.1539
 1200SOL     OW15061   4.188   4.648  16.820  0.4832 -0.6472  0.1988
 1200SOL    HW115062   4.116   4.697  16.780  1.2732  1.1726  1.0440
 1200SOL    HW215063   4.137   4.622  16.897 -0.1097  1.2758  0.4430
 1201SOL     OW15064   4.250   3.250   5.952 -0.7988  0.2276 -0.0991
 1201SOL    HW115065   4.344   3.252   5.968 -0.9810  0.5618  0.9447
 1201SOL    HW215066   4.220   3.178   6.007 -1.3940  0.1257 -0.5636
 1202SOL     OW15067   0.238   4.103   2.959  0.4375  0.0741  0.4788
 1202SOL    HW115068   0.306   4.158   2.920  0.2206 -1.3443 -1.8769
 1202SOL    HW215069   0.173   4.167   2.930  1.0280  0.2726 -0.3990
 1203SOL     OW15070   0.481   0.722   4.666  0.7836 -0.2639  0.2123
 1203SOL    HW115071   0.495   0.766   4.583  0.5219  1.3090  0.9846
 1203SOL    HW215072   0.434   0.645   4.633  0.8314 -0.2506  0.1142
 1204SOL     OW15073   4.660   0.117  11.834  0.8100 -0.6726  0.3909
 1204SOL    HW115074   4.700   0.064  11.903  0.6936 -0.9419  0.2505
 1204SOL    HW215075   4.568   0.099  11.852  0.3209 -0.2467 -1.7666
 1205SOL     OW15076   3.349   2.942   4.160  0.3917  0.2719 -0.5681
 1205SOL    HW115077   3.391   2.903   4.237  0.7798  0.1187 -0.8577
 1205SOL    HW215078   3.400   3.023   4.154  0.5072  0.4723  3.3136
 1206SOL     OW15079   3.886   3.830  10.239 -0.0117 -0.0438  0.2603
 1206SOL    HW115080   3.793   3.827  10.215 -0.0131  1.9150 -0.0130
 1206SOL    HW215081   3.900   3.925  10.240 -1.6475  0.2154 -0.9187
 1207SOL     OW15082   0.326   2.622   3.776  0.4918 -0.0394 -0.1684
 1207SOL    HW115083   0.269   2.565   3.827 -1.0220 -0.2319 -2.0525
 1207SOL    HW215084   0.361   2.555   3.717  0.0402 -0.3918 -0.0416
 1208SOL     OW15085   3.684   2.124   1.148 -0.0761 -0.0959  0.9574
 1208SOL    HW115086   3.752   2.153   1.210  2.0592 -2.4635 -0.3133
 1208SOL    HW215087   3.670   2.207   1.103 -0.9108 -0.2993  0.8594
 1209SOL     OW15088   4.058   2.810   5.493  0.0849 -0.4363  0.2570
 1209SOL    HW115089   4.045   2.842   5.404  1.0175  0.5761  0.4822
 1209SOL    HW215090   4.058   2.895   5.537 -0.8186 -0.9092  1.1867
 1210SOL     OW15091   1.464   2.932   2.167  0.0717 -0.0028  0.4800
 1210SOL    HW115092   1.398   2.934   2.097  0.0427  0.5679  0.5189
 1210SOL    HW215093   1.454   3.019   2.205 -1.1221 -0.5778  1.4511
 1211SOL     OW15094   3.911   4.029   4.735 -0.2736 -0.0891  0.4578
 1211SOL    HW115095   3.925   3.962   4.802 -1.9444 -1.4142 -0.5552
 1211SOL    HW215096   3.964   4.105   4.762 -1.4749  1.7352 -2.3537
 1212SOL     OW15097   2.795   0.018   4.015  0.0619  0.4390  0.3197
 1212SOL    HW115098   2.793   4.646   4.044  0.6517  0.0954 -0.7463
 1212SOL    HW215099   2.720   0.061   4.057 -2.5097 -1.7792 -1.9282
 1213SOL     OW15100   2.567   2.420   5.325 -0.4581 -0.3851  0.6295
 1213SOL    HW115101   2.618   2.345   5.296 -1.2582 -0.0680 -1.5363
 1213SOL    HW215102   2.600   2.435   5.414 -0.3716 -0.4937  0.6146
 1214SOL     OW15103   4.683   0.352   8.065 -0.2773 -0.3504 -0.4610
 1214SOL    HW115104   0.052   0.353   8.030 -0.2582  0.7501 -0.4031
 1214SOL    HW215105   4.654   0.435   8.026  2.5105  0.7940 -0.1038
 1215SOL     OW15106   4.015   2.181   2.746 -0.0621  0.1018 -0.0238
 1215SOL    HW115107   4.089   2.237   2.770  1.1587 -0.9690 -1.2677
 1215SOL    HW215108   3.941   2.242   2.750  0.8703  1.1520  0.9384
 1216SOL     OW15109   1.071   1.264   8.669 -0.1531  0.3094  0.5630
 1216SOL    HW115110   1.142   1.277   8.732  1.7187  0.9491 -1.6738
 1216SOL    HW215111   1.051   1.173   8.690  0.7096  0.2182  0.9769
 1217SOL     OW15112   1.036   4.412   2.845  0.5047  0.4545 -0.0120
 1217SOL    HW115113   0.980   4.337   2.866  1.0097 -0.3725 -1.5558
 1217SOL    HW215114   1.125   4.387   2.873  1.3166  0.3717 -2.6535
 1218SOL     OW15115   0.775   0.444   6.647 -0.3612  0.2706 -0.2563
 1218SOL    HW115116   0.697   0.433   6.702  0.3457  1.1337  0.9126
 1218SOL    HW215117   0.767   0.373   6.584 -1.5082  1.2524 -1.2101
 1219SOL     OW15118   1.400   4.549   4.246 -0.4197 -0.0767 -0.1455
 1219SOL    HW115119   1.340   4.509   4.308  1.3127  1.3116  2.4351
 1219SOL    HW215120   1.472   4.488   4.226  2.2868  2.8543  0.5770
 1220SOL     OW15121   3.776   3.625   6.805  0.1472  0.2219  0.3715
 1220SOL    HW115122   3.700   3.569   6.823  0.7610 -1.8278 -3.3045
 1220SOL    HW215123   3.851   3.569   6.785 -0.7382 -0.7844 -0.1754
 1221SOL     OW15124   4.278   1.127   3.289 -0.2857  0.4285 -0.6256
 1221SOL    HW115125   4.372   1.147   3.296 -0.2090  0.8014 -2.6463
 1221SOL    HW215126   4.273   1.033   3.306  0.8643  0.6404  0.8123
 1222SOL     OW15127   1.014   2.725  13.133  0.4471 -0.2438  0.2796
 1222SOL    HW115128   1.077   2.656  13.153  0.8578  0.0136 -0.1149
 1222SOL    HW215129   1.024   2.724  13.038  0.9290 -1.8457  0.3499
 1223SOL     OW15130   4.369   0.941  16.517  0.3708  0.0602 -0.4934
 1223SOL    HW115131   4.401   0.853  16.497  0.8169 -0.1293  1.0720
 1223SOL    HW215132   4.276   0.931  16.533  0.4201  1.5640  0.6842
 1224SOL     OW15133   1.076   0.583  16.484  0.1051 -0.0446  0.0016
 1224SOL    HW115134   1.129   0.527  16.540 -0.5540 -0.6828 -0.0186
 1224SOL    HW215135   1.066   0.657  16.544  1.2525 -1.1623  1.5678
 1225SOL     OW15136   0.404   2.022   5.020  0.0377 -0.0920 -0.3022
 1225SOL    HW115137   0.444   2.042   4.935  1.6405  0.9314  0.6984
 1225SOL    HW215138   0.321   1.982   4.993 -1.8868  3.1145  0.9229
 1226SOL     OW15139   4.480   1.698   6.724  0.7068  0.1560 -0.2102
 1226SOL    HW115140   4.394   1.665   6.698  0.7734  1.9741 -2.6663
 1226SOL    HW215141   4.508   1.764   6.661  2.2873  0.8779  1.2297
 1227SOL     OW15142   0.764   1.275   4.540  0.3720 -0.3952  0.4444
 1227SOL    HW115143   0.818   1.296   4.464 -2.5268  0.7172 -1.3199
 1227SOL    HW215144   0.757   1.180   4.534 -0.7837 -0.3336  0.7325
 1228SOL     OW15145   2.118   4.517   4.301  0.0572 -0.7822  0.2408
 1228SOL    HW115146   2.207   4.483   4.289 -0.5246 -2.7127  1.3217
 1228SOL    HW215147   2.060   4.443   4.284 -0.8031  0.0903 -0.6395
 1229SOL     OW15148   4.121   4.341   5.947  0.0036 -0.6369 -0.4916
 1229SOL    HW115149   4.105   4.405   5.878  1.0291 -0.0202 -0.1591
 1229SOL    HW215150   4.196   4.379   5.992  0.5503  0.3161 -2.2046
 1230SOL     OW15151   0.810   3.748  15.401  0.4862 -0.6029  0.4842
 1230SOL    HW115152   0.777   3.818  15.344  1.6554 -0.7836 -0.4382
 1230SOL    HW215153   0.876   3.801  15.446  0.9585 -0.9640  0.2247
 1231SOL     OW15154   3.828   2.828   2.630 -0.2221 -0.1946  0.1171
 1231SOL    HW115155   3.831   2.823   2.534 -1.2841  2.1687 -0.0231
 1231SOL    HW215156   3.818   2.736   2.653  0.1410 -0.3740 -0.4359
 1232SOL     OW15157   1.225   2.665   4.372  0.1016 -0.0913  0.1590
 1232SOL    HW115158   1.297   2.617   4.332  0.3314  0.5425 -0.1920
 1232SOL    HW215159   1.177   2.588   4.402 -0.2768 -0.8982 -2.5870
 1233SOL     OW15160   1.233   4.156   9.460 -0.3774 -0.1621 -0.0592
 1233SOL    HW115161   1.227   4.080   9.517 -0.2508  1.2213  1.7771
 1233SOL    HW215162   1.304   4.208   9.499 -1.0905  0.2185  0.7369
 1234SOL     OW15163   3.107   1.692   4.414  0.0289 -0.5723  0.1642
 1234SOL    HW115164   3.075   1.697   4.504  1.4365  0.7906  0.5856
 1234SOL    HW215165   3.085   1.781   4.386 -0.4493 -0.2592  1.5062
 1235SOL     OW15166   3.453   2.324   7.419 -0.1560  0.6062  0.2699
 1235SOL    HW115167   3.483   2.239   7.388 -0.8694  0.8104 -0.9918
 1235SOL    HW215168   3.531   2.379   7.426 -0.6542  1.7840 -3.1359
 1236SOL     OW15169   2.615   0.250   2.498 -0.0915  0.1967  0.5412
 1236SOL    HW115170   2.628   0.297   2.416  0.5206  0.7366  0.9488
 1236SOL    HW215171   2.703   0.230   2.528 -0.0574  2.3845  1.8646
 1237SOL     OW15172   1.917   0.312   2.674  0.1193  0.2746 -0.1587
 1237SOL    HW115173   1.969   0.375   2.624  0.5385 -0.8799 -1.1894
 1237SOL    HW215174   1.828   0.341   2.652  0.2708  1.6540  1.1117
 1238SOL     OW15175   4.352   4.509   5.328 -0.0208 -0.2336  0.3389
 1238SOL    HW115176   4.368   4.592   5.284  1.4131 -0.6503  0.0625
 1238SOL    HW215177   4.351   4.448   5.255 -0.2812  0.0271  0.1239
 1239SOL     OW15178   2.042   3.662   7.216  0.3887  0.2118  0.2462
 1239SOL    HW115179   2.087   3.743   7.193 -1.4947  1.1253 -0.1661
 1239SOL    HW215180   2.100   3.626   7.283 -0.2969 -1.4227 -0.0353
 1240SOL     OW15181   1.585   3.394  12.458  0.2372  0.3574 -0.7644
 1240SOL    HW115182   1.555   3.485  12.457  0.2613  0.3411 -2.6768
 1240SOL    HW215183   1.526   3.344  12.515 -0.5551  0.6483 -1.3298
 1241SOL     OW15184   2.158   4.259   2.027 -0.8489 -0.4168 -0.8869
 1241SOL    HW115185   2.241   4.212   2.017  0.8728  2.7929 -1.4906
 1241SOL    HW215186   2.168   4.312   2.106  0.5820  0.4863 -1.6889
 1242SOL     OW15187   1.472   3.712  15.532 -0.1587  0.0719  0.3921
 1242SOL    HW115188   1.476   3.618  15.548  1.3091 -0.0004 -0.4945
 1242SOL    HW215189   1.465   3.710  15.437  2.3707 -2.0797  0.2762
 1243SOL     OW15190   4.109   3.521   7.759  0.4835  0.1137 -0.2114
 1243SOL    HW115191   4.044   3.470   7.709  1.2432  0.3653 -1.4465
 1243SOL    HW215192   4.175   3.452   7.755  1.2524  0.8556 -0.1761
 1244SOL     OW15193   3.110   3.473   1.547  0.0040  0.2967 -0.3044
 1244SOL    HW115194   3.107   3.383   1.578  1.6605  0.6775  1.0206
 1244SOL    HW215195   3.188   3.512   1.587 -1.9109  2.4775  1.3343
 1245SOL     OW15196   1.500   4.126   7.385 -0.3265  0.4165 -0.4309
 1245SOL    HW115197   1.406   4.111   7.384 -0.5762  2.0808 -1.5265
 1245SOL    HW215198   1.505   4.181   7.306 -0.6493  2.4628  0.9827
 1246SOL     OW15199   3.893   3.548   8.007 -0.3222 -0.1029 -0.1709
 1246SOL    HW115200   3.856   3.615   7.950  1.1074  1.7282  1.0260
 1246SOL    HW215201   3.851   3.568   8.091  0.6992  2.0743 -0.1741
 1247SOL     OW15202   4.505   1.146   8.471 -0.2084  0.0795 -0.4409
 1247SOL    HW115203   4.564   1.214   8.437  0.4067 -1.7236 -2.9624
 1247SOL    HW215204   4.422   1.163   8.427 -0.1452 -0.8329 -0.8965
 1248SOL     OW15205   3.104   0.126   8.988  0.0556  0.4085  0.2205
 1248SOL    HW115206   3.137   0.041   8.960  0.8310  0.3698  1.2546
 1248SOL    HW215207   3.042   0.142   8.917 -0.2307 -5.0506 -0.6992
 1249SOL     OW15208   2.609   1.706   7.953 -0.0412  0.2974 -0.6033
 1249SOL    HW115209   2.647   1.742   8.033 -0.7370 -0.3088 -0.0038
 1249SOL    HW215210   2.523   1.682   7.988  0.5813 -0.1517  0.6091
 1250SOL     OW15211   2.209   1.485  16.139 -0.3018  0.6024 -0.3115
 1250SOL    HW115212   2.286   1.541  16.129  0.1478 -0.2128 -1.3933
 1250SOL    HW215213   2.136   1.546  16.131  0.0197  0.8041 -1.7167
 1251SOL     OW15214   4.075   4.684   4.395 -0.3988 -0.2153 -0.2777
 1251SOL    HW115215   4.024   0.017   4.455  0.2606 -0.6081  0.6310
 1251SOL    HW215216   4.164   4.688   4.431  0.3917 -2.4124 -1.9413
 1252SOL     OW15217   2.968   3.841  15.923 -0.4631  0.0958 -0.3834
 1252SOL    HW115218   2.938   3.857  15.834  1.2365  0.3127 -0.9247
 1252SOL    HW215219   2.948   3.747  15.927 -2.8179  0.6082 -0.1526
 1253SOL     OW15220   3.842   2.026  11.826 -0.2908 -0.0351 -0.2517
 1253SOL    HW115221   3.789   1.947  11.816 -0.6595 -0.2044  2.9149
 1253SOL    HW215222   3.917   2.018  11.768 -0.6887 -0.7161 -0.6713
 1254SOL     OW15223   4.042   1.856   1.847 -0.6448 -0.0692  0.2017
 1254SOL    HW115224   4.008   1.875   1.934 -1.6953 -0.1182 -0.2006
 1254SOL    HW215225   4.123   1.805   1.845  0.8975  2.3807 -0.3603
 1255SOL     OW15226   2.943   2.645   7.111  0.2059  0.0153 -0.3514
 1255SOL    HW115227   2.981   2.686   7.188  2.3303 -1.0143 -0.8446
 1255SOL    HW215228   2.975   2.556   7.126 -1.5013 -0.6399 -0.6204
 1256SOL     OW15229   2.131   2.366   3.510  0.1303  0.0526 -0.3541
 1256SOL    HW115230   2.065   2.434   3.494  0.5462  0.9960  2.0834
 1256SOL    HW215231   2.179   2.367   3.427  0.5415  2.6272 -0.0934
 1257SOL     OW15232   1.249   4.069   6.844  0.5277 -0.4822 -0.1669
 1257SOL    HW115233   1.287   3.981   6.833  0.5117 -0.5796  0.5601
 1257SOL    HW215234   1.249   4.081   6.939 -3.1762 -1.2838 -0.0614
 1258SOL     OW15235   2.654   2.351   8.737 -0.5761  0.0854  0.7326
 1258SOL    HW115236   2.562   2.338   8.714 -0.0198 -0.7942 -1.0056
 1258SOL    HW215237   2.682   2.422   8.680 -0.1864 -0.1989  0.5717
 1259SOL     OW15238   0.626   3.446   1.606 -0.2881 -0.0135  0.1508
 1259SOL    HW115239   0.537   3.460   1.640 -0.4187 -1.4886  0.4134
 1259SOL    HW215240   0.636   3.528   1.558 -0.2849 -0.1312 -0.0495
 1260SOL     OW15241   3.362   1.675   0.722  0.4046 -0.5670  0.5027
 1260SOL    HW115242   3.291   1.680   0.657  0.6745  0.3101  0.2706
 1260SOL    HW215243   3.308   1.674   0.801  0.6602 -0.9067  0.6694
 1261SOL     OW15244   1.161   1.571   8.839 -0.1737  0.0260  0.0746
 1261SOL    HW115245   1.195   1.482   8.834  2.3563  0.8983  1.8204
 1261SOL    HW215246   1.076   1.552   8.880  0.8328  0.7692  2.4703
 1262SOL     OW15247   4.416   0.483  15.265 -0.3962  0.4153 -0.2252
 1262SOL    HW115248   4.427   0.392  15.292 -0.7194  1.4038  3.2202
 1262SOL    HW215249   4.384   0.470  15.175  1.0568 -1.0758 -0.5216
 1263SOL     OW15250   1.257   2.632   6.724  0.3365  0.5229  0.5690
 1263SOL    HW115251   1.227   2.570   6.791 -0.9970  0.8799  0.3110
 1263SOL    HW215252   1.348   2.602   6.722 -0.0096 -0.4201 -0.5610
 1264SOL     OW15253   4.551   0.115   4.568  0.0190 -0.1266  0.3125
 1264SOL    HW115254   4.639   0.110   4.605 -0.3483 -0.9960  1.0749
 1264SOL    HW215255   4.504   0.057   4.628  1.1525 -1.0803  0.2680
 1265SOL     OW15256   1.610   1.340   3.040  0.2037 -0.3475  0.2533
 1265SOL    HW115257   1.516   1.327   3.040  0.4475 -2.2423  4.5681
 1265SOL    HW215258   1.625   1.430   3.010  2.3389 -0.9249 -0.4354
 1266SOL     OW15259   4.167   1.202  11.886  0.0524  0.5724 -0.0124
 1266SOL    HW115260   4.159   1.139  11.957  2.9177  0.6988  0.4269
 1266SOL    HW215261   4.074   1.222  11.884 -0.2746 -0.9735 -0.2043
 1267SOL     OW15262   0.154   2.470   9.219 -0.4831 -0.1977 -0.2861
 1267SOL    HW115263   0.073   2.522   9.222 -0.6208 -0.4407  0.2280
 1267SOL    HW215264   0.137   2.412   9.145 -0.8502  0.0591 -0.4021
 1268SOL     OW15265   2.389   4.454  10.525  0.4825 -0.7255 -0.3260
 1268SOL    HW115266   2.398   4.515  10.451 -3.9987  0.5467  0.1641
 1268SOL    HW215267   2.437   4.508  10.588  0.4310 -1.3585  0.2496
 1269SOL     OW15268   2.615   2.006  15.843  0.7175 -0.3583  0.5052
 1269SOL    HW115269   2.635   2.014  15.750  1.3356  0.1894  0.6877
 1269SOL    HW215270   2.542   1.945  15.833  1.3142 -1.0276  0.2476
 1270SOL     OW15271   4.130   3.755   7.963  0.1881 -0.4892 -0.4965
 1270SOL    HW115272   4.051   3.792   8.004  0.0135 -0.5581 -0.7706
 1270SOL    HW215273   4.096   3.680   7.914  1.9658 -0.4470 -1.7901
 1271SOL     OW15274   4.718   4.477   4.137  0.0341 -1.3201 -0.0997
 1271SOL    HW115275   0.053   4.524   4.200  0.4286  0.0041 -1.4341
 1271SOL    HW215276   4.640   4.532   4.131  0.0296 -1.4926 -1.5331
 1272SOL     OW15277   3.370   2.350   5.220 -0.1908  0.0305  0.3696
 1272SOL    HW115278   3.350   2.387   5.306  0.6618  2.0317 -0.3023
 1272SOL    HW215279   3.291   2.375   5.172  0.6885 -0.7655 -1.4480
 1273SOL     OW15280   3.046   0.430  11.418  0.2230 -0.1234 -0.2819
 1273SOL    HW115281   3.138   0.406  11.421 -0.2475 -1.7811  0.5955
 1273SOL    HW215282   3.049   0.501  11.481  0.4223  0.0043 -0.4349
 1274SOL     OW15283   1.181   0.213   6.169 -0.5649  0.4281 -0.4537
 1274SOL    HW115284   1.139   0.277   6.111 -1.4856  0.7188  0.5267
 1274SOL    HW215285   1.108   0.173   6.217 -0.9666  0.5151 -0.9891
 1275SOL     OW15286   1.456   1.038   8.449 -0.8750  0.3012 -0.0222
 1275SOL    HW115287   1.541   1.056   8.411 -0.6370  0.4861  0.5936
 1275SOL    HW215288   1.397   1.075   8.384 -1.1037  0.3224  0.1951
 1276SOL     OW15289   2.825   0.403   5.710  0.0012  0.1083 -0.9048
 1276SOL    HW115290   2.767   0.336   5.747  0.9361 -0.5036 -0.5466
 1276SOL    HW215291   2.868   0.357   5.639  0.7752 -0.4449 -0.0721
 1277SOL     OW15292   0.821   2.723   0.799 -0.1258  0.1032  0.0331
 1277SOL    HW115293   0.764   2.703   0.724 -1.6006 -0.5981  1.3531
 1277SOL    HW215294   0.761   2.699   0.869 -0.3327  2.5972  0.7093
 1278SOL     OW15295   3.161   0.744  15.900  0.3547  0.5550 -0.0085
 1278SOL    HW115296   3.149   0.839  15.906  2.8089  0.8149  0.8261
 1278SOL    HW215297   3.257   0.742  15.901  0.3597  1.0076  0.2973
 1279SOL     OW15298   1.531   2.778  14.577  0.0245 -0.1150 -0.0630
 1279SOL    HW115299   1.489   2.816  14.500 -0.4700  4.3297  2.4142
 1279SOL    HW215300   1.500   2.842  14.642  0.4820 -0.5189  0.5606
 1280SOL     OW15301   0.880   1.934  13.720 -0.2392 -0.0606 -0.2608
 1280SOL    HW115302   0.831   1.852  13.720 -0.4092  0.0415 -0.1942
 1280SOL    HW215303   0.968   1.896  13.721 -0.5490 -0.7597  0.0708
 1281SOL     OW15304   2.106   3.282  13.161  0.4213  0.1109 -0.0800
 1281SOL    HW115305   2.053   3.349  13.204 -0.7688 -1.0096  0.2059
 1281SOL    HW215306   2.181   3.281  13.220 -0.7484 -0.5572  1.4225
 1282SOL     OW15307   3.834   2.661   8.355 -0.7696  0.3910 -0.2414
 1282SOL    HW115308   3.740   2.644   8.356 -0.9177  1.3862  2.4116
 1282SOL    HW215309   3.856   2.590   8.414  0.7958 -0.7995 -2.2573
 1283SOL     OW15310   0.813   1.174   5.222 -0.5178  0.1372 -0.1258
 1283SOL    HW115311   0.866   1.244   5.185 -1.5310  0.6148 -0.6755
 1283SOL    HW215312   0.727   1.213   5.205 -0.4965  0.5356  0.6780
 1284SOL     OW15313   0.254   4.608   8.007 -0.3922 -0.6589 -0.6238
 1284SOL    HW115314   0.187   4.675   7.995 -2.3406 -2.1584  1.9748
 1284SOL    HW215315   0.308   4.664   8.064  0.0132 -1.1297 -0.5485
 1285SOL     OW15316   2.862   4.037  14.616  0.4082  0.2769 -0.3388
 1285SOL    HW115317   2.862   4.074  14.527 -2.6116  0.7700 -0.1525
 1285SOL    HW215318   2.780   3.989  14.603  0.3099  0.0658  1.0572
 1286SOL     OW15319   0.470   2.245   0.357 -0.1872  0.5870 -1.4269
 1286SOL    HW115320   0.507   2.157   0.366 -2.9415 -0.6355 -2.2436
 1286SOL    HW215321   0.439   2.258   0.447  1.9611 -0.4862 -0.5090
 1287SOL     OW15322   1.197   3.479   4.215 -0.4341  0.3002 -0.3850
 1287SOL    HW115323   1.176   3.416   4.284 -0.0116 -0.5597 -1.0412
 1287SOL    HW215324   1.292   3.467   4.202 -0.4336  2.3424 -2.1955
 1288SOL     OW15325   0.892   4.392   6.342 -0.5515  0.3213  0.1037
 1288SOL    HW115326   0.852   4.310   6.372 -0.2011  0.1773  0.1793
 1288SOL    HW215327   0.837   4.463   6.373 -1.4522  0.0626 -0.8850
 1289SOL     OW15328   0.317   3.445   5.216  0.4834  0.6971  0.0301
 1289SOL    HW115329   0.384   3.377   5.209  0.3374  0.9203 -3.5196
 1289SOL    HW215330   0.236   3.395   5.229  0.9779  0.1414  0.9408
 1290SOL     OW15331   0.599   3.257   0.507  0.1835  0.6293  0.1975
 1290SOL    HW115332   0.650   3.225   0.433  0.7622 -0.3834  1.0305
 1290SOL    HW215333   0.525   3.197   0.495 -1.0688  1.9541  1.3772
 1291SOL     OW15334   0.687   0.228   4.439  0.3904 -0.2052  0.0859
 1291SOL    HW115335   0.706   0.319   4.465  0.8894 -0.4876  0.7074
 1291SOL    HW215336   0.713   0.189   4.522  0.9432 -0.7682 -0.3490
 1292SOL     OW15337   0.018   2.889   6.574 -0.1073  0.0018  0.5873
 1292SOL    HW115338   0.063   2.972   6.589 -0.1423  0.0635  0.3488
 1292SOL    HW215339   0.046   2.882   6.483 -1.6081 -2.5061  0.3166
 1293SOL     OW15340   2.871   4.577   3.055 -0.6784 -0.3787 -0.2010
 1293SOL    HW115341   2.878   4.657   3.106 -0.3988 -0.5782  0.0723
 1293SOL    HW215342   2.867   4.616   2.967  1.8690 -2.0781 -1.0800
 1294SOL     OW15343   3.551   0.017   2.692 -0.0150 -0.3107 -0.1034
 1294SOL    HW115344   3.459   0.007   2.719  0.4447  1.1012  2.0239
 1294SOL    HW215345   3.548   0.018   2.596  1.6114  0.9796 -0.1394
 1295SOL     OW15346   0.373   3.192  10.577 -0.2827  0.1936 -0.0189
 1295SOL    HW115347   0.341   3.282  10.578 -0.3711  0.1643 -0.2736
 1295SOL    HW215348   0.453   3.194  10.525 -0.4087  2.4857 -0.1027
 1296SOL     OW15349   3.150   1.035   0.560  0.1640 -0.4692 -0.0321
 1296SOL    HW115350   3.182   0.995   0.642 -0.3181  0.7276  0.7374
 1296SOL    HW215351   3.220   1.047   0.496  0.3466 -0.1629  0.2238
 1297SOL     OW15352   4.698   0.077   1.884  0.3084 -0.5895  0.4417
 1297SOL    HW115353   4.672   0.036   1.801 -2.2804  1.5991  0.1384
 1297SOL    HW215354   0.063   0.040   1.908  0.7476  0.3936  0.3856
 1298SOL     OW15355   2.888   0.027   2.838  0.8962 -0.4703 -0.0520
 1298SOL    HW115356   2.943   0.105   2.846  0.2768  0.0448 -0.7870
 1298SOL    HW215357   2.810   0.082   2.826 -0.4381 -2.4923 -0.6344
 1299SOL     OW15358   0.686   4.157   0.278  0.7696  0.2593  0.1341
 1299SOL    HW115359   0.731   4.236   0.310  0.3459 -0.4076  2.3603
 1299SOL    HW215360   0.745   4.144   0.204 -0.2178  3.3397 -1.1896
 1300SOL     OW15361   4.068   1.959   5.799 -0.0816 -0.5628  0.1117
 1300SOL    HW115362   4.117   2.038   5.823 -0.9183 -0.6146  1.9943
 1300SOL    HW215363   4.066   1.928   5.890 -0.5026 -2.4579 -0.5655
 1301SOL     OW15364   0.001   0.137   5.294 -0.2122 -0.0505  0.3876
 1301SOL    HW115365   4.663   0.079   5.344 -0.8682 -0.3064 -0.6597
 1301SOL    HW215366   0.084   0.117   5.337  0.7273 -1.5899 -2.1384
 1302SOL     OW15367   4.657   4.644   2.139 -0.1476 -0.1844  0.1109
 1302SOL    HW115368   4.601   4.676   2.068 -2.3690  0.4212  2.1563
 1302SOL    HW215369   4.684   0.006   2.180 -1.0354  0.3300 -0.3382
 1303SOL     OW15370   1.997   4.576   2.535 -0.3909 -0.5600  0.4256
 1303SOL    HW115371   2.028   4.658   2.496 -0.6910 -2.0544 -3.0041
 1303SOL    HW215372   1.970   4.602   2.623  0.0774  0.4388  0.2734
 1304SOL     OW15373   2.446   2.203  16.923  0.1241  0.2916 -0.3584
 1304SOL    HW115374   2.530   2.186  16.964  1.3326  1.4620 -2.3325
 1304SOL    HW215375   2.380   2.196  16.992  1.8105  0.5080  1.2573
 1305SOL     OW15376   2.445   4.394   2.958  0.2127  0.5525  0.2578
 1305SOL    HW115377   2.415   4.303   2.963  1.5705 -0.0306 -2.0703
 1305SOL    HW215378   2.414   4.430   2.875 -0.2603 -0.0713  0.1612
 1306SOL     OW15379   2.134   3.431  13.521  0.4011  0.0830 -0.2487
 1306SOL    HW115380   2.070   3.443  13.451  0.7973 -1.8399 -0.9237
 1306SOL    HW215381   2.067   3.421  13.589  0.0481  3.0840 -0.1360
 1307SOL     OW15382   4.003   2.586   3.356 -0.2021  0.1906  0.3291
 1307SOL    HW115383   3.932   2.524   3.346  1.0539 -1.2028  0.1016
 1307SOL    HW215384   4.065   2.545   3.417 -0.1130 -0.1546  0.0043
 1308SOL     OW15385   2.814   3.041   6.759 -0.1144 -0.5630 -0.0586
 1308SOL    HW115386   2.796   3.009   6.671  0.3043 -3.0980  0.7766
 1308SOL    HW215387   2.834   2.961   6.807  0.5527  0.4930  1.4437
 1309SOL     OW15388   0.140   3.407  13.693  0.7628 -0.5495 -0.6888
 1309SOL    HW115389   0.045   3.402  13.705  1.1009  0.0667  2.1964
 1309SOL    HW215390   0.162   3.351  13.767  0.0649  0.2784  0.1467
 1310SOL     OW15391   0.405   1.313   0.984 -0.0093  0.3224  0.3077
 1310SOL    HW115392   0.491   1.350   1.005  0.1165 -0.2739  0.8629
 1310SOL    HW215393   0.401   1.227   1.027  2.1404  0.3042  0.4585
 1311SOL     OW15394   1.374   3.851   1.739  0.2534  0.2666  0.3191
 1311SOL    HW115395   1.366   3.925   1.798  1.0044  1.0876 -0.6159
 1311SOL    HW215396   1.388   3.780   1.802 -1.7701 -1.0858 -0.7546
 1312SOL     OW15397   2.569   3.283   3.860  0.0197  0.0282  0.2374
 1312SOL    HW115398   2.654   3.290   3.904 -0.3915 -0.6848  1.1380
 1312SOL    HW215399   2.598   3.279   3.769 -0.5557  2.8225 -0.0722
 1313SOL     OW15400   2.782   3.926   7.433 -0.2208  0.2056  0.2801
 1313SOL    HW115401   2.802   3.852   7.377  1.8110 -0.1153  1.4353
 1313SOL    HW215402   2.714   3.974   7.386 -0.4511  0.0223  0.4267
 1314SOL     OW15403   1.704   3.046   0.051  0.4794  0.1894  0.4098
 1314SOL    HW115404   1.652   2.985   0.102  0.3154 -0.6096 -0.7019
 1314SOL    HW215405   1.775   3.077   0.107 -0.4599  0.3015  1.5209
 1315SOL     OW15406   0.187   1.873   5.819 -0.0246 -0.3439 -0.5766
 1315SOL    HW115407   0.272   1.906   5.849 -0.2829 -1.6931  1.6847
 1315SOL    HW215408   0.169   1.940   5.753  0.7617 -0.3725 -0.8237
 1316SOL     OW15409   4.580   4.539   3.274  0.1504 -0.0348  0.1144
 1316SOL    HW115410   4.587   4.479   3.200 -0.0185 -0.6251  0.5764
 1316SOL    HW215411   4.510   4.493   3.320  2.3244 -0.8109  2.6626
 1317SOL     OW15412   4.269   2.824   0.409 -0.0611 -0.3706 -0.2984
 1317SOL    HW115413   4.221   2.755   0.365  1.6089 -1.2481 -0.7213
 1317SOL    HW215414   4.322   2.845   0.333  2.6744 -2.5653  1.0032
 1318SOL     OW15415   3.005   0.403   3.329 -0.0274  0.2136  0.2265
 1318SOL    HW115416   2.945   0.378   3.258  0.1328 -3.8027  1.5350
 1318SOL    HW215417   2.948   0.396   3.406  1.2198 -0.1447  1.1116
 1319SOL     OW15418   2.744   4.557   8.973 -0.8923  0.0151  0.0022
 1319SOL    HW115419   2.731   4.650   8.952 -2.3307 -0.2041 -0.0598
 1319SOL    HW215420   2.834   4.555   9.007 -0.3745 -1.3429 -1.4406
 1320SOL     OW15421   2.618   0.241   8.262  0.0361  0.6238  0.0863
 1320SOL    HW115422   2.671   0.321   8.265  1.1334 -0.1344  0.9985
 1320SOL    HW215423   2.688   0.176   8.253 -1.0366 -0.4157 -0.6205
 1321SOL     OW15424   1.471   0.506   5.081 -0.0694 -0.0447 -0.5248
 1321SOL    HW115425   1.557   0.548   5.082 -0.4594  0.7730 -1.6030
 1321SOL    HW215426   1.410   0.577   5.101 -0.2228 -0.4489  0.4697
 1322SOL     OW15427   1.902   3.556   5.839 -0.1707 -0.0582 -0.2535
 1322SOL    HW115428   1.940   3.635   5.799 -0.0375 -1.6107 -3.2475
 1322SOL    HW215429   1.829   3.594   5.887  1.1302  1.4119  0.5421
 1323SOL     OW15430   0.673   1.555   2.642 -0.2325 -0.1943 -0.1686
 1323SOL    HW115431   0.750   1.499   2.630  0.7824  1.5850 -2.1396
 1323SOL    HW215432   0.673   1.605   2.559  4.0489 -0.2419 -0.2213
 1324SOL     OW15433   0.854   2.075  10.290 -0.1288  0.4947  0.4814
 1324SOL    HW115434   0.796   2.006  10.322  1.4018 -0.8770  0.2388
 1324SOL    HW215435   0.786   2.127  10.246 -2.5346 -1.6035  1.6894
 1325SOL     OW15436   2.801   3.669  15.333 -0.2965  0.2759 -0.0534
 1325SOL    HW115437   2.742   3.714  15.273 -2.0745 -1.4907  0.3531
 1325SOL    HW215438   2.752   3.680  15.415 -1.6042 -0.6640 -0.7044
 1326SOL     OW15439   2.428   0.218  11.312  0.1083  0.1279  0.2171
 1326SOL    HW115440   2.361   0.287  11.313  0.5871  0.5711  1.2681
 1326SOL    HW215441   2.370   0.160  11.262 -0.1065 -0.0102  0.6210
 1327SOL     OW15442   2.961   2.455   7.821  0.4570  0.1961 -0.2868
 1327SOL    HW115443   2.926   2.424   7.905  1.3253 -2.1423 -0.8025
 1327SOL    HW215444   2.926   2.543   7.805 -1.9178 -0.6483  0.2243
 1328SOL     OW15445   3.084   3.242   1.819  0.1609 -0.2647  0.5395
 1328SOL    HW115446   2.991   3.264   1.810  0.7784  1.0748 -2.6676
 1328SOL    HW215447   3.071   3.153   1.852  1.9852 -1.1094 -0.9967
 1329SOL     OW15448   2.158   4.365   2.502 -0.5265  0.2269  0.0419
 1329SOL    HW115449   2.110   4.445   2.522 -1.3450 -0.6817  1.7124
 1329SOL    HW215450   2.168   4.322   2.587 -0.2013 -2.0219 -1.1110
 1330SOL     OW15451   0.850   0.613   7.064  0.3551 -0.1368  0.0759
 1330SOL    HW115452   0.833   0.692   7.013 -0.8880  1.0150  2.2611
 1330SOL    HW215453   0.808   0.542   7.016  2.0935 -0.8153 -0.4270
 1331SOL     OW15454   4.476   3.343   8.186  0.2867 -0.1072 -0.2868
 1331SOL    HW115455   4.489   3.278   8.255  2.7515  1.5435  0.8412
 1331SOL    HW215456   4.538   3.412   8.213  0.6332 -1.8341  3.3621
 1332SOL     OW15457   1.482   1.812   7.366 -0.1141  0.8046  0.2102
 1332SOL    HW115458   1.402   1.864   7.358 -0.4987 -0.0480 -1.5653
 1332SOL    HW215459   1.547   1.870   7.406  1.9909 -1.1852 -0.3450
 1333SOL     OW15460   3.408   0.786   3.362  0.2302  0.3409  0.5884
 1333SOL    HW115461   3.481   0.764   3.304 -0.2902 -0.8628  0.3976
 1333SOL    HW215462   3.447   0.833   3.436 -1.8700  0.9248  1.3250
 1334SOL     OW15463   3.394   3.516   4.084 -0.1485 -0.2970  0.3792
 1334SOL    HW115464   3.361   3.547   4.169  0.6759  2.1269 -0.1831
 1334SOL    HW215465   3.347   3.574   4.024  2.8054  2.4041  0.6600
 1335SOL     OW15466   2.174   2.971  10.624  0.5272  0.2067 -0.4755
 1335SOL    HW115467   2.260   2.929  10.614  0.5813  0.1898  0.0596
 1335SOL    HW215468   2.204   3.057  10.656  0.3906 -0.0088  0.2168
 1336SOL     OW15469   0.069   0.034  14.667  0.3256 -0.1233 -0.0404
 1336SOL    HW115470   0.054   0.128  14.670  1.3747 -0.0554  3.4801
 1336SOL    HW215471   0.062   0.026  14.572 -1.5401  0.0764  0.0902
 1337SOL     OW15472   3.314   2.441   7.029 -0.3419  0.0561  0.4016
 1337SOL    HW115473   3.294   2.413   6.939  0.4094 -0.1657  0.2994
 1337SOL    HW215474   3.370   2.367   7.051  0.0929 -0.8476 -3.6778
 1338SOL     OW15475   0.846   1.082   1.117  0.0925 -0.0603 -0.5853
 1338SOL    HW115476   0.773   1.025   1.092 -0.0814 -0.1941  0.2476
 1338SOL    HW215477   0.916   1.053   1.058  0.0856 -0.8934 -0.1767
 1339SOL     OW15478   1.332   4.031   2.968 -0.3453 -0.1497  0.2037
 1339SOL    HW115479   1.344   3.961   2.904 -0.4992  0.1756 -0.1785
 1339SOL    HW215480   1.388   4.010   3.042  1.1890 -0.3343 -1.0180
 1340SOL     OW15481   2.366   4.472   4.365 -0.2871 -0.0367 -0.1399
 1340SOL    HW115482   2.399   4.539   4.306 -0.7164  0.8280  0.6094
 1340SOL    HW215483   2.408   4.388   4.344  1.3574  1.2944 -2.2016
 1341SOL     OW15484   2.759   3.632  12.035 -0.2985 -0.5537  0.3512
 1341SOL    HW115485   2.690   3.696  12.052  1.1643  0.6097  1.9163
 1341SOL    HW215486   2.800   3.617  12.120  2.9285 -0.3031 -1.1450
 1342SOL     OW15487   4.601   1.929   3.752 -0.5816  0.4510  0.1035
 1342SOL    HW115488   4.695   1.946   3.751 -0.5127  0.1180  1.4271
 1342SOL    HW215489   4.564   2.005   3.707 -1.0015 -0.8741 -1.8137
 1343SOL     OW15490   4.609   0.667   9.828 -0.3313  0.0371  0.2131
 1343SOL    HW115491   4.563   0.733   9.880  0.1003 -1.0676  2.0276
 1343SOL    HW215492   4.593   0.698   9.739 -0.2059 -0.5340 -0.0114
 1344SOL     OW15493   3.625   1.054   2.927 -0.3418 -0.1218 -0.4727
 1344SOL    HW115494   3.637   0.994   2.853  0.5188 -3.0964  2.0860
 1344SOL    HW215495   3.596   0.994   2.995 -0.2344  0.7914  0.3792
 1345SOL     OW15496   2.777   2.914   5.508 -0.9602 -0.1845 -0.2375
 1345SOL    HW115497   2.801   2.822   5.517 -1.0849 -0.2575 -0.6664
 1345SOL    HW215498   2.797   2.943   5.419 -0.2546 -0.3739 -0.1358
 1346SOL     OW15499   2.138   3.463   7.793  0.0502 -0.7224 -0.7824
 1346SOL    HW115500   2.053   3.419   7.799 -1.3606  2.2047  0.2642
 1346SOL    HW215501   2.185   3.394   7.746  1.1657 -0.1478 -0.5000
 1347SOL     OW15502   1.824   0.466   7.396  0.4344  0.3478  0.5054
 1347SOL    HW115503   1.878   0.532   7.352 -1.6439  1.3214 -0.6021
 1347SOL    HW215504   1.767   0.437   7.325  0.6863  0.3656  0.2963
 1348SOL     OW15505   0.042   4.643   3.824 -0.1698  0.0371  0.0838
 1348SOL    HW115506   0.047   0.014   3.796  0.6072  0.1388  0.5655
 1348SOL    HW215507   4.673   4.623   3.795 -0.4536 -0.4064  1.2623
 1349SOL     OW15508   1.610   3.437  13.256  0.0288 -0.0684  0.2358
 1349SOL    HW115509   1.652   3.515  13.291 -0.9651 -0.6805  2.7282
 1349SOL    HW215510   1.688   3.403  13.212  0.9403  2.3832 -0.0514
 1350SOL     OW15511   1.420   0.423   8.878 -0.1547  0.1389  0.3509
 1350SOL    HW115512   1.505   0.441   8.837 -0.3729 -0.2383 -0.2671
 1350SOL    HW215513   1.377   0.507   8.860  3.9368  1.9618 -0.9369
 1351SOL     OW15514   0.099   2.644   2.909 -0.1838 -0.8977 -0.4020
 1351SOL    HW115515   0.105   2.673   2.818  0.0401 -1.4216 -0.5570
 1351SOL    HW215516   0.122   2.551   2.907 -0.5846 -1.0252  0.9742
 1352SOL     OW15517   1.067   0.506   4.196  0.1115 -0.0478  0.1784
 1352SOL    HW115518   1.025   0.479   4.278 -0.1486 -0.9268 -0.2445
 1352SOL    HW215519   0.996   0.566   4.172 -0.2959 -1.0367 -1.0623
 1353SOL     OW15520   2.515   3.372   9.503  0.3137  0.0191 -0.1453
 1353SOL    HW115521   2.559   3.408   9.425  0.8899 -0.5356 -0.0759
 1353SOL    HW215522   2.440   3.336   9.455  0.0747 -0.3082  0.4748
 1354SOL     OW15523   1.271   4.098   8.113  0.2170  0.2428 -0.5637
 1354SOL    HW115524   1.359   4.136   8.118 -0.2762  1.6466 -2.6449
 1354SOL    HW215525   1.260   4.046   8.193 -0.9945 -1.2206 -1.6842
 1355SOL     OW15526   2.863   3.543   7.835  0.8302  0.0722 -0.5769
 1355SOL    HW115527   2.807   3.538   7.758  1.0192  0.2862 -0.7264
 1355SOL    HW215528   2.817   3.495   7.905  1.7829  0.5169  0.3586
 1356SOL     OW15529   1.050   3.145   2.064  0.0181 -0.0872  0.3667
 1356SOL    HW115530   1.096   3.098   2.134 -0.6677 -1.2593  0.0208
 1356SOL    HW215531   1.052   3.087   1.988 -0.8022 -0.0069  0.2884
 1357SOL     OW15532   4.551   2.156  12.471  0.2716  0.1617  0.1576
 1357SOL    HW115533   4.579   2.218  12.404 -0.9603  0.7192  0.1577
 1357SOL    HW215534   4.614   2.177  12.540  0.4118 -0.9373  0.3596
 1358SOL     OW15535   1.441   1.433  14.340 -0.0368  0.0441 -0.6517
 1358SOL    HW115536   1.345   1.438  14.342 -0.0904 -0.6540 -1.5603
 1358SOL    HW215537   1.452   1.520  14.379 -0.5091 -0.1997  0.0310
 1359SOL     OW15538   1.660   4.351   1.464  0.3259 -0.4533 -0.5882
 1359SOL    HW115539   1.687   4.304   1.385  1.3468 -1.3959  0.3088
 1359SOL    HW215540   1.566   4.337   1.454  0.2862  0.5305 -1.5207
 1360SOL     OW15541   3.404   2.343   6.636  0.1993  0.2028  0.1395
 1360SOL    HW115542   3.467   2.414   6.623 -0.2420  0.3596 -1.1185
 1360SOL    HW215543   3.460   2.266   6.626 -0.7683 -0.6071  0.9579
 1361SOL     OW15544   4.497   2.839  11.667 -0.3804 -0.0035 -0.5536
 1361SOL    HW115545   4.422   2.853  11.725  0.8669 -3.9226  1.9629
 1361SOL    HW215546   4.468   2.872  11.582 -0.7329  0.5697 -0.2102
 1362SOL     OW15547   0.877   0.127   3.622 -0.6899 -0.3412  0.0177
 1362SOL    HW115548   0.897   0.039   3.654  2.7822  0.6258  0.5358
 1362SOL    HW215549   0.800   0.153   3.674 -0.1761 -1.5929  1.4139
 1363SOL     OW15550   0.341   2.699   0.797  0.0545  1.0940  0.4999
 1363SOL    HW115551   0.259   2.690   0.846  0.3203  0.9024  0.9142
 1363SOL    HW215552   0.303   2.721   0.712 -1.5510 -0.5392  0.7955
 1364SOL     OW15553   1.148   0.312  17.620 -0.0370 -0.1988 -0.7828
 1364SOL    HW115554   1.119   0.374  17.553  0.8409  0.8636 -0.1658
 1364SOL    HW215555   1.193   0.247  17.566  1.1241  1.0182 -1.2703
 1365SOL     OW15556   2.588   2.840   7.459 -0.0391  0.8579  0.0989
 1365SOL    HW115557   2.663   2.784   7.438 -0.9184  0.8775 -3.0883
 1365SOL    HW215558   2.523   2.811   7.395  1.3745 -2.1444  0.0081
 1366SOL     OW15559   2.652   0.371   6.141  0.2823  0.5824 -0.2285
 1366SOL    HW115560   2.712   0.297   6.151 -1.7613 -1.0935 -0.3754
 1366SOL    HW215561   2.691   0.416   6.066  0.3178  1.5012  0.3471
 1367SOL     OW15562   2.082   1.899   8.625  0.2355  0.7111  0.2420
 1367SOL    HW115563   2.136   1.828   8.661 -0.4492  0.2691  0.3822
 1367SOL    HW215564   2.015   1.902   8.693 -0.7518 -0.6279 -0.6971
 1368SOL     OW15565   0.713   1.168   8.472 -0.2047 -1.0521  0.3119
 1368SOL    HW115566   0.771   1.106   8.427 -0.7424  0.6057 -2.6721
 1368SOL    HW215567   0.767   1.207   8.541  0.8569 -1.0003 -0.5448
 1369SOL     OW15568   3.170   3.442  11.261 -0.3884 -0.0300 -0.1996
 1369SOL    HW115569   3.218   3.510  11.213  0.3578 -0.1532  0.3631
 1369SOL    HW215570   3.236   3.375  11.279 -0.3476  0.2538  0.6891
 1370SOL     OW15571   3.977   1.132  17.635 -0.1615 -0.3615 -0.1831
 1370SOL    HW115572   4.034   1.118   0.028  0.5783  2.4750 -0.2547
 1370SOL    HW215573   3.912   1.192  17.672 -0.0038 -0.3654  0.0973
 1371SOL     OW15574   2.347   3.109   4.512  0.6148 -0.3356 -0.0777
 1371SOL    HW115575   2.346   3.200   4.542 -0.4825 -0.8391  1.4411
 1371SOL    HW215576   2.401   3.127   4.435 -0.7573  1.2482 -0.6895
 1372SOL     OW15577   2.922   0.308   8.424 -0.1458 -0.2021  0.1636
 1372SOL    HW115578   2.973   0.376   8.466  3.2762 -2.5987 -0.1483
 1372SOL    HW215579   2.955   0.320   8.335  0.4587 -3.2702 -0.0445
 1373SOL     OW15580   0.474   1.417   4.947  0.1037 -0.3000 -0.1527
 1373SOL    HW115581   0.540   1.452   4.887  1.6392  1.0564  2.3255
 1373SOL    HW215582   0.400   1.476   4.935 -0.8208 -1.5854 -0.6662
 1374SOL     OW15583   1.448   3.272   0.063  0.4760  0.1700  0.5080
 1374SOL    HW115584   1.406   3.357   0.045  0.9627  0.5214  1.0079
 1374SOL    HW215585   1.383   3.210   0.030 -0.3767  1.7878 -0.8297
 1375SOL     OW15586   3.978   2.969   2.820 -0.1580  0.9653  0.1524
 1375SOL    HW115587   3.954   2.929   2.736  1.0249 -0.8813  0.6874
 1375SOL    HW215588   3.996   3.060   2.797  0.7687  1.6673  3.5653
 1376SOL     OW15589   3.017   4.641  16.434 -0.0717 -0.1742 -0.0506
 1376SOL    HW115590   3.052   4.714  16.484  0.7644 -0.2427 -0.5501
 1376SOL    HW215591   3.059   4.650  16.349 -0.2319 -0.9588 -0.2150
 1377SOL     OW15592   0.862   2.849   9.324  0.0187  0.0687  0.7073
 1377SOL    HW115593   0.937   2.903   9.299 -1.1745  1.2181 -0.3860
 1377SOL    HW215594   0.797   2.919   9.334 -1.0218 -0.7563 -0.3281
 1378SOL     OW15595   1.241   4.665   9.108  0.1387  0.0031 -0.9796
 1378SOL    HW115596   1.237   4.636   9.199 -1.7927  0.5216 -0.8984
 1378SOL    HW215597   1.313   4.611   9.076 -0.0879 -1.1049  0.3698
 1379SOL     OW15598   0.714   0.529  14.061 -0.7426 -0.0123 -0.4451
 1379SOL    HW115599   0.625   0.553  14.035 -1.8843 -1.1716  2.3868
 1379SOL    HW215600   0.686   0.449  14.106  1.4940 -1.3730 -1.4840
 1380SOL     OW15601   2.114   1.153   8.364 -0.3923 -0.1499 -0.0248
 1380SOL    HW115602   2.127   1.060   8.382 -1.3420  0.2295  2.5543
 1380SOL    HW215603   2.194   1.159   8.311 -0.2418 -0.6988  0.1351
 1381SOL     OW15604   0.071   0.673   0.824 -0.0116 -0.1697  0.6080
 1381SOL    HW115605   0.139   0.656   0.759 -1.2505  2.2986 -1.3379
 1381SOL    HW215606   0.030   0.759   0.811 -1.3364 -0.6842  1.3973
 1382SOL     OW15607   3.106   2.415  14.416 -0.0593  0.0816  0.0937
 1382SOL    HW115608   3.162   2.375  14.349  0.4820  2.1048 -0.6605
 1382SOL    HW215609   3.126   2.368  14.497  1.4081  0.0451 -0.2829
 1383SOL     OW15610   2.295   4.377   9.012 -0.1582  0.3045 -0.3491
 1383SOL    HW115611   2.305   4.380   9.107 -0.3863 -2.2627 -0.2554
 1383SOL    HW215612   2.229   4.308   9.009  1.4789 -1.0787 -3.6261
 1384SOL     OW15613   4.443   3.998   4.369  0.3242 -0.4287  0.0142
 1384SOL    HW115614   4.354   4.021   4.341 -0.1265 -2.7650 -0.4141
 1384SOL    HW215615   4.468   4.085   4.401 -1.6275  0.2170 -0.2065
 1385SOL     OW15616   1.483   3.384   8.143 -0.1310  0.1070  0.8537
 1385SOL    HW115617   1.500   3.463   8.092 -0.6772  1.7486  3.2673
 1385SOL    HW215618   1.412   3.414   8.199  0.6135  1.3857  1.1153
 1386SOL     OW15619   0.527   0.539   2.328  0.4280  0.0176  0.3326
 1386SOL    HW115620   0.542   0.554   2.421  0.9682 -1.5516  0.4849
 1386SOL    HW215621   0.447   0.591   2.317 -0.4771 -1.1628  1.4698
 1387SOL     OW15622   0.059   1.066   1.128 -0.2831 -0.4796 -0.3154
 1387SOL    HW115623   4.707   1.123   1.156 -0.7823 -0.9910 -0.5764
 1387SOL    HW215624   0.103   1.121   1.063  3.6592 -0.6335  2.2179
 1388SOL     OW15625   2.590   0.073   0.249  0.4088 -0.1438  0.5486
 1388SOL    HW115626   2.636   0.128   0.313 -2.6026  4.1520 -1.0010
 1388SOL    HW215627   2.591   4.704   0.285 -2.9425 -0.5638 -0.3859
 1389SOL     OW15628   1.877   2.117   4.321  0.4334 -0.1257 -0.5765
 1389SOL    HW115629   1.789   2.132   4.288  1.5005  1.6731 -2.5586
 1389SOL    HW215630   1.919   2.199   4.297  0.8306 -0.7950 -2.1351
 1390SOL     OW15631   0.739   4.209  10.150  0.0713 -0.1721  0.0066
 1390SOL    HW115632   0.684   4.262  10.207 -0.1603 -1.5226  1.0500
 1390SOL    HW215633   0.746   4.134  10.210  0.9810 -0.5564 -0.5773
 1391SOL     OW15634   0.340   0.968   0.689  0.1813  0.3438 -0.3719
 1391SOL    HW115635   0.413   1.027   0.670 -1.1773  2.0726 -0.1813
 1391SOL    HW215636   0.273   1.029   0.719 -0.0668 -0.8720  1.5300
 1392SOL     OW15637   0.746   0.090   4.681 -0.1332 -0.3042  0.0594
 1392SOL    HW115638   0.673   0.071   4.740 -0.4686 -0.9817 -0.5609
 1392SOL    HW215639   0.816   0.112   4.741 -1.1043 -0.6814  1.3319
 1393SOL     OW15640   1.779   3.454   8.214  0.5516  0.5714  0.3026
 1393SOL    HW115641   1.773   3.536   8.263 -0.2867 -0.1288  1.3522
 1393SOL    HW215642   1.700   3.449   8.161  1.3777 -3.6520 -0.5026
 1394SOL     OW15643   2.426   4.663   4.120  0.0638 -0.3523  0.0790
 1394SOL    HW115644   2.420   0.036   4.142 -0.4746 -1.0732  2.9442
 1394SOL    HW215645   2.521   4.658   4.112 -0.0365 -0.7600 -0.8235
 1395SOL     OW15646   1.275   1.286   2.917  0.2026 -0.0296 -0.0655
 1395SOL    HW115647   1.196   1.239   2.944  1.1117 -1.4720  0.0875
 1395SOL    HW215648   1.273   1.372   2.958  0.8156  0.2256 -0.5788
 1396SOL     OW15649   0.923   3.856   7.601 -0.2490  0.5780  0.5003
 1396SOL    HW115650   0.882   3.771   7.613 -1.2888  1.0211  0.1069
 1396SOL    HW215651   0.909   3.886   7.511  1.0612  0.2873  0.1949
 1397SOL     OW15652   0.439   3.003   7.796 -0.0151 -0.4103 -0.3464
 1397SOL    HW115653   0.374   3.042   7.855 -1.0483 -2.7649  0.0532
 1397SOL    HW215654   0.380   2.992   7.721 -1.5787  1.4771  0.5903
 1398SOL     OW15655   4.159   1.719   7.314  0.0853 -0.2154  0.6664
 1398SOL    HW115656   4.107   1.648   7.351  0.6241 -1.4054 -0.8903
 1398SOL    HW215657   4.102   1.792   7.341 -0.6076 -0.9899  1.2863
 1399SOL     OW15658   2.314   0.884   5.026  0.6992  0.5815  0.1789
 1399SOL    HW115659   2.381   0.829   5.066  0.5274  0.3035  0.0808
 1399SOL    HW215660   2.269   0.821   4.970  0.8615  1.3222 -0.7835
 1400SOL     OW15661   4.405   1.615   2.788  0.0921  0.0985  0.1664
 1400SOL    HW115662   4.343   1.676   2.749 -0.5731  1.4136  3.3023
 1400SOL    HW215663   4.460   1.584   2.716 -2.0556  0.9849 -1.8234
 1401SOL     OW15664   3.552   2.140   3.532  0.6266 -0.2274  0.1843
 1401SOL    HW115665   3.587   2.061   3.490 -0.5697 -0.4781 -0.3388
 1401SOL    HW215666   3.618   2.158   3.599 -0.5612  1.0512  0.9937
 1402SOL     OW15667   0.363   4.485   4.384 -0.3186  0.2413 -0.3703
 1402SOL    HW115668   0.338   4.568   4.344 -1.1405  1.3059  2.3580
 1402SOL    HW215669   0.331   4.499   4.473  2.4375 -1.0315  0.8415
 1403SOL     OW15670   4.093   1.361  14.816  0.1001  0.2899 -0.1794
 1403SOL    HW115671   4.179   1.397  14.795  0.2719 -0.2624 -0.4122
 1403SOL    HW215672   4.113   1.331  14.905  1.5934 -0.6650 -0.8443
 1404SOL     OW15673   3.558   3.215   6.746 -0.2391  0.0919 -0.1378
 1404SOL    HW115674   3.494   3.148   6.769  0.2486  0.2241  1.6456
 1404SOL    HW215675   3.618   3.162   6.693  0.6499  0.9070  0.0509
 1405SOL     OW15676   2.682   1.038   9.519 -0.0387  0.2254  0.0965
 1405SOL    HW115677   2.760   0.995   9.553  0.6180  0.5546 -0.9753
 1405SOL    HW215678   2.726   1.100   9.460  0.9565 -0.1892  0.4072
 1406SOL     OW15679   2.465   3.657   4.787  0.4162 -0.5523  0.1734
 1406SOL    HW115680   2.437   3.644   4.878  0.1239 -0.2655  0.1226
 1406SOL    HW215681   2.459   3.568   4.753 -2.7517  0.5779 -2.2250
 1407SOL     OW15682   4.144   2.996   7.531 -0.2786 -0.3873  0.4857
 1407SOL    HW115683   4.184   2.945   7.601  0.9477 -3.6163 -2.5413
 1407SOL    HW215684   4.164   2.931   7.463 -0.6353 -0.3441  0.3393
 1408SOL     OW15685   0.531   3.330   8.542  0.5430  0.1971  0.4353
 1408SOL    HW115686   0.495   3.357   8.626  0.5991  3.2675 -0.5156
 1408SOL    HW215687   0.500   3.240   8.535 -0.6141  0.5599  0.8538
 1409SOL     OW15688   1.474   3.779   5.551  0.3773  0.1448 -0.0061
 1409SOL    HW115689   1.495   3.866   5.516  3.5577 -0.3014  0.8837
 1409SOL    HW215690   1.540   3.728   5.504 -1.3570  0.0333 -2.3637
 1410SOL     OW15691   2.264   0.062   9.192  0.4553 -0.2540  0.1713
 1410SOL    HW115692   2.352   0.069   9.155  0.8761 -1.0408  1.0020
 1410SOL    HW215693   2.276   0.114   9.272 -1.0744  1.5393 -0.7695
 1411SOL     OW15694   4.182   1.941  17.062  0.1639 -0.1474 -0.3835
 1411SOL    HW115695   4.191   2.033  17.087  0.5720 -0.2254 -0.2462
 1411SOL    HW215696   4.137   1.893  17.132  1.4035 -0.0542  0.4768
 1412SOL     OW15697   0.416   2.379   4.140  0.7091  0.1893 -0.1960
 1412SOL    HW115698   0.431   2.359   4.048  1.9296  0.1619  0.0187
 1412SOL    HW215699   0.395   2.293   4.177  0.1803 -0.3743 -1.7968
 1413SOL     OW15700   1.817   1.332  12.374 -0.1107  0.3467  0.3044
 1413SOL    HW115701   1.791   1.419  12.404  0.5799  0.5402  0.3276
 1413SOL    HW215702   1.912   1.333  12.376 -0.0910  0.1262 -0.3476
 1414SOL     OW15703   4.140   4.529   5.086 -0.3815  0.3725  0.6313
 1414SOL    HW115704   4.188   4.475   5.024 -0.3041  0.7945  0.3246
 1414SOL    HW215705   4.054   4.526   5.043 -0.1176 -0.5181  0.1672
 1415SOL     OW15706   1.184   4.280   9.216  0.3087 -0.4546 -0.5926
 1415SOL    HW115707   1.217   4.348   9.275  3.1752 -2.8658  0.6216
 1415SOL    HW215708   1.197   4.207   9.278  0.0063  0.1295  0.1659
 1416SOL     OW15709   3.454   1.103  12.928  0.0367  0.0571  0.0604
 1416SOL    HW115710   3.521   1.162  12.893  1.5321 -0.8180  1.4404
 1416SOL    HW215711   3.384   1.165  12.908  2.7611  2.1480 -3.0778
 1417SOL     OW15712   3.952   0.403   8.631  0.1985 -0.1750 -0.6997
 1417SOL    HW115713   3.961   0.452   8.712  0.6165 -4.0213  1.5461
 1417SOL    HW215714   4.029   0.347   8.629  0.9712  0.9423 -2.2239
 1418SOL     OW15715   1.842   0.853   3.086 -0.1810 -0.3836  0.1668
 1418SOL    HW115716   1.918   0.796   3.098 -0.3854 -0.2358  2.0316
 1418SOL    HW215717   1.774   0.785   3.087  0.7051 -1.2891 -0.2757
 1419SOL     OW15718   0.861   2.508   1.812  0.2485 -0.3930  0.4870
 1419SOL    HW115719   0.838   2.419   1.786  0.4265 -0.4409  0.4895
 1419SOL    HW215720   0.802   2.567   1.765  0.1546 -0.2012  0.8463
 1420SOL     OW15721   0.209   1.209   0.787  0.0146  0.6185  0.4995
 1420SOL    HW115722   0.298   1.230   0.815  0.0796  0.2846  0.5431
 1420SOL    HW215723   0.155   1.265   0.843 -1.8615  1.5422 -2.2493
 1421SOL     OW15724   1.213   2.252   6.505 -0.0744 -0.0497  0.3636
 1421SOL    HW115725   1.292   2.296   6.538  0.5029 -0.5581 -0.3454
 1421SOL    HW215726   1.245   2.188   6.441  0.3357  1.6535 -1.1349
 1422SOL     OW15727   1.621   0.947  17.032  0.6920 -0.1190 -0.3104
 1422SOL    HW115728   1.614   1.020  17.094  3.1324  1.4821 -1.8907
 1422SOL    HW215729   1.665   0.988  16.957  0.6517 -1.6387 -1.1687
 1423SOL     OW15730   2.416   2.929   1.822 -0.1314  0.3094  0.3949
 1423SOL    HW115731   2.327   2.892   1.825  0.1903 -0.5349 -0.5215
 1423SOL    HW215732   2.417   2.997   1.889  0.8965  1.3399 -0.6760
 1424SOL     OW15733   1.331   3.969  14.191  0.2284  0.1731  0.2944
 1424SOL    HW115734   1.412   4.007  14.158 -1.4866  3.1123 -0.5719
 1424SOL    HW215735   1.274   3.959  14.114  1.5104 -0.1158 -0.6168
 1425SOL     OW15736   0.269   2.144  15.769  0.5848 -0.8207 -0.4194
 1425SOL    HW115737   0.339   2.209  15.772 -0.1147 -0.0721 -0.6393
 1425SOL    HW215738   0.245   2.172  15.681  1.3007 -1.9004 -0.9728
 1426SOL     OW15739   4.003   4.037   8.348  0.0184  0.1639 -0.1966
 1426SOL    HW115740   3.943   4.001   8.414  0.5645  3.3590  2.0833
 1426SOL    HW215741   4.083   3.997   8.382  1.2296  1.6647 -1.2780
 1427SOL     OW15742   1.884   2.678   2.590 -0.0378 -0.0890 -0.4426
 1427SOL    HW115743   1.819   2.638   2.532 -0.2465 -1.2381  0.5817
 1427SOL    HW215744   1.882   2.765   2.550  0.9569 -0.0171 -0.3304
 1428SOL     OW15745   4.283   3.785   8.619  0.1903 -0.4518 -0.1699
 1428SOL    HW115746   4.269   3.724   8.547  0.4144 -1.0725  0.3084
 1428SOL    HW215747   4.295   3.866   8.568  0.2389 -0.7867 -0.6892
 1429SOL     OW15748   0.840   4.715   7.198 -0.5269 -0.6914 -0.0834
 1429SOL    HW115749   0.861   4.665   7.276 -1.5562 -0.7008  0.1837
 1429SOL    HW215750   0.821   4.653   7.127 -0.0939  0.8304 -1.5373
 1430SOL     OW15751   2.286   0.234  10.904  0.1993  0.0405 -0.1271
 1430SOL    HW115752   2.197   0.255  10.933 -0.4282 -1.1239 -1.2227
 1430SOL    HW215753   2.303   0.182  10.983 -0.1396  0.9896  0.5713
 1431SOL     OW15754   0.929   3.690   4.040 -0.0928 -0.4156  0.0214
 1431SOL    HW115755   0.878   3.731   4.110 -0.1416 -1.4982  0.6203
 1431SOL    HW215756   0.941   3.603   4.080 -1.1182 -0.1717  0.8560
 1432SOL     OW15757   4.448   3.122   0.425  0.1335 -0.0392  0.1631
 1432SOL    HW115758   4.362   3.090   0.452 -0.9219  3.1183  0.5954
 1432SOL    HW215759   4.431   3.157   0.337  0.1694  3.5246  1.5563
 1433SOL     OW15760   1.735   2.846   1.601 -0.6358 -0.3517 -0.1307
 1433SOL    HW115761   1.640   2.850   1.602 -0.6084  0.7343 -0.7854
 1433SOL    HW215762   1.753   2.753   1.587 -0.9974 -0.6749  1.5605
 1434SOL     OW15763   2.918   2.885   0.076 -0.2060  0.0850 -0.2534
 1434SOL    HW115764   2.908   2.905   0.169  0.3950 -1.5645  0.1714
 1434SOL    HW215765   3.009   2.905   0.056 -0.5637 -0.2285 -2.1938
 1435SOL     OW15766   2.723   0.119   8.924  0.1664 -0.2876  0.1248
 1435SOL    HW115767   2.669   0.155   8.854  0.4175  0.3167  0.2386
 1435SOL    HW215768   2.804   0.169   8.915  1.1468 -1.8797  0.1303
 1436SOL     OW15769   4.325   3.732   7.160 -0.0895  0.0714  0.1823
 1436SOL    HW115770   4.320   3.774   7.246  3.4462  1.0705 -0.0821
 1436SOL    HW215771   4.238   3.694   7.150  0.3604 -0.4345 -1.7928
 1437SOL     OW15772   1.700   0.237  14.149 -0.2238  0.1407 -0.1600
 1437SOL    HW115773   1.760   0.176  14.107 -1.7266 -1.4323 -0.0319
 1437SOL    HW215774   1.761   0.296  14.193  1.4937 -1.7244 -0.0785
 1438SOL     OW15775   1.866   0.630   5.871 -0.1149  0.0004 -0.1792
 1438SOL    HW115776   1.876   0.551   5.818 -0.0808  0.8227 -1.3822
 1438SOL    HW215777   1.794   0.600   5.926 -0.2952  0.0749 -0.3756
 1439SOL     OW15778   1.049   3.710   2.667 -0.6426 -0.1917  0.5159
 1439SOL    HW115779   1.010   3.782   2.716  1.4779  2.4817 -1.7046
 1439SOL    HW215780   0.979   3.659   2.626 -0.9422 -0.4836  1.3809
 1440SOL     OW15781   1.665   1.872   9.897 -0.6916  0.3198  0.1057
 1440SOL    HW115782   1.711   1.849   9.978 -1.6212  2.2101  1.1768
 1440SOL    HW215783   1.671   1.786   9.854 -1.7879  1.2468 -1.8922
 1441SOL     OW15784   2.168   4.470   3.574  0.2791 -0.4204 -0.0963
 1441SOL    HW115785   2.243   4.508   3.528  1.4432 -0.7308  1.5029
 1441SOL    HW215786   2.136   4.549   3.619 -1.6179 -1.1670 -0.1466
 1442SOL     OW15787   1.984   4.488   8.456 -1.0633 -0.5415  0.0868
 1442SOL    HW115788   1.967   4.414   8.397 -0.5781  1.1356 -2.1366
 1442SOL    HW215789   2.061   4.531   8.419 -0.5592  0.2455  2.0609
 1443SOL     OW15790   3.937   3.131   3.746 -0.0668 -0.1696  0.0812
 1443SOL    HW115791   3.973   3.156   3.661 -1.1704  0.6243 -0.1574
 1443SOL    HW215792   4.005   3.075   3.783 -0.0850 -0.9495 -1.0869
 1444SOL     OW15793   0.331   1.798   6.564 -0.0373  0.1824 -0.6607
 1444SOL    HW115794   0.387   1.801   6.642  0.9155 -0.5696 -1.3122
 1444SOL    HW215795   0.245   1.778   6.602  1.1919 -1.8959  1.0491
 1445SOL     OW15796   4.280   2.035   6.165 -0.3060 -0.3724 -0.0518
 1445SOL    HW115797   4.210   1.974   6.144 -0.1645 -0.1454 -1.2056
 1445SOL    HW215798   4.359   1.981   6.158 -0.1140  0.3989 -3.8551
 1446SOL     OW15799   3.825   1.578  15.306  0.1406 -0.4258 -0.3245
 1446SOL    HW115800   3.753   1.595  15.367 -1.0527  0.7131 -2.0361
 1446SOL    HW215801   3.795   1.620  15.225 -1.1118 -1.1584 -0.2355
 1447SOL     OW15802   3.800   0.534   3.018 -0.0089 -0.5854 -0.1469
 1447SOL    HW115803   3.734   0.466   3.026 -2.3317  1.9558  2.2630
 1447SOL    HW215804   3.759   0.600   2.961 -1.0951 -0.7528  0.4562
 1448SOL     OW15805   1.489   4.204   6.703  0.0536  0.9515  0.0579
 1448SOL    HW115806   1.557   4.139   6.721 -1.2874 -0.6445 -0.6798
 1448SOL    HW215807   1.422   4.165   6.760 -0.1797  0.3342 -0.6450
 1449SOL     OW15808   2.070   2.233  11.705 -0.3489 -0.2198  0.2145
 1449SOL    HW115809   2.138   2.254  11.770 -2.1430 -1.0252  2.3697
 1449SOL    HW215810   2.096   2.147  11.674  1.9492  1.2832 -2.0386
 1450SOL     OW15811   4.465   1.471  11.094  0.1170  0.4022 -0.3053
 1450SOL    HW115812   4.535   1.498  11.035  1.0906  0.0051  0.6554
 1450SOL    HW215813   4.462   1.549  11.151  3.2764  1.4744 -1.6200
 1451SOL     OW15814   3.320   1.656   6.912  0.4857  0.0848 -0.4437
 1451SOL    HW115815   3.242   1.707   6.932 -0.7510 -2.0300  0.0584
 1451SOL    HW215816   3.389   1.720   6.932 -0.6758  1.2696 -0.2371
 1452SOL     OW15817   3.640   2.260   7.758 -0.6218  0.1416 -0.1436
 1452SOL    HW115818   3.646   2.170   7.791  3.2448  0.9819  1.4317
 1452SOL    HW215819   3.730   2.278   7.734 -1.3441  2.5523 -1.0318
 1453SOL     OW15820   1.044   0.538  14.989  0.3638  0.2725 -1.0248
 1453SOL    HW115821   1.127   0.492  14.979 -1.3878 -2.8261 -1.1624
 1453SOL    HW215822   0.985   0.497  14.926  0.1129  1.8136 -1.8010
 1454SOL     OW15823   4.170   4.354   8.983  0.1207  0.2745  0.6556
 1454SOL    HW115824   4.263   4.374   8.987  0.2901 -0.2059 -0.6999
 1454SOL    HW215825   4.173   4.263   9.014 -3.3981  0.0999  0.5015
 1455SOL     OW15826   1.252   3.490   3.476  0.2973 -0.0009  0.2206
 1455SOL    HW115827   1.279   3.556   3.413 -0.7410 -1.3412 -1.6373
 1455SOL    HW215828   1.165   3.525   3.495 -0.4719 -1.2800 -0.9322
 1456SOL     OW15829   4.319   0.351   7.012  0.1415 -0.0049  0.6506
 1456SOL    HW115830   4.308   0.262   6.977 -0.1659  0.2728  0.0571
 1456SOL    HW215831   4.366   0.328   7.093 -0.8080 -1.6868  0.7283
 1457SOL     OW15832   0.192   1.248   8.987 -0.1877  0.0911  0.3067
 1457SOL    HW115833   0.123   1.253   8.921  1.0289 -1.5630 -1.1307
 1457SOL    HW215834   0.142   1.236   9.067 -1.2096  0.2467 -0.3117
 1458SOL     OW15835   4.648   0.897   7.034 -0.4570  0.1370  0.0389
 1458SOL    HW115836   4.680   0.946   6.958 -1.9770 -0.9806 -1.3140
 1458SOL    HW215837   4.570   0.853   7.000  1.0276 -1.4283 -1.2859
 1459SOL     OW15838   4.632   4.372   6.678 -0.2759  0.3524  0.6001
 1459SOL    HW115839   4.578   4.434   6.728 -2.2206 -2.3769  1.8845
 1459SOL    HW215840   4.566   4.303   6.680 -0.1940  0.2219 -1.1201
 1460SOL     OW15841   4.016   3.827   4.524 -0.0097  0.5018 -0.5690
 1460SOL    HW115842   3.930   3.789   4.508  0.0977  0.1471 -0.3017
 1460SOL    HW215843   3.987   3.892   4.589  0.1725 -0.8949  0.8861
 1461SOL     OW15844   2.694   3.714   0.971  0.0577  0.4761  0.0340
 1461SOL    HW115845   2.745   3.636   0.946 -0.9027 -0.0579 -0.2857
 1461SOL    HW215846   2.610   3.673   0.991  0.4121 -0.3017 -0.0471
 1462SOL     OW15847   2.789   3.588  11.205 -0.3709 -0.0815 -0.3722
 1462SOL    HW115848   2.747   3.596  11.119 -1.3885  1.3156  0.2554
 1462SOL    HW215849   2.734   3.643  11.261  0.5746  0.0340  0.4375
 1463SOL     OW15850   2.704   2.490   0.668 -0.1137 -0.1014 -0.1606
 1463SOL    HW115851   2.777   2.503   0.608 -0.7441  0.1802 -0.8607
 1463SOL    HW215852   2.641   2.466   0.600  0.5718  1.0589 -1.1913
 1464SOL     OW15853   4.235   2.830   7.339 -0.1875 -0.0707  0.1976
 1464SOL    HW115854   4.250   2.742   7.374 -0.1681 -0.4027 -0.6453
 1464SOL    HW215855   4.214   2.804   7.249 -0.7121 -0.9254  0.5682
 1465SOL     OW15856   2.720   1.344   8.544 -0.3875  0.7162  0.5686
 1465SOL    HW115857   2.760   1.406   8.605 -0.7976  0.4811  1.0811
 1465SOL    HW215858   2.665   1.406   8.496 -1.6090 -0.5742  0.3344
 1466SOL     OW15859   1.962   0.439  15.322  0.3729  0.7067 -0.0329
 1466SOL    HW115860   1.956   0.346  15.299  1.4118  1.1462 -2.0699
 1466SOL    HW215861   2.031   0.447  15.388  0.1833  1.2977  0.0928
 1467SOL     OW15862   1.079   2.875   3.016  0.3806 -0.4122  1.0173
 1467SOL    HW115863   1.116   2.950   2.971  0.7254 -1.2162 -0.0437
 1467SOL    HW215864   1.095   2.899   3.107  0.0729 -0.1118  0.9946
 1468SOL     OW15865   0.599   1.580   7.239 -0.9600 -0.5951  0.0639
 1468SOL    HW115866   0.676   1.604   7.187 -1.0923  1.2032  0.6624
 1468SOL    HW215867   0.538   1.651   7.216 -2.1293 -1.8060 -0.5306
 1469SOL     OW15868   3.004   1.038   4.385  0.3536  0.1116  0.0595
 1469SOL    HW115869   2.972   1.062   4.298 -1.0129  1.4404  0.9187
 1469SOL    HW215870   2.923   0.996   4.415  0.4432 -1.1926 -1.5682
 1470SOL     OW15871   4.277   3.665   9.916 -0.0334  0.2876  0.1141
 1470SOL    HW115872   4.241   3.741   9.961  1.0855  0.2112  1.1572
 1470SOL    HW215873   4.337   3.707   9.854 -1.0303  2.1495  0.4054
 1471SOL     OW15874   1.258   1.710  12.444 -0.4107 -0.2382 -0.2627
 1471SOL    HW115875   1.351   1.726  12.428  0.2118 -3.1287  0.5773
 1471SOL    HW215876   1.262   1.653  12.521 -1.5118  1.0452  0.7591
 1472SOL     OW15877   1.007   0.857   6.503 -0.1542 -0.2859 -0.0576
 1472SOL    HW115878   0.954   0.778   6.514 -0.0127 -0.1659  1.4240
 1472SOL    HW215879   1.034   0.850   6.411 -0.7704  1.4652 -0.3729
 1473SOL     OW15880   3.440   3.248   4.128  0.4110  0.2924 -0.1375
 1473SOL    HW115881   3.432   3.246   4.032 -0.5320 -1.1539 -0.0269
 1473SOL    HW215882   3.462   3.340   4.142  1.5905  0.2716 -1.8316
 1474SOL     OW15883   4.609   2.645  10.771 -0.3383  0.2166  0.3159
 1474SOL    HW115884   4.576   2.723  10.726 -0.6993  0.9285  1.8395
 1474SOL    HW215885   4.702   2.657  10.754 -0.8794  1.7148 -1.6316
 1475SOL     OW15886   4.694   1.653  16.322  0.3280  0.2349 -0.1097
 1475SOL    HW115887   0.056   1.629  16.365  0.2082  0.2214  0.1093
 1475SOL    HW215888   4.635   1.643  16.397 -0.5793 -1.4343 -1.0504
 1476SOL     OW15889   0.110   1.613   5.754  0.5297  0.0608 -0.2533
 1476SOL    HW115890   0.170   1.575   5.689 -0.5217  0.6869 -1.6028
 1476SOL    HW215891   0.135   1.706   5.746 -1.0954  0.6262  1.3419
 1477SOL     OW15892   2.193   3.047  14.995  0.0311  0.5376 -0.5922
 1477SOL    HW115893   2.102   3.057  14.968 -0.3936  4.2498  2.1619
 1477SOL    HW215894   2.190   2.952  15.004  1.9455  0.4362 -1.0341
 1478SOL     OW15895   0.841   2.239  15.919 -0.2454 -0.4853  0.3571
 1478SOL    HW115896   0.874   2.281  15.999 -1.9035  3.9962 -1.3129
 1478SOL    HW215897   0.896   2.269  15.847 -1.2977  0.4494 -0.0663
 1479SOL     OW15898   2.349   3.480   6.491 -0.3638 -0.5932  1.0217
 1479SOL    HW115899   2.308   3.523   6.416  1.4126 -1.9354 -0.6824
 1479SOL    HW215900   2.328   3.550   6.553 -0.8854  0.4085 -0.2777
 1480SOL     OW15901   3.275   3.225   4.318  0.3637  0.1964 -0.0476
 1480SOL    HW115902   3.215   3.261   4.253  0.6442 -0.9162 -0.9375
 1480SOL    HW215903   3.353   3.212   4.264  1.0658 -1.3897  1.3459
 1481SOL     OW15904   4.406   0.023   3.985  0.3709 -0.6164 -0.6843
 1481SOL    HW115905   4.357   4.661   3.977  1.4933 -1.5289  1.5837
 1481SOL    HW215906   4.406   0.046   3.893  0.2550 -1.8758 -1.0002
 1482SOL     OW15907   4.359   3.869   7.971 -0.0135  0.0320  0.0979
 1482SOL    HW115908   4.267   3.845   7.963  0.2992 -1.0113 -0.2940
 1482SOL    HW215909   4.369   3.915   8.055  1.1295  0.5227 -0.3050
 1483SOL     OW15910   0.132   0.669   9.175  0.5617  0.7982 -0.3519
 1483SOL    HW115911   0.093   0.754   9.194 -3.1337 -1.2448  1.2825
 1483SOL    HW215912   0.153   0.672   9.082  1.1624 -2.7415 -0.3334
 1484SOL     OW15913   0.999   0.501   2.712 -0.2845 -0.0746  0.4791
 1484SOL    HW115914   0.950   0.581   2.729  1.6372  1.3272 -0.6020
 1484SOL    HW215915   0.949   0.445   2.771 -0.4604 -0.2330  0.1857
 1485SOL     OW15916   0.937   4.092   0.189  1.0902  0.5428 -0.0688
 1485SOL    HW115917   0.977   4.136   0.264  1.1873  0.6720 -0.1968
 1485SOL    HW215918   0.976   4.005   0.189 -3.2349 -1.3815  0.8382
 1486SOL     OW15919   0.971   1.633   2.101  0.6228 -0.2122  0.7107
 1486SOL    HW115920   1.040   1.569   2.088  1.4378 -0.0065  4.0865
 1486SOL    HW215921   1.011   1.709   2.144 -0.9436  0.7239  0.5340
 1487SOL     OW15922   3.816   4.579  12.010 -0.2924  0.3162 -0.8870
 1487SOL    HW115923   3.782   4.519  11.943 -0.0950 -1.2010  0.3847
 1487SOL    HW215924   3.904   4.545  12.025  0.1282  1.4717 -0.7588
 1488SOL     OW15925   0.265   3.881  10.889  0.0356  0.3703 -0.7877
 1488SOL    HW115926   0.301   3.966  10.916  0.8050 -0.7343  1.6448
 1488SOL    HW215927   0.209   3.846  10.958  0.2511 -1.5803 -1.6095
 1489SOL     OW15928   0.388   0.405   4.251  0.9729  0.1013 -0.1333
 1489SOL    HW115929   0.311   0.445   4.210  0.7831 -1.6813 -1.5264
 1489SOL    HW215930   0.402   0.337   4.185  2.9817 -0.0140  0.4260
 1490SOL     OW15931   1.332   0.011   5.762  0.4137  0.3575 -0.0353
 1490SOL    HW115932   1.372   4.683   5.690  1.5757 -1.0503  1.5545
 1490SOL    HW215933   1.240   0.003   5.737 -0.4267  2.5613  2.3469
 1491SOL     OW15934   0.040   4.146  14.367 -0.5350 -0.3114 -0.1600
 1491SOL    HW115935   0.010   4.086  14.299  0.6749  0.5074 -1.4236
 1491SOL    HW215936   0.051   4.229  14.321 -0.5688 -0.2092  0.0170
 1492SOL     OW15937   0.268   0.459   5.009  0.4212 -0.4267  0.5668
 1492SOL    HW115938   0.290   0.366   5.007  1.7437 -0.1215  1.3157
 1492SOL    HW215939   0.173   0.448   4.998  0.2675  0.2823  1.1637
 1493SOL     OW15940   1.150   3.841   0.626 -0.5091  0.2898 -0.0943
 1493SOL    HW115941   1.058   3.827   0.606 -1.1463  2.3045  1.4729
 1493SOL    HW215942   1.186   3.752   0.624 -0.6666  0.1886  1.3251
 1494SOL     OW15943   1.131   1.350   4.184 -0.0364  0.1647 -0.7777
 1494SOL    HW115944   1.101   1.306   4.104 -0.2428 -0.8383 -0.1443
 1494SOL    HW215945   1.207   1.393   4.143  1.4083  0.4016  2.1530
 1495SOL     OW15946   3.478   4.056  14.302  0.1506  0.4658 -0.0592
 1495SOL    HW115947   3.469   4.133  14.246 -1.9883  0.6515  0.5582
 1495SOL    HW215948   3.391   4.063  14.341 -0.1281  0.7948 -0.7289
 1496SOL     OW15949   0.319   4.265   0.348  0.0598 -0.2998 -0.1627
 1496SOL    HW115950   0.285   4.197   0.407  0.0318 -1.4882 -1.5715
 1496SOL    HW215951   0.236   4.288   0.306  0.3692 -0.6068 -0.9430
 1497SOL     OW15952   3.784   2.636   4.677  1.1551  0.2074  0.6996
 1497SOL    HW115953   3.790   2.555   4.627  0.5276  1.8744 -2.0878
 1497SOL    HW215954   3.829   2.684   4.608 -0.0283 -0.6224 -0.6757
 1498SOL     OW15955   2.319   3.437   3.974  0.1048  0.7293 -0.3335
 1498SOL    HW115956   2.395   3.493   3.960  0.1638  0.9797  0.9677
 1498SOL    HW215957   2.346   3.346   3.986 -0.6470  0.5410 -0.0650
 1499SOL     OW15958   2.573   2.216  14.160 -0.2221 -0.7811 -0.3313
 1499SOL    HW115959   2.505   2.227  14.094 -0.4512 -3.0093 -0.4571
 1499SOL    HW215960   2.559   2.285  14.225  2.4859 -0.0827 -0.4668
 1500SOL     OW15961   4.558   3.240   8.490 -0.1626 -0.0396 -0.0950
 1500SOL    HW115962   4.563   3.333   8.513 -3.8307  0.3924 -0.9186
 1500SOL    HW215963   4.569   3.199   8.576  0.7615  2.3200  0.9260
 1501SOL     OW15964   2.260   4.556   0.222  0.1695  0.4043  0.1748
 1501SOL    HW115965   2.308   4.473   0.221 -1.3872 -0.4893 -0.7797
 1501SOL    HW215966   2.268   4.581   0.314 -1.5673 -0.3708  0.5470
 1502SOL     OW15967   3.195   3.921   4.172  0.9235 -0.6024  0.0686
 1502SOL    HW115968   3.157   3.941   4.258 -2.0751 -0.2971 -1.3121
 1502SOL    HW215969   3.126   3.961   4.118  2.4246  1.0217 -0.6290
 1503SOL     OW15970   3.979   0.047  10.444 -0.4466  0.6689  0.1791
 1503SOL    HW115971   3.977   0.078  10.535  1.4765  0.4858  0.2958
 1503SOL    HW215972   3.941   4.680  10.448  2.3569 -0.6113 -0.6316
 1504SOL     OW15973   4.207   0.876   2.264 -0.1924  0.0099  0.7707
 1504SOL    HW115974   4.189   0.951   2.208  1.7875 -0.3677 -0.3397
 1504SOL    HW215975   4.200   0.807   2.198  1.2116 -0.6248  1.2947
 1505SOL     OW15976   0.220   0.881   8.901  0.0292  0.4992  0.1123
 1505SOL    HW115977   0.185   0.926   8.977 -2.0221  0.9636 -1.1131
 1505SOL    HW215978   0.181   0.794   8.905  4.3104 -1.4954 -0.6798
 1506SOL     OW15979   1.877   3.643  13.805 -0.0049  0.0854  0.1505
 1506SOL    HW115980   1.955   3.671  13.854  0.6439  0.2781 -1.0017
 1506SOL    HW215981   1.910   3.558  13.776 -0.0376  0.0610  0.1836
 1507SOL     OW15982   0.554   1.776   8.654 -0.4728 -0.2149  0.3114
 1507SOL    HW115983   0.508   1.741   8.577  1.5989  1.4937 -1.6948
 1507SOL    HW215984   0.478   1.825   8.686 -0.9298 -2.9169  3.3345
 1508SOL     OW15985   1.083   0.950  15.515 -0.2549  0.1201 -0.0397
 1508SOL    HW115986   1.009   1.005  15.539  0.1104 -0.2609  1.9332
 1508SOL    HW215987   1.046   0.863  15.531  0.8521 -0.2977  0.2572
 1509SOL     OW15988   3.426   2.964  16.028  0.4069  0.2503  0.3531
 1509SOL    HW115989   3.365   2.899  15.994 -0.9762  0.1115  3.1163
 1509SOL    HW215990   3.489   2.967  15.956 -0.6007  3.1148 -0.4115
 1510SOL     OW15991   3.480   0.099   7.317 -0.1605 -0.4139 -0.0357
 1510SOL    HW115992   3.428   0.033   7.270 -1.5167  0.4735  0.2107
 1510SOL    HW215993   3.453   0.080   7.407  2.8678  2.4719  1.4478
 1511SOL     OW15994   4.200   4.435   1.024 -0.4146  0.0504  0.2249
 1511SOL    HW115995   4.285   4.423   1.065 -1.0757 -1.3773  1.1751
 1511SOL    HW215996   4.181   4.521   1.061  1.2625 -0.2390  1.7358
 1512SOL     OW15997   3.216   2.960   3.832 -0.6818  0.1170 -0.4250
 1512SOL    HW115998   3.227   2.875   3.789 -1.3488  0.5841 -1.5332
 1512SOL    HW215999   3.300   3.004   3.820 -1.4063  1.7952  0.7011
 1513SOL     OW16000   0.843   1.031   6.157  0.5155 -0.1422 -0.0198
 1513SOL    HW116001   0.912   0.964   6.165 -0.7870 -1.5859 -0.9661
 1513SOL    HW216002   0.852   1.072   6.243  0.7331 -0.2478  0.0073
 1514SOL     OW16003   3.805   4.089  15.147  0.0541 -0.0182 -0.2646
 1514SOL    HW116004   3.841   4.119  15.231 -0.0847 -1.0977  0.1796
 1514SOL    HW216005   3.728   4.036  15.167 -0.3101  0.1442 -1.2348
 1515SOL     OW16006   3.708   2.370   7.186 -0.4045 -0.1029 -0.0001
 1515SOL    HW116007   3.661   2.453   7.178 -1.1172 -0.3763  1.5316
 1515SOL    HW216008   3.790   2.398   7.227 -0.8526 -0.5235  1.1660
 1516SOL     OW16009   1.545   0.648   7.655 -0.0598  0.3876 -0.1323
 1516SOL    HW116010   1.477   0.713   7.638 -2.4725 -2.4719 -1.5602
 1516SOL    HW216011   1.532   0.631   7.748 -0.6763 -2.0100 -0.6402
 1517SOL     OW16012   2.443   1.830   3.542 -0.4575 -0.1383  0.2233
 1517SOL    HW116013   2.457   1.917   3.579 -0.1970  0.5370 -1.4365
 1517SOL    HW216014   2.366   1.806   3.592 -1.4417  0.0064 -1.2260
 1518SOL     OW16015   1.203   4.390   7.039  0.0685 -0.1889  0.3106
 1518SOL    HW116016   1.150   4.328   6.989  0.1920 -0.2996  0.3166
 1518SOL    HW216017   1.161   4.398   7.125 -1.5527 -1.5008 -0.3492
 1519SOL     OW16018   0.188   2.154   9.487 -0.8118 -0.2908  0.6500
 1519SOL    HW116019   0.116   2.098   9.458 -1.2616  1.6665 -2.0049
 1519SOL    HW216020   0.263   2.106   9.452 -0.0422  0.5340  1.1796
 1520SOL     OW16021   0.723   2.891   1.660 -0.3057 -1.3021  0.0508
 1520SOL    HW116022   0.648   2.934   1.618  2.3544  2.2878 -0.9829
 1520SOL    HW216023   0.702   2.798   1.651 -0.4599 -1.1874 -0.8640
 1521SOL     OW16024   2.452   3.412   4.673 -0.3541  0.6065 -0.0176
 1521SOL    HW116025   2.387   3.387   4.607 -0.1969 -0.8118  0.3578
 1521SOL    HW216026   2.516   3.433   4.605  0.7445  0.3498  0.9327
 1522SOL     OW16027   0.872   0.299   2.838 -0.4923 -0.4686  0.3811
 1522SOL    HW116028   0.779   0.316   2.822 -0.7892  0.3526  2.9076
 1522SOL    HW216029   0.857   0.266   2.927 -2.6496  1.0265  0.5625
 1523SOL     OW16030   3.938   1.473   7.247  0.5713  0.2211  0.0187
 1523SOL    HW116031   3.887   1.534   7.301  0.5942 -0.0298  0.3221
 1523SOL    HW216032   3.932   1.531   7.171  2.3152 -0.8749 -0.9713
 1524SOL     OW16033   0.241   0.660  11.053  0.0586 -0.0038 -0.1781
 1524SOL    HW116034   0.310   0.681  11.116 -0.5680  0.1841  0.4423
 1524SOL    HW216035   0.163   0.670  11.109  1.0497 -1.0233  1.3779
 1525SOL     OW16036   1.172   4.332   5.472  0.2961  0.0219  0.5424
 1525SOL    HW116037   1.265   4.310   5.486 -0.1803 -1.0040  2.1004
 1525SOL    HW216038   1.137   4.256   5.426  0.6134 -0.1405  0.5697
 1526SOL     OW16039   3.536   0.537   3.753 -0.2513 -0.6191 -0.0844
 1526SOL    HW116040   3.479   0.565   3.824  1.5771 -0.2670  1.2647
 1526SOL    HW216041   3.536   0.615   3.697  1.8158  1.2007  2.4172
 1527SOL     OW16042   4.324   0.028  13.220 -0.1474 -0.0577 -0.0430
 1527SOL    HW116043   4.340   0.020  13.126  2.7877 -1.2482  0.5616
 1527SOL    HW216044   4.410   0.034  13.262  1.3430  2.0438 -3.4392
 1528SOL     OW16045   3.181   2.429   7.437  0.4340 -0.9363  0.1451
 1528SOL    HW116046   3.186   2.463   7.526 -1.0088 -0.3648  0.0034
 1528SOL    HW216047   3.266   2.385   7.429  0.7633 -0.4032  0.8180
 1529SOL     OW16048   4.381   0.517   0.934 -0.9710 -0.7148 -0.2529
 1529SOL    HW116049   4.354   0.537   1.023 -0.6436 -0.6298 -0.1715
 1529SOL    HW216050   4.324   0.572   0.881  2.6856  2.7210 -0.5779
 1530SOL     OW16051   0.229   0.748   1.887  0.1917 -0.4061 -1.0157
 1530SOL    HW116052   0.265   0.683   1.826 -0.0001 -1.1346 -0.3562
 1530SOL    HW216053   0.170   0.690   1.934  0.1105  0.0961 -0.5002
 1531SOL     OW16054   2.851   0.869   4.014  0.2077 -0.5892  0.0760
 1531SOL    HW116055   2.863   0.916   4.097 -1.0199 -1.3498  0.6867
 1531SOL    HW216056   2.807   0.928   3.953  0.3937  0.7099  1.1764
 1532SOL     OW16057   4.164   2.113   8.628 -0.9043  0.0728 -0.1630
 1532SOL    HW116058   4.112   2.181   8.585  2.7383  2.8079 -0.2260
 1532SOL    HW216059   4.161   2.048   8.558  0.6876 -0.6641  0.4519
 1533SOL     OW16060   0.646   2.480   6.604 -0.2056 -0.0693 -0.6224
 1533SOL    HW116061   0.621   2.473   6.696  0.1866  1.5670 -0.3886
 1533SOL    HW216062   0.579   2.431   6.557  0.3368 -2.2725  0.9183
 1534SOL     OW16063   1.622   2.707   1.214 -0.7833 -0.4161  0.0122
 1534SOL    HW116064   1.634   2.753   1.131 -0.3599  0.1209  0.3674
 1534SOL    HW216065   1.542   2.658   1.194 -0.0297 -2.0663  1.0809
 1535SOL     OW16066   2.268   2.990   3.512 -0.2317 -0.1243  0.1458
 1535SOL    HW116067   2.347   2.944   3.485 -1.3557 -1.7144 -0.4254
 1535SOL    HW216068   2.203   2.954   3.451  1.2083 -0.6754 -1.0510
 1536SOL     OW16069   0.750   2.719   7.998 -0.6377  0.6542 -0.9154
 1536SOL    HW116070   0.714   2.658   7.934 -0.8393  1.2750 -1.3887
 1536SOL    HW216071   0.841   2.705   7.974 -1.3968 -2.4882 -1.9321
 1537SOL     OW16072   2.362   3.318  12.400 -0.0394  0.1763 -0.6072
 1537SOL    HW116073   2.427   3.364  12.348 -1.1841  0.4552 -1.8038
 1537SOL    HW216074   2.393   3.228  12.397  0.8789  0.4265  1.2424
 1538SOL     OW16075   1.619   2.549  11.858 -0.2686 -0.0596  0.0052
 1538SOL    HW116076   1.565   2.502  11.922  0.4940 -2.0908 -0.8483
 1538SOL    HW216077   1.559   2.571  11.788 -0.3094  0.5295  0.2289
 1539SOL     OW16078   3.773   3.438  10.399 -0.1589  0.2823 -0.1336
 1539SOL    HW116079   3.843   3.450  10.335 -0.4534  0.7024 -0.3742
 1539SOL    HW216080   3.701   3.453  10.338  1.6982  3.1297 -1.6325
 1540SOL     OW16081   3.574   0.829   0.874  0.2197 -0.3609 -0.0685
 1540SOL    HW116082   3.585   0.735   0.890  1.1171 -0.5182 -1.6688
 1540SOL    HW216083   3.630   0.854   0.947  0.1733 -0.8633  0.1384
 1541SOL     OW16084   1.265   1.311   6.027 -0.3657  0.7593  0.3170
 1541SOL    HW116085   1.348   1.335   6.068  0.5657 -0.3709 -0.9328
 1541SOL    HW216086   1.211   1.311   6.106  1.4982  1.4879  1.5842
 1542SOL     OW16087   0.039   0.270   7.559  0.8876 -0.1276  0.6538
 1542SOL    HW116088   4.711   0.347   7.530  0.1950 -0.4573  0.9163
 1542SOL    HW216089   0.051   0.223   7.477  0.3669  0.3568  0.3002
 1543SOL     OW16090   1.301   0.019   0.407 -0.4323 -0.3282 -0.1127
 1543SOL    HW116091   1.392   0.007   0.378 -1.0550 -2.1873 -1.3095
 1543SOL    HW216092   1.270   0.014   0.316 -0.1197 -4.2454 -0.0244
 1544SOL     OW16093   3.894   2.498   5.304  0.2793  0.1321 -0.4093
 1544SOL    HW116094   3.971   2.500   5.360 -1.3639  0.4619  1.8441
 1544SOL    HW216095   3.829   2.554   5.347  0.4233  1.3657 -1.7724
 1545SOL     OW16096   0.347   0.762   1.184  0.3048  0.6797  0.0679
 1545SOL    HW116097   0.432   0.760   1.140  0.0746 -2.8063 -0.1793
 1545SOL    HW216098   0.294   0.695   1.142 -0.0635  1.7060 -1.1163
 1546SOL     OW16099   3.539   3.291  13.799 -0.0088  0.4688 -0.3231
 1546SOL    HW116100   3.497   3.204  13.799  0.5181  0.2225  0.4979
 1546SOL    HW216101   3.630   3.261  13.808  0.0804  0.5661 -0.8693
 1547SOL     OW16102   1.077   1.582  17.092  0.4900  0.3202 -0.5430
 1547SOL    HW116103   1.143   1.514  17.109  0.6534  0.0022 -2.4713
 1547SOL    HW216104   1.021   1.536  17.030  1.7689 -0.7955 -0.8802
 1548SOL     OW16105   2.551   2.893  15.835 -0.5891  0.1312 -0.1292
 1548SOL    HW116106   2.612   2.860  15.901 -0.8668  1.0826  0.6051
 1548SOL    HW216107   2.470   2.844  15.852 -0.4060 -0.6547 -1.5418
 1549SOL     OW16108   4.652   0.061   0.400  0.0758 -0.5237 -0.1493
 1549SOL    HW116109   4.603   4.702   0.380  0.1359 -0.2379 -1.4048
 1549SOL    HW216110   4.653   0.048   0.495 -5.0432  0.8048  0.0472
 1550SOL     OW16111   1.290   1.499   3.106 -0.6203 -0.7367  0.2254
 1550SOL    HW116112   1.239   1.473   3.182 -1.9271  0.4433 -0.2480
 1550SOL    HW216113   1.303   1.593   3.121  1.9303 -1.1028  0.2605
 1551SOL     OW16114   1.615   0.970   6.839  0.1710 -0.0338 -1.3588
 1551SOL    HW116115   1.564   0.892   6.820 -1.4471  0.8089 -0.3967
 1551SOL    HW216116   1.593   0.968   6.932  1.2545 -0.4211 -1.1029
 1552SOL     OW16117   1.748   4.645  16.489  0.2218  0.1790 -0.3681
 1552SOL    HW116118   1.839   4.621  16.472  0.3062  0.4586 -0.3228
 1552SOL    HW216119   1.728   4.601  16.572 -0.3795  0.4823 -0.3511
 1553SOL     OW16120   1.049   3.514   6.050 -0.2595  0.4823 -0.1395
 1553SOL    HW116121   1.028   3.429   6.011  0.7988 -0.2288  0.8435
 1553SOL    HW216122   1.063   3.481   6.139 -2.4891 -0.6239 -0.2080
 1554SOL     OW16123   0.574   0.581   1.379  0.4183 -0.2630 -0.4016
 1554SOL    HW116124   0.610   0.667   1.401  2.3667 -1.7776  2.2535
 1554SOL    HW216125   0.623   0.539   1.449 -0.4477  0.7207  0.7904
 1555SOL     OW16126   1.278   2.305   7.859 -0.0526 -0.5017  0.2975
 1555SOL    HW116127   1.193   2.348   7.848 -0.0607 -0.5026  0.3590
 1555SOL    HW216128   1.275   2.305   7.955  0.6337 -1.6815  0.3284
 1556SOL     OW16129   0.245   1.210   2.025  0.2987 -0.0512 -0.0842
 1556SOL    HW116130   0.185   1.136   2.012  1.1432 -0.6066 -0.8265
 1556SOL    HW216131   0.323   1.169   1.988 -0.2835 -0.0906 -1.2714
 1557SOL     OW16132   3.918   1.316   4.355 -0.2865 -0.4057  0.1296
 1557SOL    HW116133   3.960   1.384   4.409  0.6623 -1.0636  0.1990
 1557SOL    HW216134   3.969   1.327   4.275 -1.0770  0.5147 -0.2589
 1558SOL     OW16135   1.244   4.531   7.900  0.0214  0.2897  0.4737
 1558SOL    HW116136   1.236   4.439   7.926  3.3692 -0.4979 -1.1426
 1558SOL    HW216137   1.266   4.528   7.807  2.1153  0.3435  0.9575
 1559SOL     OW16138   2.184   1.218   7.251 -0.1610  0.0658  0.2296
 1559SOL    HW116139   2.219   1.293   7.299  0.6539 -0.6194  0.6954
 1559SOL    HW216140   2.253   1.157   7.225 -0.0371 -0.1390  1.0412
 1560SOL     OW16141   1.818   1.463  17.419  0.4899 -0.1830 -0.2181
 1560SOL    HW116142   1.798   1.374  17.445  0.3731 -0.1267 -0.1150
 1560SOL    HW216143   1.869   1.451  17.339 -0.2997 -3.1199 -0.2642
 1561SOL     OW16144   2.236   4.576   7.312 -0.2645 -0.2477  0.0665
 1561SOL    HW116145   2.282   4.596   7.230  2.1391 -1.2862  1.1528
 1561SOL    HW216146   2.154   4.624   7.301 -0.1090  0.2093  0.8519
 1562SOL     OW16147   0.749   3.544   6.400  0.1263 -0.3438  0.2223
 1562SOL    HW116148   0.716   3.491   6.327 -1.0726  0.1828  0.3837
 1562SOL    HW216149   0.728   3.480   6.468 -4.0592  0.2918 -0.4824
 1563SOL     OW16150   1.700   2.586   2.406 -0.2985  0.7084 -0.0475
 1563SOL    HW116151   1.680   2.678   2.393  0.5751  0.9587  0.3928
 1563SOL    HW216152   1.613   2.549   2.388  0.6742 -1.0064 -1.2657
 1564SOL     OW16153   0.977   0.914   5.827  0.2219  0.0434  0.5658
 1564SOL    HW116154   1.062   0.889   5.791  0.0895 -1.1785  1.0765
 1564SOL    HW216155   0.995   1.002   5.860 -1.7106 -0.3359  2.6034
 1565SOL     OW16156   0.687   0.036   8.391 -0.6418  0.1057  0.3062
 1565SOL    HW116157   0.708   0.128   8.408 -2.0003  0.4044  0.3141
 1565SOL    HW216158   0.660   0.041   8.299  2.6410  1.1646 -0.6231
 1566SOL     OW16159   4.270   3.079   4.013  0.1300  0.1094  0.3357
 1566SOL    HW116160   4.240   3.032   3.936 -0.9750 -0.8301  1.3328
 1566SOL    HW216161   4.356   3.117   3.994  1.6154 -2.2965  2.1831
 1567SOL     OW16162   3.516   3.287   3.533 -0.5567  0.1778  0.3563
 1567SOL    HW116163   3.446   3.235   3.492  0.9467 -1.2853 -0.3723
 1567SOL    HW216164   3.476   3.334   3.606  1.9903  1.3650  0.9803
 1568SOL     OW16165   0.537   2.461   0.163 -0.1622 -0.2392  0.1406
 1568SOL    HW116166   0.534   2.397   0.235 -0.6623  0.0805  0.4006
 1568SOL    HW216167   0.628   2.459   0.133 -0.5760  2.9283 -1.2745
 1569SOL     OW16168   2.983   2.778   8.363 -0.0285 -0.4477 -0.1432
 1569SOL    HW116169   2.940   2.736   8.437 -0.3527  1.1491  0.5726
 1569SOL    HW216170   2.943   2.736   8.287 -1.4918 -0.6519  0.7467
 1570SOL     OW16171   0.494   1.823   4.740  0.1768 -0.0335  0.4442
 1570SOL    HW116172   0.436   1.747   4.742 -0.2255  0.2266 -1.2528
 1570SOL    HW216173   0.567   1.779   4.697 -0.8718  1.0237 -2.3938
 1571SOL     OW16174   0.171   3.707  12.508  0.3613  1.1488  0.1305
 1571SOL    HW116175   0.106   3.638  12.517  1.1960  0.0204 -2.5606
 1571SOL    HW216176   0.181   3.701  12.413 -0.4808 -1.8047  0.2229
 1572SOL     OW16177   3.986   2.240   5.004  0.2254  0.4845  0.3439
 1572SOL    HW116178   4.051   2.188   5.051  0.1859 -1.3541 -1.6834
 1572SOL    HW216179   3.912   2.223   5.063 -0.3096  0.8179 -0.2309
 1573SOL     OW16180   3.923   0.054   8.207  0.1678 -0.1547  0.4720
 1573SOL    HW116181   3.901   0.147   8.214  2.5299  0.6539 -2.8099
 1573SOL    HW216182   4.014   0.049   8.175 -0.5065  1.0002 -1.6770
 1574SOL     OW16183   0.978   3.879   1.513  0.2788  0.4758  0.2125
 1574SOL    HW116184   1.044   3.811   1.523 -3.3723 -3.1330 -0.3817
 1574SOL    HW216185   0.911   3.848   1.573 -1.9153  0.5297 -2.2001
 1575SOL     OW16186   2.422   3.611   6.992  0.2556  0.2798 -0.8740
 1575SOL    HW116187   2.477   3.534   6.981 -0.7478 -0.3494 -1.4968
 1575SOL    HW216188   2.343   3.568   6.961  0.3801 -2.4592  2.5778
 1576SOL     OW16189   0.935   0.755   8.950  0.0813 -0.2853  0.5719
 1576SOL    HW116190   0.917   0.845   8.975  1.2988 -0.0364  0.5141
 1576SOL    HW216191   1.001   0.721   9.010  0.9211 -2.3155 -1.5185
 1577SOL     OW16192   3.978   3.254   5.881  0.3326 -0.0496 -1.0218
 1577SOL    HW116193   4.058   3.210   5.851  1.8406  0.7701  1.8374
 1577SOL    HW216194   3.934   3.174   5.911 -0.3405  0.6437 -0.1729
 1578SOL     OW16195   0.865   1.351  12.060  0.6864 -0.3582  0.6957
 1578SOL    HW116196   0.899   1.361  11.971  0.8530  2.0098  1.0212
 1578SOL    HW216197   0.920   1.412  12.109  2.0890  0.6048 -2.1138
 1579SOL     OW16198   0.344   3.248   3.506 -0.6435 -0.0953 -0.0495
 1579SOL    HW116199   0.251   3.231   3.489 -0.3504 -1.2067 -0.5771
 1579SOL    HW216200   0.369   3.300   3.430 -0.7211  0.2229  0.1450
 1580SOL     OW16201   4.645   2.256   6.508 -0.5716 -0.4361  0.4279
 1580SOL    HW116202   4.552   2.245   6.526 -0.8621 -0.8699 -1.3597
 1580SOL    HW216203   4.674   2.184   6.452 -2.3015 -0.8721  0.1136
 1581SOL     OW16204   3.309   0.524  12.552  0.7119 -0.2751  0.3082
 1581SOL    HW116205   3.247   0.556  12.487 -0.1341 -1.0787  0.7167
 1581SOL    HW216206   3.393   0.570  12.549  0.4024  0.2887  0.3228
 1582SOL     OW16207   4.383   4.663   7.783  0.6202 -0.1300 -0.3291
 1582SOL    HW116208   4.391   4.610   7.862  1.1774  1.4434  0.6765
 1582SOL    HW216209   4.468   4.706   7.773  0.6283  0.2124  1.1667
 1583SOL     OW16210   3.300   2.014  15.674  0.0103 -0.6190 -0.1625
 1583SOL    HW116211   3.322   1.960  15.598 -2.2298 -1.9669  0.1559
 1583SOL    HW216212   3.244   2.082  15.636  0.1927 -0.6371 -0.4610
 1584SOL     OW16213   1.071   1.426  12.738  0.1891  0.7297 -0.0544
 1584SOL    HW116214   1.100   1.427  12.647 -2.6599 -0.4543 -0.9790
 1584SOL    HW216215   0.993   1.480  12.733 -1.7760 -2.0139  0.5827
 1585SOL     OW16216   3.137   3.711  17.100  0.1123 -0.4642 -0.7536
 1585SOL    HW116217   3.103   3.768  17.031 -0.6888  1.6745  1.4289
 1585SOL    HW216218   3.206   3.659  17.058  2.3672  2.5456 -0.7997
 1586SOL     OW16219   4.222   3.766   5.534  0.4195 -0.1917  0.0452
 1586SOL    HW116220   4.303   3.751   5.485 -0.1326 -1.8214 -0.3566
 1586SOL    HW216221   4.251   3.844   5.582  1.1761 -1.0283  0.9624
 1587SOL     OW16222   1.359   0.576   4.066 -0.6351  0.2152  0.3960
 1587SOL    HW116223   1.380   0.483   4.063 -2.7547 -0.2331 -0.3046
 1587SOL    HW216224   1.274   0.575   4.110 -0.1401  0.2089  1.3562
 1588SOL     OW16225   2.070   3.289   2.603  1.0075  0.2951 -0.1724
 1588SOL    HW116226   2.019   3.209   2.613  0.7334  0.4498 -0.3306
 1588SOL    HW216227   2.054   3.320   2.692 -1.3082 -1.2920 -0.0260
 1589SOL     OW16228   3.337   1.825   5.563  0.5123  0.2871 -0.4505
 1589SOL    HW116229   3.386   1.852   5.485  0.8532  0.2504 -0.2503
 1589SOL    HW216230   3.401   1.772   5.611  0.1793 -0.1718 -0.5135
 1590SOL     OW16231   2.810   1.713   4.606 -0.0852 -0.0075  0.0287
 1590SOL    HW116232   2.791   1.677   4.519 -2.2632 -0.2527  0.6145
 1590SOL    HW216233   2.726   1.706   4.650 -0.7166  0.1470 -1.1546
 1591SOL     OW16234   0.040   3.876  16.577 -0.5328  0.3133  0.0898
 1591SOL    HW116235   0.024   3.854  16.485 -0.5721 -2.4709  0.7659
 1591SOL    HW216236   0.064   3.789  16.608 -2.0867  0.4367  1.6131
 1592SOL     OW16237   1.248   1.954   7.275 -0.2770 -0.7823  0.1595
 1592SOL    HW116238   1.192   1.909   7.212 -0.5258 -1.7639  1.0712
 1592SOL    HW216239   1.267   2.041   7.240 -0.3434 -0.0910  1.8391
 1593SOL     OW16240   1.167   3.364   4.636  0.6879  0.1309 -0.2041
 1593SOL    HW116241   1.126   3.289   4.679  5.3391 -0.8395  2.5585
 1593SOL    HW216242   1.167   3.334   4.545 -0.8715 -2.2248  0.5740
 1594SOL     OW16243   4.130   4.416   7.133 -0.1741  0.3350 -0.5082
 1594SOL    HW116244   4.188   4.379   7.199 -2.1402 -1.3369  0.3006
 1594SOL    HW216245   4.103   4.343   7.077 -0.7026  0.1328  0.0081
 1595SOL     OW16246   2.372   2.029   0.578 -0.0811  0.3853  0.8613
 1595SOL    HW116247   2.346   2.086   0.650 -1.9199 -1.4828  1.6869
 1595SOL    HW216248   2.287   2.010   0.538  1.4280  0.1226 -2.2034
 1596SOL     OW16249   2.021   4.244   7.739  0.3467 -0.1224 -0.4602
 1596SOL    HW116250   1.966   4.170   7.713  1.8812 -1.7918  1.0208
 1596SOL    HW216251   2.032   4.279   7.651 -1.0947  0.9758 -0.2156
 1597SOL     OW16252   0.130   1.485   5.086 -0.1612  0.2974  0.3103
 1597SOL    HW116253   0.132   1.489   4.990 -0.0844  1.5273  0.3704
 1597SOL    HW216254   0.041   1.499   5.117 -0.2440 -0.5625  0.4690
 1598SOL     OW16255   1.107   4.196   1.002 -0.0721 -0.6141  0.0992
 1598SOL    HW116256   1.138   4.110   0.978  2.2569 -0.0045  0.9444
 1598SOL    HW216257   1.154   4.255   0.943  0.8238 -0.0972  1.3335
 1599SOL     OW16258   2.025   3.696  14.358 -0.1509  0.7258 -0.4670
 1599SOL    HW116259   2.007   3.778  14.311  2.2117  0.7323 -1.3902
 1599SOL    HW216260   1.982   3.630  14.304  1.6782 -0.6435 -0.2561
 1600SOL     OW16261   1.579   2.735   4.434  0.4777  0.2919 -0.2215
 1600SOL    HW116262   1.561   2.747   4.341  0.8786  2.1079 -0.0698
 1600SOL    HW216263   1.578   2.826   4.463  1.1684  0.5324 -0.9549
 1601SOL     OW16264   1.637   4.199   7.624 -0.0014  0.3021  0.0980
 1601SOL    HW116265   1.563   4.181   7.566  1.6581 -1.2838 -1.5417
 1601SOL    HW216266   1.689   4.241   7.555 -0.9138  1.5547  0.1793
 1602SOL     OW16267   4.323   3.734  10.520  0.2361 -0.3426  0.2453
 1602SOL    HW116268   4.241   3.744  10.471  0.0618 -0.8611  0.4272
 1602SOL    HW216269   4.326   3.818  10.565 -2.1660 -0.2744  0.3032
 1603SOL     OW16270   1.391   2.165   8.631  0.0422 -0.6479  0.2395
 1603SOL    HW116271   1.427   2.253   8.624  0.4929 -0.8090  0.5313
 1603SOL    HW216272   1.412   2.145   8.723  0.8602  3.1823  0.8874
 1604SOL     OW16273   4.718   1.708   2.739 -0.3164 -0.2824 -0.3037
 1604SOL    HW116274   4.647   1.701   2.802  2.5358  0.5520  3.0372
 1604SOL    HW216275   0.043   1.787   2.770 -0.8674  0.7610 -2.2060
 1605SOL     OW16276   3.432   4.055   4.805 -0.1529  0.2266  0.7046
 1605SOL    HW116277   3.511   4.013   4.772 -1.0080 -0.9981  0.2024
 1605SOL    HW216278   3.428   4.138   4.756  1.3654 -0.6802 -0.9169
 1606SOL     OW16279   1.212   2.819   3.794 -0.3478 -0.0177  0.4408
 1606SOL    HW116280   1.172   2.870   3.723 -1.1698  0.9070  1.5764
 1606SOL    HW216281   1.154   2.832   3.869 -1.8257  0.4019 -0.7585
 1607SOL     OW16282   2.021   3.231   7.436  0.2633  0.0721  0.2938
 1607SOL    HW116283   2.109   3.256   7.467  0.9163  1.4200 -2.7013
 1607SOL    HW216284   1.977   3.314   7.456 -2.6371 -1.2749 -0.5441
 1608SOL     OW16285   0.810   1.231  14.205  0.0176 -0.1688 -0.1290
 1608SOL    HW116286   0.776   1.216  14.117 -1.2309 -1.3260  0.5706
 1608SOL    HW216287   0.813   1.142  14.238  1.7201 -0.4038 -0.9223
 1609SOL     OW16288   0.833   1.693   8.176  0.1859 -0.0336  0.5673
 1609SOL    HW116289   0.785   1.615   8.204 -0.1680  0.3011  0.8844
 1609SOL    HW216290   0.761   1.751   8.150  0.7023 -0.5181 -1.9338
 1610SOL     OW16291   4.250   1.528   8.629 -0.0642 -0.0160  0.1645
 1610SOL    HW116292   4.263   1.525   8.724 -1.5117  1.3319  0.3927
 1610SOL    HW216293   4.231   1.435   8.620 -0.4894  0.0811  0.0644
 1611SOL     OW16294   1.427   2.041   5.821  0.1718  0.1125  0.2782
 1611SOL    HW116295   1.401   2.133   5.815 -0.5806 -0.1932 -1.2188
 1611SOL    HW216296   1.426   2.010   5.730  0.7394 -1.1451  0.6912
 1612SOL     OW16297   3.424   4.255   0.556  0.0126  0.6383  0.2740
 1612SOL    HW116298   3.403   4.341   0.592 -1.5995  0.2413  0.3008
 1612SOL    HW216299   3.380   4.196   0.617  0.0590  0.3952  0.0762
 1613SOL     OW16300   4.463   3.216   4.696 -0.1000 -0.6116  0.2236
 1613SOL    HW116301   4.433   3.306   4.680 -0.5269 -1.1014 -1.8006
 1613SOL    HW216302   4.402   3.196   4.766  0.1702  0.6476  0.8208
 1614SOL     OW16303   3.175   3.872   3.058  0.4723 -0.3376 -0.6121
 1614SOL    HW116304   3.196   3.851   2.967  2.2187  0.4386 -0.3984
 1614SOL    HW216305   3.154   3.785   3.090  0.2863 -0.1188 -0.1324
 1615SOL     OW16306   4.427   3.019   8.331  0.7608 -0.0008 -0.7720
 1615SOL    HW116307   4.459   2.933   8.359  1.6180  1.3905  2.4576
 1615SOL    HW216308   4.446   3.074   8.407 -0.7230 -0.8089  0.1760
 1616SOL     OW16309   1.025   2.267  15.664 -0.0455  0.0243 -0.6026
 1616SOL    HW116310   1.074   2.189  15.639 -1.4121 -1.3630  1.0678
 1616SOL    HW216311   0.985   2.295  15.582  0.0724  1.6813 -0.0992
 1617SOL     OW16312   3.858   1.003   3.232 -0.1802 -0.1431 -0.3358
 1617SOL    HW116313   3.786   0.948   3.202  0.0236  0.0713 -1.2178
 1617SOL    HW216314   3.915   0.932   3.262 -2.2203 -0.1013  3.5877
 1618SOL     OW16315   0.130   2.315   3.401 -0.6429  0.2327  0.0314
 1618SOL    HW116316   0.086   2.393   3.366 -0.5747 -0.4287 -1.5098
 1618SOL    HW216317   0.062   2.266   3.447 -0.3770  0.9170  1.1564
 1619SOL     OW16318   0.492   1.985   2.156 -0.3488 -0.0423  0.0566
 1619SOL    HW116319   0.436   1.928   2.209 -1.5165  0.7410 -0.3377
 1619SOL    HW216320   0.509   1.937   2.075 -1.1735  1.4166 -0.9643
 1620SOL     OW16321   1.797   4.458  10.664  0.5231  0.4727 -0.3015
 1620SOL    HW116322   1.886   4.492  10.652  0.1098  1.2007 -1.3186
 1620SOL    HW216323   1.787   4.404  10.585  0.0115 -0.3348  0.3234
 1621SOL     OW16324   2.427   4.084   5.220 -0.0253  0.1204 -0.6502
 1621SOL    HW116325   2.440   4.148   5.290 -1.9114 -0.7317  0.4707
 1621SOL    HW216326   2.462   4.004   5.259 -1.6738  0.6854  2.0113
 1622SOL     OW16327   4.347   2.963  10.590 -0.1638 -0.3333 -0.6648
 1622SOL    HW116328   4.293   2.888  10.616  0.1312 -0.2667  0.1472
 1622SOL    HW216329   4.431   2.920  10.574  0.3505  0.3465  0.2599
 1623SOL     OW16330   1.819   0.162   8.006 -0.8994 -0.1761  0.0669
 1623SOL    HW116331   1.791   0.219   7.935 -0.6934 -0.9992 -0.6761
 1623SOL    HW216332   1.836   0.224   8.077 -2.6991  0.9689 -0.5185
 1624SOL     OW16333   0.848   2.935   1.899 -0.3382 -0.3626  0.5627
 1624SOL    HW116334   0.857   2.847   1.935  0.2469  0.1953  1.7674
 1624SOL    HW216335   0.813   2.922   1.810  1.0727 -1.6927  0.1918
 1625SOL     OW16336   1.464   3.733  14.252 -0.1077 -0.5033 -0.1048
 1625SOL    HW116337   1.403   3.807  14.249  0.4524 -0.0851 -0.8449
 1625SOL    HW216338   1.534   3.759  14.193 -0.1155 -0.5394 -0.1300
 1626SOL     OW16339   3.823   1.596   2.740 -0.0571 -0.5396 -0.2144
 1626SOL    HW116340   3.758   1.600   2.811  0.0400  0.7649 -0.2003
 1626SOL    HW216341   3.790   1.658   2.675  1.5214  0.8765  0.3287
 1627SOL     OW16342   0.837   4.503   8.155  0.4992 -0.4150  0.1105
 1627SOL    HW116343   0.811   4.565   8.223 -0.3447 -2.7742  1.9321
 1627SOL    HW216344   0.907   4.549   8.108  0.1884 -0.1770 -0.1207
 1628SOL     OW16345   2.883   3.641  14.153 -0.0471  0.4726  0.1721
 1628SOL    HW116346   2.838   3.688  14.223  0.6227  3.1443 -1.1969
 1628SOL    HW216347   2.966   3.688  14.142 -1.1235  2.3510  0.0493
 1629SOL     OW16348   1.699   3.748   8.258 -0.1798  0.2996  0.2156
 1629SOL    HW116349   1.606   3.765   8.244  0.1412  0.5654 -1.6090
 1629SOL    HW216350   1.708   3.805   8.334 -1.9055  1.3289 -0.3474
 1630SOL     OW16351   1.805   4.247  16.961 -0.1129 -0.1878  0.5292
 1630SOL    HW116352   1.832   4.160  16.931 -0.5661  1.2465 -4.1257
 1630SOL    HW216353   1.776   4.285  16.878 -1.4330 -0.1060  1.0329
 1631SOL     OW16354   0.485   4.243   4.410 -0.2491 -0.1577  0.0851
 1631SOL    HW116355   0.504   4.285   4.494 -3.1218  1.5180 -0.0999
 1631SOL    HW216356   0.438   4.318   4.375 -0.6576 -0.1017  0.7507
 1632SOL     OW16357   1.366   0.811   5.576  0.7276  0.4082  0.2364
 1632SOL    HW116358   1.297   0.829   5.512 -0.9610 -1.3094  1.6156
 1632SOL    HW216359   1.364   0.901   5.608 -1.1752  0.4447  0.0104
 1633SOL     OW16360   2.360   1.130   4.144 -0.2672 -0.2906  0.0455
 1633SOL    HW116361   2.435   1.112   4.201 -0.9208 -2.1285  0.3476
 1633SOL    HW216362   2.344   1.047   4.099  2.1543 -0.3220 -0.7281
 1634SOL     OW16363   2.058   2.840   7.245 -0.3451 -0.0129  0.4176
 1634SOL    HW116364   2.033   2.924   7.207 -0.3073 -0.1047  0.1865
 1634SOL    HW216365   2.022   2.777   7.183  0.1573  0.1455 -0.0389
 1635SOL     OW16366   0.631   4.481  16.040 -0.3049  0.2687  0.3175
 1635SOL    HW116367   0.556   4.437  16.000  2.1615 -2.3528 -1.4221
 1635SOL    HW216368   0.668   4.527  15.965 -2.5005  0.2775 -0.7723
 1636SOL     OW16369   2.152   0.740  10.948 -0.2682  0.0166 -0.3427
 1636SOL    HW116370   2.225   0.779  10.997 -1.2102  0.6880  0.5337
 1636SOL    HW216371   2.105   0.819  10.921  0.7030  0.7881  0.2270
 1637SOL     OW16372   3.822   4.482   6.378 -0.2433  0.4210 -0.4540
 1637SOL    HW116373   3.817   4.578   6.377  1.8562  0.5232 -1.9129
 1637SOL    HW216374   3.853   4.465   6.289 -0.2577  2.3817 -0.8488
 1638SOL     OW16375   2.859   0.598   4.069  0.4240  0.2184  0.5184
 1638SOL    HW116376   2.902   0.599   3.984  0.0631 -1.1436  0.3344
 1638SOL    HW216377   2.846   0.693   4.069 -1.5329 -0.0449  0.8403
 1639SOL     OW16378   2.147   3.692   3.979 -0.2977  0.1837 -0.1378
 1639SOL    HW116379   2.167   3.779   3.944  1.7968 -0.5495 -0.7733
 1639SOL    HW216380   2.195   3.636   3.918  4.8661  1.9870  2.2354
 1640SOL     OW16381   4.580   1.507   6.892 -0.0820 -0.3842 -0.1511
 1640SOL    HW116382   4.596   1.440   6.826 -1.9401 -1.4297  0.4510
 1640SOL    HW216383   4.553   1.578   6.834  1.1246  1.1806  1.2070
 1641SOL     OW16384   3.268   4.545  13.263 -0.3560 -0.2109 -0.4689
 1641SOL    HW116385   3.189   4.526  13.214 -2.6682  0.6574  2.8923
 1641SOL    HW216386   3.285   4.634  13.230  2.0507 -0.2739  0.6284
 1642SOL     OW16387   4.715   4.683   4.325  0.5616 -0.0184  0.0959
 1642SOL    HW116388   0.003   4.627   4.402  1.1269  0.5784  0.4665
 1642SOL    HW216389   4.634   0.014   4.332 -0.1133 -1.0928  0.1277
 1643SOL     OW16390   4.119   1.556  12.748  0.2245 -0.0386  0.3496
 1643SOL    HW116391   4.079   1.629  12.795  1.0247  1.0527 -0.6594
 1643SOL    HW216392   4.201   1.540  12.794  0.9805 -4.5860 -2.6293
 1644SOL     OW16393   1.131   2.613   8.756 -0.1764 -0.2362  0.9801
 1644SOL    HW116394   1.051   2.576   8.796 -0.5394  0.2953  0.7445
 1644SOL    HW216395   1.193   2.544   8.780 -2.5210 -2.1887  1.4441
 1645SOL     OW16396   4.661   3.496   8.292  0.8224 -0.1894  0.1446
 1645SOL    HW116397   4.720   3.467   8.221  1.2567  1.0414 -0.0100
 1645SOL    HW216398   4.700   3.582   8.308 -1.1456  1.0981 -1.9090
 1646SOL     OW16399   0.229   2.385   3.884 -0.0955  0.0817 -0.5332
 1646SOL    HW116400   0.233   2.290   3.872 -0.5602 -0.1008  0.7325
 1646SOL    HW216401   0.158   2.397   3.948 -0.8071 -2.7733 -0.7923
 1647SOL     OW16402   2.194   3.784   2.236  0.0088 -0.1922  0.1542
 1647SOL    HW116403   2.110   3.829   2.245 -0.2245 -0.2588 -1.6254
 1647SOL    HW216404   2.161   3.697   2.211  0.4741  0.0841 -1.4593
 1648SOL     OW16405   0.674   1.541   5.251 -0.6104 -0.3685  0.2973
 1648SOL    HW116406   0.645   1.630   5.232 -0.3764 -0.5894 -1.0855
 1648SOL    HW216407   0.762   1.542   5.214 -0.3396 -2.6933  0.8660
 1649SOL     OW16408   2.771   4.173   3.676  0.8548  0.2454 -0.0734
 1649SOL    HW116409   2.866   4.170   3.673  0.8520 -0.5968  0.7306
 1649SOL    HW216410   2.754   4.147   3.585  0.5414 -0.6214  0.2298
 1650SOL     OW16411   1.929   0.292   9.078  0.5561 -0.3588 -0.2474
 1650SOL    HW116412   1.981   0.372   9.068  0.2456 -0.3187 -1.6524
 1650SOL    HW216413   1.847   0.331   9.047  0.3003 -0.1397  0.7177
 1651SOL     OW16414   4.655   2.832   6.881 -0.5185  0.1274  0.3639
 1651SOL    HW116415   4.643   2.897   6.812  3.7999  1.2251  0.6563
 1651SOL    HW216416   0.029   2.815   6.894 -0.6107 -0.7008 -0.0038
 1652SOL     OW16417   3.989   0.926   1.511  0.0986  0.9014  0.3920
 1652SOL    HW116418   3.895   0.916   1.525 -0.0360  1.6257  0.0011
 1652SOL    HW216419   4.007   1.013   1.549 -0.3096  0.7618  0.9103
 1653SOL     OW16420   2.335   1.366   4.004  0.2377 -0.1788  0.2579
 1653SOL    HW116421   2.292   1.410   4.078 -0.2636  0.0175 -0.1491
 1653SOL    HW216422   2.318   1.278   4.038 -0.8082 -0.5302 -1.1692
 1654SOL     OW16423   1.234   0.325   6.559  0.4090 -0.2476  0.1928
 1654SOL    HW116424   1.210   0.289   6.645  0.4953 -1.7070 -0.3947
 1654SOL    HW216425   1.292   0.258   6.522 -2.5208 -1.2136 -2.6858
 1655SOL     OW16426   0.672   0.793  16.307 -0.6992 -0.2682 -1.1857
 1655SOL    HW116427   0.747   0.754  16.261  0.6931  3.1351 -1.7970
 1655SOL    HW216428   0.713   0.827  16.386  0.6761  0.5288 -2.2352
 1656SOL     OW16429   1.471   3.439   0.629 -0.7224  0.3052 -0.7037
 1656SOL    HW116430   1.525   3.375   0.674 -1.4167  1.7460  2.1997
 1656SOL    HW216431   1.526   3.517   0.640  0.5586 -0.9510  1.7335
 1657SOL     OW16432   0.803   3.652   1.264  0.2580  0.2578 -0.0035
 1657SOL    HW116433   0.795   3.714   1.191 -1.6779  0.4120  0.3397
 1657SOL    HW216434   0.740   3.691   1.324  1.6476  1.4793  0.6676
 1658SOL     OW16435   3.603   3.887  15.976 -0.4528  0.1047 -0.5174
 1658SOL    HW116436   3.570   3.895  16.065  1.9479  1.7061  0.2446
 1658SOL    HW216437   3.630   3.976  15.953  0.3606 -0.0383 -0.1020
 1659SOL     OW16438   1.693   2.506   3.888  0.1876  0.1032 -0.2054
 1659SOL    HW116439   1.789   2.513   3.879  0.2243  0.0430  0.1687
 1659SOL    HW216440   1.686   2.413   3.909  0.3761  0.4897  1.5665
 1660SOL     OW16441   4.531   1.075   7.916  0.5124 -0.2608  0.6683
 1660SOL    HW116442   4.614   1.118   7.899 -0.4412  0.8281 -1.2737
 1660SOL    HW216443   4.539   1.001   7.857  0.2053  0.2598 -0.0326
 1661SOL     OW16444   2.595   3.306  11.240 -0.4437 -0.2825  0.2228
 1661SOL    HW116445   2.588   3.212  11.255 -0.3214 -0.3359 -0.0564
 1661SOL    HW216446   2.618   3.304  11.147 -0.9670  1.7467  0.0501
 1662SOL     OW16447   0.298   1.433   7.878  0.2191 -0.2800  0.0785
 1662SOL    HW116448   0.205   1.455   7.871  0.5537  0.6150 -1.4944
 1662SOL    HW216449   0.343   1.502   7.830  1.8236 -1.1815  0.2903
 1663SOL     OW16450   2.956   2.007   2.855 -0.0158 -0.3725  0.1509
 1663SOL    HW116451   2.887   2.070   2.874  0.1399 -0.2118  0.1828
 1663SOL    HW216452   2.996   1.999   2.942  1.6633 -2.5034 -0.8178
 1664SOL     OW16453   0.868   1.811  16.234 -0.1739 -0.1184 -0.5722
 1664SOL    HW116454   0.937   1.865  16.197  0.7917 -1.2000 -0.3443
 1664SOL    HW216455   0.795   1.834  16.175 -0.4091 -1.6707 -0.8753
 1665SOL     OW16456   4.436   3.107   7.714 -0.4587 -0.0511 -0.0143
 1665SOL    HW116457   4.471   3.055   7.786 -1.4048  0.4943  0.8429
 1665SOL    HW216458   4.435   3.055   7.634  1.0659  0.2341 -0.2031
 1666SOL     OW16459   2.279   1.659  11.354  0.1252  0.2808 -0.2965
 1666SOL    HW116460   2.213   1.595  11.381  0.5250  0.6221  1.5207
 1666SOL    HW216461   2.336   1.653  11.431  1.9592  0.6827 -1.6161
 1667SOL     OW16462   0.126   3.095   6.847  0.5535  0.2443  0.5104
 1667SOL    HW116463   0.076   3.147   6.785  1.9893  0.8746 -0.1304
 1667SOL    HW216464   0.192   3.063   6.785 -0.6132  0.0475 -0.6243
 1668SOL     OW16465   4.369   1.482  14.360  0.2260 -0.1997  0.2134
 1668SOL    HW116466   4.447   1.429  14.379 -1.5207 -2.4423  1.2145
 1668SOL    HW216467   4.306   1.419  14.325 -0.7421  2.0373 -2.0224
 1669SOL     OW16468   2.841   0.862   3.196 -0.1643  0.3142 -0.3150
 1669SOL    HW116469   2.864   0.831   3.283  1.8798  0.8289 -0.6779
 1669SOL    HW216470   2.895   0.803   3.143  1.7530  0.9644  0.8882
 1670SOL     OW16471   2.252   3.699   5.821 -0.6350 -0.4517 -0.3819
 1670SOL    HW116472   2.282   3.718   5.910  0.5537  0.8919 -1.0644
 1670SOL    HW216473   2.262   3.604   5.813 -0.7156 -0.5178  0.2821
 1671SOL     OW16474   3.583   3.256  16.204  0.1231 -0.2188  0.1467
 1671SOL    HW116475   3.507   3.207  16.233  0.1915 -0.6407 -0.3856
 1671SOL    HW216476   3.550   3.346  16.209  1.4154  0.4030 -2.2614
 1672SOL     OW16477   1.295   0.628  12.823  0.0576 -0.7324  0.4189
 1672SOL    HW116478   1.239   0.685  12.771  2.0256  2.3027  1.6486
 1672SOL    HW216479   1.232   0.583  12.880  1.5547 -1.8075  1.2347
 1673SOL     OW16480   1.441   0.170   6.168  0.5615  0.3118  0.0003
 1673SOL    HW116481   1.454   0.075   6.171 -2.0346 -0.0150  0.9160
 1673SOL    HW216482   1.345   0.174   6.166  0.6167  1.0835 -1.2782
 1674SOL     OW16483   1.203   2.672   1.943  0.1474 -0.3164  0.1162
 1674SOL    HW116484   1.151   2.640   1.869 -0.3326  0.6689  0.0249
 1674SOL    HW216485   1.260   2.734   1.897  0.6685 -1.3211 -0.5677
 1675SOL     OW16486   1.524   4.370   8.677  0.8586 -0.3281 -0.0026
 1675SOL    HW116487   1.452   4.327   8.631 -0.0466  2.0844 -0.8205
 1675SOL    HW216488   1.557   4.295   8.728 -1.7072 -0.1752  1.9145
 1676SOL     OW16489   1.371   4.273   7.857 -0.4760 -0.1344 -0.4313
 1676SOL    HW116490   1.297   4.254   7.800 -0.2044  0.1901 -0.8915
 1676SOL    HW216491   1.351   4.215   7.930  0.0219  0.2557  0.0225
 1677SOL     OW16492   4.325   3.323   3.366 -0.3030  0.0424  0.4311
 1677SOL    HW116493   4.265   3.392   3.339 -1.0460 -1.2823 -1.2147
 1677SOL    HW216494   4.411   3.362   3.351 -0.4713 -0.0039 -0.6330
 1678SOL     OW16495   3.758   0.029  16.287  0.8255 -0.1775 -0.1285
 1678SOL    HW116496   3.800   0.066  16.209 -0.6699  1.5471 -0.1241
 1678SOL    HW216497   3.795   4.661  16.290  0.9160 -0.1711 -0.9621
 1679SOL     OW16498   0.666   4.688   9.133 -0.0074 -0.0139 -0.2942
 1679SOL    HW116499   0.732   0.005   9.075  1.0049 -1.0447  0.2102
 1679SOL    HW216500   0.715   4.679   9.215 -3.1659  0.1540  1.6090
 1680SOL     OW16501   4.406   0.344   1.274  0.6671  0.0368  0.1763
 1680SOL    HW116502   4.499   0.336   1.250  0.8555  3.4305 -0.1948
 1680SOL    HW216503   4.366   0.383   1.197 -1.6033  0.1509  1.4090
 1681SOL     OW16504   1.561   2.930  12.383 -0.8342 -0.5123  0.1310
 1681SOL    HW116505   1.495   2.866  12.359 -0.0506 -1.0504 -0.6001
 1681SOL    HW216506   1.630   2.907  12.321  0.5708  1.7591  0.8472
 1682SOL     OW16507   0.054   0.069   8.038  0.0563 -0.1459 -0.0438
 1682SOL    HW116508   0.005   0.132   8.091 -0.0827  0.4785 -0.9079
 1682SOL    HW216509   0.050   0.115   7.954 -0.6358 -1.9731 -1.0124
 1683SOL     OW16510   2.405   0.439   2.596  0.2787 -0.7831  0.3122
 1683SOL    HW116511   2.464   0.492   2.649 -0.3070 -1.1272  1.3158
 1683SOL    HW216512   2.454   0.357   2.596  0.8154 -0.4630  0.4855
 1684SOL     OW16513   0.549   0.468   8.096 -0.3055  0.2532  0.0450
 1684SOL    HW116514   0.463   0.435   8.068  0.2361 -0.0881 -1.1841
 1684SOL    HW216515   0.582   0.500   8.013 -0.7337  2.4714  0.7371
 1685SOL     OW16516   1.381   3.105   7.299  0.1341  0.0325 -0.1305
 1685SOL    HW116517   1.300   3.069   7.264  1.1153 -1.3347 -1.0095
 1685SOL    HW216518   1.419   3.049   7.367 -1.1727  0.5158  1.0037
 1686SOL     OW16519   4.425   2.632   5.378 -0.2559 -0.1093  0.0704
 1686SOL    HW116520   4.439   2.720   5.411  0.7550  0.6410 -2.3636
 1686SOL    HW216521   4.487   2.581   5.429 -1.2203  0.5518  1.9048
 1687SOL     OW16522   2.110   2.004   7.255 -0.2429  0.2818  0.6582
 1687SOL    HW116523   2.155   2.076   7.211  0.8164 -2.1507 -2.2677
 1687SOL    HW216524   2.024   2.009   7.214  0.8336  3.7192 -1.1054
 1688SOL     OW16525   3.990   0.958  10.687  0.1551 -0.0016  0.0349
 1688SOL    HW116526   4.046   0.909  10.627 -0.7365 -0.8764 -0.0717
 1688SOL    HW216527   3.904   0.934  10.654 -0.5597  3.9874 -1.0434
 1689SOL     OW16528   4.408   0.218   7.498  0.5925  0.2139  0.2004
 1689SOL    HW116529   4.328   0.171   7.518 -0.9305  1.9817 -1.6902
 1689SOL    HW216530   4.426   0.256   7.584  1.4894 -0.6096  0.3825
 1690SOL     OW16531   3.826   3.240   5.583  0.4227 -0.6552  0.0060
 1690SOL    HW116532   3.830   3.183   5.660 -0.2649 -0.3041  0.3152
 1690SOL    HW216533   3.904   3.295   5.593  1.5482 -2.1364 -0.8181
 1691SOL     OW16534   2.771   0.244   0.414  0.1854 -0.5632 -0.6386
 1691SOL    HW116535   2.811   0.184   0.477 -0.1739 -0.2170 -0.0788
 1691SOL    HW216536   2.791   0.330   0.450 -1.1069 -0.0734 -1.1015
 1692SOL     OW16537   0.066   0.216   0.848  0.4586 -0.0725 -0.3862
 1692SOL    HW116538   0.008   0.292   0.839  0.4325 -0.0192  0.1760
 1692SOL    HW216539   0.010   0.139   0.845  0.8479 -0.2525 -2.7947
 1693SOL     OW16540   2.705   2.370   3.165  0.0598  0.1082  0.2014
 1693SOL    HW116541   2.769   2.303   3.187  0.0655  0.1525  0.3197
 1693SOL    HW216542   2.644   2.336   3.230  0.3101 -2.6799 -1.0193
 1694SOL     OW16543   3.537   0.439   8.694 -0.6573  0.3414  0.4298
 1694SOL    HW116544   3.523   0.408   8.783 -0.8838  3.4807  1.4774
 1694SOL    HW216545   3.594   0.514   8.711 -1.6272  0.8336  1.5198
 1695SOL     OW16546   4.339   1.971   1.702 -0.4241  0.6262  0.1729
 1695SOL    HW116547   4.346   1.910   1.776 -2.3251  0.2683  0.0387
 1695SOL    HW216548   4.245   1.985   1.710 -0.5033  0.8017 -1.0579
 1696SOL     OW16549   3.431   3.291   6.175 -0.1962 -0.2572 -0.3579
 1696SOL    HW116550   3.384   3.363   6.217  1.5289  0.6446  0.0329
 1696SOL    HW216551   3.415   3.211   6.224 -0.6407 -0.6595 -1.1499
 1697SOL     OW16552   2.465   2.606   2.183 -0.4998  0.0117 -0.0880
 1697SOL    HW116553   2.475   2.536   2.248 -0.2507  0.0546 -0.0784
 1697SOL    HW216554   2.515   2.677   2.225 -0.7165  0.1349 -0.0383
 1698SOL     OW16555   0.397   0.547   6.567  0.2928  0.4851  0.0215
 1698SOL    HW116556   0.434   0.461   6.553  0.5800  0.3333  1.8488
 1698SOL    HW216557   0.472   0.604   6.550 -0.3132  1.6545  1.2705
 1699SOL     OW16558   1.084   4.145   2.582  0.0272  0.1076 -0.0184
 1699SOL    HW116559   1.065   4.069   2.527 -2.3473 -0.5283  1.6860
 1699SOL    HW216560   1.055   4.108   2.665  4.0732 -0.6177  1.0649
 1700SOL     OW16561   3.575   3.874  11.754 -0.0352 -0.1353 -0.0404
 1700SOL    HW116562   3.639   3.890  11.685  0.8114 -1.6296  0.3957
 1700SOL    HW216563   3.490   3.892  11.715  0.1026 -1.2495 -0.8552
 1701SOL     OW16564   1.692   0.149   1.127 -0.8406  0.2142  0.2710
 1701SOL    HW116565   1.760   0.199   1.174 -0.3502 -1.4258  1.3186
 1701SOL    HW216566   1.699   0.060   1.161 -1.2763 -0.3879 -1.2723
 1702SOL     OW16567   4.581   2.773   1.259 -0.4114  0.1825 -0.2722
 1702SOL    HW116568   4.556   2.724   1.180 -1.8422 -0.0888  0.3537
 1702SOL    HW216569   4.509   2.752   1.318  0.1064 -2.0964 -0.4319
 1703SOL     OW16570   1.189   3.268  16.941 -0.0688 -0.3022 -0.2044
 1703SOL    HW116571   1.214   3.355  16.908  1.8410 -0.4335  0.9235
 1703SOL    HW216572   1.277   3.231  16.948  0.0935  0.3738  1.4728
 1704SOL     OW16573   1.331   3.324   1.090 -0.8335 -0.2970  0.9929
 1704SOL    HW116574   1.383   3.400   1.115 -0.8825  0.4564 -1.2713
 1704SOL    HW216575   1.284   3.352   1.011  0.1603 -1.5593 -0.0464
 1705SOL     OW16576   0.335   2.813  17.497 -1.0057 -0.7870 -0.4400
 1705SOL    HW116577   0.337   2.739  17.437 -2.4167 -2.5131  1.6209
 1705SOL    HW216578   0.314   2.763  17.576 -0.6473 -0.6709 -0.2726
 1706SOL     OW16579   3.437   3.460   0.892  0.3448  0.0491 -0.5278
 1706SOL    HW116580   3.410   3.440   0.982  0.3337 -0.4193 -0.6364
 1706SOL    HW216581   3.532   3.472   0.900  0.1366  1.0650  0.3215
 1707SOL     OW16582   0.855   2.383   3.681  0.2820 -0.7304 -0.1504
 1707SOL    HW116583   0.857   2.324   3.757  0.6890  0.0679  0.4532
 1707SOL    HW216584   0.805   2.456   3.718  1.6950 -0.5461  1.3677
 1708SOL     OW16585   1.595   0.976  16.318  0.6945 -0.4412  0.0968
 1708SOL    HW116586   1.550   1.041  16.263  0.9189  0.4495  0.9631
 1708SOL    HW216587   1.541   0.897  16.309 -0.6791  0.5412 -0.2594
 1709SOL     OW16588   0.313   1.781   9.278  0.3602 -0.3024  0.0392
 1709SOL    HW116589   0.371   1.762   9.352  1.2214  0.0966 -0.5377
 1709SOL    HW216590   0.273   1.694   9.269 -0.2658 -0.0087 -0.0019
 1710SOL     OW16591   0.622   4.252   4.882  0.3969 -0.3672  0.0216
 1710SOL    HW116592   0.597   4.202   4.960 -2.5213 -1.4229 -1.5774
 1710SOL    HW216593   0.636   4.179   4.821 -0.1037 -0.0826 -0.4265
 1711SOL     OW16594   0.422   3.157  12.792 -0.3898  0.0124  0.2190
 1711SOL    HW116595   0.331   3.173  12.817 -0.6520 -0.2347 -0.5936
 1711SOL    HW216596   0.448   3.090  12.856 -2.9976  0.5351  1.8051
 1712SOL     OW16597   1.821   0.320   4.470  0.6328  0.4708 -0.6935
 1712SOL    HW116598   1.754   0.364   4.418  0.4316  0.7746 -0.1734
 1712SOL    HW216599   1.811   0.227   4.451 -2.1403  1.0068 -1.8050
 1713SOL     OW16600   1.893   1.475   4.066 -0.4780  0.5261  0.1697
 1713SOL    HW116601   1.957   1.446   4.001 -1.0691  0.5764 -0.4447
 1713SOL    HW216602   1.921   1.423   4.141 -0.7522  0.1974  0.0426
 1714SOL     OW16603   3.657   1.462   2.026  0.2605  0.3441 -0.1520
 1714SOL    HW116604   3.602   1.418   1.960 -1.6039  1.7894  0.4458
 1714SOL    HW216605   3.656   1.405   2.103 -1.1797  2.0594  1.0935
 1715SOL     OW16606   4.362   3.455  13.564  0.0252  0.0967 -0.0012
 1715SOL    HW116607   4.315   3.507  13.629  1.7761  1.0932  0.4795
 1715SOL    HW216608   4.441   3.424  13.611  0.5186 -0.4073 -1.1599
 1716SOL     OW16609   4.328   4.038   5.645 -0.2407 -0.5008 -0.3678
 1716SOL    HW116610   4.372   4.037   5.730  0.1986 -0.4740 -0.5958
 1716SOL    HW216611   4.364   4.110   5.594 -0.4286  0.0764  0.3116
 1717SOL     OW16612   0.205   2.685  15.359 -0.4777 -0.7770  0.4050
 1717SOL    HW116613   0.138   2.718  15.300 -1.1898 -1.7096  0.7033
 1717SOL    HW216614   0.276   2.665  15.298  0.1346 -4.4788  2.3019
 1718SOL     OW16615   3.230   4.436   2.926 -0.0598  0.7453 -0.2978
 1718SOL    HW116616   3.194   4.366   2.871 -0.4879 -1.6288  3.0397
 1718SOL    HW216617   3.314   4.449   2.883 -0.2450 -0.4399 -1.0150
 1719SOL     OW16618   3.135   3.741   5.562  0.6879 -0.1154  0.1346
 1719SOL    HW116619   3.117   3.764   5.471 -1.2143 -0.7013  0.3689
 1719SOL    HW216620   3.124   3.646   5.561 -0.5314  0.0373 -0.3229
 1720SOL     OW16621   4.554   2.222   9.177 -0.0494 -0.1860 -0.3143
 1720SOL    HW116622   4.612   2.187   9.109  1.6276 -1.4919  1.8015
 1720SOL    HW216623   4.523   2.295   9.123 -1.9220 -1.5962 -1.1367
 1721SOL     OW16624   4.380   3.190  11.808  0.0131 -0.1013 -0.0329
 1721SOL    HW116625   4.472   3.215  11.806  0.5666 -2.1512 -0.4524
 1721SOL    HW216626   4.376   3.130  11.882 -2.0203 -0.5934 -0.5395
 1722SOL     OW16627   4.711   2.276   2.912 -0.3589 -0.4493 -0.7258
 1722SOL    HW116628   0.001   2.262   3.006 -1.5020  1.5798 -0.3084
 1722SOL    HW216629   4.669   2.362   2.908 -2.2204 -1.4328 -2.1531
 1723SOL     OW16630   0.128   4.273   8.480  0.2038  0.2873  0.5625
 1723SOL    HW116631   0.127   4.230   8.394 -1.4474 -0.0592  0.7568
 1723SOL    HW216632   0.057   4.228   8.526 -0.3442 -0.3802 -0.9337
 1724SOL     OW16633   4.512   1.455   1.831 -0.6177 -0.1327  0.8226
 1724SOL    HW116634   4.473   1.368   1.823 -0.0039 -0.7012  4.2099
 1724SOL    HW216635   4.498   1.481   1.922  2.4217  1.6615  0.7777
 1725SOL     OW16636   1.613   2.715   3.506  0.2041 -0.1235  0.1305
 1725SOL    HW116637   1.546   2.736   3.442 -0.2187 -0.4181  0.4775
 1725SOL    HW216638   1.605   2.620   3.506 -1.0689 -0.0070 -0.6430
 1726SOL     OW16639   0.420   3.974   7.813  0.0053  0.0754 -0.7308
 1726SOL    HW116640   0.428   3.979   7.908  1.4347 -3.9596 -0.6414
 1726SOL    HW216641   0.504   3.931   7.799  0.2785  0.3964 -0.0512
 1727SOL     OW16642   4.247   3.957   8.378 -0.5929  0.2827 -0.1842
 1727SOL    HW116643   4.261   3.863   8.377  1.6387  0.6174 -0.8724
 1727SOL    HW216644   4.318   3.997   8.328 -0.4118 -2.4072 -2.0495
 1728SOL     OW16645   0.197   2.669   8.733 -0.1117  0.1123  0.5622
 1728SOL    HW116646   0.136   2.602   8.704 -0.0089  0.5984 -0.7505
 1728SOL    HW216647   0.275   2.636   8.689 -0.3250  0.5831 -0.1562
 1729SOL     OW16648   4.694   2.370   2.530 -0.5563  0.0797  0.4590
 1729SOL    HW116649   4.614   2.319   2.524 -0.6297  0.0545  1.8769
 1729SOL    HW216650   0.041   2.305   2.553 -0.4779 -0.3451 -0.9150
 1730SOL     OW16651   0.096   0.241   3.755 -0.1599 -0.2841  0.0373
 1730SOL    HW116652   0.094   0.264   3.848  1.4066 -0.1574  0.0409
 1730SOL    HW216653   0.190   0.252   3.741  0.0417 -1.4425  0.5292
 1731SOL     OW16654   3.664   3.599   5.217 -0.1449  0.0924 -1.1941
 1731SOL    HW116655   3.673   3.603   5.312 -0.6329  0.3529 -1.1613
 1731SOL    HW216656   3.626   3.682   5.188 -1.4682  0.2981  1.1545
 1732SOL     OW16657   3.008   3.881  14.356 -0.2572  0.0890 -0.2834
 1732SOL    HW116658   2.919   3.851  14.375 -0.9282  2.7765  0.8387
 1732SOL    HW216659   3.058   3.801  14.343  0.1863  0.0679  1.5432
 1733SOL     OW16660   4.624   3.767   9.605 -0.1289  0.0332  0.2373
 1733SOL    HW116661   4.601   3.813   9.524  1.3502  0.8763  0.3050
 1733SOL    HW216662   4.716   3.792   9.601 -0.0181 -0.0508  2.6056
 1734SOL     OW16663   2.940   3.940  11.442 -0.5778 -0.4129  0.3888
 1734SOL    HW116664   2.973   4.030  11.437 -0.0877 -0.6826 -1.2172
 1734SOL    HW216665   2.884   3.953  11.518  1.5980  0.2103  1.9051
 1735SOL     OW16666   2.687   2.160   5.494  0.6380 -0.4231  0.3295
 1735SOL    HW116667   2.781   2.165   5.507  1.0419 -4.0461 -1.0465
 1735SOL    HW216668   2.690   2.136   5.401  1.7837 -0.0243  0.2635
 1736SOL     OW16669   3.347   0.027   0.940 -0.0572  0.2558 -0.0679
 1736SOL    HW116670   3.337   0.118   0.966 -0.4265  0.3468 -0.5343
 1736SOL    HW216671   3.265   4.719   0.898  0.9881  0.5650 -2.2980
 1737SOL     OW16672   4.656   1.231   5.699 -0.1166  0.0476  0.0342
 1737SOL    HW116673   4.626   1.206   5.611  0.3071  1.4483 -0.5169
 1737SOL    HW216674   4.582   1.200   5.752  0.7769  0.4210  1.4897
 1738SOL     OW16675   0.340   3.604   5.580 -0.3961 -0.1040  0.7669
 1738SOL    HW116676   0.247   3.622   5.589  0.2804  2.3950  2.8620
 1738SOL    HW216677   0.370   3.577   5.667 -3.2766 -1.3948  1.3312
 1739SOL     OW16678   1.845   3.687   2.461 -0.4281 -0.1168  0.0828
 1739SOL    HW116679   1.754   3.717   2.453 -0.5844 -0.6521 -0.1156
 1739SOL    HW216680   1.833   3.592   2.465  1.2142 -0.4676 -3.1648
 1740SOL     OW16681   2.182   0.991  13.430 -0.3798 -0.3065  0.7030
 1740SOL    HW116682   2.138   0.906  13.438  3.0426 -2.1181  0.1926
 1740SOL    HW216683   2.107   1.050  13.419 -0.1751  0.3147  2.6619
 1741SOL     OW16684   2.425   4.081   5.810  0.6493 -0.1343  0.4399
 1741SOL    HW116685   2.448   4.165   5.770 -0.9213  0.1949  0.2485
 1741SOL    HW216686   2.510   4.047   5.839  0.0757  0.1075  2.4396
 1742SOL     OW16687   1.025   0.524   6.736 -0.0900  0.2415  0.5902
 1742SOL    HW116688   0.943   0.487   6.704  1.0047 -0.5486 -1.3180
 1742SOL    HW216689   1.090   0.509   6.667 -0.1655 -0.8846  0.7695
 1743SOL     OW16690   2.152   2.180  11.298  0.5129  0.0411  0.4660
 1743SOL    HW116691   2.081   2.131  11.340 -0.8674  0.0626 -1.8240
 1743SOL    HW216692   2.224   2.139  11.346  0.9604  1.2907  0.8532
 1744SOL     OW16693   1.371   0.114  11.060  0.2494 -0.8173  0.0707
 1744SOL    HW116694   1.304   0.180  11.043 -0.9839 -1.3625  2.9316
 1744SOL    HW216695   1.407   0.133  11.146 -0.2058  1.4341 -0.2324
 1745SOL     OW16696   1.558   1.418   7.045 -0.1496 -0.3919  0.1052
 1745SOL    HW116697   1.486   1.356   7.033 -0.2647 -0.3718  0.6965
 1745SOL    HW216698   1.509   1.496   7.072  3.1154  1.7652 -0.1748
 1746SOL     OW16699   0.054   4.108   5.204  0.0252  0.4282  0.3552
 1746SOL    HW116700   4.704   4.156   5.159  0.0745  2.3083  2.2792
 1746SOL    HW216701   0.032   4.125   5.296  0.4723  2.2975  0.1101
 1747SOL     OW16702   0.735   4.437   5.145 -0.1444  0.0921  0.1431
 1747SOL    HW116703   0.779   4.353   5.138 -0.6518 -0.3782  2.6926
 1747SOL    HW216704   0.738   4.465   5.054  3.0777  1.0718  0.5755
 1748SOL     OW16705   1.246   2.876  14.075 -0.6700 -0.8205  0.4109
 1748SOL    HW116706   1.187   2.801  14.087 -0.7662 -0.8258 -0.1000
 1748SOL    HW216707   1.179   2.943  14.066  1.6824  1.2279 -1.8281
 1749SOL     OW16708   4.358   2.952  15.841  0.8155  0.8749 -0.7969
 1749SOL    HW116709   4.383   3.018  15.906 -2.1906  1.7073 -0.5121
 1749SOL    HW216710   4.267   2.934  15.865  0.5212  2.8671 -0.3690
 1750SOL     OW16711   1.865   3.996   6.733  0.4866 -0.3622 -0.1640
 1750SOL    HW116712   1.936   4.008   6.669  1.6053  0.6036  1.2605
 1750SOL    HW216713   1.916   4.017   6.810 -0.0486  0.3047  0.0103
 1751SOL     OW16714   4.051   1.653  10.314  0.1188 -0.4545 -0.4045
 1751SOL    HW116715   4.110   1.584  10.345 -0.0506 -1.2127 -1.7973
 1751SOL    HW216716   4.098   1.728  10.351 -2.9443  1.9969 -1.5071
 1752SOL     OW16717   2.827   0.113   7.822 -0.1933 -1.3565 -0.2110
 1752SOL    HW116718   2.814   0.073   7.736 -0.3993  1.7572 -1.6357
 1752SOL    HW216719   2.894   0.050   7.848  1.0103  0.7018  1.7406
 1753SOL     OW16720   2.723   0.543   3.727  0.0587  0.0998 -0.2761
 1753SOL    HW116721   2.701   0.624   3.681  2.6413 -0.0551 -1.7721
 1753SOL    HW216722   2.794   0.578   3.781  1.5233  0.0714 -2.1714
 1754SOL     OW16723   4.052   0.323   4.473 -0.1429 -0.5432  0.3693
 1754SOL    HW116724   4.094   0.382   4.536 -1.0900 -0.6719  1.1284
 1754SOL    HW216725   4.007   0.263   4.532  1.2385  0.6291  2.6224
 1755SOL     OW16726   3.799   3.547   3.951  0.7160  0.0530 -0.9981
 1755SOL    HW116727   3.889   3.564   3.980  1.0963  0.0887 -2.2028
 1755SOL    HW216728   3.784   3.625   3.898  0.3934  1.0807  0.5921
 1756SOL     OW16729   3.208   1.563   7.251  0.2684  0.1335  0.3778
 1756SOL    HW116730   3.300   1.565   7.226  0.0268 -2.8888 -0.8191
 1756SOL    HW216731   3.181   1.485   7.202  3.3563 -0.9579  0.4223
 1757SOL     OW16732   3.936   3.122   7.400  0.4223  0.2628 -1.0657
 1757SOL    HW116733   4.022   3.081   7.416  1.5968  2.5849 -1.3864
 1757SOL    HW216734   3.960   3.213   7.420  3.0954 -0.4868 -0.8488
 1758SOL     OW16735   4.364   3.519   3.931  0.5710 -0.5211 -0.1208
 1758SOL    HW116736   4.441   3.472   3.900  0.0512 -1.0460 -0.6244
 1758SOL    HW216737   4.297   3.451   3.936  2.8429 -2.5456  2.8333
 1759SOL     OW16738   3.480   0.821   5.871 -0.2190  0.6098 -0.3818
 1759SOL    HW116739   3.391   0.810   5.905 -0.0384  1.0561  0.2358
 1759SOL    HW216740   3.464   0.877   5.796 -1.5463 -0.9707 -1.2927
 1760SOL     OW16741   0.973   2.699  16.084 -0.0473  0.7602  0.2490
 1760SOL    HW116742   1.018   2.778  16.052 -1.3368  1.4980  0.2475
 1760SOL    HW216743   1.047   2.639  16.088 -1.0397 -0.4723  0.1114
 1761SOL     OW16744   0.827   0.827   4.686 -0.2381  0.2713 -0.1267
 1761SOL    HW116745   0.745   0.845   4.734 -0.9908 -0.3197 -1.1903
 1761SOL    HW216746   0.791   0.814   4.598  1.4490 -0.5414 -0.6751
 1762SOL     OW16747   2.803   0.151   6.139 -0.2056  0.1653 -0.1987
 1762SOL    HW116748   2.741   0.080   6.120  0.8733 -1.2498  1.4271
 1762SOL    HW216749   2.853   0.129   6.061  0.3445  2.0726 -0.3599
 1763SOL     OW16750   1.491   2.659   7.673 -0.0015 -0.4040 -0.0831
 1763SOL    HW116751   1.443   2.650   7.755  1.9939  1.5605  1.2820
 1763SOL    HW216752   1.513   2.569   7.649  1.8736  0.1419 -0.3739
 1764SOL     OW16753   2.466   2.318   7.050 -0.0685 -0.4373 -0.1559
 1764SOL    HW116754   2.485   2.411   7.060 -1.0728 -0.3545  1.0039
 1764SOL    HW216755   2.552   2.279   7.066 -0.4343 -1.0924  0.2204
 1765SOL     OW16756   4.568   3.363  13.742 -0.2172  0.0823 -0.1583
 1765SOL    HW116757   4.597   3.272  13.742 -0.3899  0.0147 -2.4046
 1765SOL    HW216758   4.563   3.373  13.837 -2.7261  2.6598 -0.5546
 1766SOL     OW16759   2.982   3.546   8.774  0.0561 -0.5076  0.8675
 1766SOL    HW116760   3.005   3.551   8.867 -1.6381 -1.4342  1.3247
 1766SOL    HW216761   3.048   3.491   8.732 -0.5769 -1.4011  1.0472
 1767SOL     OW16762   4.481   2.743   7.081  0.2184 -0.1603 -0.7292
 1767SOL    HW116763   4.392   2.707   7.078 -0.5076  1.7630 -2.4291
 1767SOL    HW216764   4.504   2.779   6.995  1.2388 -1.7852 -1.1368
 1768SOL     OW16765   1.618   3.215   7.189 -0.5845 -0.5780  0.6697
 1768SOL    HW116766   1.538   3.224   7.240 -1.6759 -0.8436 -0.9994
 1768SOL    HW216767   1.657   3.302   7.192 -0.6673 -0.5849  1.8812
 1769SOL     OW16768   4.623   3.057  15.223  0.1375  0.2474  0.6069
 1769SOL    HW116769   4.542   3.087  15.181  1.2191  1.8537 -0.3762
 1769SOL    HW216770   4.661   3.144  15.239  1.3922  0.0273 -1.1777
 1770SOL     OW16771   2.113   3.217   4.674 -0.2869  0.3986  0.4299
 1770SOL    HW116772   2.141   3.161   4.602 -1.6280 -0.6215  0.7050
 1770SOL    HW216773   2.145   3.162   4.746  1.8444  1.1041  0.0254
 1771SOL     OW16774   3.357   2.720   0.300 -0.6090  0.0582  0.6191
 1771SOL    HW116775   3.441   2.728   0.344 -1.4361 -0.5079  2.3158
 1771SOL    HW216776   3.353   2.797   0.244  1.4129  0.0820  0.5275
 1772SOL     OW16777   0.958   2.365  13.604 -0.0940 -0.4385 -0.4082
 1772SOL    HW116778   0.903   2.326  13.535  0.8786 -1.2499 -0.7143
 1772SOL    HW216779   1.008   2.292  13.639 -0.6151  0.3033  1.9006
 1773SOL     OW16780   3.172   1.010   4.006  0.3550 -0.5750 -0.2259
 1773SOL    HW116781   3.221   1.022   4.088  1.2937  0.0095 -0.8749
 1773SOL    HW216782   3.233   1.015   3.933 -1.2126  1.6162 -1.4012
 1774SOL     OW16783   2.625   0.478   3.409  0.2092  0.1972 -0.2633
 1774SOL    HW116784   2.685   0.428   3.464  1.0245 -1.1546 -2.3562
 1774SOL    HW216785   2.545   0.483   3.462  0.4398 -2.7427  0.3742
 1775SOL     OW16786   1.775   3.001   8.424 -0.1021 -0.2451 -0.0798
 1775SOL    HW116787   1.692   3.049   8.415  1.0586  1.6389 -0.7300
 1775SOL    HW216788   1.752   2.928   8.481  0.0867  0.1519  0.5069
 1776SOL     OW16789   4.227   0.220   5.074  0.2876  0.1325  0.1550
 1776SOL    HW116790   4.139   0.222   5.112  0.8586  1.2791  1.4385
 1776SOL    HW216791   4.273   0.268   5.143  0.6748 -0.7603  0.5181
 1777SOL     OW16792   4.078   0.813   3.316 -0.7613 -0.1146  0.2482
 1777SOL    HW116793   4.134   0.842   3.388 -1.5750 -0.7559  1.1324
 1777SOL    HW216794   4.096   0.719   3.309  0.5905  0.2138 -0.6004
 1778SOL     OW16795   2.810   4.644  13.191  0.1358  0.2557  0.1477
 1778SOL    HW116796   2.873   4.615  13.256 -0.1120 -0.3809  0.1069
 1778SOL    HW216797   2.772   4.562  13.158 -1.2189  1.4349 -1.1965
 1779SOL     OW16798   3.735   4.634   8.837 -0.0741  0.2026 -0.0308
 1779SOL    HW116799   3.815   4.683   8.854 -0.3309  0.2199  1.1654
 1779SOL    HW216800   3.774   4.550   8.813 -0.1625  0.9694 -2.8552
 1780SOL     OW16801   0.814   1.145   6.674 -0.1446 -0.1908  0.1099
 1780SOL    HW116802   0.901   1.182   6.688  0.3062 -0.7720 -1.0551
 1780SOL    HW216803   0.813   1.112   6.584 -0.4235 -1.0023  0.4121
 1781SOL     OW16804   2.980   2.390   8.423 -0.3036  0.1958 -0.1694
 1781SOL    HW116805   3.044   2.459   8.436 -0.7785  0.6295 -0.1061
 1781SOL    HW216806   3.020   2.355   8.344 -1.6292  1.5800 -1.4455
 1782SOL     OW16807   1.129   1.266   5.451 -0.0987 -0.3828  0.0059
 1782SOL    HW116808   1.204   1.297   5.500  0.1626 -0.2667 -0.4725
 1782SOL    HW216809   1.140   1.308   5.366  1.3751 -0.4150  0.1885
 1783SOL     OW16810   0.524   3.671  16.694  0.1168  0.2758 -0.3677
 1783SOL    HW116811   0.510   3.743  16.756  0.9319  0.7401 -0.7249
 1783SOL    HW216812   0.531   3.609  16.767 -1.9130  1.3216  0.7143
 1784SOL     OW16813   3.819   0.364   5.802  0.0061 -0.3202  0.1600
 1784SOL    HW116814   3.911   0.349   5.780 -0.2184 -1.1928 -0.2049
 1784SOL    HW216815   3.785   0.274   5.808  0.6302 -0.6601 -1.2466
 1785SOL     OW16816   2.959   1.790   0.180 -0.5823 -0.7020 -0.0895
 1785SOL    HW116817   2.996   1.874   0.206  1.3464 -2.1332  1.7933
 1785SOL    HW216818   2.888   1.815   0.120  1.7897  2.8580 -1.4434
 1786SOL     OW16819   0.565   0.669   3.941  0.8245 -0.0308 -0.4422
 1786SOL    HW116820   0.503   0.598   3.923  0.1145  0.4728  0.0615
 1786SOL    HW216821   0.626   0.650   3.869  2.4782 -0.4113  1.0718
 1787SOL     OW16822   4.217   0.591   3.892  0.7660  0.0084 -0.1886
 1787SOL    HW116823   4.242   0.506   3.855 -1.9968 -0.6057 -0.6426
 1787SOL    HW216824   4.303   0.634   3.891  1.1109 -0.6697  0.3433
 1788SOL     OW16825   3.537   0.979   2.298 -0.0932  0.7530 -0.1810
 1788SOL    HW116826   3.549   0.893   2.257  0.7738 -0.7898  3.2871
 1788SOL    HW216827   3.628   0.990   2.326 -0.1968  2.5383 -0.5671
 1789SOL     OW16828   2.528   0.836  10.049 -0.1733 -0.2083  0.2937
 1789SOL    HW116829   2.489   0.793  10.125 -2.4361  0.4313 -0.5358
 1789SOL    HW216830   2.459   0.880   9.999  1.0305 -0.0840 -1.2639
 1790SOL     OW16831   1.748   1.926  12.924  0.1283  0.8505 -0.4960
 1790SOL    HW116832   1.689   1.907  12.851 -0.3897 -1.9947  0.6505
 1790SOL    HW216833   1.831   1.937  12.878 -0.9281  2.2321 -2.0323
 1791SOL     OW16834   1.954   3.725  12.809 -0.2062  0.2754  0.1531
 1791SOL    HW116835   1.893   3.656  12.834 -1.6461  1.4324 -0.1472
 1791SOL    HW216836   2.032   3.693  12.853 -2.0265 -4.2497  0.0251
 1792SOL     OW16837   3.133   0.566  11.621  0.5787  0.4102 -0.5507
 1792SOL    HW116838   3.054   0.600  11.664  1.4622 -1.1076  2.2542
 1792SOL    HW216839   3.169   0.647  11.584  0.7894 -0.1515 -1.5506
 1793SOL     OW16840   3.484   0.389  17.306  0.1106  0.9710 -0.2465
 1793SOL    HW116841   3.539   0.467  17.313  0.7973  0.2744  1.9638
 1793SOL    HW216842   3.468   0.387  17.400 -2.7757  1.0779 -0.7147
 1794SOL     OW16843   3.306   3.990   9.300  0.7392 -0.0401  0.1192
 1794SOL    HW116844   3.295   4.068   9.245 -5.2939 -1.1112 -0.1551
 1794SOL    HW216845   3.226   3.996   9.351  0.9999  1.1922  0.3793
 1795SOL     OW16846   1.358   1.566   7.743  0.2524  0.0802 -0.0818
 1795SOL    HW116847   1.339   1.585   7.835 -0.5457 -1.0995  0.0007
 1795SOL    HW216848   1.434   1.624   7.734  0.9497 -0.5367  1.9155
 1796SOL     OW16849   1.287   2.154  12.021 -0.5429 -0.0945 -0.1306
 1796SOL    HW116850   1.218   2.219  12.037 -1.3383 -0.5959 -1.5715
 1796SOL    HW216851   1.362   2.192  11.976  0.5742 -1.8713  0.2574
 1797SOL     OW16852   3.249   3.598  15.794 -0.1964  0.2198 -0.3315
 1797SOL    HW116853   3.249   3.601  15.890 -1.2279  0.1925 -0.3331
 1797SOL    HW216854   3.317   3.665  15.780 -2.3492  2.5296  0.2041
 1798SOL     OW16855   3.086   0.634  10.454 -0.2257 -0.2325  0.6893
 1798SOL    HW116856   3.016   0.626  10.390 -0.4886  1.0962  0.8251
 1798SOL    HW216857   3.040   0.595  10.528 -2.5848 -1.7034 -1.5637
 1799SOL     OW16858   4.671   0.156   7.054 -0.4789  0.1927  0.5124
 1799SOL    HW116859   4.666   0.249   7.076 -0.1830 -0.0595  1.6096
 1799SOL    HW216860   4.610   0.134   6.983  0.2615  2.2154 -0.7559
 1800SOL     OW16861   2.302   1.732   4.469 -0.0150  0.2396 -0.2041
 1800SOL    HW116862   2.217   1.688   4.477  0.7701 -1.0840  0.9388
 1800SOL    HW216863   2.323   1.715   4.377  0.2286  1.7279 -0.4171
 1801SOL     OW16864   0.580   4.414   5.717 -0.2166 -0.0651  0.3440
 1801SOL    HW116865   0.494   4.455   5.726 -0.0535  0.4251 -0.3585
 1801SOL    HW216866   0.593   4.407   5.623 -1.8526  0.8097  0.0460
 1802SOL     OW16867   3.665   0.563   0.854  0.0027  0.1986 -0.0487
 1802SOL    HW116868   3.625   0.555   0.767  3.7356  1.7974 -1.9344
 1802SOL    HW216869   3.694   0.472   0.842 -1.1342 -0.0598 -0.8161
 1803SOL     OW16870   0.450   0.065   1.819 -0.6442 -0.3514  0.6347
 1803SOL    HW116871   0.452   0.154   1.784  1.1875 -0.1562  1.2137
 1803SOL    HW216872   0.491   0.016   1.748 -1.4416 -0.7026  0.4191
 1804SOL     OW16873   2.997   4.666   7.894 -0.2317 -0.3678  0.2201
 1804SOL    HW116874   3.052   4.628   7.825 -0.1664  0.8160 -0.3905
 1804SOL    HW216875   3.054   4.641   7.967 -0.9019 -1.1531  0.4789
 1805SOL     OW16876   2.775   2.257  16.745 -0.1417  0.3234  0.3467
 1805SOL    HW116877   2.740   2.199  16.678  2.3836 -0.7571 -0.0229
 1805SOL    HW216878   2.725   2.337  16.726  0.9874  0.8440 -0.5027
 1806SOL     OW16879   3.725   2.567   2.652 -0.0227  0.2492  0.2974
 1806SOL    HW116880   3.640   2.612   2.660  0.0534  0.1342  1.6215
 1806SOL    HW216881   3.715   2.517   2.570  1.0300  0.2630  0.1642
 1807SOL     OW16882   2.580   4.129  13.057  0.1749 -0.6421 -0.4319
 1807SOL    HW116883   2.551   4.063  13.120 -0.1736 -0.2073 -0.1245
 1807SOL    HW216884   2.617   4.088  12.980  1.5367 -0.9104  0.3732
 1808SOL     OW16885   4.280   3.504  11.394 -0.4624  0.0522 -0.2099
 1808SOL    HW116886   4.364   3.463  11.419  0.1799  0.7373 -1.2690
 1808SOL    HW216887   4.226   3.433  11.429  1.1172 -0.4733  1.2119
 1809SOL     OW16888   2.208   4.206   8.321  0.0132  0.8163  0.0714
 1809SOL    HW116889   2.119   4.234   8.342 -0.0511 -0.4122  1.3875
 1809SOL    HW216890   2.241   4.266   8.253 -0.1764  0.1128 -0.6458
 1810SOL     OW16891   3.158   1.865   6.292 -0.5111  0.8479 -0.2138
 1810SOL    HW116892   3.205   1.922   6.231  0.7009  0.5391  0.4246
 1810SOL    HW216893   3.076   1.862   6.242 -1.0318 -0.1159  0.6940
 1811SOL     OW16894   3.526   1.983   8.046  0.2958 -0.1420 -0.0992
 1811SOL    HW116895   3.434   1.972   8.020  0.0217 -1.7756  1.4809
 1811SOL    HW216896   3.531   1.930   8.126 -2.5388 -0.5812 -0.2060
 1812SOL     OW16897   4.259   2.315   2.775 -0.4278  0.2511  0.1125
 1812SOL    HW116898   4.346   2.332   2.738 -0.7075  3.5823  1.0101
 1812SOL    HW216899   4.232   2.407   2.776 -0.8182  0.1517 -0.8650
 1813SOL     OW16900   3.983   1.892   6.951 -0.2512 -0.4663  0.0861
 1813SOL    HW116901   4.060   1.921   7.000  0.5371 -2.3540 -0.0262
 1813SOL    HW216902   3.916   1.955   6.976  0.4015 -0.0422  0.7601
 1814SOL     OW16903   2.800   2.682  15.433 -0.0268  0.0018 -0.6426
 1814SOL    HW116904   2.767   2.749  15.492  1.0048 -1.2500  1.3359
 1814SOL    HW216905   2.816   2.735  15.355  1.9344  1.7992  0.9736
 1815SOL     OW16906   0.577   0.299   0.621 -0.3726 -0.0179 -0.4636
 1815SOL    HW116907   0.601   0.390   0.608  0.5358 -0.3121 -0.8477
 1815SOL    HW216908   0.488   0.310   0.654  0.9872  0.6137  3.0097
 1816SOL     OW16909   1.164   1.885  13.733  0.4385  0.1956 -0.2212
 1816SOL    HW116910   1.214   1.831  13.672  0.8281 -1.1760  1.3139
 1816SOL    HW216911   1.227   1.897  13.804  0.2693 -0.9820  0.1389
 1817SOL     OW16912   4.482   2.209   5.683 -0.0208 -0.1369  0.4805
 1817SOL    HW116913   4.522   2.126   5.657  0.0605  0.3184 -0.8549
 1817SOL    HW216914   4.403   2.175   5.724  0.0740 -1.2479 -0.2610
 1818SOL     OW16915   4.157   1.334   0.392 -0.1698 -0.0224 -0.3490
 1818SOL    HW116916   4.116   1.264   0.342 -0.6218 -0.7579  1.0586
 1818SOL    HW216917   4.127   1.408   0.339  1.8657  1.3788  0.4674
 1819SOL     OW16918   1.062   0.847  12.796 -0.1331 -0.3564 -0.9846
 1819SOL    HW116919   1.125   0.888  12.738  0.5303 -0.8433 -0.6018
 1819SOL    HW216920   1.044   0.918  12.857  1.5541 -0.4054 -0.4575
 1820SOL     OW16921   0.218   2.605   2.419  0.7027  0.2940  0.2399
 1820SOL    HW116922   0.164   2.557   2.356 -1.6012  1.3331  1.4285
 1820SOL    HW216923   0.224   2.686   2.369  1.8890  0.4695  0.6729
 1821SOL     OW16924   1.072   2.062   4.718  0.0450  0.5553 -0.1238
 1821SOL    HW116925   1.017   1.985   4.705  0.6045  0.2849 -0.9444
 1821SOL    HW216926   1.124   2.031   4.792 -1.2375 -0.4069  0.3564
 1822SOL     OW16927   2.918   1.567   5.481  0.0246 -0.0251 -0.4304
 1822SOL    HW116928   3.004   1.524   5.474  0.4137  0.9769 -1.6813
 1822SOL    HW216929   2.951   1.656   5.475  1.7424 -0.7473 -1.6933
 1823SOL     OW16930   3.561   3.177  11.657  0.5251 -0.2541 -0.7476
 1823SOL    HW116931   3.514   3.250  11.696 -0.9158 -0.4076 -2.1976
 1823SOL    HW216932   3.598   3.219  11.579 -1.0295  0.7120 -0.9561
 1824SOL     OW16933   3.617   1.888   4.018 -0.3731  0.6590  0.4711
 1824SOL    HW116934   3.712   1.894   4.018 -0.2793 -0.8141  2.4540
 1824SOL    HW216935   3.610   1.884   3.922  3.1651  0.1318  0.2472
 1825SOL     OW16936   2.182   3.817   6.384 -0.6947 -0.0399 -0.1389
 1825SOL    HW116937   2.172   3.900   6.337  0.0224  1.1293  1.7861
 1825SOL    HW216938   2.202   3.757   6.312 -1.4037  1.0971 -1.2955
 1826SOL     OW16939   0.000   2.007  10.871  0.1379 -0.6196 -0.1360
 1826SOL    HW116940   0.057   1.959  10.811  3.0232  1.0116  1.2651
 1826SOL    HW216941   0.070   2.061  10.907 -2.7603  2.8901  0.2739
 1827SOL     OW16942   1.375   0.522   4.772 -0.0779  0.4695  0.6875
 1827SOL    HW116943   1.380   0.440   4.821  2.5549  1.2945  1.7833
 1827SOL    HW216944   1.283   0.548   4.774  0.5209  2.7662 -0.4291
 1828SOL     OW16945   0.379   1.054  16.086 -0.2175 -0.1752 -0.0340
 1828SOL    HW116946   0.324   1.046  16.008  2.2475  0.0021 -1.7747
 1828SOL    HW216947   0.321   1.110  16.139 -0.1353  0.2764 -0.4157
 1829SOL     OW16948   4.117   4.110   5.456  0.2260  0.0661  0.0213
 1829SOL    HW116949   4.144   4.100   5.547  1.4104  0.4042 -0.3041
 1829SOL    HW216950   4.031   4.068   5.454  0.3669 -0.2154 -0.0320
 1830SOL     OW16951   3.971   3.362  16.593  0.0316  0.1306 -0.0991
 1830SOL    HW116952   3.945   3.295  16.530  1.0638  1.0138 -1.4564
 1830SOL    HW216953   4.061   3.375  16.565 -0.3337  0.4190 -1.1632
 1831SOL     OW16954   4.484   2.533  17.199  0.2857 -0.1110  0.7749
 1831SOL    HW116955   4.559   2.570  17.247  1.8813 -1.2894 -0.8299
 1831SOL    HW216956   4.408   2.580  17.233 -0.1180 -0.0290 -0.2463
 1832SOL     OW16957   3.498   2.710   2.690 -0.8037 -0.1703 -0.4342
 1832SOL    HW116958   3.513   2.735   2.781  1.9511 -1.1427 -0.6141
 1832SOL    HW216959   3.459   2.793   2.663  1.8630  1.0585 -0.5162
 1833SOL     OW16960   2.071   0.722  17.123 -0.6844 -0.3565 -0.4900
 1833SOL    HW116961   2.138   0.655  17.134 -0.3954 -0.4471 -2.6942
 1833SOL    HW216962   2.006   0.663  17.083 -1.0763  0.9429 -1.7425
 1834SOL     OW16963   2.948   3.174  12.790  0.2606 -0.3993  0.3454
 1834SOL    HW116964   2.951   3.260  12.833  0.5553 -0.1356 -0.2030
 1834SOL    HW216965   2.981   3.183  12.701  2.8865  1.7253  1.4920
 1835SOL     OW16966   0.268   0.709   3.339  0.0411  0.2240 -0.1301
 1835SOL    HW116967   0.236   0.795   3.367  1.4269  0.4807  0.6584
 1835SOL    HW216968   0.349   0.736   3.296  1.0571  0.7584  2.1136
 1836SOL     OW16969   3.341   0.788   1.170 -0.0944  0.3567 -0.3416
 1836SOL    HW116970   3.374   0.866   1.126 -2.1757  0.4553 -1.6991
 1836SOL    HW216971   3.419   0.737   1.194  0.6183  2.3865  1.5810
 1837SOL     OW16972   2.779   2.564   3.789  0.0404  0.5354 -0.1188
 1837SOL    HW116973   2.830   2.638   3.755 -1.1893  2.1392  1.4639
 1837SOL    HW216974   2.835   2.541   3.864  0.9439  1.1447 -0.6115
 1838SOL     OW16975   1.183   2.009  14.597 -0.5244 -0.0900 -0.6143
 1838SOL    HW116976   1.131   2.055  14.532  0.5040  1.0175 -0.6648
 1838SOL    HW216977   1.151   1.919  14.596 -1.7221  0.2984  1.3861
 1839SOL     OW16978   1.445   2.610   5.928  0.0729  0.0589 -0.1593
 1839SOL    HW116979   1.366   2.618   5.982 -0.4012 -1.9070 -0.5782
 1839SOL    HW216980   1.407   2.587   5.843  1.2189 -2.2634 -0.0362
 1840SOL     OW16981   0.831   2.960   7.066  0.3890  0.3781 -0.4710
 1840SOL    HW116982   0.856   2.908   6.989  1.0875  0.3757 -0.2385
 1840SOL    HW216983   0.873   2.916   7.140 -1.4020 -1.9965 -0.8446
 1841SOL     OW16984   2.559   0.830   3.006 -0.5897 -0.1269 -0.4897
 1841SOL    HW116985   2.487   0.893   3.006 -0.3384  0.1665  0.3295
 1841SOL    HW216986   2.571   0.812   3.100  1.4332  2.8542 -0.1845
 1842SOL     OW16987   4.556   1.684   7.131 -0.3903 -0.0964  0.2978
 1842SOL    HW116988   4.572   1.650   7.043 -0.8439  1.0238 -0.2200
 1842SOL    HW216989   4.463   1.671   7.146 -0.7106  0.2202 -1.4566
 1843SOL     OW16990   0.269   2.350  15.989 -0.0059 -0.4087 -0.2421
 1843SOL    HW116991   0.319   2.269  16.002 -1.2568 -1.3602 -1.3001
 1843SOL    HW216992   0.343   2.405  15.965 -0.7887 -0.5469 -3.0423
 1844SOL     OW16993   2.221   0.252   1.806 -0.1964 -0.0952 -0.1923
 1844SOL    HW116994   2.196   0.173   1.853 -0.2753  0.7681  1.2144
 1844SOL    HW216995   2.152   0.311   1.838 -0.5913 -1.0896  0.7880
 1845SOL     OW16996   4.648   0.551   3.763 -0.0449 -0.8003  0.3575
 1845SOL    HW116997   4.687   0.523   3.680 -0.5859  0.9724 -0.5036
 1845SOL    HW216998   4.702   0.622   3.797 -1.4713  0.0684  0.7954
 1846SOL     OW16999   1.535   0.329   7.953  0.4656 -0.0417 -0.2964
 1846SOL    HW117000   1.538   0.384   8.031  0.0191 -1.8111  0.9561
 1846SOL    HW217001   1.545   0.240   7.986  0.6324 -0.5159 -1.6066
 1847SOL     OW17002   4.092   3.529  17.434  0.1015  0.3436 -0.0263
 1847SOL    HW117003   4.157   3.473  17.390 -0.2230  0.5895 -0.8011
 1847SOL    HW217004   4.147   3.592  17.480  0.1360 -0.1349  0.5958
 1848SOL     OW17005   2.590   0.293   3.738 -0.2272 -0.3137 -0.0841
 1848SOL    HW117006   2.625   0.382   3.736  0.8560 -0.7418 -0.0393
 1848SOL    HW217007   2.666   0.251   3.778 -0.2897 -1.7213 -1.3991
 1849SOL     OW17008   4.092   2.830  15.925 -0.3084  0.3082  0.9300
 1849SOL    HW117009   4.000   2.844  15.905  0.5119  1.4683 -1.9640
 1849SOL    HW217010   4.103   2.735  15.924  3.4992  0.7585  0.8649
 1850SOL     OW17011   3.529   2.045   7.297 -0.6455  0.0541 -0.6496
 1850SOL    HW117012   3.485   1.969   7.257  0.5476 -1.3217  0.6357
 1850SOL    HW217013   3.504   2.112   7.234 -2.5370 -0.4862 -0.4713
 1851SOL     OW17014   0.228   0.842   0.069  0.0189  0.6509 -0.5196
 1851SOL    HW117015   0.318   0.809   0.080  0.3033  1.6656  0.1148
 1851SOL    HW217016   0.247   0.911   0.006  0.7036  0.8495 -0.1013
 1852SOL     OW17017   0.806   2.808  11.271  0.2962  0.6518 -0.1078
 1852SOL    HW117018   0.817   2.732  11.213  1.0144  0.2536  0.5434
 1852SOL    HW217019   0.712   2.817  11.287  0.2385  0.9613 -0.6309
 1853SOL     OW17020   4.304   3.559   8.125  0.5327  0.6476 -0.2501
 1853SOL    HW117021   4.295   3.615   8.047 -0.5601  0.2681 -0.4042
 1853SOL    HW217022   4.385   3.512   8.105  0.5876  0.3612  0.6770
 1854SOL     OW17023   1.277   1.946   2.910 -0.5177  0.0750  0.3966
 1854SOL    HW117024   1.223   1.994   2.848 -0.3132 -1.1365 -0.7051
 1854SOL    HW217025   1.292   1.863   2.864 -0.7475 -0.2534  0.9174
 1855SOL     OW17026   1.779   2.070   3.441 -0.0670  0.1480 -0.1464
 1855SOL    HW117027   1.768   2.122   3.520  0.5144  0.5215 -0.3106
 1855SOL    HW217028   1.765   2.129   3.367  3.5639 -0.5120 -1.3781
 1856SOL     OW17029   1.690   4.370   5.327  0.3113 -0.0261 -0.3948
 1856SOL    HW117030   1.745   4.429   5.378 -0.2322 -1.1179  1.4540
 1856SOL    HW217031   1.750   4.296   5.318  0.3522  0.1690 -1.7393
 1857SOL     OW17032   4.592   1.032   6.759 -0.5730 -0.4671 -0.2789
 1857SOL    HW117033   4.584   1.072   6.673  0.7370  1.1972  0.3796
 1857SOL    HW217034   4.511   1.064   6.798 -1.2510 -0.8895 -1.3360
 1858SOL     OW17035   3.881   0.143   6.641 -0.4587 -0.6291 -0.0257
 1858SOL    HW117036   3.852   0.088   6.713 -1.3481 -0.5373 -0.3150
 1858SOL    HW217037   3.960   0.173   6.685  0.5828 -2.5199 -0.6468
 1859SOL     OW17038   3.688   3.741   4.795 -0.0360 -0.0741 -0.4759
 1859SOL    HW117039   3.778   3.728   4.824 -0.0246  1.3300  0.1257
 1859SOL    HW217040   3.636   3.687   4.854  1.0338  0.8202  1.2793
 1860SOL     OW17041   0.122   2.410   6.435 -0.3078  0.0327 -0.0535
 1860SOL    HW117042   0.059   2.348   6.472 -0.9993  0.9099  0.2480
 1860SOL    HW217043   0.181   2.354   6.386 -0.6230 -1.0308  0.7680
 1861SOL     OW17044   0.911   4.595   3.663  0.6326 -0.1481 -0.4546
 1861SOL    HW117045   0.999   4.559   3.674  0.0425 -1.1487  0.9557
 1861SOL    HW217046   0.862   4.566   3.740  0.9953  0.7804  0.1321
 1862SOL     OW17047   0.762   1.609   0.110  0.4125  0.5804  0.0981
 1862SOL    HW117048   0.754   1.599   0.015  3.6762  2.0651 -0.3549
 1862SOL    HW217049   0.786   1.521   0.138 -0.1094  1.1919  2.4348
 1863SOL     OW17050   0.544   1.931   9.924 -0.1229 -0.2728  1.1261
 1863SOL    HW117051   0.463   1.955   9.969 -0.8888 -0.6786 -0.0208
 1863SOL    HW217052   0.521   1.847   9.884 -2.1340  0.1115  1.4606
 1864SOL     OW17053   1.555   4.158  14.664 -0.0478  0.4096 -0.3905
 1864SOL    HW117054   1.491   4.184  14.597 -3.3935 -0.7791  2.2990
 1864SOL    HW217055   1.563   4.063  14.653  1.6821  0.3663  1.2653
 1865SOL     OW17056   4.604   1.951  14.458 -0.1676  0.6478  0.2013
 1865SOL    HW117057   4.528   1.972  14.404  0.0715  1.7132  0.2842
 1865SOL    HW217058   4.596   2.018  14.525  1.0218  2.8438 -1.8699
 1866SOL     OW17059   3.892   1.971   8.710  0.5940  0.2316 -0.0298
 1866SOL    HW117060   3.826   2.040   8.718  1.4262  1.0441 -0.1240
 1866SOL    HW217061   3.962   2.019   8.754  0.5033 -0.6628  1.0919
 1867SOL     OW17062   2.863   4.635  15.441  0.2919 -0.3293 -0.0473
 1867SOL    HW117063   2.903   4.662  15.523 -1.3042 -1.2443  1.0358
 1867SOL    HW217064   2.927   4.641  15.371 -0.2416 -1.1266 -0.6075
 1868SOL     OW17065   1.009   2.915   4.337  0.5574  0.0385 -0.0359
 1868SOL    HW117066   1.068   2.923   4.412  0.0419 -5.6915  0.9845
 1868SOL    HW217067   0.971   3.003   4.340  1.2664  0.3644 -0.7971
 1869SOL     OW17068   4.617   0.149   8.869  0.0559 -0.3834 -0.1337
 1869SOL    HW117069   4.562   0.096   8.927  0.4500 -0.1525  0.4516
 1869SOL    HW217070   4.654   0.209   8.934  1.3806 -0.7276 -0.5573
 1870SOL     OW17071   1.023   1.410  11.794  0.1615 -1.0436 -0.0138
 1870SOL    HW117072   1.050   1.502  11.793 -3.5110  0.0260 -0.1477
 1870SOL    HW217073   1.056   1.384  11.709  1.7750 -0.4039  0.4203
 1871SOL     OW17074   3.189   0.174  16.288  0.1011  0.3753  0.0846
 1871SOL    HW117075   3.131   0.103  16.262  0.9001  1.0842 -3.6271
 1871SOL    HW217076   3.244   0.134  16.355 -0.1096 -2.2496 -1.3237
 1872SOL     OW17077   1.545   1.706  13.304 -0.5832  0.3206 -1.2454
 1872SOL    HW117078   1.472   1.731  13.246 -0.7731  1.2949 -0.6013
 1872SOL    HW217079   1.612   1.678  13.242  0.2773  0.5488 -0.4069
 1873SOL     OW17080   3.768   1.705   3.733 -0.0785 -0.1756 -0.3998
 1873SOL    HW117081   3.782   1.611   3.735  1.4992  0.1084  1.7568
 1873SOL    HW217082   3.799   1.732   3.647  2.9058 -0.2838  0.6629
 1874SOL     OW17083   3.685   4.111   9.079 -0.4774 -0.7261  0.0783
 1874SOL    HW117084   3.770   4.096   9.037 -1.8465 -1.1269 -2.4967
 1874SOL    HW217085   3.673   4.205   9.088  0.0999 -0.5530 -1.0214
 1875SOL     OW17086   1.510   0.152   7.732  1.0493  0.8572  0.0962
 1875SOL    HW117087   1.599   0.119   7.737  0.7672 -0.4179 -3.2440
 1875SOL    HW217088   1.522   0.233   7.782 -0.6740 -0.1776  2.2297
 1876SOL     OW17089   3.687   2.619   4.977 -0.5214 -0.2121  0.1059
 1876SOL    HW117090   3.782   2.609   4.980 -0.6667 -1.3161  1.1555
 1876SOL    HW217091   3.657   2.538   4.936 -0.8631  0.7245 -1.4913
 1877SOL     OW17092   0.154   3.838   4.258  0.0676  0.5046  0.2372
 1877SOL    HW117093   0.135   3.838   4.352 -1.8105 -1.3856 -0.1755
 1877SOL    HW217094   0.212   3.762   4.255 -1.5434 -0.6885 -0.2883
 1878SOL     OW17095   1.257   0.490   3.394 -0.0614 -0.3324  0.2205
 1878SOL    HW117096   1.322   0.429   3.428  0.3039 -0.0427  0.0352
 1878SOL    HW217097   1.291   0.501   3.305 -0.9005  1.3161  0.1057
 1879SOL     OW17098   0.814   1.069   7.289  0.0987  0.4453 -0.1045
 1879SOL    HW117099   0.825   1.040   7.379  0.2275  2.1141  0.4191
 1879SOL    HW217100   0.899   1.050   7.249 -0.2888 -0.0771 -0.7013
 1880SOL     OW17101   2.381   1.037  13.617  0.0606  0.2613  0.3680
 1880SOL    HW117102   2.324   1.041  13.540  0.2570 -1.5850  0.1201
 1880SOL    HW217103   2.322   0.999  13.682 -0.6986  1.4757  0.3919
 1881SOL     OW17104   2.284   0.653   3.598  0.4219 -0.4804 -0.2901
 1881SOL    HW117105   2.328   0.675   3.681 -0.6564  0.3906  0.0585
 1881SOL    HW217106   2.216   0.721   3.601  1.9722  1.1784 -2.9841
 1882SOL     OW17107   0.418   0.677  15.616  0.3957 -0.2896  0.2473
 1882SOL    HW117108   0.329   0.685  15.581 -0.5909 -1.7573  2.4596
 1882SOL    HW217109   0.451   0.598  15.572  2.0860 -0.2118  1.3929
 1883SOL     OW17110   3.270   1.727   8.200 -0.0979 -0.0789  0.3725
 1883SOL    HW117111   3.274   1.645   8.248 -0.2394 -0.6832 -0.6451
 1883SOL    HW217112   3.175   1.727   8.185 -0.2797  0.9370  1.6138
 1884SOL     OW17113   0.019   0.700   5.914  0.3924  0.3068 -0.4342
 1884SOL    HW117114   0.082   0.629   5.905 -1.3333 -1.4728  1.5539
 1884SOL    HW217115   4.698   0.671   5.995 -0.2210  1.2859 -0.3973
 1885SOL     OW17116   4.178   0.464  12.616  0.1870 -0.4721 -0.1493
 1885SOL    HW117117   4.213   0.545  12.579  0.6960  0.5062  2.5386
 1885SOL    HW217118   4.191   0.479  12.709 -2.6768 -0.0740  0.1808
 1886SOL     OW17119   2.251   4.263   4.011 -0.1843 -0.0488 -0.0283
 1886SOL    HW117120   2.207   4.345   4.037 -1.1036  0.1516 -2.2109
 1886SOL    HW217121   2.299   4.296   3.935 -0.1705  1.1038  0.4846
 1887SOL     OW17122   2.255   0.272   7.545  1.0090 -0.1023 -0.2858
 1887SOL    HW117123   2.227   0.181   7.559 -0.0372  0.4235  1.1259
 1887SOL    HW217124   2.190   0.319   7.599  0.6966 -0.4227 -0.3800
 1888SOL     OW17125   1.829   2.640  12.518  0.4834 -0.0203 -0.1666
 1888SOL    HW117126   1.799   2.693  12.444 -0.9050  1.0658  1.1583
 1888SOL    HW217127   1.756   2.584  12.546  0.9114 -1.9139 -2.8673
 1889SOL     OW17128   4.217   1.989   4.811  0.5649 -0.4516  0.1756
 1889SOL    HW117129   4.264   2.068   4.838  0.6433  0.3094 -2.1819
 1889SOL    HW217130   4.201   2.006   4.719 -2.1688  0.0757  0.7603
 1890SOL     OW17131   0.484   3.701   8.071  0.4668 -0.7286 -0.1886
 1890SOL    HW117132   0.447   3.789   8.067 -2.1612 -1.8852 -0.8273
 1890SOL    HW217133   0.416   3.656   8.120  2.7806 -4.5468 -0.4583
 1891SOL     OW17134   3.771   0.023   8.451 -0.0265  0.0285 -0.1151
 1891SOL    HW117135   3.791   0.021   8.358  0.4397  1.1256 -0.0354
 1891SOL    HW217136   3.771   0.118   8.464  0.9730 -0.0834  0.7170
 1892SOL     OW17137   2.542   3.796  10.600 -0.0711  0.7542  0.0587
 1892SOL    HW117138   2.563   3.826  10.688 -3.3606 -0.7481  1.3806
 1892SOL    HW217139   2.621   3.819  10.551 -1.4724  1.0902 -2.0537
 1893SOL     OW17140   2.693   1.199  14.452  0.1423  0.4033 -0.5041
 1893SOL    HW117141   2.632   1.268  14.476  0.0204  0.0055  0.3213
 1893SOL    HW217142   2.732   1.225  14.369 -1.2516  1.2159 -0.8992
 1894SOL     OW17143   1.686   4.213   9.620 -0.0292  0.0932 -0.2482
 1894SOL    HW117144   1.594   4.234   9.600  0.0358 -1.0430 -1.7823
 1894SOL    HW217145   1.709   4.202   9.528  2.0856  0.7664  0.2140
 1895SOL     OW17146   2.780   2.654   0.898 -0.6168 -0.1057 -0.1516
 1895SOL    HW117147   2.786   2.574   0.951  1.5156  1.3241  1.7081
 1895SOL    HW217148   2.752   2.612   0.816 -1.6328  0.7559 -0.2550
 1896SOL     OW17149   3.431   1.587   8.037 -0.2774 -0.4803  0.4464
 1896SOL    HW117150   3.358   1.638   8.072  0.5112 -0.5236  2.1494
 1896SOL    HW217151   3.502   1.628   8.085  0.9507  1.2200 -2.8029
 1897SOL     OW17152   1.273   3.118   8.539 -0.5306  0.0981 -0.2391
 1897SOL    HW117153   1.182   3.114   8.568  0.2317  0.7360  2.2379
 1897SOL    HW217154   1.290   3.212   8.545 -1.6342  0.2194  0.9266
 1898SOL     OW17155   1.979   3.482  14.663  0.0475 -0.5008  0.9358
 1898SOL    HW117156   1.940   3.401  14.630  1.0411 -0.5806 -0.0452
 1898SOL    HW217157   1.908   3.525  14.710  1.4574  0.8541  1.8573
 1899SOL     OW17158   3.339   4.107   8.339 -0.5743 -0.5872  0.2317
 1899SOL    HW117159   3.432   4.083   8.336 -0.6011 -0.7331  0.5667
 1899SOL    HW217160   3.311   4.029   8.291 -0.9294 -0.1562 -0.2707
 1900SOL     OW17161   0.091   2.893   6.322 -0.2640 -0.4275 -0.0181
 1900SOL    HW117162   0.127   2.814   6.281 -2.5946 -1.8092  0.6230
 1900SOL    HW217163   0.177   2.933   6.333  0.0573 -1.0113 -0.4000
 1901SOL     OW17164   2.260   3.595   6.255  0.0902  0.0585  0.4128
 1901SOL    HW117165   2.206   3.551   6.190  2.6563 -0.9195 -1.0554
 1901SOL    HW217166   2.344   3.586   6.210  0.4455  0.1412  1.0542
 1902SOL     OW17167   0.496   2.713   3.964  0.5483 -0.6168  0.2803
 1902SOL    HW117168   0.459   2.685   4.048  1.6446 -1.0667  0.6099
 1902SOL    HW217169   0.424   2.710   3.901  1.1303  2.3412 -0.4893
 1903SOL     OW17170   4.228   0.773  10.929  0.1794 -0.1973 -0.1687
 1903SOL    HW117171   4.141   0.813  10.929  1.1123  1.8093  1.8848
 1903SOL    HW217172   4.211   0.692  10.882 -1.1738  1.4160 -2.4324
 1904SOL     OW17173   3.604   1.853   2.359  0.4936  0.0755  0.1471
 1904SOL    HW117174   3.532   1.812   2.408  1.8347  0.2764  2.2828
 1904SOL    HW217175   3.571   1.940   2.340  0.1010  0.0791  0.8103
 1905SOL     OW17176   4.076   0.751   4.527 -0.1288  0.2808 -0.1908
 1905SOL    HW117177   4.136   0.685   4.492 -0.4169  0.6856 -1.4617
 1905SOL    HW217178   4.023   0.696   4.585 -0.7156  1.4134  0.3421
 1906SOL     OW17179   2.226   0.877   7.812  0.1371  0.0736 -0.6269
 1906SOL    HW117180   2.247   0.949   7.871 -4.0933  0.6051  0.2284
 1906SOL    HW217181   2.311   0.862   7.773 -0.3746 -2.1660 -0.9010
 1907SOL     OW17182   0.335   1.635   2.481  0.5599  0.0541 -0.2623
 1907SOL    HW117183   0.255   1.594   2.512  1.0571  0.7471  1.9710
 1907SOL    HW217184   0.345   1.593   2.396  0.0442  0.6422 -0.6123
 1908SOL     OW17185   0.656   2.657   0.615  0.0301  0.5802  0.0046
 1908SOL    HW117186   0.695   2.570   0.622 -1.8902 -0.1020  2.1771
 1908SOL    HW217187   0.571   2.637   0.576  0.1549 -0.5075  0.2890
 1909SOL     OW17188   1.233   0.936   6.656 -0.4303 -0.1082  0.0227
 1909SOL    HW117189   1.291   0.964   6.585  0.3493 -0.0384  0.6836
 1909SOL    HW217190   1.167   0.892   6.601 -1.8357 -0.0824  1.6975
 1910SOL     OW17191   0.866   2.375  15.450 -0.2320 -0.0370  0.0514
 1910SOL    HW117192   0.840   2.429  15.524  0.5553  1.0797 -0.4759
 1910SOL    HW217193   0.939   2.425  15.414  0.3666 -0.3491  0.8207
 1911SOL     OW17194   0.893   1.834   4.636  0.3072  0.1509  0.0811
 1911SOL    HW117195   0.907   1.763   4.573 -0.3792 -0.4045  0.5544
 1911SOL    HW217196   0.848   1.895   4.578  1.4265  0.3366 -0.5920
 1912SOL     OW17197   1.393   1.526   5.602  0.2236 -0.1289 -0.3192
 1912SOL    HW117198   1.391   1.592   5.671  1.3811 -0.1237 -0.2873
 1912SOL    HW217199   1.485   1.499   5.603  0.2564 -0.0765 -2.0812
 1913SOL     OW17200   3.193   4.036  13.863 -0.0706 -0.2679  0.5923
 1913SOL    HW117201   3.274   3.993  13.890 -1.1063 -2.0658  0.8325
 1913SOL    HW217202   3.209   4.125  13.894  0.1724 -0.3161  0.5982
 1914SOL     OW17203   2.902   3.046   8.373 -0.8430 -0.1093 -0.2890
 1914SOL    HW117204   2.814   3.078   8.393 -1.0941 -1.3810  0.6257
 1914SOL    HW217205   2.887   2.953   8.390  0.7868 -0.1567  0.9153
 1915SOL     OW17206   3.720   0.612   8.815 -0.0630  0.1540 -0.3835
 1915SOL    HW117207   3.690   0.700   8.840  1.2467  0.6807 -0.6422
 1915SOL    HW217208   3.769   0.637   8.736  1.5118 -2.0295 -0.0803
 1916SOL     OW17209   3.335   3.238   2.806  0.8949 -0.0181  0.2981
 1916SOL    HW117210   3.292   3.268   2.725  0.4854 -1.0214  0.1438
 1916SOL    HW217211   3.420   3.279   2.794  0.1617  1.6958  0.9615
 1917SOL     OW17212   1.678   0.948  14.307  0.5044  0.3004  0.0374
 1917SOL    HW117213   1.730   0.868  14.298 -0.1884 -0.5906  3.9626
 1917SOL    HW217214   1.742   1.017  14.287 -0.5147  1.0248 -0.7150
 1918SOL     OW17215   2.406   1.040  14.024 -0.0273  0.4312 -0.3115
 1918SOL    HW117216   2.341   1.029  13.955  0.4495  1.0469 -0.8641
 1918SOL    HW217217   2.477   0.989  13.985  0.8056 -0.7313  2.7711
 1919SOL     OW17218   1.843   2.372   9.552  0.1280 -0.0631 -0.0989
 1919SOL    HW117219   1.860   2.300   9.491  3.1597 -0.2995  1.0066
 1919SOL    HW217220   1.928   2.414   9.567  0.4237 -0.8629  0.4179
 1920SOL     OW17221   0.074   4.270   4.457  0.3253  0.0920 -0.0977
 1920SOL    HW117222   0.086   4.234   4.544 -0.3436 -0.7018 -0.3310
 1920SOL    HW217223   0.118   4.204   4.403  0.2384  0.2103 -0.3117
 1921SOL     OW17224   2.080   0.146   5.333 -0.1973 -0.4522  0.4761
 1921SOL    HW117225   2.146   0.077   5.324  2.0955  1.5483  1.9545
 1921SOL    HW217226   1.996   0.102   5.319 -0.8872  0.5837  1.2911
 1922SOL     OW17227   1.570   4.034   0.176  0.2413  0.3454 -1.1268
 1922SOL    HW117228   1.559   3.999   0.088  2.2087  0.2457 -1.3386
 1922SOL    HW217229   1.549   4.127   0.164  0.9707  0.5961 -0.4404
 1923SOL     OW17230   4.183   3.333   5.330 -0.0054  0.0457 -0.7184
 1923SOL    HW117231   4.264   3.375   5.302  1.1944 -1.2495  0.7362
 1923SOL    HW217232   4.211   3.241   5.334 -0.6903 -0.1308  0.1731
 1924SOL     OW17233   2.667   2.940   7.897  0.1369  0.2024 -0.4111
 1924SOL    HW117234   2.641   2.954   7.988 -0.4754 -2.9722 -0.1163
 1924SOL    HW217235   2.715   3.022   7.885  0.5025  0.1349  0.6579
 1925SOL     OW17236   3.315   3.210   9.752  0.2361  0.2834 -0.3221
 1925SOL    HW117237   3.233   3.231   9.707  1.5765  1.4560 -2.2402
 1925SOL    HW217238   3.316   3.257   9.835 -0.8791  0.5680 -0.4764
 1926SOL     OW17239   0.526   4.511   6.977  0.1367  0.1037 -0.0756
 1926SOL    HW117240   0.570   4.596   6.973 -1.0720  0.8325  2.3288
 1926SOL    HW217241   0.449   4.548   7.020 -1.0834 -0.9014 -1.3558
 1927SOL     OW17242   4.257   3.648  17.623  0.4453 -0.3105 -0.3552
 1927SOL    HW117243   4.191   3.633   0.008  0.7533  2.4005  0.5327
 1927SOL    HW217244   4.345   3.620  17.651  0.8110  2.3653  1.2164
 1928SOL     OW17245   2.102   4.384   3.046  0.3112 -0.6161  0.6778
 1928SOL    HW117246   2.007   4.381   3.034  0.4922  0.0694 -0.8836
 1928SOL    HW217247   2.130   4.471   3.017 -1.6341  0.1738  1.1614
 1929SOL     OW17248   3.667   4.616   7.064  0.0125 -0.0990  0.2501
 1929SOL    HW117249   3.589   4.568   7.037 -0.7656  1.2672  0.0770
 1929SOL    HW217250   3.678   4.568   7.146 -0.3158 -2.8323 -1.3057
 1930SOL     OW17251   0.942   0.089   0.612 -0.0319  0.0506 -0.2875
 1930SOL    HW117252   1.002   0.148   0.658  0.0302 -2.1359  2.4434
 1930SOL    HW217253   0.931   0.022   0.680 -1.0333  0.4313 -0.0794
 1931SOL     OW17254   4.705   3.009   3.811  0.3031  0.1011  0.6021
 1931SOL    HW117255   0.077   2.990   3.792 -0.4651 -1.3091 -1.7108
 1931SOL    HW217256   4.687   2.932   3.865 -1.4981  1.7660  2.3747
 1932SOL     OW17257   1.401   3.750  17.643  0.1774  0.0813  0.2747
 1932SOL    HW117258   1.422   3.657  17.648  0.2372  0.0882  0.1369
 1932SOL    HW217259   1.348   3.749   0.041  0.2893  0.7691  0.3525
 1933SOL     OW17260   2.416   1.566   3.502  0.1272 -0.2765 -0.3577
 1933SOL    HW117261   2.508   1.541   3.499 -0.0934 -1.0836 -0.4720
 1933SOL    HW217262   2.421   1.661   3.510  2.5258 -0.2897 -2.0147
 1934SOL     OW17263   3.647   0.288   5.583 -0.3963  0.2405  0.5514
 1934SOL    HW117264   3.616   0.245   5.664  1.6806 -1.2704  0.5473
 1934SOL    HW217265   3.710   0.348   5.624 -1.7678  2.1275 -0.1068
 1935SOL     OW17266   1.762   1.129   5.470 -0.6508 -0.0095  0.2755
 1935SOL    HW117267   1.842   1.110   5.519 -0.3558  1.4091  0.3568
 1935SOL    HW217268   1.780   1.083   5.388 -0.8307 -0.6108  0.5759
 1936SOL     OW17269   3.056   1.595   7.906  0.1125  0.3291 -0.0667
 1936SOL    HW117270   2.984   1.540   7.936 -0.2278  0.0919 -1.3051
 1936SOL    HW217271   3.127   1.531   7.909 -2.6310 -2.6893  0.4289
 1937SOL     OW17272   4.652   1.063   3.542  0.3210 -0.3953 -0.7383
 1937SOL    HW117273   4.580   1.086   3.600  0.9787 -1.1210  0.3809
 1937SOL    HW217274   4.676   1.148   3.505 -0.7868  1.0204  1.8242
 1938SOL     OW17275   1.954   0.728   2.186 -0.2766 -0.9165 -0.3827
 1938SOL    HW117276   2.038   0.765   2.211 -0.8270  0.8999 -1.2385
 1938SOL    HW217277   1.902   0.805   2.162 -0.8984 -1.3360 -0.4008
 1939SOL     OW17278   2.169   3.291  10.549  0.7631 -0.4403  0.8978
 1939SOL    HW117279   2.183   3.323  10.460  2.7046 -0.1569  1.3074
 1939SOL    HW217280   2.238   3.225  10.557  0.7470 -0.5601  0.0184
 1940SOL     OW17281   2.155   1.642  10.299  0.1098  0.4175 -0.1448
 1940SOL    HW117282   2.228   1.589  10.332 -1.9667 -1.8242  0.8641
 1940SOL    HW217283   2.134   1.577  10.231 -2.1112  2.2436 -1.1898
 1941SOL     OW17284   3.527   2.920   8.254  0.5972  0.2476  0.2890
 1941SOL    HW117285   3.617   2.919   8.288  1.6052 -3.0569 -2.4013
 1941SOL    HW217286   3.478   2.964   8.323  1.2081  0.9907  0.2476
 1942SOL     OW17287   2.727   1.757   2.098  0.2768  0.2299 -0.1621
 1942SOL    HW117288   2.783   1.726   2.027 -1.3311  2.9072 -2.5882
 1942SOL    HW217289   2.649   1.778   2.047  0.8233 -1.8119 -1.8461
 1943SOL     OW17290   1.868   1.344   0.299  0.0630  0.0427 -0.2607
 1943SOL    HW117291   1.821   1.325   0.380 -0.0329 -0.4613 -0.4343
 1943SOL    HW217292   1.903   1.257   0.281 -0.5561 -0.2274 -0.1700
 1944SOL     OW17293   3.808   2.233   5.212 -0.0841  0.4490 -0.2779
 1944SOL    HW117294   3.823   2.186   5.294 -0.8368  1.4780  0.4558
 1944SOL    HW217295   3.827   2.323   5.239  1.1834 -0.4599  1.9028
 1945SOL     OW17296   0.428   3.482   6.796 -0.2838 -0.4854 -0.4139
 1945SOL    HW117297   0.382   3.429   6.731  2.0265 -0.8234 -1.7906
 1945SOL    HW217298   0.470   3.410   6.844  0.3603 -0.8139 -1.4579
 1946SOL     OW17299   3.493   3.083  10.389 -0.5823 -0.2188  0.1172
 1946SOL    HW117300   3.539   3.001  10.372  0.3203  0.5690 -1.1862
 1946SOL    HW217301   3.542   3.087  10.471  0.4149 -1.5827 -0.4216
 1947SOL     OW17302   1.515   2.084   3.066 -0.5184  0.4039  0.7744
 1947SOL    HW117303   1.498   2.097   2.973 -0.4794  1.9806  0.9800
 1947SOL    HW217304   1.550   1.996   3.077 -0.6800  0.3552  0.8979
 1948SOL     OW17305   3.109   2.963  16.174  0.3650  0.1388 -0.2795
 1948SOL    HW117306   3.127   2.895  16.239  1.8749  2.5512  1.8251
 1948SOL    HW217307   3.195   2.980  16.136  0.3847  0.5846 -0.0312
 1949SOL     OW17308   2.374   3.023   8.455 -0.1739 -0.0308 -0.4407
 1949SOL    HW117309   2.350   2.985   8.370  0.9510  2.1403 -1.7204
 1949SOL    HW217310   2.390   3.114   8.430 -2.6081  0.7693  0.8679
 1950SOL     OW17311   4.454   0.645   9.533  0.2403  0.3447 -0.5065
 1950SOL    HW117312   4.415   0.733   9.536 -2.5014 -0.8583 -1.3516
 1950SOL    HW217313   4.381   0.595   9.497  3.2415 -2.6541 -2.4282
 1951SOL     OW17314   3.082   3.224  15.122  0.3896 -0.3436 -0.0312
 1951SOL    HW117315   3.086   3.320  15.115  1.7622 -0.3205  1.0702
 1951SOL    HW217316   3.135   3.218  15.201  1.0911  4.6861 -0.0928
 1952SOL     OW17317   2.266   4.315   6.812  0.0386 -0.3821 -0.1152
 1952SOL    HW117318   2.230   4.251   6.750  2.2361 -1.7801  0.0538
 1952SOL    HW217319   2.303   4.268   6.887  0.0268 -0.5108 -0.1888
 1953SOL     OW17320   3.840   2.360   3.344 -0.4147 -0.0081  0.6850
 1953SOL    HW117321   3.845   2.276   3.299 -2.2007  0.8439 -1.1283
 1953SOL    HW217322   3.769   2.402   3.296  1.1463  1.3189 -0.4610
 1954SOL     OW17323   2.801   4.176   2.361 -0.2278 -0.3172  0.0380
 1954SOL    HW117324   2.720   4.144   2.321 -0.1424 -1.7383  1.0097
 1954SOL    HW217325   2.792   4.265   2.327 -2.5543 -0.6515 -0.1921
 1955SOL     OW17326   0.142   4.137   7.609 -0.6372 -0.4778 -0.1049
 1955SOL    HW117327   0.106   4.144   7.697 -3.8828 -1.1395 -1.3810
 1955SOL    HW217328   0.181   4.049   7.611 -1.0108 -0.5638  2.9523
 1956SOL     OW17329   0.094   0.799   2.695  0.3185 -0.2552  0.3155
 1956SOL    HW117330   0.101   0.866   2.627  0.2397  1.3594  1.8948
 1956SOL    HW217331   0.171   0.744   2.680 -0.4230 -1.6242  1.4315
 1957SOL     OW17332   1.717   4.134   3.343 -0.5411 -0.1084  0.2164
 1957SOL    HW117333   1.730   4.219   3.299  0.0419 -1.7734 -2.8042
 1957SOL    HW217334   1.805   4.107   3.368 -0.7083  0.6450  1.5989
 1958SOL     OW17335   0.442   4.601   8.886 -0.2374  0.3456 -0.0627
 1958SOL    HW117336   0.519   4.630   8.838 -0.3192 -3.3679 -2.4042
 1958SOL    HW217337   0.399   4.687   8.880  0.5848  0.9660  2.8571
 1959SOL     OW17338   1.020   4.014   2.821  0.3975  0.4457 -0.4309
 1959SOL    HW117339   0.994   4.065   2.897 -1.3350 -0.7009 -0.2544
 1959SOL    HW217340   1.072   3.942   2.856  0.0881 -0.0228 -0.9316
 1960SOL     OW17341   3.299   2.201   6.234 -0.3186 -0.5828  0.0871
 1960SOL    HW117342   3.390   2.210   6.207 -0.5264 -2.0964 -1.0564
 1960SOL    HW217343   3.281   2.125   6.179 -1.1753 -0.1338 -0.2560
 1961SOL     OW17344   1.404   0.339   2.701  0.2255 -0.4998 -0.2819
 1961SOL    HW117345   1.377   0.266   2.756  0.9760  1.0599  2.1613
 1961SOL    HW217346   1.422   0.290   2.621 -0.4496 -0.6810 -0.3209
 1962SOL     OW17347   3.524   3.943   7.953 -0.0189 -0.1175  0.1125
 1962SOL    HW117348   3.611   3.982   7.961  0.1523 -0.5915  0.5341
 1962SOL    HW217349   3.544   3.861   7.908  1.4241 -0.3474  1.1546
 1963SOL     OW17350   4.685   2.728  14.446 -0.1708  0.8805  0.1707
 1963SOL    HW117351   4.632   2.651  14.465  1.6653 -0.1799  0.9738
 1963SOL    HW217352   0.021   2.711  14.370  0.1968 -2.1467  1.1170
 1964SOL     OW17353   3.268   1.779   8.604  0.7415 -0.3770  0.0524
 1964SOL    HW117354   3.232   1.690   8.600  1.7897 -0.8785  1.9908
 1964SOL    HW217355   3.195   1.823   8.647  0.7868  1.6566 -1.9408
 1965SOL     OW17356   1.511   2.928   0.215  0.5477  0.2327 -0.3095
 1965SOL    HW117357   1.488   2.968   0.299  4.2387  0.4944  0.6008
 1965SOL    HW217358   1.445   2.861   0.203  0.1948  0.4236  0.5834
 1966SOL     OW17359   1.415   2.215   1.446  0.3808 -0.3362  0.0371
 1966SOL    HW117360   1.502   2.176   1.438  0.3212 -0.2537 -1.0079
 1966SOL    HW217361   1.401   2.164   1.526 -0.0877 -0.8763 -0.3923
 1967SOL     OW17362   3.240   2.875   1.861 -0.0980  0.1576 -0.0221
 1967SOL    HW117363   3.284   2.873   1.946 -0.9528  1.6159  0.4489
 1967SOL    HW217364   3.216   2.783   1.846 -0.5876  0.2206  0.3577
 1968SOL     OW17365   3.928   0.231   3.528  0.2741 -0.4371 -0.4004
 1968SOL    HW117366   3.884   0.148   3.510  1.7268 -0.8665 -1.9837
 1968SOL    HW217367   3.853   0.291   3.529  1.2408  0.7415  1.0666
 1969SOL     OW17368   4.711   2.181   4.706 -0.3199 -0.7344 -0.5127
 1969SOL    HW117369   4.674   2.096   4.729 -0.8072 -0.3538  0.1091
 1969SOL    HW217370   0.013   2.221   4.790  0.3602 -0.1970 -0.9476
 1970SOL     OW17371   2.374   1.577   7.569  0.2059 -0.4823  0.0412
 1970SOL    HW117372   2.430   1.531   7.507  2.2597  0.4151  1.2246
 1970SOL    HW217373   2.295   1.529   7.544  1.5816 -2.5978 -0.1660
 1971SOL     OW17374   0.157   3.437   7.745  0.0614  0.3091  0.2526
 1971SOL    HW117375   0.198   3.419   7.660 -0.2271 -1.4021  0.4819
 1971SOL    HW217376   0.073   3.477   7.723 -1.4603 -1.7199  2.4135
 1972SOL     OW17377   0.644   4.145  12.282  0.5252 -0.0834 -0.0243
 1972SOL    HW117378   0.659   4.069  12.227  1.3792 -1.8143  2.6054
 1972SOL    HW217379   0.602   4.112  12.361  0.3490  1.3180  0.4713
 1973SOL     OW17380   3.527   3.491   6.776 -0.8027 -0.1731 -0.0017
 1973SOL    HW117381   3.540   3.396   6.774 -1.8007 -0.3232  0.7448
 1973SOL    HW217382   3.495   3.511   6.864 -0.5577  0.3072 -0.0217
 1974SOL     OW17383   1.765   1.733   6.019 -0.3288 -0.2780  0.1505
 1974SOL    HW117384   1.727   1.730   6.106 -2.6383  0.7745 -0.8226
 1974SOL    HW217385   1.722   1.809   5.979  0.9048  1.9055  3.0624
 1975SOL     OW17386   4.559   4.582  10.287  0.1184 -0.2509  0.7296
 1975SOL    HW117387   4.615   4.545  10.219  0.2777 -1.1108  1.3280
 1975SOL    HW217388   4.617   4.646  10.329 -0.5998 -1.2506  3.2489
 1976SOL     OW17389   3.000   4.410   2.172  0.6062  0.3278  0.6680
 1976SOL    HW117390   3.005   4.408   2.077 -0.2518 -1.3695  0.6591
 1976SOL    HW217391   3.091   4.396   2.196  0.5981 -1.7694 -0.5905
 1977SOL     OW17392   3.850   2.588   0.151 -0.3983 -0.0676  0.3752
 1977SOL    HW117393   3.760   2.601   0.180 -0.9877 -3.3308  0.0077
 1977SOL    HW217394   3.890   2.666   0.191  2.0844 -0.4053 -1.4330
 1978SOL     OW17395   0.731   1.857   4.091  0.3359  0.3630  0.3537
 1978SOL    HW117396   0.812   1.809   4.075 -0.4746 -0.6743 -0.6513
 1978SOL    HW217397   0.778   1.940   4.097  0.8113  0.0777  0.5694
 1979SOL     OW17398   3.910   0.450   3.791 -0.3053  0.3717  0.0445
 1979SOL    HW117399   3.835   0.402   3.756  0.8329 -2.3572  1.3367
 1979SOL    HW217400   3.874   0.511   3.855 -2.0788 -1.2400  0.5647
 1980SOL     OW17401   2.774   4.064   5.583  0.8211 -0.0180  0.1955
 1980SOL    HW117402   2.735   3.982   5.552  0.6716 -0.1955  0.8369
 1980SOL    HW217403   2.863   4.035   5.602  0.1730 -0.4759  2.5485
 1981SOL     OW17404   3.678   2.193   8.116 -0.3353  0.0708 -0.2514
 1981SOL    HW117405   3.597   2.143   8.108  0.2287 -1.0161  0.9184
 1981SOL    HW217406   3.648   2.284   8.106 -2.6101 -0.7814 -1.1689
 1982SOL     OW17407   3.997   4.394  11.429 -0.5163 -0.1651 -0.8141
 1982SOL    HW117408   4.027   4.314  11.471  0.4869 -0.3529 -1.8884
 1982SOL    HW217409   3.907   4.372  11.402  0.1593 -1.9930 -1.5329
 1983SOL     OW17410   0.840   3.194  16.567  0.2918  0.6398 -0.2666
 1983SOL    HW117411   0.837   3.113  16.618  0.3754  0.2034 -0.9592
 1983SOL    HW217412   0.869   3.164  16.481 -0.3198  2.5571 -1.1394
 1984SOL     OW17413   3.929   1.860  15.388  0.4109  0.4458  0.4657
 1984SOL    HW117414   4.005   1.878  15.333  0.4962  0.9274  0.7402
 1984SOL    HW217415   3.909   1.769  15.366 -1.7481  1.2801 -0.9112
 1985SOL     OW17416   2.180   0.118  12.654  0.0264  0.2439  0.2673
 1985SOL    HW117417   2.114   0.178  12.688 -0.0958  0.6862 -0.7573
 1985SOL    HW217418   2.130   0.040  12.678  0.3296 -0.3639 -1.1367
 1986SOL     OW17419   3.280   0.457   6.763 -0.6367 -0.6258 -0.7881
 1986SOL    HW117420   3.246   0.369   6.747 -1.9012 -0.4973  1.1157
 1986SOL    HW217421   3.260   0.498   6.679  2.6751 -0.7667 -1.6407
 1987SOL     OW17422   4.713   4.539   8.158  0.1331 -0.7549  0.0287
 1987SOL    HW117423   4.697   4.610   8.096  0.9769 -0.8450 -0.3014
 1987SOL    HW217424   0.087   4.526   8.140 -0.2083 -2.6210 -0.4496
 1988SOL     OW17425   3.920   2.108  14.854  0.5206  0.7399 -0.4055
 1988SOL    HW117426   3.908   2.203  14.847 -2.4462  0.3566 -0.5108
 1988SOL    HW217427   3.845   2.087  14.910  1.8689  0.7955  1.4135
 1989SOL     OW17428   3.367   3.343  10.302  0.2812 -0.5001  0.0854
 1989SOL    HW117429   3.423   3.273  10.336 -0.6616 -0.5997  1.4412
 1989SOL    HW217430   3.424   3.421  10.300 -0.3078 -0.0798 -0.1641
 1990SOL     OW17431   1.562   3.187   9.029 -0.5983  0.2466 -0.4149
 1990SOL    HW117432   1.491   3.123   9.017 -0.4504  0.1792 -0.9540
 1990SOL    HW217433   1.621   3.162   8.958 -1.0180  0.4333 -0.8275
 1991SOL     OW17434   2.760   4.202   1.487  0.3846  0.1242 -0.1033
 1991SOL    HW117435   2.751   4.285   1.441 -1.1280 -0.8604 -1.5598
 1991SOL    HW217436   2.786   4.142   1.417  0.6540 -1.5576  1.4275
 1992SOL     OW17437   3.499   3.170  12.035  0.3039 -0.5802  0.1974
 1992SOL    HW117438   3.432   3.232  12.065 -0.5887 -0.7875 -1.3514
 1992SOL    HW217439   3.572   3.225  12.008  0.2731  0.3798  2.1228
 1993SOL     OW17440   3.677   0.051  12.378 -0.9067  0.1846 -0.0468
 1993SOL    HW117441   3.598   0.057  12.324 -1.4515  0.3205  0.7655
 1993SOL    HW217442   3.746   0.065  12.313 -0.7317  0.2809  0.1605
 1994SOL     OW17443   2.852   2.846   6.949 -0.2652 -0.1670  0.0667
 1994SOL    HW117444   2.879   2.776   7.008  1.2204 -2.5679 -3.4872
 1994SOL    HW217445   2.772   2.877   6.993 -0.6897 -1.2520  0.0695
 1995SOL     OW17446   0.979   1.509   3.881 -0.5463 -0.3402  0.3734
 1995SOL    HW117447   0.930   1.584   3.912 -1.2898 -1.7350  2.5551
 1995SOL    HW217448   0.946   1.502   3.792  2.2712  2.3095 -0.8787
 1996SOL     OW17449   2.053   3.511   6.121 -0.1631  0.0478 -0.6305
 1996SOL    HW117450   2.051   3.417   6.139  2.0193  0.5084  1.9630
 1996SOL    HW217451   1.981   3.523   6.058 -1.9151  1.5025  1.6492
 1997SOL     OW17452   0.926   3.908  12.026 -0.4217  0.4943 -0.1723
 1997SOL    HW117453   0.998   3.969  12.044 -0.5092  0.4358  0.3921
 1997SOL    HW217454   0.954   3.831  12.076 -0.0673  1.6067  1.3689
 1998SOL     OW17455   2.755   0.267   5.445  0.6822 -0.1431 -0.3060
 1998SOL    HW117456   2.711   0.194   5.402 -0.4529  1.0304 -1.1388
 1998SOL    HW217457   2.814   0.303   5.379  1.6449 -0.1897  0.5357
 1999SOL     OW17458   4.161   1.132   4.362 -0.5183  0.1410  0.1332
 1999SOL    HW117459   4.163   1.203   4.298 -0.5384  0.4759  0.4986
 1999SOL    HW217460   4.068   1.125   4.383 -0.3374 -0.1274  0.8350
 2000SOL     OW17461   0.979   1.402  13.085  0.1792 -0.1368 -0.0857
 2000SOL    HW117462   0.984   1.315  13.125  0.7437  0.2107  0.6137
 2000SOL    HW217463   1.027   1.396  13.002 -0.7742  0.6262 -0.6789
 2001SOL     OW17464   1.463   0.559   6.555 -0.0386 -0.1529 -0.0229
 2001SOL    HW117465   1.466   0.645   6.512 -1.5229 -0.2896 -0.4033
 2001SOL    HW217466   1.448   0.506   6.477 -0.2975 -1.6236  1.0193
 2002SOL     OW17467   4.360   0.664   0.132  0.0361 -0.1254 -0.1749
 2002SOL    HW117468   4.312   0.668   0.215  1.3099  0.0255  0.5546
 2002SOL    HW217469   4.429   0.727   0.153  0.1087 -0.7711  1.4936
 2003SOL     OW17470   0.302   0.343   7.572 -0.0343  0.5757  0.5509
 2003SOL    HW117471   0.215   0.322   7.607 -1.4334 -0.5239 -3.5653
 2003SOL    HW217472   0.311   0.300   7.486 -1.3326  1.4663 -0.0436
 2004SOL     OW17473   0.996   0.300   9.921 -0.2058  0.2055 -0.1144
 2004SOL    HW117474   1.030   0.214   9.945 -0.3223  0.5625  1.3536
 2004SOL    HW217475   0.969   0.344  10.001 -0.1834  0.0167 -0.0025
 2005SOL     OW17476   1.548   0.658  12.885  0.0261  0.3855  0.3122
 2005SOL    HW117477   1.586   0.583  12.839  2.0945  1.5810  0.0718
 2005SOL    HW217478   1.455   0.654  12.862 -0.3880  0.8414  1.9365
 2006SOL     OW17479   3.590   3.405   7.054  0.6912  0.4673  0.0116
 2006SOL    HW117480   3.544   3.457   7.120 -1.0192  0.4742 -1.2050
 2006SOL    HW217481   3.550   3.319   7.058  1.2177  0.2408  0.4113
 2007SOL     OW17482   3.138   2.404   6.687  0.0079 -0.1257  0.1419
 2007SOL    HW117483   3.087   2.325   6.707  2.2449 -2.0183 -1.6839
 2007SOL    HW217484   3.226   2.369   6.679 -0.1071 -0.1817 -0.8454
 2008SOL     OW17485   1.651   0.518   5.992  0.1321 -0.8220 -0.0025
 2008SOL    HW117486   1.612   0.508   6.079  0.6195 -2.1831  0.0554
 2008SOL    HW217487   1.573   0.535   5.940 -0.2803  0.5270  1.0595
 2009SOL     OW17488   0.403   0.586   1.740 -0.5413 -0.2941 -0.5156
 2009SOL    HW117489   0.484   0.633   1.720  0.1537 -1.1922  0.2256
 2009SOL    HW217490   0.390   0.548   1.653 -2.6485 -1.8117  0.4608
 2010SOL     OW17491   0.223   1.252   1.683 -0.1138  0.4328 -0.0256
 2010SOL    HW117492   0.215   1.168   1.728  1.4175  0.3050  0.0136
 2010SOL    HW217493   0.289   1.217   1.623  0.5794 -0.3277  1.1880
 2011SOL     OW17494   3.739   2.911  10.006  0.2226 -0.5648 -0.2505
 2011SOL    HW117495   3.740   2.888  10.099 -1.2994 -0.2891 -0.1679
 2011SOL    HW217496   3.695   2.839   9.961 -2.3733  1.1745 -0.4689
 2012SOL     OW17497   1.226   0.002   3.545 -1.1036 -0.0028 -0.0228
 2012SOL    HW117498   1.288   0.020   3.616 -0.5111 -0.6904 -0.3649
 2012SOL    HW217499   1.210   4.629   3.562  0.8725 -0.6814 -1.7951
 2013SOL     OW17500   0.813   4.221   8.174 -0.1254 -0.3284  0.4464
 2013SOL    HW117501   0.775   4.202   8.260 -3.0789  3.7816  0.0318
 2013SOL    HW217502   0.805   4.316   8.173 -0.8796 -0.4003 -0.5355
 2014SOL     OW17503   3.617   3.210  15.640 -0.1170 -0.4547 -0.0126
 2014SOL    HW117504   3.600   3.221  15.546 -2.7324 -2.1026  0.2824
 2014SOL    HW217505   3.638   3.302  15.653 -0.2692 -0.1416 -1.9392
 2015SOL     OW17506   3.162   4.559   8.095  0.6370 -0.0623  0.0959
 2015SOL    HW117507   3.252   4.535   8.117  1.7084  2.4813 -1.3996
 2015SOL    HW217508   3.106   4.497   8.141 -0.6929  0.8831 -0.2166
 2016SOL     OW17509   2.664   1.164  13.316 -0.0043 -0.3146  0.3472
 2016SOL    HW117510   2.714   1.211  13.383 -0.3673  0.4081  0.1121
 2016SOL    HW217511   2.583   1.140  13.362 -0.2415 -2.9777 -1.5216
 2017SOL     OW17512   2.656   4.648   4.339 -0.3733  0.3342 -0.2654
 2017SOL    HW117513   2.728   4.706   4.313 -0.8359  1.6332  1.3743
 2017SOL    HW217514   2.595   4.706   4.384 -0.1857  1.5876 -1.6212
 2018SOL     OW17515   4.031   3.679   7.214  1.2157  0.6313 -0.2464
 2018SOL    HW117516   3.975   3.603   7.197 -0.3115  1.1664  2.2562
 2018SOL    HW217517   3.998   3.729   7.140  1.6653  1.4255  0.0927
 2019SOL     OW17518   4.526   2.474   2.860  0.1456  0.1748  0.4257
 2019SOL    HW117519   4.446   2.508   2.819 -0.2173  0.1693  1.1450
 2019SOL    HW217520   4.590   2.524   2.808 -0.2027  1.3425  1.1161
 2020SOL     OW17521   3.285   0.906   0.801 -0.1093  0.0653 -0.4283
 2020SOL    HW117522   3.379   0.890   0.803 -0.2011 -0.4997 -0.6817
 2020SOL    HW217523   3.278   0.965   0.877 -1.0095 -0.6763  0.0639
 2021SOL     OW17524   0.285   3.688   3.184 -0.4150 -0.1717 -0.0243
 2021SOL    HW117525   0.350   3.750   3.150  0.7732 -1.4103  0.0094
 2021SOL    HW217526   0.205   3.739   3.170  0.4071  1.0358 -0.3413
 2022SOL     OW17527   0.996   4.021  12.457 -0.6247  0.1257  0.3579
 2022SOL    HW117528   0.928   3.955  12.468 -1.4559  0.7649 -0.9503
 2022SOL    HW217529   1.055   3.969  12.402 -2.1879  1.1973 -2.3185
 2023SOL     OW17530   0.382   4.611   0.806 -0.4170  0.0007 -0.2164
 2023SOL    HW117531   0.340   4.628   0.722 -1.4029  1.5581  0.5770
 2023SOL    HW217532   0.469   4.646   0.787 -0.2639 -1.8725 -2.9002
 2024SOL     OW17533   1.550   3.420   3.356  0.6614  0.7622  0.1777
 2024SOL    HW117534   1.479   3.414   3.419  2.0047  1.1662  1.7316
 2024SOL    HW217535   1.583   3.331   3.348  2.0019  1.2857 -0.1239
 2025SOL     OW17536   4.119   3.460   2.087 -0.4156  0.0627  0.5140
 2025SOL    HW117537   4.114   3.373   2.126  3.6940 -0.2240  0.4452
 2025SOL    HW217538   4.041   3.498   2.127 -1.1068 -1.5155  0.6753
 2026SOL     OW17539   0.578   3.666   7.291  0.4674  0.5770 -0.2260
 2026SOL    HW117540   0.489   3.648   7.261  0.0862  2.1105  0.0026
 2026SOL    HW217541   0.575   3.636   7.381  1.2812  2.4361  0.4261
 2027SOL     OW17542   1.600   4.104  13.808 -0.0791 -0.2965  0.1262
 2027SOL    HW117543   1.626   4.012  13.808  0.2885 -0.2002 -1.4762
 2027SOL    HW217544   1.687   4.137  13.788  0.8021 -2.3666  0.4707
 2028SOL     OW17545   1.835   2.859   0.746  0.1224 -0.2208 -0.0071
 2028SOL    HW117546   1.907   2.898   0.797  0.0974 -1.6285  1.1110
 2028SOL    HW217547   1.755   2.866   0.798  0.3977 -0.8209  0.4914
 2029SOL     OW17548   0.989   0.099  10.392  0.1369 -0.2090 -0.1228
 2029SOL    HW117549   0.910   0.083  10.444  0.1321 -0.2462 -0.1418
 2029SOL    HW217550   0.967   0.064  10.306  1.9768 -1.1258 -0.2250
 2030SOL     OW17551   3.497   1.674   5.709 -0.1670  0.5804  0.5323
 2030SOL    HW117552   3.587   1.652   5.731  0.0541 -0.5591 -1.5498
 2030SOL    HW217553   3.453   1.590   5.723  1.2859 -0.4346 -1.1092
 2031SOL     OW17554   2.111   0.002   4.482  0.6641  0.0400  0.6212
 2031SOL    HW117555   2.108   4.654   4.415  1.8608  0.2723  0.3326
 2031SOL    HW217556   2.122   4.671   4.562  1.5074  1.1158  1.1788
 2032SOL     OW17557   0.807   0.513   0.614  0.2790 -0.1683  0.3916
 2032SOL    HW117558   0.849   0.446   0.560  2.7590  1.8215 -0.1540
 2032SOL    HW217559   0.863   0.590   0.602 -1.1621  0.5412 -1.6340
 2033SOL     OW17560   2.151   4.718   7.766 -0.3682  0.3194  0.1661
 2033SOL    HW117561   2.245   0.017   7.766 -0.6571  1.7482  0.8133
 2033SOL    HW217562   2.138   4.656   7.694 -1.4639  0.6588  0.0684
 2034SOL     OW17563   1.259   1.503   2.574  0.0717 -0.3433  0.0684
 2034SOL    HW117564   1.195   1.531   2.508 -0.1736  1.0603  0.9157
 2034SOL    HW217565   1.340   1.532   2.532 -0.6310 -1.0740 -1.8134
 2035SOL     OW17566   3.123   0.396   3.855  0.0786 -0.0162  0.3266
 2035SOL    HW117567   3.112   0.460   3.925 -0.4378  1.3805 -1.0466
 2035SOL    HW217568   3.145   0.456   3.784  0.0480  0.7796  0.9869
 2036SOL     OW17569   0.752   4.267   3.924 -0.5606  0.8486 -0.0060
 2036SOL    HW117570   0.716   4.353   3.907  1.6709  0.9058 -4.4298
 2036SOL    HW217571   0.825   4.276   3.862  0.6944  0.0632  1.3509
 2037SOL     OW17572   0.002   3.335  11.379  0.2719 -0.5939  0.4506
 2037SOL    HW117573   0.088   3.378  11.380 -0.5318  1.0966 -1.4218
 2037SOL    HW217574   4.698   3.349  11.287 -0.6968 -0.8435  0.6678
 2038SOL     OW17575   4.683   1.298   6.723 -0.7370  0.4548 -0.1115
 2038SOL    HW117576   4.632   1.218   6.708 -0.5328  0.6664 -1.9344
 2038SOL    HW217577   0.047   1.255   6.741 -0.9114  0.3482  0.4303
 2039SOL     OW17578   3.802   1.581   6.115  0.4272  0.5698 -0.0777
 2039SOL    HW117579   3.715   1.606   6.147  0.0239  0.1098 -0.8127
 2039SOL    HW217580   3.835   1.567   6.204  0.6620  1.2343 -0.0591
 2040SOL     OW17581   0.495   4.053  12.502  0.0114  0.2842  0.1100
 2040SOL    HW117582   0.409   4.058  12.542 -0.0410 -0.0093  0.0360
 2040SOL    HW217583   0.479   3.973  12.452 -1.7929 -1.2718  3.1752
 2041SOL     OW17584   1.827   2.996   7.473  0.6428 -0.1000  0.3018
 2041SOL    HW117585   1.878   2.950   7.539 -0.4481  0.7783  1.7544
 2041SOL    HW217586   1.891   3.066   7.461  0.0080  0.1131 -1.7643
 2042SOL     OW17587   0.867   3.151   4.366 -0.3673 -0.3535 -0.5417
 2042SOL    HW117588   0.817   3.152   4.285 -1.1616 -1.7098 -0.0654
 2042SOL    HW217589   0.803   3.212   4.404 -1.8159 -2.0064 -0.2926
 2043SOL     OW17590   2.698   0.749   2.071 -0.1918 -0.5140  0.5993
 2043SOL    HW117591   2.661   0.706   1.994  1.1760 -0.5873 -0.0117
 2043SOL    HW217592   2.618   0.745   2.124 -1.2592 -0.0034 -0.9880
 2044SOL     OW17593   1.264   3.596   2.563  0.2397 -0.0023 -0.1029
 2044SOL    HW117594   1.214   3.519   2.588 -0.6310  0.9588  1.1557
 2044SOL    HW217595   1.216   3.670   2.602  0.6622 -0.8172  1.9891
 2045SOL     OW17596   4.185   4.103   4.272  0.1822  0.1896  0.0915
 2045SOL    HW117597   4.240   4.151   4.210  1.0731  0.7213  1.2871
 2045SOL    HW217598   4.106   4.156   4.286 -0.2153  0.2672 -2.3485
 2046SOL     OW17599   0.505   2.169   1.889  0.8738 -0.0874  0.1145
 2046SOL    HW117600   0.416   2.163   1.855  0.9202  0.1304 -0.0482
 2046SOL    HW217601   0.516   2.078   1.918  0.5829  0.4410  1.9112
 2047SOL     OW17602   1.953   4.296   8.264 -0.3909  0.2389 -0.2003
 2047SOL    HW117603   1.976   4.331   8.177 -0.9127  1.7670  0.2797
 2047SOL    HW217604   1.903   4.219   8.237  0.1313 -0.3862  0.6010
 2048SOL     OW17605   3.492   3.386   1.211  0.6826 -0.3567  0.8062
 2048SOL    HW117606   3.555   3.346   1.270  1.8825 -0.8186 -0.7943
 2048SOL    HW217607   3.450   3.454   1.264  1.1602  1.5965 -1.3158
 2049SOL     OW17608   3.442   0.054   6.747  0.7621 -0.0393  0.0046
 2049SOL    HW117609   3.503   0.123   6.774  0.8013 -0.3763  0.7812
 2049SOL    HW217610   3.467   0.050   6.654 -1.3162 -0.2004 -0.5406
 2050SOL     OW17611   4.099   2.289   3.090 -0.0742 -0.3584  0.6402
 2050SOL    HW117612   4.075   2.218   3.030  0.0388  0.8416 -0.8061
 2050SOL    HW217613   4.049   2.365   3.059 -1.0913 -1.7983 -1.2395
 2051SOL     OW17614   2.792   3.286   8.030 -0.8690 -0.2805 -0.1123
 2051SOL    HW117615   2.699   3.275   8.049 -0.6980  1.9114  2.0436
 2051SOL    HW217616   2.829   3.292   8.119 -0.2034  1.5010 -0.5099
 2052SOL     OW17617   1.808   3.959   5.608  0.1709 -0.5215  0.6820
 2052SOL    HW117618   1.811   4.035   5.666 -0.9414 -0.3147  0.4785
 2052SOL    HW217619   1.881   3.906   5.638  0.1554 -0.1085  1.4500
 2053SOL     OW17620   3.759   4.138  11.156  0.3233 -0.1125 -0.3392
 2053SOL    HW117621   3.784   4.076  11.088 -1.6530 -2.0779  0.7274
 2053SOL    HW217622   3.832   4.197  11.138 -1.1062  1.8376  0.2172
 2054SOL     OW17623   3.785   0.847   6.395 -0.0085 -0.1540 -0.5750
 2054SOL    HW117624   3.796   0.752   6.388 -0.8911 -0.4423  2.2081
 2054SOL    HW217625   3.857   0.876   6.339  1.0134 -0.4322  0.6101
 2055SOL     OW17626   4.537   0.849  16.233  0.5702 -0.3199  0.1712
 2055SOL    HW117627   4.625   0.854  16.270  1.3001  2.8896 -1.9450
 2055SOL    HW217628   4.550   0.874  16.142  2.8744  0.5257  0.7320
 2056SOL     OW17629   4.298   0.079  15.636  0.7263  0.0017 -0.1207
 2056SOL    HW117630   4.347   0.152  15.675  0.7863  1.0818 -2.2184
 2056SOL    HW217631   4.335   0.008  15.689  0.1364  0.7138  1.2449
 2057SOL     OW17632   4.645   3.500  11.058 -0.4930  0.0647 -0.4428
 2057SOL    HW117633   4.564   3.547  11.079 -1.2332 -1.2759 -0.3250
 2057SOL    HW217634   4.615   3.434  10.996 -1.2269 -1.7606  1.8870
 2058SOL     OW17635   3.886   1.236   6.285 -0.7371  0.3747 -0.1755
 2058SOL    HW117636   3.806   1.212   6.332 -0.5479  1.9770  0.9525
 2058SOL    HW217637   3.905   1.159   6.231 -0.3865  0.8339 -0.6985
 2059SOL     OW17638   2.115   2.656   1.926 -0.7088 -0.3268  0.1397
 2059SOL    HW117639   2.106   2.660   1.831 -0.2282 -1.6886  0.0476
 2059SOL    HW217640   2.167   2.578   1.942  2.4234  1.0135 -3.5406
 2060SOL     OW17641   1.203   1.161   0.380 -0.1233  0.4565  0.0627
 2060SOL    HW117642   1.291   1.198   0.371 -0.0891  0.4036  0.1894
 2060SOL    HW217643   1.225   1.069   0.370 -3.5285 -0.4915  1.3053
 2061SOL     OW17644   0.813   2.790   8.865  0.0828 -0.1584 -0.2177
 2061SOL    HW117645   0.823   2.696   8.880  0.8644 -0.0621 -0.1327
 2061SOL    HW217646   0.891   2.830   8.902  0.2635  0.2240 -1.0061
 2062SOL     OW17647   3.841   1.137   7.481  0.2094  0.4500 -0.2695
 2062SOL    HW117648   3.827   1.224   7.519  0.2103 -0.4561  1.7929
 2062SOL    HW217649   3.936   1.131   7.477  0.1296 -1.2161  0.2641
 2063SOL     OW17650   4.571   0.486  16.205  0.2930  0.2309 -0.1368
 2063SOL    HW117651   4.599   0.519  16.290 -1.8363  2.4991 -0.3155
 2063SOL    HW217652   4.658   0.494  16.167  0.7389 -3.7274  0.0287
 2064SOL     OW17653   1.728   3.112   2.088  0.1608 -0.0201 -0.0833
 2064SOL    HW117654   1.659   3.176   2.071 -0.7736 -0.9346  0.2796
 2064SOL    HW217655   1.794   3.151   2.146 -0.9502  0.8501  0.6013
 2065SOL     OW17656   4.402   4.640   9.378  0.1985  0.3937 -0.0222
 2065SOL    HW117657   4.412   4.571   9.313 -2.7665  0.4025 -0.4878
 2065SOL    HW217658   4.324   4.684   9.344  0.8610 -0.0336 -2.1040
 2066SOL     OW17659   1.301   1.818   4.005 -0.9532 -0.0108 -0.1465
 2066SOL    HW117660   1.256   1.866   3.935 -0.8140 -0.4171 -0.5103
 2066SOL    HW217661   1.392   1.844   3.995 -0.5682 -1.0138  0.7352
 2067SOL     OW17662   1.309   3.547   1.358 -0.5104  0.2759 -0.9165
 2067SOL    HW117663   1.234   3.559   1.301 -0.9333  0.2428 -0.3636
 2067SOL    HW217664   1.381   3.578   1.303 -1.4201 -2.0929 -3.4085
 2068SOL     OW17665   3.495   2.028   2.877  0.3118 -0.3667  0.4544
 2068SOL    HW117666   3.448   2.105   2.908 -0.8942 -0.2195 -1.7386
 2068SOL    HW217667   3.429   1.959   2.868  0.8192 -0.3712 -3.2310
 2069SOL     OW17668   0.748   3.666  16.572  0.0683  0.1550 -0.1642
 2069SOL    HW117669   0.654   3.675  16.588 -0.5497 -0.4678 -3.3246
 2069SOL    HW217670   0.759   3.573  16.591  1.7035  0.5552  0.8277
 2070SOL     OW17671   4.344   2.127  17.629 -0.2225  0.2420  0.1508
 2070SOL    HW117672   4.296   2.078  17.562  0.1851 -0.0126  0.0425
 2070SOL    HW217673   4.295   2.089   0.019  1.6529  0.6437  1.6384
 2071SOL     OW17674   2.121   1.399   5.867 -0.3095  0.5319 -0.6297
 2071SOL    HW117675   2.039   1.386   5.819 -1.5249 -0.5296  1.7227
 2071SOL    HW217676   2.106   1.478   5.919  2.9024  1.8224 -1.6728
 2072SOL     OW17677   0.694   2.814   4.654  0.1675  0.7927 -0.3005
 2072SOL    HW117678   0.723   2.869   4.727  1.4809 -1.6790  1.0068
 2072SOL    HW217679   0.632   2.879   4.621  0.8198  0.9173 -1.2778
 2073SOL     OW17680   0.694   1.950   9.353 -0.5757 -0.0204  0.3335
 2073SOL    HW117681   0.720   1.999   9.432  0.9600  0.1224 -0.2639
 2073SOL    HW217682   0.630   1.893   9.395 -0.8719 -1.1780 -1.7487
 2074SOL     OW17683   0.435   1.988  10.270 -0.3154 -0.2821 -0.2884
 2074SOL    HW117684   0.364   1.961  10.212 -1.6722 -1.0366  1.7172
 2074SOL    HW217685   0.407   2.001  10.361  0.6961 -0.3670  0.0345
 2075SOL     OW17686   3.347   2.817  17.145 -0.3292  0.2564 -0.2693
 2075SOL    HW117687   3.404   2.772  17.083  0.1302  1.0466 -0.4292
 2075SOL    HW217688   3.316   2.887  17.087 -0.4930  0.5924  0.2221
 2076SOL     OW17689   4.695   1.903   8.372  0.2560  0.0148  0.2398
 2076SOL    HW117690   0.035   1.830   8.387  0.5810  0.2736  0.2127
 2076SOL    HW217691   4.666   1.924   8.460 -2.0132 -0.4196 -0.4102
 2077SOL     OW17692   3.748   0.219   9.622  0.1771  0.1530  0.0735
 2077SOL    HW117693   3.809   0.149   9.644  0.8001  0.0644 -1.9673
 2077SOL    HW217694   3.709   0.187   9.541 -1.1616  1.5007  0.1736
 2078SOL     OW17695   2.110   3.000   4.447  0.1128 -0.2271  0.2360
 2078SOL    HW117696   2.141   2.945   4.375 -0.3168 -0.3085  0.1099
 2078SOL    HW217697   2.198   3.026   4.474  0.4273 -1.2261  0.1543
 2079SOL     OW17698   3.406   0.147   8.149  0.3469 -0.0586 -0.2430
 2079SOL    HW117699   3.492   0.141   8.107  0.0231  1.3946 -1.1426
 2079SOL    HW217700   3.359   0.156   8.066  2.3860  0.2965 -1.3788
 2080SOL     OW17701   0.811   4.692   6.843  0.5752  0.0662  0.4882
 2080SOL    HW117702   0.805   4.616   6.901  1.0461  0.1076  0.5939
 2080SOL    HW217703   0.884   4.665   6.787  0.9755  0.7028  0.7029
 2081SOL     OW17704   1.909   2.177   0.270  0.6395  0.0462 -0.4092
 2081SOL    HW117705   1.887   2.259   0.313  0.4295 -1.9947  3.3679
 2081SOL    HW217706   1.822   2.166   0.231  0.5916  0.4186 -0.4033
 2082SOL     OW17707   0.543   3.997   2.345 -0.1298  0.1623 -0.0423
 2082SOL    HW117708   0.599   4.005   2.268  1.0162 -0.5843  0.7112
 2082SOL    HW217709   0.497   4.079   2.364  3.1353  1.3749  2.7873
 2083SOL     OW17710   4.248   0.122   6.596 -0.2667 -0.1220 -0.6808
 2083SOL    HW117711   4.260   0.047   6.538  1.3718  0.3220 -0.9063
 2083SOL    HW217712   4.222   0.187   6.531  0.3954  0.8724  0.0421
 2084SOL     OW17713   4.413   2.018   4.018  0.3737 -0.0946 -0.2435
 2084SOL    HW117714   4.352   1.970   3.962 -0.2192  0.2158  0.1390
 2084SOL    HW217715   4.483   1.954   4.030 -1.0432 -1.6954 -0.5985
 2085SOL     OW17716   3.360   4.585  10.308  0.3503  0.3379 -0.1398
 2085SOL    HW117717   3.330   4.599  10.218 -0.7445  1.1896  0.3668
 2085SOL    HW217718   3.448   4.624  10.308 -0.2241  1.6397 -0.7208
 2086SOL     OW17719   0.598   0.203  15.795  0.6416 -0.0208  0.3909
 2086SOL    HW117720   0.671   0.265  15.802 -0.0212  0.7274  0.7548
 2086SOL    HW217721   0.523   0.263  15.789  0.7665  0.1052  0.0984
 2087SOL     OW17722   0.934   1.095   6.413 -0.8866  0.0563 -0.1840
 2087SOL    HW117723   0.962   1.010   6.446  2.7976 -0.0179 -3.4984
 2087SOL    HW217724   1.005   1.153   6.441  0.0847 -1.2496  0.0213
 2088SOL     OW17725   0.243   1.641   7.263  0.9590 -0.0098 -0.3418
 2088SOL    HW117726   0.187   1.568   7.239 -0.2789  0.3873  1.3500
 2088SOL    HW217727   0.175   1.703   7.288 -0.6075 -2.1636  0.6494
 2089SOL     OW17728   0.817   2.477   9.436  0.1705  0.2213 -0.4786
 2089SOL    HW117729   0.876   2.421   9.487  0.6345  0.4818 -0.7271
 2089SOL    HW217730   0.816   2.545   9.502  1.5411 -0.8357  0.6407
 2090SOL     OW17731   3.740   0.434   1.942  0.4546  0.0024 -0.0068
 2090SOL    HW117732   3.660   0.453   1.990 -0.0835 -2.4798  0.0737
 2090SOL    HW217733   3.700   0.400   1.862  1.1492  1.3672 -0.9357
 2091SOL     OW17734   3.032   1.862   8.728 -0.2301  0.2923  0.4659
 2091SOL    HW117735   3.062   1.949   8.755 -1.5950  1.1061 -0.6131
 2091SOL    HW217736   2.985   1.837   8.808 -0.9726  0.3512  0.0538
 2092SOL     OW17737   3.971   2.513   3.676 -0.7866  0.2221  0.4061
 2092SOL    HW117738   3.904   2.495   3.610  2.0644 -0.3276 -2.3403
 2092SOL    HW217739   4.046   2.485   3.625 -0.0702  2.1960  0.3921
 2093SOL     OW17740   2.114   1.634  12.966  0.4338  0.0499 -0.0170
 2093SOL    HW117741   2.024   1.600  12.960  0.4090  0.2646 -0.7766
 2093SOL    HW217742   2.160   1.566  12.917  2.3472  1.6661 -0.4590
 2094SOL     OW17743   1.540   0.860   9.145  0.2173 -0.4581 -0.0468
 2094SOL    HW117744   1.466   0.856   9.084  1.5565  1.1671 -1.7793
 2094SOL    HW217745   1.596   0.930   9.112 -0.8472  2.0583  3.5993
 2095SOL     OW17746   4.255   1.164   7.862  0.3140  0.4102 -0.2442
 2095SOL    HW117747   4.331   1.173   7.919 -0.5798  0.3077  0.9515
 2095SOL    HW217748   4.289   1.196   7.778 -0.9792 -0.4208 -1.0821
 2096SOL     OW17749   2.019   1.965  13.159 -0.1145 -0.4265  0.8153
 2096SOL    HW117750   1.951   1.904  13.132 -1.3750  0.3188  2.3086
 2096SOL    HW217751   2.051   1.997  13.074  0.4540 -3.3327 -0.0697
 2097SOL     OW17752   0.561   4.357   4.642  0.2904 -0.3796 -0.0243
 2097SOL    HW117753   0.600   4.436   4.605  0.6482  0.1178  1.4434
 2097SOL    HW217754   0.608   4.345   4.724  1.4756  1.5674 -0.4258
 2098SOL     OW17755   1.495   1.249  14.757 -0.1808 -0.4468  0.0640
 2098SOL    HW117756   1.470   1.341  14.765  0.2452 -0.2602 -0.6982
 2098SOL    HW217757   1.565   1.250  14.692 -0.4942 -0.0231 -0.2647
 2099SOL     OW17758   2.482   3.964  11.482 -0.1602  0.1039 -0.4540
 2099SOL    HW117759   2.482   4.020  11.405  0.0745 -0.2102 -0.6838
 2099SOL    HW217760   2.573   3.959  11.509 -0.6507 -0.6745  1.0876
 2100SOL     OW17761   2.061   3.454  11.379 -0.5900 -0.4443 -0.1985
 2100SOL    HW117762   1.997   3.478  11.446 -0.5236  0.7818 -0.5746
 2100SOL    HW217763   2.023   3.371  11.350 -0.7408 -0.7230  0.7905
 2101SOL     OW17764   4.048   1.933   4.487 -0.0850 -0.2004  0.5943
 2101SOL    HW117765   4.095   1.903   4.409 -2.8707  1.6735 -1.8798
 2101SOL    HW217766   4.107   1.996   4.527 -0.7670  0.9644 -0.2010
 2102SOL     OW17767   3.031   1.607  17.628  0.7999  0.4282  0.1956
 2102SOL    HW117768   3.122   1.580  17.618  0.3886 -1.1937  0.8029
 2102SOL    HW217769   3.029   1.652   0.030  0.0786  0.1920  0.3025
 2103SOL     OW17770   4.606   3.980   6.095  0.5241 -0.0997  0.2566
 2103SOL    HW117771   4.658   3.916   6.144 -1.4160 -0.4096  1.9527
 2103SOL    HW217772   4.678   4.023   6.049  1.3781 -1.7036  0.1172
 2104SOL     OW17773   0.290   0.914   8.637 -0.0989  0.3341  0.3128
 2104SOL    HW117774   0.261   0.913   8.728  1.4269  1.7266  0.8125
 2104SOL    HW217775   0.385   0.910   8.633 -0.0532  2.0661 -0.5534
 2105SOL     OW17776   2.549   4.391   6.896  0.5276 -0.4958  0.2595
 2105SOL    HW117777   2.459   4.414   6.871  1.0555 -0.7010 -1.8284
 2105SOL    HW217778   2.587   4.479   6.890 -1.0087  0.1203 -0.5504
 2106SOL     OW17779   0.368   1.717   3.654  0.4493 -0.5914  0.3591
 2106SOL    HW117780   0.304   1.716   3.583  2.5976  2.6491 -1.5870
 2106SOL    HW217781   0.312   1.714   3.732  0.0203 -2.9091 -0.0282
 2107SOL     OW17782   1.545   3.560   7.960  0.2345 -0.5005  0.2271
 2107SOL    HW117783   1.517   3.649   7.941  2.6327  0.4084  1.0700
 2107SOL    HW217784   1.629   3.563   7.914  0.6329 -1.9019  0.8588
 2108SOL     OW17785   2.367   1.714  10.945 -0.3016 -0.0894 -0.2217
 2108SOL    HW117786   2.340   1.805  10.956 -0.6666 -0.0459 -1.5519
 2108SOL    HW217787   2.407   1.690  11.029  0.8127  2.8952  0.1036
 2109SOL     OW17788   2.648   4.527  12.263  0.1541 -0.2038  0.0114
 2109SOL    HW117789   2.666   4.540  12.356 -2.2270 -0.7738  0.5524
 2109SOL    HW217790   2.553   4.516  12.263 -0.0768  1.7407 -0.9916
 2110SOL     OW17791   1.894   0.104   8.437  0.1362 -0.0521 -0.5524
 2110SOL    HW117792   1.934   0.138   8.517  1.0809  0.1837 -1.1151
 2110SOL    HW217793   1.892   0.010   8.457  0.2994 -0.4854 -2.6072
 2111SOL     OW17794   0.828   2.060   7.523  0.4112 -0.0556  0.1996
 2111SOL    HW117795   0.759   2.026   7.466 -0.0582  0.9361  0.1777
 2111SOL    HW217796   0.826   1.994   7.592  0.1887 -1.3715 -1.0498
 2112SOL     OW17797   0.111   0.024  14.399  0.2681 -0.2056 -0.6275
 2112SOL    HW117798   0.199   0.062  14.396  1.4802 -2.9101 -0.3314
 2112SOL    HW217799   0.120   4.679  14.329 -0.8852 -1.9988  0.8910
 2113SOL     OW17800   0.502   0.491  15.424  0.4626 -0.3822 -0.2150
 2113SOL    HW117801   0.500   0.473  15.330  0.5991 -0.1459 -0.2646
 2113SOL    HW217802   0.594   0.469  15.441  0.1677 -1.8562 -0.5108
 2114SOL     OW17803   4.065   3.367   7.356 -0.2984 -0.1571  0.1666
 2114SOL    HW117804   4.151   3.399   7.383 -0.3735 -0.4620  0.7497
 2114SOL    HW217805   4.075   3.353   7.262  0.0759  2.1955 -0.1550
 2115SOL     OW17806   2.091   2.390   6.511  0.3036 -0.2461 -0.3580
 2115SOL    HW117807   2.057   2.380   6.421  1.4673  0.6963 -0.8934
 2115SOL    HW217808   2.022   2.352   6.566  1.6486 -0.6980  1.0207
 2116SOL     OW17809   3.372   2.642  12.175  0.1808 -0.7528  0.3998
 2116SOL    HW117810   3.414   2.724  12.149 -1.4612 -0.0740 -0.1455
 2116SOL    HW217811   3.451   2.593  12.196 -0.0056 -1.0317  0.4596
 2117SOL     OW17812   4.146   3.459  10.385  0.6597 -0.0521 -0.0440
 2117SOL    HW117813   4.078   3.458  10.318 -1.1375  1.3148  1.7291
 2117SOL    HW217814   4.217   3.515  10.352  1.1529 -0.9887 -0.5721
 2118SOL     OW17815   4.131   2.340  10.066 -0.1502 -0.2644  0.2049
 2118SOL    HW117816   4.154   2.392  10.143 -1.8381 -1.3132  1.4260
 2118SOL    HW217817   4.216   2.334  10.022  0.5463  3.8710  1.0168
 2119SOL     OW17818   1.962   3.743   0.381  0.0899  0.2710 -0.4195
 2119SOL    HW117819   1.933   3.732   0.291 -0.6945 -1.2034  0.0042
 2119SOL    HW217820   2.026   3.814   0.377 -0.4750  0.8180  0.2722
 2120SOL     OW17821   1.738   2.697  14.739  0.4275 -0.2269  0.0668
 2120SOL    HW117822   1.672   2.634  14.767 -0.1958  0.9448  1.2580
 2120SOL    HW217823   1.693   2.729  14.661 -1.4968  1.1966  1.7237
 2121SOL     OW17824   1.676   4.421   7.439  0.0405 -0.1631  0.5596
 2121SOL    HW117825   1.661   4.477   7.363 -1.8267 -1.5296 -0.0604
 2121SOL    HW217826   1.616   4.465   7.500 -0.5829  0.9485 -0.8751
 2122SOL     OW17827   2.233   2.181   1.960 -0.3735 -0.4384 -0.3300
 2122SOL    HW117828   2.255   2.188   2.053 -0.6177 -0.0702 -0.2965
 2122SOL    HW217829   2.149   2.226   1.962 -1.3972 -2.3618 -0.2593
 2123SOL     OW17830   3.081   2.669  14.501  0.5499 -0.4590  0.3904
 2123SOL    HW117831   3.174   2.687  14.488  1.0784 -2.6977  1.0141
 2123SOL    HW217832   3.079   2.575  14.481 -0.9144 -0.4716  0.5834
 2124SOL     OW17833   4.591   1.211   1.237  0.8331  0.3187  0.0167
 2124SOL    HW117834   4.516   1.258   1.201 -1.0458 -1.2902  1.7970
 2124SOL    HW217835   4.540   1.155   1.295 -0.1555  2.4125  1.1755
 2125SOL     OW17836   3.423   1.193   8.664 -0.4640  0.1765  0.0540
 2125SOL    HW117837   3.454   1.283   8.655 -0.7438  0.3228  0.5903
 2125SOL    HW217838   3.488   1.148   8.610 -0.9030 -0.4785  0.0783
 2126SOL     OW17839   2.764   1.717   6.629 -0.3047 -0.5550 -0.0632
 2126SOL    HW117840   2.680   1.686   6.596 -0.4624  0.0450 -0.2210
 2126SOL    HW217841   2.770   1.803   6.586 -1.6529 -0.1845  0.4999
 2127SOL     OW17842   0.221   2.515  10.647  0.2616  0.5667  0.2267
 2127SOL    HW117843   0.257   2.565  10.573  0.1853 -1.1880 -0.9899
 2127SOL    HW217844   0.195   2.585  10.706  0.1191  0.6404  0.0757
 2128SOL     OW17845   1.811   0.970   2.110  0.2577 -0.2760  0.7624
 2128SOL    HW117846   1.746   0.987   2.042  0.4507 -0.0510  0.6340
 2128SOL    HW217847   1.858   1.053   2.098  1.2895 -0.9961 -0.0962
 2129SOL     OW17848   3.232   3.624   8.945 -0.5810 -0.2506  0.2159
 2129SOL    HW117849   3.237   3.529   8.957 -1.3750 -0.2193  0.7666
 2129SOL    HW217850   3.321   3.650   8.922 -1.0001  2.4692  1.7377
 2130SOL     OW17851   1.896   0.395   8.727  0.3828  0.5708 -0.1705
 2130SOL    HW117852   1.954   0.418   8.799 -0.9105  1.2262  0.6611
 2130SOL    HW217853   1.864   0.485   8.714 -2.3021 -0.4119 -0.2223
 2131SOL     OW17854   2.677   1.840   5.945 -0.1450 -0.3118 -0.1300
 2131SOL    HW117855   2.692   1.776   6.015 -2.7027 -1.6881 -0.8369
 2131SOL    HW217856   2.749   1.813   5.889  0.3031 -0.2854  0.4304
 2132SOL     OW17857   2.766   3.227  14.919  0.2843  0.3989  0.1901
 2132SOL    HW117858   2.854   3.210  14.886 -0.1566  1.0970 -1.3849
 2132SOL    HW217859   2.773   3.197  15.009  3.0636 -1.4876 -0.6668
 2133SOL     OW17860   2.971   0.054   3.267  0.0465  0.0902 -0.2912
 2133SOL    HW117861   3.052   0.019   3.304  1.1443  1.0760 -1.7918
 2133SOL    HW217862   2.919   0.045   3.348 -0.9969 -1.8464 -1.1742
 2134SOL     OW17863   3.461   0.812  10.047 -0.7592 -0.1072  0.5002
 2134SOL    HW117864   3.546   0.775  10.025 -1.4554 -0.5074 -1.5374
 2134SOL    HW217865   3.482   0.887  10.102 -0.9852  0.6690 -0.4554
 2135SOL     OW17866   3.814   3.320   6.903  0.3368 -0.5089 -0.3067
 2135SOL    HW117867   3.718   3.323   6.907  0.4586 -0.2486  3.0400
 2135SOL    HW217868   3.817   3.250   6.969 -1.6671  1.5363  1.9624
 2136SOL     OW17869   2.916   1.057   1.657  0.2956 -0.0859 -0.7443
 2136SOL    HW117870   2.833   1.102   1.675  0.0676 -1.1970  1.0727
 2136SOL    HW217871   2.913   1.053   1.562  2.3976  0.4599 -0.8391
 2137SOL     OW17872   3.046   3.466   1.047 -0.4579  0.2006  0.2192
 2137SOL    HW117873   3.113   3.491   0.983  0.9198  1.0464  1.9688
 2137SOL    HW217874   3.087   3.388   1.085  1.8620  1.2278 -0.1233
 2138SOL     OW17875   2.394   2.624  14.771  0.6675  0.0483 -0.5136
 2138SOL    HW117876   2.461   2.645  14.837 -1.2044  0.8345  1.1406
 2138SOL    HW217877   2.442   2.545  14.744  2.7484  0.9716  0.4724
 2139SOL     OW17878   2.116   2.609  14.761 -0.0444  0.6415  0.0134
 2139SOL    HW117879   2.100   2.690  14.809 -2.1713 -0.2271  0.7798
 2139SOL    HW217880   2.209   2.617  14.740  0.0610  0.4048  0.3728
 2140SOL     OW17881   1.942   3.619   5.169  0.1451 -0.6869 -0.2775
 2140SOL    HW117882   1.938   3.601   5.075 -2.7638  2.7890 -0.8454
 2140SOL    HW217883   1.927   3.528   5.194  0.6637 -1.0723 -1.3864
 2141SOL     OW17884   4.435   0.745   2.804 -1.0320 -0.3231 -0.0016
 2141SOL    HW117885   4.459   0.779   2.891  1.1182  0.1536 -0.7804
 2141SOL    HW217886   4.461   0.816   2.745  0.5981 -0.9916 -0.0625
 2142SOL     OW17887   1.835   0.496   5.462  0.8182  0.3636 -0.1985
 2142SOL    HW117888   1.875   0.567   5.511  0.6433  0.1960  0.1855
 2142SOL    HW217889   1.743   0.505   5.486  0.2278 -1.4494 -1.7604
 2143SOL     OW17890   3.456   3.900   4.280 -0.6169  0.1816 -0.1111
 2143SOL    HW117891   3.371   3.943   4.276 -1.1022 -0.5277  2.2122
 2143SOL    HW217892   3.463   3.883   4.186 -0.7997 -2.2694  0.3197
 2144SOL     OW17893   3.348   2.221   0.868  0.1391  0.3164 -0.1372
 2144SOL    HW117894   3.308   2.293   0.819  1.5019 -0.0372 -1.7816
 2144SOL    HW217895   3.269   2.188   0.910 -0.4305  1.0729 -0.6108
 2145SOL     OW17896   3.553   3.871   6.891  0.4049 -0.3084  0.4137
 2145SOL    HW117897   3.527   3.897   6.803  0.9961  0.1458  0.3711
 2145SOL    HW217898   3.548   3.776   6.878 -1.6277 -0.2742  0.8907
 2146SOL     OW17899   2.743   2.610  15.894  0.0408  0.1958  0.1649
 2146SOL    HW117900   2.670   2.557  15.861 -0.5437  0.8690  0.3615
 2146SOL    HW217901   2.710   2.644  15.977 -0.8514 -2.0360  0.7167
 2147SOL     OW17902   0.495   2.050   1.486  0.2616 -0.1692  0.1525
 2147SOL    HW117903   0.419   2.098   1.520 -1.7480 -2.5675 -0.9755
 2147SOL    HW217904   0.456   1.966   1.462  1.1873 -0.6207  0.2309
 2148SOL     OW17905   4.547   0.417   3.964  0.2227  0.2693  1.0378
 2148SOL    HW117906   4.495   0.347   3.925  1.2710 -0.3821  0.8027
 2148SOL    HW217907   4.583   0.453   3.883 -0.9418  0.4059  0.5868
 2149SOL     OW17908   3.631   3.167   2.518  0.3671 -0.6452 -0.0522
 2149SOL    HW117909   3.705   3.149   2.576  0.6058 -1.6442 -0.6789
 2149SOL    HW217910   3.680   3.171   2.436  2.2498  1.7226  1.2196
 2150SOL     OW17911   1.126   2.013   5.632  0.2703  0.6366  0.9875
 2150SOL    HW117912   1.091   1.976   5.714 -0.8107  2.1439  1.2059
 2150SOL    HW217913   1.173   2.091   5.661  1.1538 -0.3090  2.1558
 2151SOL     OW17914   3.046   2.431   7.198 -0.6366 -1.0297 -0.4156
 2151SOL    HW117915   3.120   2.382   7.162 -0.7118 -0.4673 -1.3205
 2151SOL    HW217916   3.079   2.456   7.285  0.3682  0.3082 -1.1947
 2152SOL     OW17917   0.497   0.858  13.946  0.2930 -0.6244 -0.3563
 2152SOL    HW117918   0.528   0.823  14.029 -0.1767 -0.7134 -0.2169
 2152SOL    HW217919   0.411   0.816  13.946 -0.1317  0.2389 -1.3788
 2153SOL     OW17920   3.567   2.884   6.989  0.0230  0.4018 -0.8353
 2153SOL    HW117921   3.509   2.924   7.054 -1.3637 -2.1476 -0.5257
 2153SOL    HW217922   3.517   2.899   6.909 -1.1317 -2.0449 -0.5631
 2154SOL     OW17923   0.246   3.412  11.306  0.0355 -0.1963 -0.3467
 2154SOL    HW117924   0.237   3.393  11.212 -3.0603 -1.9582  0.2980
 2154SOL    HW217925   0.330   3.374  11.332  0.2698  0.1753 -0.5569
 2155SOL     OW17926   0.533   2.467  15.953 -0.4228  0.5218  0.5752
 2155SOL    HW117927   0.542   2.403  16.024  1.4265  0.1866  0.0530
 2155SOL    HW217928   0.612   2.518  15.971  0.7512 -0.7902 -0.8218
 2156SOL     OW17929   1.883   1.775  15.847 -0.3447 -0.5359 -0.4788
 2156SOL    HW117930   1.914   1.695  15.806  2.7425 -0.3161  1.4443
 2156SOL    HW217931   1.902   1.836  15.775 -0.0634 -0.1298 -0.0572
 2157SOL     OW17932   3.850   0.935   8.517 -0.1552  0.3750 -0.3630
 2157SOL    HW117933   3.945   0.934   8.524 -0.1062  3.6896 -0.1278
 2157SOL    HW217934   3.828   0.844   8.532 -0.4956  0.7807  1.5539
 2158SOL     OW17935   3.069   0.321   7.984  0.3733  0.4968 -0.1212
 2158SOL    HW117936   3.016   0.243   8.000 -0.3436  0.6374 -1.8341
 2158SOL    HW217937   3.028   0.377   8.049  1.5458  0.4291  0.6793
 2159SOL     OW17938   3.794   3.239  10.604 -0.1722  0.0331 -0.2855
 2159SOL    HW117939   3.858   3.182  10.560 -0.7488  0.5681 -1.8248
 2159SOL    HW217940   3.780   3.302  10.533  0.9687  0.3719 -0.2192
 2160SOL     OW17941   1.730   3.706  14.049 -0.4618  0.3064  0.0951
 2160SOL    HW117942   1.792   3.649  14.095 -0.7559  0.5881  0.8409
 2160SOL    HW217943   1.764   3.696  13.960  1.6100  0.9493  0.8411
 2161SOL     OW17944   4.114   0.736   1.309 -0.0598 -0.7929  0.4971
 2161SOL    HW117945   4.086   0.793   1.380  1.0049  1.2877 -0.7563
 2161SOL    HW217946   4.079   0.781   1.232  2.9730  0.5492 -0.1073
 2162SOL     OW17947   2.176   0.579   4.334 -0.1256  0.6418  0.2330
 2162SOL    HW117948   2.161   0.651   4.395 -0.4058  0.5580  0.2631
 2162SOL    HW217949   2.269   0.599   4.325  0.0254 -0.3112 -0.3818
 2163SOL     OW17950   3.398   1.367   5.132  0.7143 -0.1626 -0.4259
 2163SOL    HW117951   3.360   1.412   5.208  0.0567  0.7930 -1.3073
 2163SOL    HW217952   3.366   1.279   5.147  3.5785 -1.1291  0.0006
 2164SOL     OW17953   0.573   1.004   1.353 -0.6445  0.0700  0.0464
 2164SOL    HW117954   0.533   0.975   1.271  1.5745  3.6203 -2.2830
 2164SOL    HW217955   0.631   0.930   1.368 -0.7070 -0.0678 -0.4090
 2165SOL     OW17956   1.321   3.074  17.322 -0.3733 -0.2225 -0.3235
 2165SOL    HW117957   1.275   3.152  17.353  2.4662  1.2911  0.0341
 2165SOL    HW217958   1.249   3.013  17.340  0.7136 -1.2678  0.4463
 2166SOL     OW17959   1.455   1.219  12.524 -0.9504  0.1231 -0.3320
 2166SOL    HW117960   1.416   1.211  12.437  1.3154 -1.8798 -1.1428
 2166SOL    HW217961   1.430   1.308  12.549 -2.8842 -0.6029  0.2600
 2167SOL     OW17962   3.085   0.628   3.200  0.2155  0.1410 -0.5209
 2167SOL    HW117963   3.086   0.540   3.238  0.1102 -0.2712 -1.4667
 2167SOL    HW217964   3.046   0.612   3.114 -0.1306  2.3060 -0.7486
 2168SOL     OW17965   0.651   0.546   1.111 -0.8231 -0.3215 -0.1508
 2168SOL    HW117966   0.743   0.519   1.118 -0.2123  1.8827  0.2706
 2168SOL    HW217967   0.636   0.591   1.194 -0.4640 -0.5393  0.0300
 2169SOL     OW17968   3.212   0.243   0.692  0.0958 -0.6913 -0.0591
 2169SOL    HW117969   3.172   0.322   0.730  0.2983 -0.2479 -0.7851
 2169SOL    HW217970   3.302   0.270   0.707  0.2209 -0.3669 -1.4267
 2170SOL     OW17971   1.452   1.953   8.853  0.1368 -0.2343 -0.0388
 2170SOL    HW117972   1.401   1.888   8.901 -0.5012  0.0388 -0.3439
 2170SOL    HW217973   1.495   1.889   8.796 -1.5472 -2.2238  0.9223
 2171SOL     OW17974   0.754   0.514   8.685  0.2308 -0.5357  0.3006
 2171SOL    HW117975   0.724   0.451   8.619 -0.2897  0.1598 -0.1344
 2171SOL    HW217976   0.826   0.463   8.722 -0.6025 -1.8567  0.1290
 2172SOL     OW17977   3.108   1.696  12.909  0.2280  0.0120  0.0825
 2172SOL    HW117978   3.034   1.641  12.885  0.5324 -0.3900  0.0722
 2172SOL    HW217979   3.145   1.644  12.980 -0.5943 -2.9758 -1.7133
 2173SOL     OW17980   1.424   0.795   4.889  0.1771  0.5205 -0.1779
 2173SOL    HW117981   1.379   0.717   4.856 -0.4000  0.4799  0.6938
 2173SOL    HW217982   1.424   0.773   4.982 -1.2974  0.7522 -0.1262
 2174SOL     OW17983   0.328   2.658   5.969 -0.0212  0.7264 -0.2500
 2174SOL    HW117984   0.300   2.749   5.976  0.3824  0.7645  0.9364
 2174SOL    HW217985   0.336   2.637   6.063  0.4021  1.6093 -0.0949
 2175SOL     OW17986   1.427   0.683   8.545 -0.0026 -0.3924  0.1269
 2175SOL    HW117987   1.438   0.729   8.462 -0.6234  2.0860  1.4117
 2175SOL    HW217988   1.448   0.592   8.524  0.4087  0.1157 -1.6992
 2176SOL     OW17989   1.052   1.002   7.160 -0.1811  0.5192 -0.5845
 2176SOL    HW117990   1.099   1.058   7.098  1.1470 -2.2201 -2.0304
 2176SOL    HW217991   1.111   0.927   7.166  0.1663  0.9085  1.0551
 2177SOL     OW17992   4.549   2.328   1.228 -0.2182  0.7578  0.2765
 2177SOL    HW117993   4.635   2.318   1.267 -1.1214 -1.5780  1.6760
 2177SOL    HW217994   4.516   2.238   1.226  2.2136 -0.1136 -0.3168
 2178SOL     OW17995   4.455   2.957   3.648 -0.6559 -0.2421 -0.6132
 2178SOL    HW117996   4.533   2.978   3.699 -0.2486  0.2468 -1.4416
 2178SOL    HW217997   4.485   2.872   3.615  1.0997 -0.1088  0.6222
 2179SOL     OW17998   0.296   4.324  16.728  0.7015 -0.5841 -0.0016
 2179SOL    HW117999   0.265   4.240  16.693 -1.9333  1.6735 -3.0593
 2179SOL    HW218000   0.205   4.348  16.747 -0.1222 -3.8560  0.2385
 2180SOL     OW18001   0.150   3.151   2.668 -0.4282  0.1202 -0.1798
 2180SOL    HW118002   0.236   3.109   2.672  0.7100  2.6151  1.5941
 2180SOL    HW218003   0.123   3.101   2.745  1.0213 -1.2227 -0.5467
 2181SOL     OW18004   2.441   2.026  13.827  0.0024  0.9409  0.3953
 2181SOL    HW118005   2.369   2.088  13.840  1.1173  2.1612  0.7213
 2181SOL    HW218006   2.432   1.997  13.736  0.1529  2.0997  0.0105
 2182SOL     OW18007   4.002   1.896  16.109 -0.2742  0.4438  0.1011
 2182SOL    HW118008   4.079   1.891  16.166 -0.8252 -0.6359  0.7634
 2182SOL    HW218009   3.990   1.805  16.084 -1.7073  1.5277 -3.1211
 2183SOL     OW18010   2.564   1.092  13.061 -0.6391 -0.1240 -0.0235
 2183SOL    HW118011   2.483   1.063  13.103 -0.6607 -1.5240 -1.0246
 2183SOL    HW218012   2.612   1.102  13.144 -0.9851  0.0864  0.1509
 2184SOL     OW18013   3.815   4.407   1.747 -0.1403 -0.0871  0.1507
 2184SOL    HW118014   3.727   4.372   1.740  0.4633 -1.8844  1.7602
 2184SOL    HW218015   3.800   4.500   1.731  2.1161  0.1192 -0.7525
 2185SOL     OW18016   1.934   2.615   5.427 -0.2164  0.0552  0.3260
 2185SOL    HW118017   1.926   2.700   5.468 -1.8248  0.1782 -0.2379
 2185SOL    HW218018   2.002   2.575   5.481  0.5208  0.1449 -0.5361
 2186SOL     OW18019   4.246   2.884   2.841 -0.3972  0.1229  0.6944
 2186SOL    HW118020   4.256   2.932   2.759  1.8594 -3.0953 -0.9153
 2186SOL    HW218021   4.153   2.900   2.856  0.1954  1.5368  2.9018
 2187SOL     OW18022   1.884   0.359   6.534  0.3356  0.6474  0.3275
 2187SOL    HW118023   1.959   0.350   6.592  1.2181 -1.7027 -1.1978
 2187SOL    HW218024   1.824   0.396   6.598 -2.0710 -1.9329 -0.4763
 2188SOL     OW18025   0.462   0.181   4.092  0.5726 -0.2679  0.4146
 2188SOL    HW118026   0.424   0.135   4.018 -1.4752 -0.8583  1.8325
 2188SOL    HW218027   0.519   0.110   4.123 -0.9740 -1.5550  0.3315
 2189SOL     OW18028   4.508   3.126   5.092 -0.1752  0.0019  0.1490
 2189SOL    HW118029   4.447   3.099   5.024  0.5693  1.1042 -0.9588
 2189SOL    HW218030   4.543   3.211   5.066 -0.7022 -0.3264 -1.6296
 2190SOL     OW18031   0.988   2.889  17.090 -0.0847 -0.1156  0.4583
 2190SOL    HW118032   0.960   2.800  17.068  0.0037 -0.8560  3.3588
 2190SOL    HW218033   1.009   2.929  17.006  0.8491 -0.3652  0.5738
 2191SOL     OW18034   0.868   4.315   1.298  0.2123  0.6081  0.0655
 2191SOL    HW118035   0.915   4.397   1.312  0.4211  0.8830 -2.3192
 2191SOL    HW218036   0.806   4.317   1.371 -0.8754 -0.9066 -0.8320
 2192SOL     OW18037   3.902   2.254   4.180  0.0369 -0.1064  0.0437
 2192SOL    HW118038   3.952   2.305   4.243 -0.7654 -0.9502  1.3659
 2192SOL    HW218039   3.977   2.201   4.155 -0.2650 -0.0699 -0.9259
 2193SOL     OW18040   3.083   4.492   4.545 -0.2800 -0.4268 -0.1406
 2193SOL    HW118041   3.046   4.410   4.515  0.6448 -0.9024  0.0047
 2193SOL    HW218042   3.167   4.487   4.500 -0.1694 -1.9807  0.2413
 2194SOL     OW18043   3.866   1.451  12.704 -0.2653 -0.0929 -0.1779
 2194SOL    HW118044   3.805   1.522  12.686 -0.3684  0.4379  2.2239
 2194SOL    HW218045   3.951   1.493  12.691 -0.9049  0.8090 -1.3104
 2195SOL     OW18046   0.495   3.350   4.772  0.5954 -0.6020  0.0382
 2195SOL    HW118047   0.407   3.382   4.790  0.2170 -2.3035  1.2980
 2195SOL    HW218048   0.516   3.326   4.862  0.7293 -0.4720  0.0406
 2196SOL     OW18049   1.874   3.148   4.997  0.3163  0.3519  0.2276
 2196SOL    HW118050   1.804   3.131   4.934 -0.4530  3.4803  0.2560
 2196SOL    HW218051   1.951   3.115   4.950  0.6783 -1.3540  2.0331
 2197SOL     OW18052   0.768   3.217   7.030  0.1715 -0.4589 -0.5301
 2197SOL    HW118053   0.759   3.123   7.049  2.3059 -1.0674 -2.5195
 2197SOL    HW218054   0.812   3.251   7.107  0.0877 -1.2980 -0.1057
 2198SOL     OW18055   4.412   1.722  11.171 -0.6407  0.3391 -0.4262
 2198SOL    HW118056   4.319   1.741  11.164 -0.3327  0.9589 -2.8850
 2198SOL    HW218057   4.442   1.772  11.096 -1.7091  1.6001 -0.0172
 2199SOL     OW18058   2.369   0.155   2.079  0.3355 -0.4288  0.1910
 2199SOL    HW118059   2.299   0.093   2.057 -1.5029  2.2391 -1.5208
 2199SOL    HW218060   2.364   0.218   2.007  0.2053 -1.4313 -0.6792
 2200SOL     OW18061   3.087   0.887  10.801  0.2574  0.0505  0.0871
 2200SOL    HW118062   3.113   0.903  10.892  1.7970  0.6615 -0.4671
 2200SOL    HW218063   2.992   0.882  10.812  0.2003  0.1670 -0.3395
 2201SOL     OW18064   2.908   3.367   6.190  0.3397  0.5801  0.2001
 2201SOL    HW118065   2.942   3.305   6.126 -2.3251 -1.8864  1.1870
 2201SOL    HW218066   2.812   3.359   6.191  0.4480 -0.6620  0.6585
 2202SOL     OW18067   1.378   4.531   2.496  0.0851 -0.4602 -0.0213
 2202SOL    HW118068   1.367   4.446   2.539 -1.9805  1.3221  2.9984
 2202SOL    HW218069   1.328   4.521   2.416 -1.4268  0.4385  0.8007
 2203SOL     OW18070   2.674   3.173  12.470  0.2321 -0.0279 -0.2606
 2203SOL    HW118071   2.763   3.142  12.484  0.8920  1.3063 -1.5092
 2203SOL    HW218072   2.641   3.210  12.552  1.8287 -0.5689  0.6252
 2204SOL     OW18073   1.677   2.342  10.284  0.4119 -0.2520 -0.0096
 2204SOL    HW118074   1.719   2.287  10.218  0.5753  0.0244 -0.1364
 2204SOL    HW218075   1.609   2.393  10.240 -0.2821 -1.5792 -0.4590
 2205SOL     OW18076   1.257   0.832   5.811 -0.9015 -0.4026  0.0579
 2205SOL    HW118077   1.298   0.793   5.734  0.8746  1.0074  0.3055
 2205SOL    HW218078   1.335   0.874   5.847 -0.5189  0.1827 -1.4266
 2206SOL     OW18079   1.412   0.747  17.009  0.0786 -0.3578 -0.2431
 2206SOL    HW118080   1.486   0.805  16.990 -0.3710  0.1316 -0.4966
 2206SOL    HW218081   1.374   0.807  17.073  0.7207 -0.0780 -0.1258
 2207SOL     OW18082   3.133   3.422   5.960 -0.6025  0.2765  0.0071
 2207SOL    HW118083   3.176   3.392   5.880 -1.1280 -2.3798  0.7354
 2207SOL    HW218084   3.053   3.370   5.960 -0.1322 -0.4625  1.0613
 2208SOL     OW18085   3.693   1.905   6.244  0.2866 -0.1660  0.4004
 2208SOL    HW118086   3.624   1.845   6.216 -2.1988  2.3091  1.3343
 2208SOL    HW218087   3.740   1.852   6.308  0.0270  0.7735  1.3607
 2209SOL     OW18088   0.644   1.033   3.194 -0.2253  0.9362 -0.3735
 2209SOL    HW118089   0.635   0.978   3.116  5.7469  0.6266 -0.8801
 2209SOL    HW218090   0.619   1.116   3.154  1.6263  1.3508 -0.6821
 2210SOL     OW18091   2.984   1.886   7.937 -0.0214  0.1004 -0.3015
 2210SOL    HW118092   2.955   1.870   7.847  0.3863 -0.9733 -0.2448
 2210SOL    HW218093   3.001   1.798   7.972 -0.2146  0.6638  1.1865
 2211SOL     OW18094   3.644   1.848   7.459  0.1290 -0.2335  0.4137
 2211SOL    HW118095   3.585   1.813   7.391 -0.6010  0.4839  0.6822
 2211SOL    HW218096   3.619   1.939   7.443 -0.4761 -0.2570  1.2165
 2212SOL     OW18097   0.506   2.268   9.164 -0.0873  0.2639 -0.3748
 2212SOL    HW118098   0.449   2.275   9.088 -0.4317  1.8610  0.0201
 2212SOL    HW218099   0.463   2.197   9.210  0.9515 -0.2460 -0.1892
 2213SOL     OW18100   1.549   2.287   2.573  0.0976  0.0755  0.0455
 2213SOL    HW118101   1.577   2.261   2.485 -1.9109  1.4623 -1.0089
 2213SOL    HW218102   1.511   2.374   2.564  0.6690  0.2872 -0.3335
 2214SOL     OW18103   2.032   2.458   8.876  0.7582  0.1450  0.1747
 2214SOL    HW118104   1.989   2.379   8.910 -0.9021  1.3680  0.9059
 2214SOL    HW218105   2.028   2.513   8.954 -0.6527 -1.1348  1.0144
 2215SOL     OW18106   0.918   1.488  14.197  0.2656 -0.2554 -0.1668
 2215SOL    HW118107   0.875   1.403  14.189  0.4027 -0.5611  2.5479
 2215SOL    HW218108   0.850   1.548  14.167 -0.0691 -0.1255  0.8508
 2216SOL     OW18109   0.651   4.389   9.267  0.4857 -0.3263  0.0933
 2216SOL    HW118110   0.716   4.439   9.317 -0.7541  0.4321  0.9262
 2216SOL    HW218111   0.705   4.312   9.244 -1.3089 -1.4925 -0.1871
 2217SOL     OW18112   3.683   1.819   2.079 -0.1209  0.2743  0.0110
 2217SOL    HW118113   3.671   1.832   2.173  0.4289  1.1392 -0.0398
 2217SOL    HW218114   3.592   1.795   2.059  0.4924 -2.4883  0.5291
 2218SOL     OW18115   0.460   4.116   4.011 -0.9622  0.5482 -0.5169
 2218SOL    HW118116   0.382   4.062   4.022  0.1057 -1.0641 -0.8628
 2218SOL    HW218117   0.524   4.063   4.060 -0.8097 -1.6038 -3.0303
 2219SOL     OW18118   2.663   2.995   7.166  0.0395 -0.7805  0.2028
 2219SOL    HW118119   2.726   2.944   7.217  1.2810  2.1306  1.5969
 2219SOL    HW218120   2.609   3.020   7.241  1.4135  0.5543  0.7456
 2220SOL     OW18121   3.201   1.184  14.739  0.0450  0.0161 -0.3427
 2220SOL    HW118122   3.239   1.101  14.769 -0.3029 -0.1979 -0.5060
 2220SOL    HW218123   3.176   1.159  14.650  1.3410 -0.0780 -0.6865
 2221SOL     OW18124   1.192   0.286   4.047  0.7383 -0.3786 -0.3377
 2221SOL    HW118125   1.162   0.219   4.109 -1.9461  1.1452 -0.0126
 2221SOL    HW218126   1.147   0.361   4.086 -2.6949 -2.9030  0.5778
 2222SOL     OW18127   0.430   4.558   2.604  0.0460 -0.2209  0.2196
 2222SOL    HW118128   0.414   4.475   2.559  2.5563 -0.7439  0.2491
 2222SOL    HW218129   0.516   4.528   2.635  0.2007 -1.1846 -1.1205
 2223SOL     OW18130   1.166   0.607  11.124  0.0702  0.3796 -0.1018
 2223SOL    HW118131   1.147   0.626  11.215 -1.0640  0.3111 -0.3123
 2223SOL    HW218132   1.205   0.690  11.099 -2.9163  1.2135 -2.0798
 2224SOL     OW18133   1.822   0.182   5.074  0.1125 -0.0414 -0.1175
 2224SOL    HW118134   1.867   0.253   5.119  0.6592  0.0433 -0.7950
 2224SOL    HW218135   1.840   0.102   5.123  1.7916  0.3772 -0.0506
 2225SOL     OW18136   3.570   3.790   4.034  0.0097 -0.2157  0.0381
 2225SOL    HW118137   3.638   3.778   4.101  0.4651  0.6438 -0.2657
 2225SOL    HW218138   3.619   3.801   3.952  0.7426 -0.7701  0.3970
 2226SOL     OW18139   2.416   1.910   4.882  0.1293  0.1415  0.0624
 2226SOL    HW118140   2.358   1.884   4.954  0.9864 -1.2775  0.2388
 2226SOL    HW218141   2.356   1.922   4.808  0.1655 -1.2544 -0.1912
 2227SOL     OW18142   4.618   0.714  17.482 -0.3037 -0.0999 -0.3624
 2227SOL    HW118143   4.569   0.632  17.490 -1.0756  0.2081 -1.8366
 2227SOL    HW218144   4.550   0.774  17.515  0.2946  1.5905 -2.1774
 2228SOL     OW18145   1.186   2.553  16.570 -0.4086  0.6574  0.2493
 2228SOL    HW118146   1.150   2.519  16.652 -1.2026  1.5004  0.2563
 2228SOL    HW218147   1.111   2.603  16.538 -1.3629 -0.1117  1.3134
 2229SOL     OW18148   0.517   3.049   8.341  0.0769 -0.1137  0.7795
 2229SOL    HW118149   0.559   2.970   8.307 -0.6210  1.0114 -2.7487
 2229SOL    HW218150   0.439   3.058   8.285  1.2726  2.4427 -0.4974
 2230SOL     OW18151   3.254   2.339   3.963 -0.3351 -0.2581  0.0238
 2230SOL    HW118152   3.196   2.400   4.008 -0.1271 -1.1668  1.5528
 2230SOL    HW218153   3.284   2.391   3.888  0.4631  2.9062  2.5434
 2231SOL     OW18154   3.729   3.228   4.576  0.1393  0.2149  0.3698
 2231SOL    HW118155   3.714   3.295   4.508  2.3549  0.4904  0.1443
 2231SOL    HW218156   3.645   3.230   4.621 -0.1400  1.1461 -0.1877
 2232SOL     OW18157   1.220   1.596   1.692 -0.3047 -0.3207 -0.0556
 2232SOL    HW118158   1.267   1.522   1.654  0.4797  0.3680 -0.4086
 2232SOL    HW218159   1.184   1.541   1.762  3.2221 -0.1915  1.8847
 2233SOL     OW18160   2.936   2.424   5.312  0.3267  0.0572 -0.1668
 2233SOL    HW118161   2.862   2.389   5.262 -0.0727 -0.0339  0.4865
 2233SOL    HW218162   3.007   2.412   5.249  1.6717  1.5950  1.0852
 2234SOL     OW18163   2.508   2.271   1.113  0.4291  0.0792 -0.3263
 2234SOL    HW118164   2.529   2.178   1.117 -2.8703 -0.7510 -2.4720
 2234SOL    HW218165   2.590   2.307   1.077  1.6696 -0.1048  2.3550
 2235SOL     OW18166   2.722   2.664  13.546  0.3991  0.3049 -0.0352
 2235SOL    HW118167   2.742   2.688  13.456 -0.7174 -0.9537 -0.6079
 2235SOL    HW218168   2.786   2.726  13.582  0.1826  0.2336  0.4662
 2236SOL     OW18169   0.077   1.721  16.070  0.6435  0.0325 -0.9776
 2236SOL    HW118170   0.168   1.737  16.096  0.1880 -3.0988  2.5366
 2236SOL    HW218171   0.027   1.698  16.148  0.2649  2.6181 -0.4519
 2237SOL     OW18172   4.347   0.615   0.572 -0.4965 -0.1088  0.0941
 2237SOL    HW118173   4.336   0.523   0.598 -0.5812 -0.8025 -2.4075
 2237SOL    HW218174   4.316   0.658   0.652 -0.2516  1.4533 -0.6605
 2238SOL     OW18175   3.810   2.990  15.386  0.3265  0.6404 -0.4516
 2238SOL    HW118176   3.890   2.938  15.383 -0.6448 -1.0183  1.7145
 2238SOL    HW218177   3.841   3.035  15.464  1.0644 -0.4004 -0.1403
 2239SOL     OW18178   4.009   4.294   9.410 -0.4996  0.3306 -0.5638
 2239SOL    HW118179   4.021   4.199   9.422 -0.4483  0.3960 -0.1082
 2239SOL    HW218180   3.927   4.287   9.360 -1.7084  0.8219  1.3218
 2240SOL     OW18181   0.732   0.794   1.415 -0.4300 -0.4113 -0.7469
 2240SOL    HW118182   0.752   0.822   1.504 -0.4163  0.8046 -1.1219
 2240SOL    HW218183   0.812   0.747   1.390  0.0920  0.3448 -0.5117
 2241SOL     OW18184   2.749   3.890  10.441  0.0041 -0.1259 -0.3689
 2241SOL    HW118185   2.770   3.978  10.408  0.8815 -0.5139 -0.8667
 2241SOL    HW218186   2.826   3.839  10.413 -1.2880 -0.9001 -2.5154
 2242SOL     OW18187   1.140   0.721   2.417 -0.2839  0.2074 -0.2335
 2242SOL    HW118188   1.210   0.696   2.477 -0.4979  0.5709  0.1664
 2242SOL    HW218189   1.082   0.761   2.482 -0.4061  1.1424 -0.9198
 2243SOL     OW18190   3.009   1.854   2.397 -0.2770 -0.2728 -0.4332
 2243SOL    HW118191   2.955   1.869   2.475 -0.7438 -2.2486 -0.3759
 2243SOL    HW218192   3.065   1.931   2.394  1.4544 -1.5177  0.1011
 2244SOL     OW18193   3.870   2.207   3.753  0.0863 -0.1991  0.0400
 2244SOL    HW118194   3.913   2.171   3.675  0.0355 -0.9732  0.3695
 2244SOL    HW218195   3.878   2.128   3.806  0.8400  0.8109  1.4029
 2245SOL     OW18196   3.437   2.771   5.692 -0.1667  0.6575 -0.2558
 2245SOL    HW118197   3.435   2.859   5.730 -0.2844  0.4947  0.1183
 2245SOL    HW218198   3.369   2.775   5.625 -0.2301  0.7833 -0.1832
 2246SOL     OW18199   4.428   0.821   2.412  0.2991 -0.1301 -0.5418
 2246SOL    HW118200   4.352   0.856   2.366 -1.4078 -1.1999  1.4817
 2246SOL    HW218201   4.381   0.738   2.424  0.7552 -0.3351 -0.1740
 2247SOL     OW18202   0.102   0.158   8.631  0.3931 -0.8956  0.1656
 2247SOL    HW118203   0.181   0.185   8.586 -0.4286  0.5253 -0.4236
 2247SOL    HW218204   0.148   0.150   8.715  2.1549 -0.5611 -0.7861
 2248SOL     OW18205   0.035   3.377   8.042  0.2614 -0.1110  0.2469
 2248SOL    HW118206   0.041   3.284   8.063  0.6563 -0.2233 -0.3627
 2248SOL    HW218207   0.111   3.373   7.985  0.2448 -0.9064  0.2730
 2249SOL     OW18208   1.444   4.191   3.647  0.0134  0.4444  0.3654
 2249SOL    HW118209   1.452   4.197   3.742 -0.0827  0.5032  0.3690
 2249SOL    HW218210   1.392   4.112   3.631  1.2735 -0.2605 -0.3074
 2250SOL     OW18211   2.434   3.234   6.743 -0.2694 -0.5609 -0.2568
 2250SOL    HW118212   2.453   3.178   6.818 -3.5479  0.3023  1.2192
 2250SOL    HW218213   2.399   3.305   6.797  0.9919  0.9882 -1.4925
 2251SOL     OW18214   0.329   0.324   3.688  0.4565 -0.6309 -0.1736
 2251SOL    HW118215   0.403   0.296   3.633 -0.8236 -0.6105 -1.8782
 2251SOL    HW218216   0.313   0.403   3.637 -0.0316  0.1723  1.2284
 2252SOL     OW18217   0.336   2.631   4.173  0.4090  0.0451 -0.3991
 2252SOL    HW118218   0.289   2.624   4.256  0.9943 -2.6389 -0.2825
 2252SOL    HW218219   0.359   2.539   4.160  0.9298 -0.0564  1.2635
 2253SOL     OW18220   0.654   3.855   7.825  0.6823 -0.2251  0.3101
 2253SOL    HW118221   0.687   3.880   7.739  1.0654 -1.3597  0.1302
 2253SOL    HW218222   0.672   3.930   7.882 -1.1905  0.2744  0.2535
 2254SOL     OW18223   2.104   4.012   8.011 -0.1699  0.1483 -0.7085
 2254SOL    HW118224   2.062   4.097   8.023  0.1382 -0.0272  1.6953
 2254SOL    HW218225   2.094   3.969   8.096  0.9071 -0.0582 -0.6849
 2255SOL     OW18226   2.436   0.229   2.876  0.2870  0.2288  0.3998
 2255SOL    HW118227   2.410   0.273   2.957 -0.0778 -1.1234  1.0163
 2255SOL    HW218228   2.350   0.188   2.865 -0.2048  1.3575  0.0434
 2256SOL     OW18229   4.195   2.769   7.762  0.1717  0.1393  0.1597
 2256SOL    HW118230   4.108   2.745   7.728  0.6585 -0.2981 -0.7842
 2256SOL    HW218231   4.170   2.839   7.823  0.0542  1.0248 -0.8841
 2257SOL     OW18232   2.754   0.907   7.485  0.0105  0.7169 -0.6026
 2257SOL    HW118233   2.795   0.848   7.548 -0.6521 -0.8917 -1.6912
 2257SOL    HW218234   2.775   0.876   7.397  0.9740  1.0370 -0.4899
 2258SOL     OW18235   1.095   3.705   5.078 -0.1343 -0.4133 -0.3187
 2258SOL    HW118236   1.119   3.650   5.003 -0.4100 -0.0079 -0.7038
 2258SOL    HW218237   1.045   3.776   5.037 -1.6934 -1.7027 -0.6568
 2259SOL     OW18238   2.832   3.207  12.098 -0.6366 -0.0426 -0.4271
 2259SOL    HW118239   2.827   3.129  12.154 -0.3887 -0.7540 -1.3959
 2259SOL    HW218240   2.749   3.247  12.124 -0.3405 -1.3972  2.5625
 2260SOL     OW18241   2.872   4.697   9.353 -0.3797  0.2515 -0.3249
 2260SOL    HW118242   2.777   4.705   9.362 -0.2628  2.4939 -1.0062
 2260SOL    HW218243   2.902   0.068   9.357  1.4128 -0.3028 -1.4096
 2261SOL     OW18244   1.653   2.708   4.110 -0.2927 -0.1065 -0.6122
 2261SOL    HW118245   1.700   2.670   4.036 -1.7606 -1.2706 -0.9229
 2261SOL    HW218246   1.690   2.796   4.100 -2.3500  0.5635 -2.1374
 2262SOL     OW18247   1.526   4.703   3.431  0.2033 -0.0156  0.2976
 2262SOL    HW118248   1.440   0.017   3.453  0.8903  0.4705  2.2350
 2262SOL    HW218249   1.565   0.062   3.394 -0.8166 -0.0225 -0.7736
 2263SOL     OW18250   3.872   2.225   7.911 -0.0087 -0.4841  0.5400
 2263SOL    HW118251   3.946   2.168   7.930 -0.0953 -0.2477  1.5884
 2263SOL    HW218252   3.803   2.184   7.962 -0.7572 -0.6243 -0.5992
 2264SOL     OW18253   1.076   3.326   6.866 -0.0998  0.1265  0.4700
 2264SOL    HW118254   1.133   3.306   6.941 -0.0425  0.1504  0.4329
 2264SOL    HW218255   1.011   3.381   6.910  0.2623 -0.0283  1.2050
 2265SOL     OW18256   1.426   4.678  15.686 -0.3234 -0.1020 -0.2360
 2265SOL    HW118257   1.515   4.656  15.714 -0.0575 -1.4831 -2.2108
 2265SOL    HW218258   1.382   4.594  15.671  0.0114 -0.2741 -0.2532
 2266SOL     OW18259   4.541   0.656   4.972  0.0564 -0.2560  0.1985
 2266SOL    HW118260   4.484   0.661   5.049  0.3489  0.9524  0.3287
 2266SOL    HW218261   4.477   0.640   4.903  1.6453  0.4809 -1.4270
 2267SOL     OW18262   0.581   2.253   3.201  0.1399 -0.1373  0.4054
 2267SOL    HW118263   0.511   2.207   3.248 -0.3333  0.8177  0.6306
 2267SOL    HW218264   0.659   2.198   3.212 -0.2887 -0.6280  1.0361
 2268SOL     OW18265   2.716   0.055   2.028 -0.0465  0.2872 -0.7664
 2268SOL    HW118266   2.782   4.718   1.990  2.3453 -0.2461  4.2158
 2268SOL    HW218267   2.685   0.002   2.101 -0.0250  1.5288  0.1449
 2269SOL     OW18268   3.009   2.310   2.454  0.2153 -0.4117 -0.0455
 2269SOL    HW118269   3.067   2.331   2.382 -2.3811  2.1441 -1.4128
 2269SOL    HW218270   2.942   2.377   2.439 -0.8172 -1.0159  1.8153
 2270SOL     OW18271   3.364   2.566   9.763  0.2941  0.0907 -0.6857
 2270SOL    HW118272   3.281   2.519   9.772  0.6774 -0.6187 -0.9258
 2270SOL    HW218273   3.365   2.593   9.672 -0.9465  1.7212 -0.2184
 2271SOL     OW18274   1.972   2.717   4.274  0.1276 -0.5609 -0.4147
 2271SOL    HW118275   1.965   2.682   4.185 -0.9145 -1.5964  0.0693
 2271SOL    HW218276   1.994   2.634   4.316  0.4369 -0.2563  0.0152
 2272SOL     OW18277   2.050   3.367   5.547 -0.0398 -0.1149 -0.7936
 2272SOL    HW118278   2.098   3.330   5.473  0.5750  1.5957 -1.2330
 2272SOL    HW218279   2.120   3.413   5.591  0.2602  0.6609 -2.1025
 2273SOL     OW18280   4.231   2.564   0.073  0.0854 -0.3463 -0.1167
 2273SOL    HW118281   4.295   2.494   0.062  1.2424  0.3013  2.4334
 2273SOL    HW218282   4.264   2.626   0.008 -0.4317 -0.6666 -0.6854
 2274SOL     OW18283   3.700   4.429   4.567 -0.1222 -0.9164 -0.0618
 2274SOL    HW118284   3.706   4.503   4.627 -0.6942  0.6395 -1.8916
 2274SOL    HW218285   3.730   4.351   4.613  1.9133 -1.3544 -2.1357
 2275SOL     OW18286   0.963   1.645   8.528  0.1367 -0.1645  0.1968
 2275SOL    HW118287   0.909   1.693   8.465 -3.1910 -1.2992  2.1741
 2275SOL    HW218288   1.047   1.653   8.484 -2.0360  1.0242 -3.7404
 2276SOL     OW18289   1.894   1.455   2.231 -0.4509 -0.3892 -0.8805
 2276SOL    HW118290   1.859   1.393   2.295  0.1810 -1.6970 -1.7856
 2276SOL    HW218291   1.980   1.475   2.267 -1.5303  1.9291  0.4097
 2277SOL     OW18292   3.925   2.165   6.955 -0.0215  0.0264 -0.3858
 2277SOL    HW118293   4.014   2.181   6.923 -0.5739  2.7849 -0.5009
 2277SOL    HW218294   3.920   2.187   7.048  3.2130  0.8289 -0.4000
 2278SOL     OW18295   4.404   0.620   3.634  0.0181 -0.1878  0.1433
 2278SOL    HW118296   4.464   0.571   3.690  1.6066  0.6084 -0.8674
 2278SOL    HW218297   4.328   0.562   3.634 -0.3025  0.2380 -1.8061
 2279SOL     OW18298   3.060   2.184   4.668 -0.0195 -0.2197 -0.0264
 2279SOL    HW118299   2.976   2.213   4.632 -0.3560  0.1058  1.0523
 2279SOL    HW218300   3.089   2.119   4.603  0.3199 -0.7390  0.6400
 2280SOL     OW18301   3.274   0.297  17.130 -0.0698  0.7978 -0.1717
 2280SOL    HW118302   3.326   0.243  17.190 -0.0054  0.6585 -0.3518
 2280SOL    HW218303   3.341   0.354  17.092 -0.6094  2.2453  1.0838
 2281SOL     OW18304   2.617   4.598   9.854 -0.0041  0.0872  0.8722
 2281SOL    HW118305   2.689   4.608   9.792 -1.8903 -0.8148 -1.4624
 2281SOL    HW218306   2.577   4.685   9.856  1.3651  0.7686 -1.7667
 2282SOL     OW18307   0.709   3.708   3.122 -0.3271  0.2207  0.2696
 2282SOL    HW118308   0.733   3.784   3.174  0.3258 -0.6433  1.2219
 2282SOL    HW218309   0.647   3.663   3.179  0.6057  0.0927  1.1822
 2283SOL     OW18310   1.950   0.827  13.341 -0.6527  0.0610  0.1317
 2283SOL    HW118311   1.894   0.757  13.306  0.1425  1.0425 -3.1512
 2283SOL    HW218312   1.893   0.879  13.396  0.7262  0.5589  1.0970
 2284SOL     OW18313   4.213   1.188   6.466  0.6154 -0.4755 -0.4740
 2284SOL    HW118314   4.160   1.252   6.513 -0.1057 -1.5884  0.2249
 2284SOL    HW218315   4.215   1.222   6.377 -3.4945  0.0899 -0.3416
 2285SOL     OW18316   3.296   1.094   7.553 -0.2304  0.3700  0.6854
 2285SOL    HW118317   3.338   1.179   7.542 -0.8480  0.3102 -2.1331
 2285SOL    HW218318   3.286   1.090   7.649 -1.6798  1.5189  0.5883
 2286SOL     OW18319   2.713   2.265   3.700  0.1926 -0.3648 -0.0879
 2286SOL    HW118320   2.808   2.267   3.715  0.1766 -0.2625  0.0039
 2286SOL    HW218321   2.681   2.333   3.760  0.3862  2.3125 -3.0304
 2287SOL     OW18322   3.073   1.440   1.470  0.1132 -0.0904  0.3010
 2287SOL    HW118323   3.072   1.481   1.557 -1.1599 -2.0296  1.1901
 2287SOL    HW218324   3.002   1.488   1.427 -1.3977 -2.5112  0.1284
 2288SOL     OW18325   3.662   4.462   7.334 -0.0703  0.1994 -0.4126
 2288SOL    HW118326   3.571   4.492   7.343  0.0396  0.9354 -1.7730
 2288SOL    HW218327   3.678   4.474   7.428 -2.8975 -0.2738  0.1521
 2289SOL     OW18328   3.902   0.278   4.803 -0.8201  0.0369 -0.1593
 2289SOL    HW118329   3.929   0.342   4.869  2.0403 -1.7153  0.3396
 2289SOL    HW218330   3.810   0.264   4.824 -0.9363 -1.4343 -1.6886
 2290SOL     OW18331   0.134   2.978  12.497 -0.6048  0.1535 -0.1389
 2290SOL    HW118332   0.097   2.935  12.574 -1.1727  0.3262 -0.3135
 2290SOL    HW218333   0.166   2.902  12.448 -0.9743  0.6259 -1.1249
 2291SOL     OW18334   1.260   3.668   9.546 -0.4435 -0.2043 -0.3722
 2291SOL    HW118335   1.298   3.603   9.486 -0.3023  0.1042 -0.6190
 2291SOL    HW218336   1.215   3.610   9.607 -1.6590  0.3821 -0.7119
 2292SOL     OW18337   2.556   2.644   2.610 -0.0377  0.0145  0.4458
 2292SOL    HW118338   2.608   2.563   2.607 -2.1889 -1.4082  2.1790
 2292SOL    HW218339   2.467   2.612   2.614  0.3472 -0.9365  1.2515
 2293SOL     OW18340   2.892   2.744   1.730  0.6242 -0.1145  0.7372
 2293SOL    HW118341   2.826   2.687   1.691 -0.5795  1.3292  0.6701
 2293SOL    HW218342   2.965   2.684   1.747  2.8958  2.6198  0.7487
 2294SOL     OW18343   1.672   1.106  17.262 -0.6771  0.4173 -0.2898
 2294SOL    HW118344   1.646   1.148  17.345 -1.3513  0.5561 -0.5739
 2294SOL    HW218345   1.681   1.168  17.190  0.8475  1.2661  0.6353
 2295SOL     OW18346   1.537   1.510  17.378  0.1596 -0.8138 -0.4202
 2295SOL    HW118347   1.519   1.517  17.472 -0.9053 -1.2470 -0.6066
 2295SOL    HW218348   1.630   1.490  17.388 -0.0119 -0.6385  1.5089
 2296SOL     OW18349   3.827   4.403  15.750 -0.5242 -0.2373 -0.3998
 2296SOL    HW118350   3.836   4.490  15.710 -1.4379 -0.1514 -0.4224
 2296SOL    HW218351   3.800   4.423  15.839 -1.5268 -1.6470 -0.3910
 2297SOL     OW18352   1.073   3.564   1.196  0.1092 -0.5404 -0.5069
 2297SOL    HW118353   0.986   3.584   1.229  0.3978  0.6088 -0.4224
 2297SOL    HW218354   1.080   3.612   1.113  2.0823 -2.0128 -1.1889
 2298SOL     OW18355   3.826   1.469   6.617 -0.4078 -0.1548 -0.4366
 2298SOL    HW118356   3.826   1.462   6.713 -0.8524  1.0779 -0.3603
 2298SOL    HW218357   3.756   1.406   6.601  1.7264 -2.5522 -0.4464
 2299SOL     OW18358   1.492   3.963   5.175  0.4025  0.3150 -0.0550
 2299SOL    HW118359   1.438   3.892   5.209  0.5593 -0.3812 -1.3006
 2299SOL    HW218360   1.568   3.910   5.153  0.0225  0.6629 -2.1869
 2300SOL     OW18361   2.536   4.053   1.581 -0.3195  0.3178 -0.3796
 2300SOL    HW118362   2.488   4.048   1.499 -1.1767 -0.4540  0.1695
 2300SOL    HW218363   2.606   4.115   1.561 -0.5597  0.7870  0.2443
 2301SOL     OW18364   1.695   0.819  10.735  0.0042  0.3299 -0.5482
 2301SOL    HW118365   1.682   0.727  10.760 -1.5207 -0.0553 -2.7657
 2301SOL    HW218366   1.635   0.818  10.660  0.5240  0.0769 -0.9576
 2302SOL     OW18367   2.241   1.193   4.381  0.4510  0.1069  0.0734
 2302SOL    HW118368   2.314   1.134   4.400 -0.2264 -0.3101  1.3983
 2302SOL    HW218369   2.231   1.177   4.287  0.6350  2.1648 -0.2786
 2303SOL     OW18370   4.515   3.606  17.439 -0.7010 -0.1344  0.1635
 2303SOL    HW118371   4.577   3.541  17.405 -0.0180 -0.1995  1.5139
 2303SOL    HW218372   4.507   3.571  17.528 -0.3114  0.7240  0.5402
 2304SOL     OW18373   0.219   4.492   7.769  0.0012 -0.0318  0.3132
 2304SOL    HW118374   0.243   4.546   7.844  0.6684 -0.1992  0.2223
 2304SOL    HW218375   0.151   4.431   7.798 -0.8086  0.2794 -0.9148
 2305SOL     OW18376   0.528   0.297   6.528  0.1889  0.4776 -0.3607
 2305SOL    HW118377   0.501   0.217   6.482  1.4605 -0.5589  0.6732
 2305SOL    HW218378   0.618   0.298   6.496 -0.0655  0.7682 -1.0558
 2306SOL     OW18379   3.287   3.077  11.499  0.2950  0.8406 -0.4672
 2306SOL    HW118380   3.334   3.004  11.539 -0.6145  1.1026  1.0745
 2306SOL    HW218381   3.218   3.079  11.565 -0.7758 -0.6474 -1.5451
 2307SOL     OW18382   4.500   1.794  10.924 -0.3587  0.0961  0.5168
 2307SOL    HW118383   4.529   1.707  10.898  1.6282  0.6879  0.7379
 2307SOL    HW218384   4.582   1.843  10.917 -1.0648  1.0629 -0.8832
 2308SOL     OW18385   1.706   4.130   1.276 -0.1728 -0.5667  0.4159
 2308SOL    HW118386   1.751   4.056   1.236  1.6842 -0.4915  2.3674
 2308SOL    HW218387   1.626   4.092   1.311 -1.5358 -1.6120 -3.8756
 2309SOL     OW18388   2.840   0.065  17.642  0.3577  0.0446  0.3887
 2309SOL    HW118389   2.841   0.150  17.596  0.4782  0.3014  0.8641
 2309SOL    HW218390   2.848   0.100   0.048 -1.7205  0.4691  0.4179
 2310SOL     OW18391   2.329   1.480  15.023 -0.2241 -0.0689  0.0916
 2310SOL    HW118392   2.396   1.498  14.957 -0.6926 -0.6419 -0.5333
 2310SOL    HW218393   2.382   1.439  15.091  0.3844 -0.4445 -0.6177
 2311SOL     OW18394   0.326   1.668   1.369 -0.4241  0.3371 -0.0579
 2311SOL    HW118395   0.296   1.758   1.358 -1.5780 -0.1541 -0.9647
 2311SOL    HW218396   0.263   1.631   1.432 -0.0467  1.3161  0.8986
 2312SOL     OW18397   4.091   4.078  11.198 -0.0791 -0.0961  0.2970
 2312SOL    HW118398   4.140   4.044  11.124  0.2539 -2.1794  1.4882
 2312SOL    HW218399   4.058   4.163  11.168  2.6886  0.6693 -0.5656
 2313SOL     OW18400   4.270   4.563  13.479 -0.4885  0.8140 -0.0183
 2313SOL    HW118401   4.176   4.555  13.469 -0.3356 -0.5628 -0.3494
 2313SOL    HW218402   4.290   4.609  13.398  0.1937 -1.7794 -1.3254
 2314SOL     OW18403   3.748   0.111  16.822  0.2667 -1.1671  0.0621
 2314SOL    HW118404   3.751   0.122  16.727 -1.0543 -0.6206  0.0833
 2314SOL    HW218405   3.841   0.094  16.836  0.7942  3.0054  1.3978
 2315SOL     OW18406   3.389   2.342   7.818  0.1744  0.0758 -0.1174
 2315SOL    HW118407   3.326   2.271   7.808  0.8775 -0.7807  1.5247
 2315SOL    HW218408   3.474   2.315   7.783  0.3669 -0.4543  0.7736
 2316SOL     OW18409   0.469   4.633   3.180  0.1477  0.2610  0.2703
 2316SOL    HW118410   0.434   4.551   3.212  3.8061 -2.4569 -2.6583
 2316SOL    HW218411   0.535   4.600   3.119  0.3394  2.8116 -0.9053
 2317SOL     OW18412   3.782   2.126  12.460 -1.0366  0.3720  0.4411
 2317SOL    HW118413   3.753   2.197  12.402 -1.8100 -0.7335 -0.5193
 2317SOL    HW218414   3.843   2.178  12.512 -0.7869  0.9605 -0.4510
 2318SOL     OW18415   0.772   0.836  16.566 -0.1453  0.3877 -0.4139
 2318SOL    HW118416   0.852   0.794  16.594 -0.9108 -0.5193  0.3962
 2318SOL    HW218417   0.713   0.822  16.640  0.8242  1.7701  0.6218
 2319SOL     OW18418   0.277   1.484   9.311  0.3451 -0.5172  0.0770
 2319SOL    HW118419   0.241   1.399   9.337 -0.0061 -0.2482  0.4812
 2319SOL    HW218420   0.357   1.480   9.363  0.0527  1.2141  0.6788
 2320SOL     OW18421   3.802   1.925   8.219  0.2530  0.0137 -0.3939
 2320SOL    HW118422   3.837   2.013   8.233  1.1441 -0.4477  0.2722
 2320SOL    HW218423   3.772   1.907   8.308  2.0460  2.0466  0.6384
 2321SOL     OW18424   1.592   4.317   4.304  0.4484 -0.5805  0.4888
 2321SOL    HW118425   1.507   4.279   4.327  0.3685 -0.1765  0.8842
 2321SOL    HW218426   1.619   4.265   4.229  0.9411  0.2832  0.0636
 2322SOL     OW18427   1.740   0.753   2.597 -0.4151  0.0499  0.1792
 2322SOL    HW118428   1.763   0.815   2.666  0.8828 -1.1210  0.8127
 2322SOL    HW218429   1.824   0.732   2.556 -1.0004 -1.1086 -0.4193
 2323SOL     OW18430   0.695   2.264   2.088  0.2300  0.5039  0.5151
 2323SOL    HW118431   0.756   2.214   2.035 -0.3712  1.3169 -0.9471
 2323SOL    HW218432   0.646   2.298   2.013 -2.2816 -1.5140  1.2356
 2324SOL     OW18433   0.418   3.839   9.994  0.2733 -0.4890  0.1875
 2324SOL    HW118434   0.513   3.837   9.994  0.2933  0.6479  3.9489
 2324SOL    HW218435   0.401   3.876  10.081 -1.4385 -1.6340  0.3452
 2325SOL     OW18436   2.565   3.909   5.412  0.2525  0.3614 -0.2655
 2325SOL    HW118437   2.649   3.865   5.412 -0.0469 -0.2057 -0.4540
 2325SOL    HW218438   2.515   3.858   5.475 -0.5069 -1.0318 -1.9966
 2326SOL     OW18439   1.466   4.268   4.569  0.4918 -0.3722 -0.0278
 2326SOL    HW118440   1.391   4.242   4.515 -0.1407 -0.7267  1.0024
 2326SOL    HW218441   1.467   4.200   4.637 -2.3871 -1.2923 -0.8810
 2327SOL     OW18442   1.235   2.380   4.987 -0.0454  0.3734  0.1613
 2327SOL    HW118443   1.180   2.348   4.915  0.1108 -0.5138  0.4363
 2327SOL    HW218444   1.286   2.306   5.020 -1.9348 -0.0065  2.2679
 2328SOL     OW18445   4.288   2.389   4.046 -0.7889  0.3343  0.5582
 2328SOL    HW118446   4.195   2.405   4.029 -0.8132 -0.3180  0.0549
 2328SOL    HW218447   4.271   2.328   4.118  1.8450  0.4307  1.2373
 2329SOL     OW18448   0.608   1.445  14.582 -0.2628 -0.0548  0.2357
 2329SOL    HW118449   0.555   1.508  14.533 -0.6748  0.7894  1.7635
 2329SOL    HW218450   0.551   1.434  14.658  0.5865 -0.9281  0.7587
 2330SOL     OW18451   2.032   0.156   8.685  0.1107 -0.0030  0.0017
 2330SOL    HW118452   2.034   0.136   8.778  0.4685  1.7628  0.3778
 2330SOL    HW218453   1.993   0.244   8.688  1.0022  0.3654  0.7126
 2331SOL     OW18454   2.166   3.230   0.322  0.7128  0.9875 -0.5378
 2331SOL    HW118455   2.242   3.172   0.329  0.0140  0.1268 -0.0903
 2331SOL    HW218456   2.116   3.191   0.394  2.0814 -0.6906 -0.4812
 2332SOL     OW18457   4.492   1.152   6.239  0.0502 -1.0221  0.2030
 2332SOL    HW118458   4.546   1.073   6.242 -0.6783 -1.5964 -1.8383
 2332SOL    HW218459   4.550   1.221   6.208  0.4421 -1.4101  0.0779
 2333SOL     OW18460   4.429   3.881   9.806  0.6295 -0.0488 -0.0366
 2333SOL    HW118461   4.380   3.948   9.759  0.6884  0.1053  0.1222
 2333SOL    HW218462   4.486   3.851   9.735 -0.8599  0.2644 -1.3604
 2334SOL     OW18463   0.223   3.765   5.916 -0.4225 -0.1220  0.5333
 2334SOL    HW118464   0.256   3.750   6.005 -0.1937 -3.8754 -0.1655
 2334SOL    HW218465   0.163   3.691   5.902  0.5935 -0.5566 -1.4301
 2335SOL     OW18466   0.147   4.495   0.324  0.3774  0.3324  0.4255
 2335SOL    HW118467   0.064   4.455   0.348  0.8470 -1.0092 -0.1876
 2335SOL    HW218468   0.137   4.504   0.229  0.5724  1.6722  0.5271
 2336SOL     OW18469   3.886   1.873  12.258 -0.1338  0.2325 -0.0371
 2336SOL    HW118470   3.896   1.916  12.343 -2.1391  1.3727 -0.3737
 2336SOL    HW218471   3.967   1.903  12.218  0.5098 -0.1298  0.9948
 2337SOL     OW18472   3.876   2.181   1.754  0.2826  0.7457 -0.1942
 2337SOL    HW118473   3.940   2.137   1.698 -0.0212  3.7978 -2.9113
 2337SOL    HW218474   3.915   2.268   1.745 -1.0078  1.2557 -0.7726
 2338SOL     OW18475   4.708   1.965   4.203 -0.2229  0.7458 -0.6791
 2338SOL    HW118476   4.654   1.887   4.190  1.2741 -0.6110  1.4655
 2338SOL    HW218477   0.052   1.955   4.133 -0.0587 -0.3371 -0.3719
 2339SOL     OW18478   3.487   3.341  12.328  0.0863 -0.0293 -0.6411
 2339SOL    HW118479   3.572   3.345  12.284 -0.1637  2.5978 -0.8681
 2339SOL    HW218480   3.423   3.383  12.270 -0.8310 -0.9979 -0.3272
 2340SOL     OW18481   4.607   2.580   2.381 -0.1037 -0.2004 -0.2492
 2340SOL    HW118482   4.679   2.565   2.320 -0.8508  0.8095 -1.3737
 2340SOL    HW218483   4.629   2.507   2.439  0.0557  0.4958  0.5658
 2341SOL     OW18484   1.582   1.229  12.912  0.0608 -0.2267 -0.0991
 2341SOL    HW118485   1.519   1.199  12.847 -0.1631 -1.7722  0.8499
 2341SOL    HW218486   1.653   1.261  12.856 -2.1756  1.4313 -1.9742
 2342SOL     OW18487   0.400   0.047  14.190 -0.0603  0.1122 -0.2754
 2342SOL    HW118488   0.467   0.050  14.259 -0.5352 -1.9195  0.2833
 2342SOL    HW218489   0.341   4.697  14.218  1.2527 -0.7950  0.2590
 2343SOL     OW18490   0.759   1.619  14.724  0.1941  0.3413 -0.0101
 2343SOL    HW118491   0.734   1.542  14.673  1.5151  0.0714 -0.2545
 2343SOL    HW218492   0.740   1.690  14.664  0.1925  0.5372  0.2203
 2344SOL     OW18493   0.584   3.282   2.472 -0.6452 -0.1053  0.1382
 2344SOL    HW118494   0.540   3.352   2.424 -2.3023 -0.9884  0.3586
 2344SOL    HW218495   0.605   3.231   2.394 -1.8176  0.6862 -0.6984
 2345SOL     OW18496   4.362   2.835   9.358  0.4281  0.4972 -0.0649
 2345SOL    HW118497   4.362   2.745   9.391  0.1219  0.2088 -0.8400
 2345SOL    HW218498   4.406   2.884   9.427  0.3321  1.8144 -0.9330
 2346SOL     OW18499   1.703   0.801   6.241  0.0489 -0.6025  0.7301
 2346SOL    HW118500   1.662   0.864   6.183  0.2709 -2.1965 -1.1484
 2346SOL    HW218501   1.753   0.856   6.302  0.5736 -1.0790  0.7247
 2347SOL     OW18502   0.771   3.460   0.553  0.2812 -0.4183 -0.2651
 2347SOL    HW118503   0.736   3.483   0.639 -0.1034  1.1878 -0.8626
 2347SOL    HW218504   0.714   3.383   0.542  0.5825 -0.9132  1.7772
 2348SOL     OW18505   1.499   1.950   4.626 -0.1528 -0.2591 -0.1169
 2348SOL    HW118506   1.594   1.958   4.618 -0.2794  2.6923  1.6134
 2348SOL    HW218507   1.474   1.889   4.556  1.3153  0.2721 -1.0835
 2349SOL     OW18508   0.069   1.131   7.726  0.0843 -0.0391 -0.1227
 2349SOL    HW118509   0.043   1.072   7.655 -2.3285  0.1860  0.5695
 2349SOL    HW218510   0.110   1.074   7.791 -0.7427 -1.1158 -0.5431
 2350SOL     OW18511   1.192   3.155  15.650 -0.1745  0.0189 -0.4591
 2350SOL    HW118512   1.171   3.213  15.723  0.2921 -3.1346  2.1958
 2350SOL    HW218513   1.211   3.205  15.570  0.8547 -2.0573 -1.5256
 2351SOL     OW18514   3.983   3.762   4.243  0.4728 -0.0196 -0.7021
 2351SOL    HW118515   4.045   3.795   4.307  2.0803 -0.3410 -2.0870
 2351SOL    HW218516   3.907   3.782   4.297  1.6374  0.9529  0.5633
 2352SOL     OW18517   3.687   0.876   4.851 -0.1601 -0.7560  0.2752
 2352SOL    HW118518   3.689   0.793   4.803  0.9624 -0.7416  0.3046
 2352SOL    HW218519   3.731   0.931   4.786  1.7380 -1.2719  1.1307
 2353SOL     OW18520   0.002   1.703   5.463 -0.1948  0.5255  0.5512
 2353SOL    HW118521   0.050   1.630   5.425  1.6400  1.8329  0.3614
 2353SOL    HW218522   4.649   1.663   5.511 -1.7833  0.3111 -2.0140
 2354SOL     OW18523   0.064   1.774   6.719  0.2360  0.5723 -0.4742
 2354SOL    HW118524   0.064   1.775   6.815  1.3459 -1.2060 -0.4414
 2354SOL    HW218525   0.057   1.682   6.694 -0.2164  0.7617 -1.0226
 2355SOL     OW18526   3.059   2.651   6.720  0.3637  0.0635 -0.4412
 2355SOL    HW118527   2.977   2.634   6.673  0.9876 -1.7927 -0.8480
 2355SOL    HW218528   3.087   2.560   6.723 -0.9812 -0.3503 -0.6422
 2356SOL     OW18529   1.646   4.636   3.049  0.5812 -0.3213 -0.3106
 2356SOL    HW118530   1.613   4.656   2.961  0.9072  0.2542 -0.3071
 2356SOL    HW218531   1.692   4.715   3.078  0.1380  0.3720 -1.5091
 2357SOL     OW18532   0.601   4.495   1.860  0.0451 -0.0141 -0.2986
 2357SOL    HW118533   0.676   4.554   1.857 -0.0266  0.0496 -0.8281
 2357SOL    HW218534   0.551   4.526   1.785  0.0319 -3.5167 -1.7460
 2358SOL     OW18535   2.426   1.436   5.340  0.1995  0.3959 -0.1475
 2358SOL    HW118536   2.368   1.489   5.393  0.4442  0.6738 -0.1609
 2358SOL    HW218537   2.511   1.471   5.365 -0.4140  0.6165  1.6319
 2359SOL     OW18538   1.008   3.996   5.543 -0.2990  0.3813  0.6823
 2359SOL    HW118539   0.999   3.966   5.453  1.8194  0.8303  0.3216
 2359SOL    HW218540   0.928   4.043   5.568 -1.1153  0.2725 -1.7896
 2360SOL     OW18541   3.449   3.679   5.550  0.4324  0.5496  0.5654
 2360SOL    HW118542   3.530   3.727   5.532  1.3570 -1.3661 -0.4730
 2360SOL    HW218543   3.404   3.711   5.627  0.0556  2.1393 -0.3144
 2361SOL     OW18544   3.804   0.178   2.935 -0.0790 -0.2210  0.7750
 2361SOL    HW118545   3.775   0.237   2.865 -0.2057 -0.7592  0.3771
 2361SOL    HW218546   3.776   0.222   3.015  1.0892  1.0147  0.5065
 2362SOL     OW18547   4.462   2.228   7.743  0.2468 -0.2441  0.0275
 2362SOL    HW118548   4.374   2.244   7.778  0.7842 -1.7436  2.1200
 2362SOL    HW218549   4.513   2.261   7.818 -1.5463  1.4700  0.4798
 2363SOL     OW18550   0.419   2.258   0.633  0.3004  0.3512  0.6628
 2363SOL    HW118551   0.427   2.321   0.705  0.7993  3.2698 -1.9862
 2363SOL    HW218552   0.487   2.199   0.668  0.5950  0.7503  0.7631
 2364SOL     OW18553   2.746   1.861  11.614  0.4837 -0.0816  0.0290
 2364SOL    HW118554   2.736   1.780  11.663  0.1274  0.0939  0.2443
 2364SOL    HW218555   2.715   1.928  11.676 -2.9911  0.4700 -2.3215
 2365SOL     OW18556   0.178   3.533   2.554  0.3159  0.1288 -0.2794
 2365SOL    HW118557   0.129   3.574   2.483 -0.3647  1.0303  0.7118
 2365SOL    HW218558   0.198   3.610   2.607  0.8214  0.5462 -1.1030
 2366SOL     OW18559   0.661   2.310  10.971 -0.2603  0.5965 -0.3882
 2366SOL    HW118560   0.579   2.322  10.923 -1.1033 -0.9094  0.7041
 2366SOL    HW218561   0.641   2.374  11.039  1.1068  0.0121  0.5618
 2367SOL     OW18562   1.847   0.999  17.657 -0.0567 -0.2835  0.2984
 2367SOL    HW118563   1.924   0.969  17.610 -0.1496  1.0361 -0.6791
 2367SOL    HW218564   1.779   0.955  17.606 -0.3517  1.6865 -0.9863
 2368SOL     OW18565   0.443   3.490   2.349 -0.0373  0.4808  0.2602
 2368SOL    HW118566   0.390   3.561   2.383 -0.3947  0.7107 -0.7707
 2368SOL    HW218567   0.388   3.462   2.276  2.7895  0.5234 -1.9127
 2369SOL     OW18568   2.175   1.417   7.441 -0.0860  0.0690  0.0241
 2369SOL    HW118569   2.101   1.424   7.380  0.1357  0.8565 -0.1576
 2369SOL    HW218570   2.141   1.359   7.508  0.1171 -0.4386 -0.3141
 2370SOL     OW18571   1.532   4.469   3.299  0.0947  0.4695 -0.4899
 2370SOL    HW118572   1.543   4.553   3.344 -2.2339  0.7525 -0.4592
 2370SOL    HW218573   1.544   4.482   3.205 -0.6231  1.3453 -0.4610
 2371SOL     OW18574   1.766   2.413   4.155  0.2805 -0.2254 -0.0146
 2371SOL    HW118575   1.706   2.424   4.229  2.3999  1.1634  1.4916
 2371SOL    HW218576   1.848   2.385   4.197 -0.5850 -1.1235  1.0958
 2372SOL     OW18577   3.218   0.448   8.711 -0.0780 -0.1212 -0.0125
 2372SOL    HW118578   3.220   0.395   8.791 -1.6513 -0.9582 -0.5305
 2372SOL    HW218579   3.299   0.497   8.726  0.3309 -0.4357 -1.2146
 2373SOL     OW18580   0.171   0.655  13.040  0.2897 -0.1215  0.3337
 2373SOL    HW118581   0.095   0.600  13.058  0.1801  0.7993  2.6060
 2373SOL    HW218582   0.227   0.598  12.986  0.2971  1.7460 -1.6426
 2374SOL     OW18583   1.279   2.691   0.691  0.4337  0.3406  0.1860
 2374SOL    HW118584   1.216   2.761   0.709 -1.2499 -1.5569  1.4979
 2374SOL    HW218585   1.301   2.653   0.776 -3.9728 -3.4098 -0.4058
 2375SOL     OW18586   2.581   3.822   7.078 -0.3648 -0.2875  0.1596
 2375SOL    HW118587   2.650   3.761   7.052 -3.0564 -2.9332 -0.6818
 2375SOL    HW218588   2.501   3.771   7.065 -0.0061 -0.9621  0.5784
 2376SOL     OW18589   2.977   3.995  10.140 -0.5066  0.0669 -0.2873
 2376SOL    HW118590   2.937   4.079  10.164 -1.5954 -0.3240 -0.7278
 2376SOL    HW218591   2.895   3.946  10.128 -0.1199 -1.1371  1.8505
 2377SOL     OW18592   0.908   0.817   2.570  0.9982 -0.2370 -0.0589
 2377SOL    HW118593   0.865   0.895   2.536 -0.1485 -1.1519 -0.7072
 2377SOL    HW218594   0.849   0.785   2.638 -1.0843 -0.8520 -2.1640
 2378SOL     OW18595   0.515   1.158   5.569 -0.3498  0.4311 -0.1301
 2378SOL    HW118596   0.556   1.243   5.552  2.8924 -1.5850 -2.3937
 2378SOL    HW218597   0.433   1.199   5.595 -0.1760  0.0170  1.0916
 2379SOL     OW18598   1.051   1.127   8.326  0.1840 -0.6510  0.0057
 2379SOL    HW118599   1.077   1.215   8.353  0.6245 -1.2280  1.4531
 2379SOL    HW218600   1.031   1.088   8.411 -0.4587  1.2588  0.7264
 2380SOL     OW18601   1.503   4.593   7.236 -0.1607 -0.0228  0.1697
 2380SOL    HW118602   1.419   4.571   7.276  0.6140  0.4106  2.0391
 2380SOL    HW218603   1.499   4.688   7.242 -1.0495 -0.0747  0.4082
 2381SOL     OW18604   0.368   2.637   0.031 -0.5985 -0.4547  0.5177
 2381SOL    HW118605   0.297   2.580   0.063  0.2531 -2.4705 -1.2244
 2381SOL    HW218606   0.436   2.622   0.097 -1.7342  0.1714  1.8245
 2382SOL     OW18607   1.477   1.391   7.429 -0.0812 -0.0726 -0.8800
 2382SOL    HW118608   1.474   1.416   7.337 -1.6814  0.8556 -0.5651
 2382SOL    HW218609   1.397   1.441   7.445  1.1686  1.6010  0.1263
 2383SOL     OW18610   4.458   1.502   2.311  0.2973 -0.5595 -0.0999
 2383SOL    HW118611   4.461   1.580   2.365 -1.0573 -1.2282  0.9555
 2383SOL    HW218612   4.419   1.436   2.369 -3.5965  1.4405 -0.4607
 2384SOL     OW18613   0.839   0.675   8.120 -0.3566  0.3646 -0.4180
 2384SOL    HW118614   0.759   0.728   8.122 -2.1487 -2.3581 -0.7324
 2384SOL    HW218615   0.859   0.690   8.028 -2.5201  2.0236 -0.6286
 2385SOL     OW18616   0.781   1.131   3.882  0.7198  0.5377 -0.1233
 2385SOL    HW118617   0.703   1.144   3.828  0.8327  0.2461 -0.3541
 2385SOL    HW218618   0.824   1.069   3.823  0.9718  0.4865  0.1104
 2386SOL     OW18619   3.214   3.084   2.431 -0.3251  0.0475  0.1123
 2386SOL    HW118620   3.186   3.022   2.363  0.6077 -1.0256  0.7004
 2386SOL    HW218621   3.295   3.037   2.450  0.0489  0.5907 -0.1598
 2387SOL     OW18622   2.930   3.994   6.292 -0.1090  0.1480  0.3849
 2387SOL    HW118623   2.999   3.928   6.302  0.0579  0.0053 -1.6518
 2387SOL    HW218624   2.959   4.036   6.211 -3.5317  2.0082  0.1374
 2388SOL     OW18625   0.007   3.097   7.967 -0.0805 -0.1290  0.6372
 2388SOL    HW118626   0.047   3.129   7.886 -0.0975  1.9161  1.4516
 2388SOL    HW218627   4.667   3.030   7.931 -0.5298 -0.6652  2.3979
 2389SOL     OW18628   4.182   2.299   8.207  0.4179 -0.5466  0.0998
 2389SOL    HW118629   4.251   2.247   8.249 -1.7317 -3.6186 -0.1726
 2389SOL    HW218630   4.223   2.384   8.223 -0.0358 -0.6077  1.5445
 2390SOL     OW18631   4.000   1.515   8.959 -1.0433 -0.6446 -0.5561
 2390SOL    HW118632   3.929   1.463   8.996 -1.4590 -1.3048 -2.2859
 2390SOL    HW218633   3.976   1.598   8.998  3.0419  0.7016 -0.8866
 2391SOL     OW18634   1.271   0.866  11.090 -0.1969 -0.9744 -0.0024
 2391SOL    HW118635   1.363   0.864  11.061 -0.1756  0.7689 -0.0276
 2391SOL    HW218636   1.249   0.941  11.035  2.5887 -1.5438 -1.9463
 2392SOL     OW18637   2.918   1.832   9.008 -0.2885  0.6757 -0.0495
 2392SOL    HW118638   2.854   1.762   9.021 -1.4456  1.6883 -0.3592
 2392SOL    HW218639   2.866   1.908   9.034 -1.7753 -0.8579  1.4990
 2393SOL     OW18640   2.599   1.100   6.458 -0.3276 -0.4001 -0.3897
 2393SOL    HW118641   2.591   1.185   6.413  1.4746 -1.1955 -2.1938
 2393SOL    HW218642   2.555   1.043   6.395 -1.9844 -1.6408  1.8740
 2394SOL     OW18643   1.559   4.565   0.577  0.1846 -0.1858  0.1824
 2394SOL    HW118644   1.613   4.594   0.651  3.1402 -2.8223 -0.9550
 2394SOL    HW218645   1.535   4.478   0.608 -1.0914  0.1056  0.0350
 2395SOL     OW18646   2.989   0.862   7.259 -0.2593 -0.1605  1.2821
 2395SOL    HW118647   3.081   0.861   7.284  0.5559  0.3576 -1.7588
 2395SOL    HW218648   2.972   0.792   7.322 -0.2852 -1.9173 -0.6807
 2396SOL     OW18649   3.486   1.274   0.294 -0.1762 -0.3643  0.2334
 2396SOL    HW118650   3.412   1.312   0.247 -0.3931  0.9471  1.6273
 2396SOL    HW218651   3.439   1.229   0.365 -2.4874 -0.6468 -1.4669
 2397SOL     OW18652   3.745   4.358   3.665 -0.0091 -0.0929 -0.4480
 2397SOL    HW118653   3.773   4.287   3.607  0.5770  1.0620 -1.5826
 2397SOL    HW218654   3.688   4.306   3.723  0.2418  1.9322  1.5996
 2398SOL     OW18655   1.804   4.664   7.806  0.8451 -0.2647 -0.2981
 2398SOL    HW118656   1.846   4.692   7.887  0.1278 -0.6069  0.1925
 2398SOL    HW218657   1.732   4.603   7.825  0.4226 -0.0264 -1.1057
 2399SOL     OW18658   2.899   4.349  12.117  0.1500 -0.2536 -0.3536
 2399SOL    HW118659   2.821   4.341  12.062  0.3450 -2.0556 -0.3723
 2399SOL    HW218660   2.861   4.418  12.172 -0.8459 -1.6870  0.8017
 2400SOL     OW18661   0.295   1.814   2.255  0.3853  0.4949 -0.4856
 2400SOL    HW118662   0.305   1.722   2.232  1.0414  0.9522 -2.0512
 2400SOL    HW218663   0.200   1.827   2.264  0.1634 -2.2260  1.0528
 2401SOL     OW18664   1.411   3.006   4.889  0.3156 -0.3594 -0.7134
 2401SOL    HW118665   1.400   2.912   4.901  2.7119 -0.7865 -1.8661
 2401SOL    HW218666   1.479   3.024   4.953 -1.7032 -2.2341  1.9254
 2402SOL     OW18667   3.463   1.001   3.909 -0.9713 -0.0095  0.0578
 2402SOL    HW118668   3.487   1.084   3.869  0.6987 -1.0836 -1.1666
 2402SOL    HW218669   3.516   0.999   3.989 -0.5833 -1.5656 -0.2386
 2403SOL     OW18670   1.837   0.033   0.645  0.1480  0.2608 -0.3160
 2403SOL    HW118671   1.865   0.012   0.734  0.6226  1.3101 -0.2179
 2403SOL    HW218672   1.864   4.675   0.596  3.9357  1.0606  0.5207
 2404SOL     OW18673   0.647   4.608   2.983 -0.6358 -0.1910  0.0414
 2404SOL    HW118674   0.648   4.632   2.890  1.0633 -0.2442  0.0339
 2404SOL    HW218675   0.739   4.623   3.007 -0.7623  0.2965  0.2303
 2405SOL     OW18676   0.396   3.058   5.000 -0.1582  0.1808  0.6504
 2405SOL    HW118677   0.362   2.989   5.058  0.0491 -0.6658 -0.2368
 2405SOL    HW218678   0.318   3.105   4.973 -0.1072 -0.7053 -1.0557
 2406SOL     OW18679   4.417   4.246   5.465  0.2088  0.9470  0.1431
 2406SOL    HW118680   4.393   4.339   5.463 -1.4944  0.5163  1.4960
 2406SOL    HW218681   4.374   4.213   5.386 -0.8325  1.5625  0.4522
 2407SOL     OW18682   0.287   0.959   4.933 -0.0434  0.3228  0.3235
 2407SOL    HW118683   0.361   0.906   4.961 -1.2497 -1.2573  0.5062
 2407SOL    HW218684   0.216   0.903   4.964 -1.1265  3.0804  2.8419
 2408SOL     OW18685   1.492   4.143   6.269 -0.5298 -0.6497  0.3374
 2408SOL    HW118686   1.491   4.086   6.193  0.3540  0.1527 -0.2788
 2408SOL    HW218687   1.571   4.191   6.243 -0.7068 -0.4260  0.2115
 2409SOL     OW18688   1.299   4.286   2.889  0.3484 -0.0731  0.3859
 2409SOL    HW118689   1.291   4.328   2.974  1.3570 -0.8208  0.8473
 2409SOL    HW218690   1.305   4.196   2.923 -0.8237 -0.4685 -0.4511
 2410SOL     OW18691   1.590   0.802   2.361 -0.1010 -0.3111 -0.2665
 2410SOL    HW118692   1.661   0.809   2.425 -1.0691  2.9953  0.4286
 2410SOL    HW218693   1.511   0.789   2.413 -0.4834 -1.0694 -1.0434
 2411SOL     OW18694   1.777   2.135   8.210 -0.5572  1.0069  0.3627
 2411SOL    HW118695   1.805   2.156   8.121  1.3180  2.9968  1.4192
 2411SOL    HW218696   1.684   2.114   8.199 -0.6847  1.5544  0.3734
 2412SOL     OW18697   3.586   0.809   7.782  0.5220 -0.4785 -0.4700
 2412SOL    HW118698   3.573   0.872   7.711  1.2794 -0.6126 -0.7204
 2412SOL    HW218699   3.595   0.724   7.738 -0.4303 -0.1228 -1.3470
 2413SOL     OW18700   4.619   4.276  12.701 -0.0964 -0.3544  0.1974
 2413SOL    HW118701   4.566   4.205  12.664  1.0279 -2.3236  2.3094
 2413SOL    HW218702   4.624   4.351  12.643  0.0871 -1.5935 -1.3758
 2414SOL     OW18703   3.813   2.424  15.443 -0.2554 -0.5330  0.1393
 2414SOL    HW118704   3.750   2.493  15.421  1.3265  0.3253 -1.7105
 2414SOL    HW218705   3.762   2.350  15.410  0.0944 -0.5823 -0.2876
 2415SOL     OW18706   3.303   0.035   5.872 -0.0299  0.2578 -0.1024
 2415SOL    HW118707   3.342   0.106   5.923 -0.5437  0.8934 -0.6027
 2415SOL    HW218708   3.329   0.067   5.786 -1.0052 -0.4134 -0.6496
 2416SOL     OW18709   4.440   0.345   6.259 -0.4018  0.0018 -0.1983
 2416SOL    HW118710   4.375   0.375   6.323 -0.7820  1.8811 -1.4504
 2416SOL    HW218711   4.394   0.266   6.231  0.5880 -1.0764  1.2334
 2417SOL     OW18712   3.269   3.357   7.017  0.2762  0.4835  0.0169
 2417SOL    HW118713   3.248   3.298   7.089 -1.5804  2.5393  1.1457
 2417SOL    HW218714   3.305   3.423   7.077  3.1390 -1.1181  0.1113
 2418SOL     OW18715   4.450   0.395  10.158 -0.0633 -0.5617  0.2656
 2418SOL    HW118716   4.432   0.303  10.136 -2.6633 -0.0967  0.4384
 2418SOL    HW218717   4.408   0.430  10.080 -0.9640  1.5710  1.7088
 2419SOL     OW18718   4.343   1.151   1.839  0.2495 -0.4144  0.4775
 2419SOL    HW118719   4.414   1.098   1.803 -3.5597 -3.2818 -2.9087
 2419SOL    HW218720   4.382   1.189   1.918  0.5149 -1.2481  0.7518
 2420SOL     OW18721   1.967   4.030   3.409  0.7398 -0.1393 -0.2267
 2420SOL    HW118722   2.009   4.113   3.432 -1.4891  1.4697 -1.8669
 2420SOL    HW218723   2.028   3.983   3.352  1.4055 -0.0947  0.4517
 2421SOL     OW18724   1.300   2.126  15.368 -0.6067  0.2296 -0.2630
 2421SOL    HW118725   1.306   2.110  15.462 -2.4002 -0.5602 -0.2787
 2421SOL    HW218726   1.208   2.103  15.356  0.1923 -2.8600 -0.4224
 2422SOL     OW18727   2.093   4.214  14.102  0.2365 -0.4193  0.9619
 2422SOL    HW118728   2.146   4.134  14.100 -0.8896 -1.1207 -1.0717
 2422SOL    HW218729   2.022   4.191  14.041  0.4097  1.1134  0.1945
 2423SOL     OW18730   2.295   0.539   7.827  0.5202  0.2170  0.2495
 2423SOL    HW118731   2.333   0.487   7.755 -0.0808 -0.1235  0.1752
 2423SOL    HW218732   2.272   0.626   7.794  1.4644  0.8195  1.1979
 2424SOL     OW18733   3.789   1.738   2.514 -0.5765 -0.2310  0.1964
 2424SOL    HW118734   3.703   1.764   2.481 -0.1150  2.0297  0.7912
 2424SOL    HW218735   3.831   1.710   2.432 -2.7172 -1.5871 -0.4528
 2425SOL     OW18736   0.269   2.281   1.519  0.4881  0.6696 -0.1592
 2425SOL    HW118737   0.336   2.298   1.452 -0.4477 -1.5105 -1.6360
 2425SOL    HW218738   0.189   2.325   1.490 -1.3248 -2.3769  0.2377
 2426SOL     OW18739   1.722   1.261  10.772 -0.0961  0.5901 -0.0279
 2426SOL    HW118740   1.683   1.285  10.688  0.4824  1.1159 -0.1399
 2426SOL    HW218741   1.645   1.232  10.822 -1.7251 -0.5322 -3.2245
 2427SOL     OW18742   1.995   2.342   8.045  0.1601  0.1176  0.2504
 2427SOL    HW118743   2.052   2.414   8.018  0.4994 -1.0457 -2.1388
 2427SOL    HW218744   1.931   2.388   8.099 -1.7112 -0.2985 -1.5884
 2428SOL     OW18745   4.028   4.291   0.850  0.2483 -0.7510  0.0956
 2428SOL    HW118746   4.080   4.212   0.835  1.0329 -0.1428 -0.3988
 2428SOL    HW218747   4.088   4.356   0.886  0.0762 -0.2807 -0.4661
 2429SOL     OW18748   3.750   2.417   9.937 -0.3066  0.4496  0.5546
 2429SOL    HW118749   3.776   2.383   9.851  2.5065 -3.3524  2.9220
 2429SOL    HW218750   3.699   2.347   9.978 -0.3050  0.5672  0.7584
 2430SOL     OW18751   4.418   2.669   0.652 -0.2657  0.2003 -0.0413
 2430SOL    HW118752   4.361   2.608   0.605 -2.0402  0.6097  1.5855
 2430SOL    HW218753   4.357   2.741   0.667  0.3798  0.7103  0.1398
 2431SOL     OW18754   2.010   2.818   6.332 -0.5846 -0.3554  0.4322
 2431SOL    HW118755   2.016   2.914   6.335  1.3199 -0.5105  1.6802
 2431SOL    HW218756   2.037   2.789   6.419  0.5339  1.2622  0.6278
 2432SOL     OW18757   0.125   4.050  13.991 -0.1254 -0.5470  0.3742
 2432SOL    HW118758   0.112   3.990  14.064  1.2599 -0.3002  0.8118
 2432SOL    HW218759   0.162   3.988  13.928 -0.5973 -2.0131  1.5393
 2433SOL     OW18760   4.634   0.840   4.529  0.2711  0.5230  0.4145
 2433SOL    HW118761   0.005   0.871   4.518  0.5074 -0.9938 -1.9024
 2433SOL    HW218762   4.635   0.772   4.597  3.1306  1.2369  1.1293
 2434SOL     OW18763   4.433   4.371   2.810 -0.7406 -0.6237  0.3806
 2434SOL    HW118764   4.358   4.419   2.775  0.2478  2.0734  1.8989
 2434SOL    HW218765   4.487   4.437   2.854  0.3664 -0.9272 -0.5208
 2435SOL     OW18766   0.057   1.219   6.466 -1.1055 -0.3090  0.0914
 2435SOL    HW118767   0.069   1.125   6.472  2.6486  0.2189  0.7634
 2435SOL    HW218768   4.691   1.228   6.424 -1.4926 -2.0131  0.5276
 2436SOL     OW18769   2.776   3.896   0.783  0.1417 -0.0094  0.4533
 2436SOL    HW118770   2.820   3.957   0.843  1.2085 -0.8520  0.5189
 2436SOL    HW218771   2.750   3.823   0.838 -0.3948  0.9353  1.4492
 2437SOL     OW18772   3.899   3.853   8.705 -0.0708 -0.2042  0.0869
 2437SOL    HW118773   3.838   3.907   8.755  1.4504  0.5463  1.1578
 2437SOL    HW218774   3.975   3.897   8.745  0.2044  0.7485 -1.5063
 2438SOL     OW18775   4.468   4.125   1.523  0.4106 -0.3823  0.3571
 2438SOL    HW118776   4.385   4.109   1.478  0.9497 -0.2350 -0.6779
 2438SOL    HW218777   4.502   4.037   1.509  0.1144 -0.4037 -0.2309
 2439SOL     OW18778   2.273   4.235   6.469 -0.1918 -0.2411  0.3441
 2439SOL    HW118779   2.253   4.299   6.401  0.4280 -0.1823  0.2158
 2439SOL    HW218780   2.366   4.245   6.487 -0.0985 -0.1550 -0.1891
 2440SOL     OW18781   4.251   3.881  11.353  0.8287 -0.1551  0.2605
 2440SOL    HW118782   4.225   3.931  11.276  0.0065 -0.6605  0.2063
 2440SOL    HW218783   4.283   3.950  11.411  2.7295 -1.5490  0.8601
 2441SOL     OW18784   0.458   2.854  17.151 -0.3318  0.1025  0.2073
 2441SOL    HW118785   0.545   2.854  17.112 -1.8060 -2.1752 -3.0408
 2441SOL    HW218786   0.405   2.782  17.117  0.1340 -1.9582  3.8667
 2442SOL     OW18787   1.503   1.432  15.147 -0.3338  0.0275 -0.0325
 2442SOL    HW118788   1.501   1.451  15.053 -2.5642 -1.9094 -0.3898
 2442SOL    HW218789   1.410   1.412  15.156  0.4752 -2.3677  3.1269
 2443SOL     OW18790   0.203   3.374  12.354  0.5743 -0.0982 -0.7176
 2443SOL    HW118791   0.209   3.314  12.429  2.0123  0.6094 -0.2682
 2443SOL    HW218792   0.119   3.415  12.373  0.2493 -0.2053 -1.9084
 2444SOL     OW18793   1.153   2.396   3.332  0.0657 -0.2116  0.3620
 2444SOL    HW118794   1.083   2.422   3.272  0.4412  0.9945  0.4486
 2444SOL    HW218795   1.153   2.467   3.397  0.6290  1.9265 -1.9564
 2445SOL     OW18796   3.208   3.984   8.879 -0.3607 -0.5203 -0.1383
 2445SOL    HW118797   3.278   3.955   8.938  0.3421  2.2956  0.3781
 2445SOL    HW218798   3.166   3.901   8.855 -0.3385 -0.4387 -0.4682
 2446SOL     OW18799   4.361   4.352  10.417  0.3793 -0.1189 -0.1008
 2446SOL    HW118800   4.340   4.370  10.508 -1.3739  0.3499 -0.5996
 2446SOL    HW218801   4.424   4.422  10.399 -1.1644  1.5240  0.8962
 2447SOL     OW18802   3.467   2.199  16.063  0.2745  0.2375 -0.4452
 2447SOL    HW118803   3.431   2.113  16.041  1.3235 -0.3648  0.1944
 2447SOL    HW218804   3.391   2.257  16.058 -0.6671 -1.1064 -1.8348
 2448SOL     OW18805   3.759   3.212   1.110  0.1829 -0.3222  0.1201
 2448SOL    HW118806   3.718   3.159   1.178 -4.2709  1.1479 -1.3762
 2448SOL    HW218807   3.824   3.263   1.159  1.1816 -0.5384 -0.9901
 2449SOL     OW18808   4.400   1.238   8.884 -0.4531  0.3568  0.0263
 2449SOL    HW118809   4.483   1.271   8.917 -1.8856  0.9954  2.9984
 2449SOL    HW218810   4.335   1.305   8.905 -0.6673 -0.0393  0.6367
 2450SOL     OW18811   2.670   1.477   8.210 -0.2409 -0.4280 -0.6966
 2450SOL    HW118812   2.613   1.411   8.248 -0.0866 -0.3777 -0.3745
 2450SOL    HW218813   2.656   1.544   8.277 -2.3744 -0.6451 -0.9310
 2451SOL     OW18814   1.791   1.023   5.200 -0.1671  0.8681  0.1516
 2451SOL    HW118815   1.781   1.108   5.158 -0.2297 -0.0227 -1.6477
 2451SOL    HW218816   1.883   1.004   5.186 -0.9256 -2.5076 -0.2204
 2452SOL     OW18817   2.448   3.225   4.242  0.3914  0.2921  0.3902
 2452SOL    HW118818   2.501   3.305   4.234 -1.4580  1.6366  1.6059
 2452SOL    HW218819   2.404   3.218   4.158 -0.3382  0.9538  0.7085
 2453SOL     OW18820   1.843   3.628   6.658  0.3621 -0.2501 -0.5370
 2453SOL    HW118821   1.903   3.556   6.677  1.3153  0.2914 -1.4615
 2453SOL    HW218822   1.847   3.667   6.745  0.5588 -0.2199 -0.5595
 2454SOL     OW18823   2.863   2.590  15.074 -0.1246  0.0596  0.0987
 2454SOL    HW118824   2.801   2.646  15.026  0.8819 -1.0529 -2.5409
 2454SOL    HW218825   2.903   2.551  14.996  0.9172  2.3840 -0.5427
 2455SOL     OW18826   4.638   4.706   8.520 -0.0050 -0.3097 -0.2732
 2455SOL    HW118827   4.694   4.634   8.491  0.4709  0.8694 -2.2605
 2455SOL    HW218828   4.698   0.047   8.562 -2.1661  3.1633 -2.1909
 2456SOL     OW18829   1.908   3.976  17.083  0.2451 -0.1583  0.3796
 2456SOL    HW118830   1.948   4.051  17.127  2.8235 -1.0773 -0.4252
 2456SOL    HW218831   1.924   3.991  16.990  0.1482  0.6440  0.4921
 2457SOL     OW18832   1.814   0.914  16.143 -0.0715 -0.1242 -0.4515
 2457SOL    HW118833   1.755   0.911  16.068 -1.9691  1.7173  0.9861
 2457SOL    HW218834   1.749   0.957  16.198 -0.2496  1.0081 -1.5382
 2458SOL     OW18835   4.085   3.406  15.948  0.2395 -0.0914  0.0319
 2458SOL    HW118836   4.019   3.418  16.017 -1.4501 -2.1069 -1.2336
 2458SOL    HW218837   4.106   3.495  15.922  3.0173 -1.1335 -1.3004
 2459SOL     OW18838   2.274   0.697   3.311 -0.0427 -0.6781 -0.3846
 2459SOL    HW118839   2.277   0.696   3.406 -0.6342 -0.9000 -0.3684
 2459SOL    HW218840   2.357   0.730   3.276  0.0199 -0.9615 -0.5013
 2460SOL     OW18841   3.729   0.823   4.248 -0.7179  0.4546  0.2416
 2460SOL    HW118842   3.668   0.753   4.227 -0.5417  0.5021 -0.4469
 2460SOL    HW218843   3.662   0.887   4.271 -2.2049 -1.1017  0.1472
 2461SOL     OW18844   3.483   4.533  11.178  0.3343  0.0551 -0.5917
 2461SOL    HW118845   3.517   4.613  11.219 -1.1141  0.5774 -0.4233
 2461SOL    HW218846   3.417   4.565  11.117  0.7351  0.3912 -0.8436
 2462SOL     OW18847   1.317   1.912   6.877  0.1401 -0.3230  0.1275
 2462SOL    HW118848   1.374   1.987   6.896 -1.3733  0.4737  1.5678
 2462SOL    HW218849   1.370   1.836   6.903  0.2021 -0.4301 -0.3169
 2463SOL     OW18850   1.902   0.367   5.230  0.0514  0.6213 -0.2971
 2463SOL    HW118851   1.865   0.402   5.311 -0.3870  2.7126 -1.4075
 2463SOL    HW218852   1.991   0.354   5.262 -0.2971  1.3871  1.0049
 2464SOL     OW18853   1.283   1.273   8.481  0.2267 -0.4427 -0.4371
 2464SOL    HW118854   1.317   1.353   8.521 -0.7213  0.0882 -0.6824
 2464SOL    HW218855   1.203   1.269   8.534  1.4827 -1.2776  1.4209
 2465SOL     OW18856   0.113   4.493   9.577 -0.4231 -0.2370 -0.4487
 2465SOL    HW118857   0.152   4.528   9.657 -0.7846  0.7261 -0.7017
 2465SOL    HW218858   0.191   4.455   9.537  1.8165  2.7463  1.0699
 2466SOL     OW18859   4.624   1.189   1.907  0.0091 -0.7421 -0.2689
 2466SOL    HW118860   4.595   1.250   1.976  0.9236 -0.6296  0.0154
 2466SOL    HW218861   4.684   1.134   1.957 -2.2051 -0.7796  2.3749
 2467SOL     OW18862   3.053   4.618   0.990 -0.0761 -0.2981  0.5010
 2467SOL    HW118863   3.069   4.704   1.027  1.0896 -0.4543  0.3700
 2467SOL    HW218864   3.001   4.634   0.912 -1.1692  0.2914  1.3625
 2468SOL     OW18865   1.056   3.778  11.489  0.2382  0.1447  0.9145
 2468SOL    HW118866   0.974   3.762  11.535  0.8863  1.6747  2.5853
 2468SOL    HW218867   1.086   3.865  11.516 -0.5924  0.2171  1.6000
 2469SOL     OW18868   1.249   1.977   7.630 -0.1470  0.3062 -0.2635
 2469SOL    HW118869   1.245   1.942   7.720  0.5169  1.3030  0.1522
 2469SOL    HW218870   1.344   1.968   7.623 -0.1749 -0.2024  0.0360
 2470SOL     OW18871   4.233   1.649   7.057  0.1016  0.3372 -0.1538
 2470SOL    HW118872   4.217   1.671   7.148  1.9283  1.5080 -0.1272
 2470SOL    HW218873   4.194   1.726   7.015 -0.0682 -0.9663 -2.3838
 2471SOL     OW18874   1.741   0.335  14.579 -0.1408  0.8218  0.3040
 2471SOL    HW118875   1.762   0.261  14.523 -2.5583  1.2719 -1.2054
 2471SOL    HW218876   1.828   0.375  14.585  0.2829  0.0469 -0.7006
 2472SOL     OW18877   1.432   0.198   2.471 -0.3032  0.3454 -0.6422
 2472SOL    HW118878   1.527   0.193   2.460 -0.3285  0.8058 -1.0675
 2472SOL    HW218879   1.416   0.124   2.530  0.9734  0.1121 -0.5843
 2473SOL     OW18880   1.799   0.074   6.501 -0.3463  0.0606  0.4826
 2473SOL    HW118881   1.798   0.152   6.556 -0.6825  0.9679 -0.7973
 2473SOL    HW218882   1.854   0.103   6.428 -0.7705 -0.1528  0.0745
 2474SOL     OW18883   2.720   1.161   6.014 -0.6508 -0.2634 -0.6359
 2474SOL    HW118884   2.721   1.213   5.933 -0.5423 -0.2339 -0.6154
 2474SOL    HW218885   2.812   1.139   6.030 -0.4253  1.0336 -0.1943
 2475SOL     OW18886   1.122   4.520   0.712 -0.1980  0.4147  0.6353
 2475SOL    HW118887   1.028   4.507   0.710 -0.3717  1.8896 -0.8504
 2475SOL    HW218888   1.166   4.500   0.629  1.4816 -0.5055  1.7400
 2476SOL     OW18889   0.268   3.486   4.640  0.0398 -0.6739  0.4030
 2476SOL    HW118890   0.183   3.492   4.597  1.5981  0.0660 -2.5948
 2476SOL    HW218891   0.327   3.456   4.571  0.5499  0.7046  0.2569
 2477SOL     OW18892   2.849   0.824   4.530 -0.6890 -0.2889  0.2989
 2477SOL    HW118893   2.933   0.816   4.576  0.5320  0.5943 -1.7811
 2477SOL    HW218894   2.793   0.864   4.596  1.1473  1.3511  0.8664
 2478SOL     OW18895   0.845   3.000   0.783  0.6817  0.1934 -0.5378
 2478SOL    HW118896   0.761   3.041   0.803  0.1367 -1.1657 -0.0348
 2478SOL    HW218897   0.819   2.908   0.784  0.0073  0.3834 -0.9353
 2479SOL     OW18898   3.111   3.826   5.840 -0.0715  0.0709 -0.1537
 2479SOL    HW118899   3.200   3.791   5.839  0.3101  1.1022 -1.6631
 2479SOL    HW218900   3.089   3.803   5.750  0.2117  3.0212 -0.9833
 2480SOL     OW18901   1.712   1.653   5.242 -0.2646  0.4487 -0.2556
 2480SOL    HW118902   1.676   1.610   5.165  0.3404 -1.3879  0.4869
 2480SOL    HW218903   1.763   1.725   5.205 -0.1217 -0.0906 -1.1021
 2481SOL     OW18904   2.194   1.126  15.558  0.0581 -0.4396 -0.4176
 2481SOL    HW118905   2.270   1.185  15.561  0.8298 -1.6348  2.9604
 2481SOL    HW218906   2.228   1.050  15.510  2.7456  0.8837 -0.6206
 2482SOL     OW18907   4.421   4.031   5.889 -0.0681 -0.6249  0.6904
 2482SOL    HW118908   4.341   3.997   5.929 -0.8667  0.9295  0.4143
 2482SOL    HW218909   4.485   4.011   5.957  2.3618 -0.6905 -1.6017
 2483SOL     OW18910   2.463   3.833   4.250 -0.1714  0.4149 -0.1970
 2483SOL    HW118911   2.472   3.824   4.345 -0.0323  0.0702 -0.2463
 2483SOL    HW218912   2.436   3.925   4.244  1.3991  0.7866 -1.3627
 2484SOL     OW18913   4.477   0.381   7.713  0.3107 -0.0154  0.0063
 2484SOL    HW118914   4.458   0.466   7.674 -1.1179  1.1667  3.2846
 2484SOL    HW218915   4.538   0.411   7.780  0.0142 -1.2681  0.8494
 2485SOL     OW18916   2.876   1.417  11.506 -0.1728 -0.1745 -0.6035
 2485SOL    HW118917   2.910   1.463  11.430 -1.9108 -1.2377 -2.0258
 2485SOL    HW218918   2.803   1.362  11.477 -0.7812  0.7198 -0.7469
 2486SOL     OW18919   3.958   2.534   2.999 -0.4078 -0.4110  0.1280
 2486SOL    HW118920   3.900   2.609   3.011 -1.5537 -1.3620  0.5329
 2486SOL    HW218921   3.970   2.520   2.905  1.5526 -0.4827  0.3886
 2487SOL     OW18922   1.658   1.205   4.572  0.0694 -0.5103 -0.0966
 2487SOL    HW118923   1.740   1.243   4.540 -0.6152  0.3621 -0.8186
 2487SOL    HW218924   1.634   1.151   4.497 -0.4502  2.0944 -1.8144
 2488SOL     OW18925   2.429   2.580   3.004  0.2030  0.0876  0.2748
 2488SOL    HW118926   2.371   2.638   2.955 -1.7074 -2.4712 -0.5250
 2488SOL    HW218927   2.377   2.499   3.004  0.6177 -0.1811 -0.5653
 2489SOL     OW18928   4.058   2.704   6.581  0.1851 -0.0684 -0.1657
 2489SOL    HW118929   4.114   2.680   6.655  0.7761 -1.5745 -1.1147
 2489SOL    HW218930   3.979   2.685   6.631  1.6850 -0.1342  2.1825
 2490SOL     OW18931   0.525   4.388   4.079  0.1016 -0.0855  0.0032
 2490SOL    HW118932   0.514   4.305   4.032 -0.0442 -0.2227  0.2837
 2490SOL    HW218933   0.432   4.407   4.085 -0.3812 -2.5357  0.6045
 2491SOL     OW18934   2.897   2.230  14.366  0.4543  0.3022  0.2423
 2491SOL    HW118935   2.862   2.200  14.282  0.9690  0.7164 -0.1171
 2491SOL    HW218936   2.959   2.300  14.344 -0.2989  0.7140 -0.5610
 2492SOL     OW18937   0.858   1.659  14.970  0.0418 -0.0389 -0.2371
 2492SOL    HW118938   0.818   1.745  14.954  0.7796  0.3307 -0.1477
 2492SOL    HW218939   0.837   1.612  14.890  1.7469  0.5733 -1.0486
 2493SOL     OW18940   2.881   2.606   6.265  0.2852  0.0347 -0.3007
 2493SOL    HW118941   2.828   2.573   6.192  0.5693 -1.4549  0.1479
 2493SOL    HW218942   2.941   2.532   6.276  0.3534  0.0017 -0.8940
 2494SOL     OW18943   2.240   1.944   5.499 -0.3467  0.5596  1.0591
 2494SOL    HW118944   2.206   2.030   5.525 -0.2191  1.4967 -1.9288
 2494SOL    HW218945   2.323   1.949   5.545 -0.1047 -1.3730  0.8248
 2495SOL     OW18946   2.997   4.580   9.143 -0.2622  0.0029  0.3461
 2495SOL    HW118947   2.957   4.589   9.229  1.6649 -1.1523  1.3433
 2495SOL    HW218948   3.056   4.652   9.161  0.6219  0.0578 -2.6943
 2496SOL     OW18949   1.057   4.311   6.070  0.6357  0.6371 -0.5280
 2496SOL    HW118950   0.990   4.339   6.132  1.3941  1.5991 -0.1451
 2496SOL    HW218951   1.080   4.224   6.102 -1.3160 -0.0655 -1.0493
 2497SOL     OW18952   1.974   3.196   2.236 -0.4653 -0.8103  0.4828
 2497SOL    HW118953   2.032   3.251   2.184 -1.5931 -2.6482 -2.7162
 2497SOL    HW218954   2.024   3.114   2.228  0.8340  0.2759 -2.2856
 2498SOL     OW18955   1.019   0.315   5.734 -0.0495  0.2542 -0.2341
 2498SOL    HW118956   1.000   0.246   5.670 -1.0995  1.2378 -0.9903
 2498SOL    HW218957   1.050   0.391   5.685  3.2777 -0.4889  0.7245
 2499SOL     OW18958   2.657   0.573   6.773  0.6493 -0.1887  0.8702
 2499SOL    HW118959   2.638   0.532   6.688 -1.3398  0.9477  0.7504
 2499SOL    HW218960   2.570   0.610   6.791  0.3229 -0.9998  0.9883
 2500SOL     OW18961   1.326   2.170   4.651  0.4049  0.5928  0.0619
 2500SOL    HW118962   1.384   2.095   4.660 -0.1658  0.0048 -1.2097
 2500SOL    HW218963   1.242   2.126   4.668  0.4529  0.1389 -0.8572
 2501SOL     OW18964   2.436   3.742   8.023 -0.3366  0.7594  0.5282
 2501SOL    HW118965   2.349   3.737   7.983 -0.6530 -1.3665  1.4507
 2501SOL    HW218966   2.404   3.791   8.099 -0.5433  1.3188  0.0772
 2502SOL     OW18967   1.231   4.008   0.409  0.4186  0.0587  0.6610
 2502SOL    HW118968   1.175   4.073   0.450  0.5447  0.3877  0.3105
 2502SOL    HW218969   1.181   3.927   0.405  2.7758 -1.4721  1.6849
 2503SOL     OW18970   0.557   2.595  17.131 -0.8369 -0.3972 -0.1932
 2503SOL    HW118971   0.502   2.590  17.053  0.8858 -1.5712 -1.3591
 2503SOL    HW218972   0.489   2.598  17.197  0.2450 -0.6622  0.9313
 2504SOL     OW18973   0.143   1.483  15.660 -0.0143  0.5323  0.3379
 2504SOL    HW118974   0.058   1.520  15.639 -0.2481  1.5574  3.0794
 2504SOL    HW218975   0.183   1.488  15.573 -2.1285  0.1634 -0.6399
 2505SOL     OW18976   0.521   1.925   4.321  0.3342  0.3774  0.0842
 2505SOL    HW118977   0.515   1.849   4.379 -0.4080 -0.3880 -0.9882
 2505SOL    HW218978   0.561   1.873   4.251 -0.6900  1.6420 -1.4426
 2506SOL     OW18979   0.647   2.078   8.401 -0.5692  0.5574  0.4983
 2506SOL    HW118980   0.694   2.067   8.318 -1.6797 -0.0283 -0.0645
 2506SOL    HW218981   0.600   2.154   8.367  1.5326  1.3185 -0.7171
 2507SOL     OW18982   2.692   1.804   2.587  0.4442  0.0208  0.1997
 2507SOL    HW118983   2.746   1.762   2.520  0.0722  0.0888 -0.1410
 2507SOL    HW218984   2.745   1.781   2.664 -0.6689 -0.9200  0.6861
 2508SOL     OW18985   0.071   0.806   2.952  0.0523  0.4603 -0.0562
 2508SOL    HW118986   0.056   0.801   2.857  0.3637  0.1518 -0.0900
 2508SOL    HW218987   0.133   0.879   2.948  1.5457 -0.7927  0.4127
 2509SOL     OW18988   4.078   0.396  11.577  0.2454 -0.3264  0.2893
 2509SOL    HW118989   3.987   0.397  11.608 -0.0977  0.8981 -0.7644
 2509SOL    HW218990   4.122   0.374  11.659  1.5114 -1.5344 -0.7288
 2510SOL     OW18991   3.385   2.230   4.226  0.0299 -0.3032 -0.0112
 2510SOL    HW118992   3.469   2.247   4.184 -0.1651  1.8491  0.5025
 2510SOL    HW218993   3.334   2.300   4.186  2.1564  2.1123  1.5713
 2511SOL     OW18994   2.179   0.029   3.680  0.3459  0.4292 -0.6229
 2511SOL    HW118995   2.235   0.084   3.736  0.1191 -1.3115  1.3144
 2511SOL    HW218996   2.159   0.100   3.619  1.7225  1.3356 -0.0077
 2512SOL     OW18997   2.838   3.742   3.374 -0.5970 -0.0248  0.5779
 2512SOL    HW118998   2.859   3.685   3.448 -2.2274  1.4627  2.1713
 2512SOL    HW218999   2.821   3.680   3.304  1.4729  0.9597 -0.8301
 2513SOL     OW19000   2.232   2.212   5.318 -0.3330  0.2968 -0.5772
 2513SOL    HW119001   2.271   2.244   5.236  0.2442  0.8914 -0.0632
 2513SOL    HW219002   2.281   2.129   5.318 -2.2678 -0.8127  3.3566
 2514SOL     OW19003   0.152   1.793   7.012 -0.0512  0.0340  0.2705
 2514SOL    HW119004   0.134   1.887   7.007  0.1055 -0.0108 -1.2060
 2514SOL    HW219005   0.140   1.773   7.105  3.6727 -0.9057  0.5153
 2515SOL     OW19006   4.228   2.558   9.774 -0.4499  0.0062  0.4153
 2515SOL    HW119007   4.156   2.562   9.837 -0.7517 -3.2846  0.2730
 2515SOL    HW219008   4.176   2.565   9.694 -1.9403 -1.4008  1.2686
 2516SOL     OW19009   2.742   4.073   9.258  0.0368  0.3390 -0.2402
 2516SOL    HW119010   2.806   4.070   9.187 -0.9652  1.7906 -1.1842
 2516SOL    HW219011   2.694   4.153   9.237 -0.2014  0.3795  0.4608
 2517SOL     OW19012   4.365   0.675   5.212  0.4945  0.3275 -0.1546
 2517SOL    HW119013   4.294   0.709   5.266 -0.4356  0.2989 -1.3548
 2517SOL    HW219014   4.348   0.582   5.200 -0.7905  0.7300 -1.4838
 2518SOL     OW19015   2.305   2.827   7.613  0.1435  0.0863  0.0531
 2518SOL    HW119016   2.229   2.873   7.650  0.8824  0.6323  0.8812
 2518SOL    HW219017   2.374   2.893   7.622  1.2436 -1.2276  1.0607
 2519SOL     OW19018   1.816   4.262   2.125 -0.1421 -0.1293  0.0721
 2519SOL    HW119019   1.756   4.272   2.051  1.9266 -1.2694 -1.7627
 2519SOL    HW219020   1.850   4.351   2.130 -0.6714 -0.0662  2.6459
 2520SOL     OW19021   2.059   0.222   3.540 -0.0365  0.1438  0.6230
 2520SOL    HW119022   2.020   0.308   3.556 -1.3631 -0.7135  1.9304
 2520SOL    HW219023   2.102   0.245   3.457  0.0187  1.8836  1.1416
 2521SOL     OW19024   3.081   3.396   5.374 -0.5785 -0.2042 -0.3488
 2521SOL    HW119025   3.055   3.466   5.313 -1.5827 -0.1911  0.0896
 2521SOL    HW219026   3.154   3.432   5.424 -0.7047  2.5907 -2.1762
 2522SOL     OW19027   1.540   3.940   8.459 -0.1909  0.1590  0.2336
 2522SOL    HW119028   1.577   4.023   8.489 -1.3307 -0.1658  2.5039
 2522SOL    HW219029   1.598   3.886   8.513 -0.7709 -0.1953  0.5043
 2523SOL     OW19030   4.106   2.822   4.796 -0.6712  0.0369  0.0929
 2523SOL    HW119031   4.072   2.910   4.779  2.8212  1.5628  0.9375
 2523SOL    HW219032   4.138   2.812   4.706 -0.1010 -1.5267  0.4795
 2524SOL     OW19033   3.730   2.480   4.247 -0.4892 -0.0479  0.3197
 2524SOL    HW119034   3.809   2.529   4.224  0.7144 -3.1890 -2.2623
 2524SOL    HW219035   3.742   2.480   4.342  0.1818 -1.3735  0.2286
 2525SOL     OW19036   3.616   1.310   3.004  0.2530 -0.3097 -0.0966
 2525SOL    HW119037   3.626   1.224   2.964  1.8864 -0.0248 -0.2922
 2525SOL    HW219038   3.553   1.354   2.947  0.1813  0.1896  0.3582
 2526SOL     OW19039   4.581   1.948   4.763  0.1782  0.4158  0.4001
 2526SOL    HW119040   4.639   1.872   4.764 -0.0499  0.2132 -1.6657
 2526SOL    HW219041   4.532   1.922   4.842 -1.3714  2.0682 -0.0282
 2527SOL     OW19042   4.372   0.309   0.072 -0.1897  0.4763 -0.1034
 2527SOL    HW119043   4.338   0.245   0.135  0.2783 -0.2542 -0.5820
 2527SOL    HW219044   4.437   0.348   0.130 -0.4078 -0.3564  0.6987
 2528SOL     OW19045   3.445   3.514  15.405 -0.1954 -0.3238 -0.0770
 2528SOL    HW119046   3.349   3.510  15.408 -0.2890  1.3934 -0.5927
 2528SOL    HW219047   3.468   3.598  15.366 -0.1225 -1.3591 -2.2322
 2529SOL     OW19048   4.497   1.171   6.527 -0.1930 -0.2608  0.0521
 2529SOL    HW119049   4.416   1.207   6.565  2.2512  3.2710  1.9785
 2529SOL    HW219050   4.477   1.159   6.435  1.7152  1.1123 -0.5399
 2530SOL     OW19051   1.911   4.319  16.438  0.9508  0.4214 -0.4254
 2530SOL    HW119052   1.938   4.410  16.448  0.0307  0.8300 -1.6270
 2530SOL    HW219053   1.994   4.271  16.433  1.7469  1.5882  1.5309
 2531SOL     OW19054   1.521   4.241  10.567  0.2236  0.0695 -0.3643
 2531SOL    HW119055   1.509   4.336  10.566  1.9127  0.2837  0.9258
 2531SOL    HW219056   1.594   4.232  10.507 -2.0708 -1.8762 -2.8872
 2532SOL     OW19057   0.015   1.504   7.219 -0.3666 -0.6483  0.1313
 2532SOL    HW119058   4.656   1.556   7.212  0.4248  0.7952  1.9449
 2532SOL    HW219059   4.712   1.417   7.186 -2.4977  1.3822 -3.7922
 2533SOL     OW19060   1.166   4.509   8.659 -0.9053  1.0615  0.4463
 2533SOL    HW119061   1.140   4.528   8.749 -1.9408 -1.3918  0.6638
 2533SOL    HW219062   1.251   4.553   8.663  1.4103 -3.5870  2.7803
 2534SOL     OW19063   4.459   2.387   0.349  0.5721 -0.9228  0.2622
 2534SOL    HW119064   4.485   2.469   0.392  0.0522 -0.9747  0.6729
 2534SOL    HW219065   4.365   2.379   0.365  0.7242  1.1734  2.2320
 2535SOL     OW19066   4.206   3.417   9.818  0.0701 -0.5604 -0.0867
 2535SOL    HW119067   4.216   3.499   9.867 -1.4503 -1.7708  2.2856
 2535SOL    HW219068   4.295   3.386   9.808  0.5163  1.2514 -1.7066
 2536SOL     OW19069   3.223   4.044  12.618  0.1080  0.4105  0.0962
 2536SOL    HW119070   3.294   4.040  12.683  2.0361 -1.2998 -2.0998
 2536SOL    HW219071   3.279   4.089  12.555  0.5522 -0.2551  0.0184
 2537SOL     OW19072   4.024   0.158  16.826  0.3690  0.2219  0.3708
 2537SOL    HW119073   4.026   0.208  16.744 -1.3212 -2.0802 -1.0834
 2537SOL    HW219074   4.077   0.214  16.883  1.0883 -0.8007  0.6950
 2538SOL     OW19075   4.122   2.090   4.137  0.3613 -0.1120 -0.3244
 2538SOL    HW119076   4.132   2.048   4.052  0.0829 -1.0885  0.1236
 2538SOL    HW219077   4.198   2.057   4.184 -0.2743  0.6656  1.2332
 2539SOL     OW19078   4.207   2.615   3.151  0.1677 -0.7100 -0.5867
 2539SOL    HW119079   4.154   2.583   3.224  0.4866 -0.8310 -0.4088
 2539SOL    HW219080   4.148   2.606   3.077  0.5835 -1.0671 -0.8782
 2540SOL     OW19081   4.679   2.123   2.304  0.4901 -0.3244  0.3527
 2540SOL    HW119082   4.664   2.034   2.334 -2.9330 -0.0067 -0.4643
 2540SOL    HW219083   0.050   2.143   2.326  1.5232 -2.3689 -2.1160
 2541SOL     OW19084   2.356   0.472   9.494 -0.1199  0.3966 -0.0493
 2541SOL    HW119085   2.338   0.466   9.588 -0.9553  0.0804 -0.2275
 2541SOL    HW219086   2.385   0.563   9.492 -0.6125  0.6004  2.1125
 2542SOL     OW19087   4.000   4.491   7.376  0.4298 -0.3430 -0.4839
 2542SOL    HW119088   3.934   4.430   7.344  0.9973 -0.7175 -0.9534
 2542SOL    HW219089   4.060   4.482   7.302 -0.4452 -1.2966 -1.0684
 2543SOL     OW19090   3.690   4.458  15.053  0.4193  0.5199 -0.1537
 2543SOL    HW119091   3.702   4.540  15.004  0.5676 -1.3313 -3.2270
 2543SOL    HW219092   3.638   4.497  15.123 -0.2538  1.1235 -0.9824
 2544SOL     OW19093   3.397   2.942   4.958 -0.4310 -0.6752 -0.5807
 2544SOL    HW119094   3.468   2.888   4.922 -0.2836  1.0509 -2.8661
 2544SOL    HW219095   3.335   2.938   4.886 -2.2074 -1.1820  0.9656
 2545SOL     OW19096   2.585   1.855   9.472 -0.5371 -0.3926 -0.0001
 2545SOL    HW119097   2.535   1.773   9.469  2.6789 -2.4287  1.7517
 2545SOL    HW219098   2.626   1.858   9.559  0.4518  1.6640 -0.5472
 2546SOL     OW19099   2.250   0.458   6.477 -0.0004  0.0159  0.3342
 2546SOL    HW119100   2.274   0.385   6.535 -0.3914 -0.6017 -0.2786
 2546SOL    HW219101   2.265   0.412   6.394 -0.8324 -0.3880  0.4144
 2547SOL     OW19102   0.802   2.060  12.068  0.2810 -0.2800  0.8176
 2547SOL    HW119103   0.758   2.145  12.060 -1.5765 -1.0938  2.3166
 2547SOL    HW219104   0.835   2.073  12.157  1.8985 -0.4001  0.2281
 2548SOL     OW19105   1.110   0.256   0.757 -0.2742 -0.3785  0.3098
 2548SOL    HW119106   1.190   0.302   0.732  0.1069 -0.2773  1.6915
 2548SOL    HW219107   1.134   0.210   0.838 -1.3592 -0.1722  0.7465
 2549SOL     OW19108   0.711   2.135   6.078 -0.3217  0.2290  0.0059
 2549SOL    HW119109   0.804   2.141   6.058 -0.2239  2.8221  1.3163
 2549SOL    HW219110   0.697   2.042   6.058  1.1973  0.0595 -0.2780
 2550SOL     OW19111   2.929   4.393   3.262 -0.0336 -0.4651 -0.0870
 2550SOL    HW119112   2.889   4.449   3.196  1.4247 -1.8679 -2.1515
 2550SOL    HW219113   2.988   4.456   3.305 -0.3357  0.8263 -1.5731
 2551SOL     OW19114   2.374   3.903   8.227  0.3950  0.5601 -0.2826
 2551SOL    HW119115   2.382   3.980   8.170 -1.2943  2.0861  1.5447
 2551SOL    HW219116   2.371   3.948   8.311  2.2208  0.0898  0.0395
 2552SOL     OW19117   2.622   3.220   5.954  0.3728 -0.4412  0.2449
 2552SOL    HW119118   2.691   3.165   5.918 -0.5727 -0.6433 -1.2580
 2552SOL    HW219119   2.644   3.232   6.046 -2.2137 -2.0389  1.0404
 2553SOL     OW19120   4.080   3.239  16.353  0.3207 -0.3306  0.3741
 2553SOL    HW119121   4.164   3.283  16.342 -1.0724  2.1640 -0.3589
 2553SOL    HW219122   4.068   3.210  16.262 -0.5414 -0.7315  0.6131
 2554SOL     OW19123   1.369   1.256  15.376  0.0659  0.1907  0.5313
 2554SOL    HW119124   1.401   1.345  15.362  2.8070 -0.5103  2.4843
 2554SOL    HW219125   1.309   1.251  15.301 -0.4976  1.6344  0.8910
 2555SOL     OW19126   2.199   4.226   4.776  0.1872  0.1174  0.2536
 2555SOL    HW119127   2.222   4.303   4.724 -0.0082  0.7834  1.1483
 2555SOL    HW219128   2.265   4.222   4.845 -1.0416  1.1391  1.5000
 2556SOL     OW19129   1.368   2.968   3.305 -0.6812  0.0744 -0.1507
 2556SOL    HW119130   1.345   2.975   3.398  1.4753  0.8467  0.3296
 2556SOL    HW219131   1.280   2.953   3.271 -0.3521 -1.6904 -0.1962
 2557SOL     OW19132   2.299   2.837   2.899  0.1527 -0.7700 -0.3619
 2557SOL    HW119133   2.356   2.897   2.852  0.9183 -0.3021  1.2039
 2557SOL    HW219134   2.223   2.852   2.842 -0.9049 -2.1384  0.6836
 2558SOL     OW19135   3.903   4.473  10.394 -0.0460  0.2587 -0.4443
 2558SOL    HW119136   3.813   4.439  10.395 -0.1000  0.3716 -2.3149
 2558SOL    HW219137   3.950   4.419  10.458 -0.3437  1.4474  0.7878
 2559SOL     OW19138   0.684   0.900   2.244 -0.0947  0.1279  0.4179
 2559SOL    HW119139   0.717   0.990   2.235  1.5099 -0.4014  0.9247
 2559SOL    HW219140   0.760   0.842   2.249  0.1549  0.4086 -0.1288
 2560SOL     OW19141   4.040   2.959  16.469 -0.0255 -0.1269 -0.3232
 2560SOL    HW119142   4.062   3.049  16.445 -0.9745  0.2658  0.2603
 2560SOL    HW219143   3.988   2.934  16.393  1.8841 -0.7883 -1.4063
 2561SOL     OW19144   0.659   4.042   3.440  0.9948  0.2558  0.0323
 2561SOL    HW119145   0.671   4.137   3.432 -2.3161  0.5637 -1.1282
 2561SOL    HW219146   0.566   4.038   3.420  1.2950  1.1228 -1.5258
 2562SOL     OW19147   3.944   3.955  11.424  0.2209  0.1243 -0.2075
 2562SOL    HW119148   4.019   3.955  11.483  1.0304  1.2790 -1.2369
 2562SOL    HW219149   3.980   4.000  11.347 -0.1830  1.0330  0.1434
 2563SOL     OW19150   4.294   0.923   5.430  0.1026 -0.2573  0.0232
 2563SOL    HW119151   4.375   0.946   5.386 -0.6104  3.5838  0.7184
 2563SOL    HW219152   4.324   0.864   5.499 -0.7827  0.0981  0.7176
 2564SOL     OW19153   0.129   3.048   9.543  0.5327  0.3009 -0.1769
 2564SOL    HW119154   0.049   3.098   9.555  0.5556  0.7435 -1.9016
 2564SOL    HW219155   0.197   3.107   9.574  0.3997 -0.0586  0.8004
 2565SOL     OW19156   0.073   0.126   7.299  0.1910  0.1293 -0.0921
 2565SOL    HW119157   0.033   0.047   7.335  0.9392 -0.4859 -0.6358
 2565SOL    HW219158   0.036   0.137   7.211  1.9224 -3.3709 -1.2560
 2566SOL     OW19159   1.468   0.386  14.559 -0.5698 -0.4270  0.6839
 2566SOL    HW119160   1.561   0.405  14.571 -0.8118  1.8542 -1.0189
 2566SOL    HW219161   1.482   0.293  14.541  2.1833  0.2472 -0.7008
 2567SOL     OW19162   2.567   1.677   3.976  0.3357 -0.5747 -0.1785
 2567SOL    HW119163   2.578   1.729   4.056  1.6654  0.3020 -0.9230
 2567SOL    HW219164   2.476   1.686   3.949 -0.0636 -0.2290  1.2795
 2568SOL     OW19165   3.101   1.971   6.530  0.3612 -0.0532  0.4187
 2568SOL    HW119166   3.129   1.930   6.448 -0.6949 -0.6460  0.3500
 2568SOL    HW219167   3.184   1.962   6.577  0.4288  1.3716  0.5815
 2569SOL     OW19168   2.991   3.769   7.821 -0.3485 -0.1852  0.7127
 2569SOL    HW119169   2.916   3.812   7.861 -0.4901  1.4200 -1.2647
 2569SOL    HW219170   2.959   3.679   7.825 -0.0585 -0.4319 -2.1794
 2570SOL     OW19171   3.966   0.466   4.974  0.3325 -0.3790  0.0278
 2570SOL    HW119172   3.947   0.477   5.067 -0.8706 -0.1651 -0.2440
 2570SOL    HW219173   4.018   0.546   4.966  1.1233 -0.9774 -0.6964
 2571SOL     OW19174   4.661   0.457   9.173  0.3011 -0.2993 -0.1526
 2571SOL    HW119175   4.589   0.521   9.172  0.1821 -0.4221  1.4939
 2571SOL    HW219176   0.015   0.518   9.174  0.8550 -1.0229  4.0263
 2572SOL     OW19177   2.945   0.554  13.164  0.1472  0.3037 -0.7285
 2572SOL    HW119178   2.987   0.509  13.091 -3.2363  0.9840 -3.1068
 2572SOL    HW219179   3.023   0.590  13.206  0.8900  1.0683 -2.7438
 2573SOL     OW19180   1.496   4.270  17.221 -0.4353  0.7901 -0.0490
 2573SOL    HW119181   1.484   4.360  17.252 -1.6882  0.7707 -0.4516
 2573SOL    HW219182   1.585   4.253  17.252  0.1613  2.4665 -0.8719
 2574SOL     OW19183   2.625   0.703   8.458 -0.4717 -0.2201 -0.2197
 2574SOL    HW119184   2.720   0.715   8.455 -0.2856 -1.3181  1.0165
 2574SOL    HW219185   2.622   0.673   8.549 -0.1792  0.4066 -0.0013
 2575SOL     OW19186   2.025   3.061  13.033 -0.1695 -0.1651 -0.3245
 2575SOL    HW119187   2.068   3.129  13.085  0.7418  0.5187 -1.9608
 2575SOL    HW219188   2.082   3.056  12.956 -0.3650  0.2059 -0.4939
 2576SOL     OW19189   3.435   2.070   2.273  0.6719 -0.4200 -0.0621
 2576SOL    HW119190   3.386   2.071   2.355  0.6872  0.3732 -0.0632
 2576SOL    HW219191   3.379   2.035   2.203 -1.0435  0.0314  1.0820
 2577SOL     OW19192   4.094   0.479  10.163  0.3332  0.7739 -0.0798
 2577SOL    HW119193   4.009   0.467  10.120  1.1470 -1.3023 -1.1004
 2577SOL    HW219194   4.126   0.389  10.170 -0.1226  0.4976 -1.4982
 2578SOL     OW19195   0.797   0.647   0.868 -0.5560  0.6347 -0.2736
 2578SOL    HW119196   0.844   0.668   0.787 -0.9515  0.8114 -0.4605
 2578SOL    HW219197   0.795   0.552   0.856 -0.1580  0.2991  2.2669
 2579SOL     OW19198   0.880   3.179   7.333 -0.4246  0.5979  0.1939
 2579SOL    HW119199   0.825   3.104   7.308 -2.9548  2.5681 -0.1416
 2579SOL    HW219200   0.894   3.144   7.421 -0.0385 -1.8055 -0.8084
 2580SOL     OW19201   3.700   1.443   5.412  0.3875  0.3856 -0.5824
 2580SOL    HW119202   3.726   1.398   5.332  0.1091 -3.5009  1.5086
 2580SOL    HW219203   3.730   1.394   5.488 -0.1448 -0.0689 -0.6694
 2581SOL     OW19204   0.994   3.256   0.297 -0.7131  0.0229 -0.0648
 2581SOL    HW119205   0.912   3.230   0.255 -0.1219 -0.2985 -1.0155
 2581SOL    HW219206   1.003   3.185   0.360 -1.2808  0.6444  0.7249
 2582SOL     OW19207   4.409   2.794   5.970  0.4085  0.2174 -0.1447
 2582SOL    HW119208   4.368   2.708   5.963  1.7512 -0.4950  0.8905
 2582SOL    HW219209   4.374   2.819   6.055 -1.3881 -0.3903 -0.7040
 2583SOL     OW19210   2.972   2.150   3.997 -0.2509 -0.1788 -0.2463
 2583SOL    HW119211   3.064   2.135   3.979 -0.4095 -1.2327 -0.1811
 2583SOL    HW219212   2.953   2.224   3.940  0.7674  0.2242 -0.0584
 2584SOL     OW19213   3.376   0.986   2.060 -0.2509  0.0910 -0.1522
 2584SOL    HW119214   3.426   0.995   2.141 -0.1796  1.1950 -0.3252
 2584SOL    HW219215   3.295   0.957   2.102  0.2738 -0.6962  0.3157
 2585SOL     OW19216   1.384   3.173   1.935 -0.3572  0.3609  0.2352
 2585SOL    HW119217   1.338   3.200   1.856  1.0454 -0.2851 -0.8008
 2585SOL    HW219218   1.441   3.104   1.901  0.4019  1.7097 -1.2069
 2586SOL     OW19219   3.821   4.527  10.935 -0.3520 -0.1764  0.2239
 2586SOL    HW119220   3.809   4.538  11.030 -2.7342 -0.4986 -0.0484
 2586SOL    HW219221   3.820   4.431  10.931  0.7336 -0.1613 -0.2568
 2587SOL     OW19222   0.411   1.686  12.118 -0.5013 -0.2379 -0.7585
 2587SOL    HW119223   0.502   1.718  12.113 -0.6252  0.2046 -0.2100
 2587SOL    HW219224   0.425   1.606  12.067 -2.4641 -0.9966 -0.0756
 2588SOL     OW19225   0.956   3.454   5.160  0.3758  0.0867 -0.4041
 2588SOL    HW119226   0.974   3.546   5.142  4.0470 -0.8887 -1.7557
 2588SOL    HW219227   0.971   3.452   5.255 -0.6050  1.3949 -0.2188
 2589SOL     OW19228   0.644   2.810  13.360 -0.4649 -0.0719  0.0915
 2589SOL    HW119229   0.732   2.777  13.378 -0.6216 -0.9818 -0.7713
 2589SOL    HW219230   0.620   2.744  13.295  0.4644 -0.4129  0.0951
 2590SOL     OW19231   0.099   2.648   9.002  0.7807 -0.0631 -0.0232
 2590SOL    HW119232   0.176   2.628   9.055 -0.1944  0.3426  1.5729
 2590SOL    HW219233   0.141   2.686   8.925 -0.6091 -0.3669 -0.9229
 2591SOL     OW19234   3.222   2.459   3.503 -0.2828 -0.0366 -0.0736
 2591SOL    HW119235   3.126   2.458   3.505 -0.2275 -2.0369  2.2080
 2591SOL    HW219236   3.239   2.499   3.418  0.1665 -1.8012 -0.8098
 2592SOL     OW19237   2.029   4.048  15.803 -0.0299 -0.8932  0.2659
 2592SOL    HW119238   2.039   3.956  15.826  3.1647 -0.2725  1.3394
 2592SOL    HW219239   2.016   4.036  15.709 -1.7530  1.0269  0.2711
 2593SOL     OW19240   0.211   1.430   7.517 -0.1965  0.1594  0.1672
 2593SOL    HW119241   0.175   1.371   7.450  0.8205  0.3218 -0.5272
 2593SOL    HW219242   0.243   1.367   7.581  1.3142  0.8541  0.0812
 2594SOL     OW19243   3.716   3.463  14.643 -0.0026 -0.7595 -0.3527
 2594SOL    HW119244   3.688   3.551  14.617  1.7157  0.0278  0.4934
 2594SOL    HW219245   3.808   3.477  14.664 -0.0209 -2.5145  0.9030
 2595SOL     OW19246   2.939   4.443   1.175  0.0290  0.1996 -0.8913
 2595SOL    HW119247   3.000   4.400   1.235 -1.2009  1.5342  1.3107
 2595SOL    HW219248   2.996   4.509   1.136  0.1410  1.7084  1.9186
 2596SOL     OW19249   0.252   1.847  10.111  0.3453 -0.3448 -0.5001
 2596SOL    HW119250   0.275   1.786  10.041  2.4775  1.1066 -1.0676
 2596SOL    HW219251   0.173   1.896  10.086 -1.0122 -1.2114  2.2050
 2597SOL     OW19252   2.217   4.507   7.576  0.2065  0.4266  0.0524
 2597SOL    HW119253   2.137   4.459   7.556  0.9101  0.2433 -2.2670
 2597SOL    HW219254   2.239   4.534   7.487  0.8915 -1.8387 -0.4613
 2598SOL     OW19255   1.612   1.990   4.894  0.0257  0.0200  0.3887
 2598SOL    HW119256   1.551   1.947   4.834  1.9937 -2.3518  0.0508
 2598SOL    HW219257   1.642   2.064   4.842 -1.5675  1.9251  2.1805
 2599SOL     OW19258   3.115   4.717   7.481  0.5561 -0.2041  0.2955
 2599SOL    HW119259   3.067   4.662   7.419 -0.3136 -1.1001  1.7554
 2599SOL    HW219260   3.130   4.653   7.550  2.3001 -0.7760 -0.5951
 2600SOL     OW19261   1.965   1.682  10.476  0.4035 -0.2179 -0.1405
 2600SOL    HW119262   2.009   1.716  10.554 -1.8678  1.6325  0.3401
 2600SOL    HW219263   2.041   1.673  10.418  0.2711 -0.2793 -0.3046
 2601SOL     OW19264   1.881   0.007   3.393  0.0762 -0.5966  0.0883
 2601SOL    HW119265   1.959   4.683   3.361  1.5492  1.2558  1.1619
 2601SOL    HW219266   1.916   0.079   3.446  1.7671 -0.2947 -1.4380
 2602SOL     OW19267   4.608   0.934  16.701  0.2615 -0.5292  0.3339
 2602SOL    HW119268   4.639   1.014  16.744  0.6000  0.2783 -1.3853
 2602SOL    HW219269   4.554   0.969  16.630 -1.6720 -1.8418  1.1770
 2603SOL     OW19270   3.627   2.177   0.780  0.1336 -0.4998  0.8935
 2603SOL    HW119271   3.549   2.136   0.817 -0.2185 -0.4032  0.2578
 2603SOL    HW219272   3.647   2.238   0.851 -0.6870 -0.2766  0.9340
 2604SOL     OW19273   1.080   2.330  12.129 -0.1878 -0.5264 -0.1318
 2604SOL    HW119274   1.130   2.407  12.104  1.2274 -1.6946 -0.8849
 2604SOL    HW219275   0.996   2.364  12.100  0.5214  1.2412 -0.0625
 2605SOL     OW19276   1.772   1.159   3.658 -0.0981  0.4928  0.0285
 2605SOL    HW119277   1.764   1.243   3.704  0.1388  0.6121 -0.1480
 2605SOL    HW219278   1.688   1.149   3.613 -0.2429  0.6819  0.2542
 2606SOL     OW19279   3.986   0.524   7.190 -1.4201  0.0202 -0.2811
 2606SOL    HW119280   3.896   0.514   7.159 -0.9692 -0.3301 -1.4923
 2606SOL    HW219281   3.975   0.577   7.269  0.2011 -1.8953  1.2384
 2607SOL     OW19282   3.401   0.060   7.590 -0.3896 -0.0025  0.0136
 2607SOL    HW119283   3.440   0.115   7.658  0.1710  0.9591 -1.0953
 2607SOL    HW219284   3.310   0.078   7.612  0.2888  2.0789  1.0568
 2608SOL     OW19285   3.162   4.268  10.450  0.2162 -0.3604  0.1126
 2608SOL    HW119286   3.151   4.178  10.419 -0.7567 -1.1727  2.8533
 2608SOL    HW219287   3.070   4.294  10.455  1.3125  3.4884  0.4696
 2609SOL     OW19288   1.076   2.685   8.488  0.0251 -0.6140  0.2236
 2609SOL    HW119289   1.096   2.677   8.581  0.6377 -2.4366 -0.0600
 2609SOL    HW219290   0.982   2.671   8.476 -0.2210  0.0857  1.4091
 2610SOL     OW19291   3.704   4.381   0.926  0.1036 -0.3398 -0.0248
 2610SOL    HW119292   3.732   4.405   0.838 -1.0602  1.2046  0.0325
 2610SOL    HW219293   3.618   4.422   0.924 -0.5096 -1.7582 -2.1062
 2611SOL     OW19294   1.050   3.821   3.219 -0.1199  0.0059  0.2362
 2611SOL    HW119295   0.959   3.840   3.243 -0.3435 -2.1076  1.0194
 2611SOL    HW219296   1.088   3.903   3.250  0.9133 -1.0369  1.6894
 2612SOL     OW19297   2.922   0.911   7.800  0.2672 -0.2984 -0.1528
 2612SOL    HW119298   2.926   0.851   7.875 -1.3333 -0.2600 -0.0454
 2612SOL    HW219299   2.997   0.877   7.752  0.7100  2.9008 -1.7187
 2613SOL     OW19300   4.168   2.170   6.790  0.3686 -0.1565  0.1141
 2613SOL    HW119301   4.158   2.085   6.747 -1.1605  0.0195  0.1160
 2613SOL    HW219302   4.240   2.210   6.740 -0.1250  0.0829 -0.4044
 2614SOL     OW19303   2.360   1.992  11.385  0.4773  0.0713 -0.1988
 2614SOL    HW119304   2.316   1.959  11.306 -1.9889  0.0881  1.1609
 2614SOL    HW219305   2.446   1.952  11.382  0.5812  0.2863 -0.0452
 2615SOL     OW19306   2.061   0.185   5.614  0.0327 -0.2021 -0.0869
 2615SOL    HW119307   2.085   0.203   5.523 -1.0083 -1.2777 -0.5702
 2615SOL    HW219308   2.094   0.266   5.651 -0.9100  0.0321  0.2358
 2616SOL     OW19309   0.131   2.965   2.866 -0.3037 -0.0323 -0.2106
 2616SOL    HW119310   0.177   2.884   2.887 -0.0357 -0.0384 -0.8044
 2616SOL    HW219311   0.047   2.955   2.910 -0.3707 -0.4088 -0.4284
 2617SOL     OW19312   3.733   1.088   7.125 -0.2186 -0.4636  0.4342
 2617SOL    HW119313   3.667   1.032   7.165  0.1832 -0.2155  1.4388
 2617SOL    HW219314   3.696   1.105   7.038 -0.7640  0.6693  0.8833
 2618SOL     OW19315   0.587   2.698   0.977  0.7117  0.3758  0.5167
 2618SOL    HW119316   0.494   2.697   0.954  1.1022 -0.8606 -1.0017
 2618SOL    HW219317   0.588   2.772   1.037 -1.2803  0.2283  0.7187
 2619SOL     OW19318   1.268   0.628   9.860 -0.5498 -0.2514 -0.2044
 2619SOL    HW119319   1.203   0.595   9.799  2.6427 -1.4915 -2.9681
 2619SOL    HW219320   1.342   0.568   9.850  1.2102  1.8563  0.0118
 2620SOL     OW19321   3.131   0.770   3.504 -0.4657  0.0303 -0.7420
 2620SOL    HW119322   3.214   0.803   3.469 -1.4721  2.0792 -1.2095
 2620SOL    HW219323   3.090   0.737   3.424 -0.2924  2.8992 -1.9998
 2621SOL     OW19324   4.582   0.151  14.960  0.3701  0.1782 -0.0490
 2621SOL    HW119325   4.669   0.125  14.992 -0.0574  1.6705  2.3971
 2621SOL    HW219326   4.544   0.065  14.942  0.6730 -0.0673  0.4864
 2622SOL     OW19327   0.424   4.277   2.870 -0.2766  0.2533 -0.2201
 2622SOL    HW119328   0.392   4.366   2.861  0.1229  0.3206 -0.9415
 2622SOL    HW219329   0.511   4.282   2.910  0.0282  1.8438 -1.1104
 2623SOL     OW19330   0.727   1.603   1.750 -0.1817 -0.6786  0.3250
 2623SOL    HW119331   0.765   1.552   1.678  1.5968 -0.0963  0.8606
 2623SOL    HW219332   0.633   1.602   1.729  0.2510  2.2443 -1.7278
 2624SOL     OW19333   1.973   4.103   1.890 -0.5032 -0.9201 -0.4569
 2624SOL    HW119334   2.028   4.172   1.929 -1.3992 -1.2173  1.3170
 2624SOL    HW219335   1.979   4.046   1.966 -1.3793 -0.8697 -0.3499
 2625SOL     OW19336   3.244   2.356  16.051 -0.1217 -0.1569 -0.0131
 2625SOL    HW119337   3.174   2.293  16.037  1.5444 -1.8504 -0.7889
 2625SOL    HW219338   3.203   2.438  16.024  1.6542 -0.2817 -3.0869
 2626SOL     OW19339   4.404   2.215   8.332 -0.1710 -0.3174 -0.6018
 2626SOL    HW119340   4.408   2.256   8.418  0.7570 -0.7961 -0.4204
 2626SOL    HW219341   4.426   2.125   8.357 -0.3732  0.0502  0.9189
 2627SOL     OW19342   2.159   1.102   9.215  0.3382 -0.5751  0.2694
 2627SOL    HW119343   2.229   1.111   9.280 -1.1976  2.5580  1.5248
 2627SOL    HW219344   2.096   1.172   9.234 -0.6718 -1.6976  1.0207
 2628SOL     OW19345   4.334   2.248   3.823  0.0236  0.0540  0.0541
 2628SOL    HW119346   4.371   2.217   3.906 -0.0034  0.9275  0.3921
 2628SOL    HW219347   4.302   2.332   3.855 -0.6296  0.0045 -0.4704
 2629SOL     OW19348   3.473   0.319   0.689 -0.4436  1.0427  0.2752
 2629SOL    HW119349   3.512   0.397   0.651  0.2763  1.4306  1.8071
 2629SOL    HW219350   3.548   0.281   0.735 -0.9027  0.7790  0.8025
 2630SOL     OW19351   4.630   3.269   5.610 -0.3913 -0.3418 -0.0295
 2630SOL    HW119352   4.652   3.356   5.576 -0.9758 -0.5175 -0.8620
 2630SOL    HW219353   4.590   3.227   5.534 -0.1472 -2.2182  0.8688
 2631SOL     OW19354   2.646   1.687   0.251  0.6731 -0.5554 -0.4122
 2631SOL    HW119355   2.673   1.596   0.238  0.1585 -0.7958  0.2054
 2631SOL    HW219356   2.670   1.720   0.164 -0.8574  1.2114 -0.1601
 2632SOL     OW19357   2.174   2.163   7.767  0.1883 -0.0296  0.1508
 2632SOL    HW119358   2.162   2.258   7.778 -1.5961 -0.2864  0.5359
 2632SOL    HW219359   2.145   2.144   7.678  2.6927  1.4541 -0.9995
 2633SOL     OW19360   4.702   0.504   7.810 -0.0483 -0.5240 -0.0740
 2633SOL    HW119361   4.718   0.517   7.717  0.9278 -0.0305  0.1576
 2633SOL    HW219362   4.706   0.595   7.841 -0.1539 -0.4903 -0.1610
 2634SOL     OW19363   1.771   3.430   2.091  0.1928 -0.1999 -0.1625
 2634SOL    HW119364   1.773   3.409   1.998 -1.2507 -1.5448  0.1166
 2634SOL    HW219365   1.852   3.483   2.093 -0.4043  0.6815  0.7444
 2635SOL     OW19366   3.094   1.235   8.952 -0.4088  0.4869 -0.2581
 2635SOL    HW119367   3.186   1.228   8.975 -0.4475 -2.6673 -1.1036
 2635SOL    HW219368   3.066   1.148   8.978  2.4708 -0.2343  0.3864
 2636SOL     OW19369   2.135   0.217   2.835 -0.1017 -0.1736  0.1557
 2636SOL    HW119370   2.118   0.280   2.765 -0.8102 -0.3293  0.1901
 2636SOL    HW219371   2.095   0.259   2.912  1.9576 -0.0152  1.1486
 2637SOL     OW19372   3.264   4.218  11.587  0.5538 -0.3063  0.1615
 2637SOL    HW119373   3.235   4.299  11.629 -2.7046 -1.1160 -0.5374
 2637SOL    HW219374   3.326   4.259  11.526 -0.8648  1.3148 -0.1981
 2638SOL     OW19375   2.652   3.446   6.941  0.4929  0.2348  0.2566
 2638SOL    HW119376   2.701   3.528   6.931  1.1378 -0.2332 -0.4581
 2638SOL    HW219377   2.704   3.390   6.883 -0.4217 -0.1413 -0.1884
 2639SOL     OW19378   2.485   2.364  15.119 -0.0408  0.1185  0.3369
 2639SOL    HW119379   2.473   2.273  15.093 -1.3646  0.6890 -1.0246
 2639SOL    HW219380   2.546   2.364  15.193 -0.6798 -1.2796  0.8594
 2640SOL     OW19381   2.868   4.234  16.177  0.7394  0.2685 -0.6609
 2640SOL    HW119382   2.962   4.220  16.166  0.5547 -1.2515 -0.3488
 2640SOL    HW219383   2.868   4.329  16.185 -1.5212  0.2654 -0.6898
 2641SOL     OW19384   3.505   1.276   3.820 -0.4812  0.5646  0.1094
 2641SOL    HW119385   3.599   1.289   3.827 -0.4784  0.7353 -0.2083
 2641SOL    HW219386   3.461   1.335   3.882  0.4027  1.9128 -0.5515
 2642SOL     OW19387   1.638   3.513   9.530 -0.3125  0.1599  0.5612
 2642SOL    HW119388   1.599   3.429   9.506 -2.4665  1.0857  0.8860
 2642SOL    HW219389   1.703   3.489   9.597  0.2223 -1.4031 -0.4914
 2643SOL     OW19390   2.776   1.423   0.515 -0.2368  0.1984 -0.3216
 2643SOL    HW119391   2.737   1.510   0.525 -0.8660 -0.1568  0.3165
 2643SOL    HW219392   2.704   1.361   0.523  0.7901 -0.8793  0.4922
 2644SOL     OW19393   3.660   2.357   9.306  0.4162 -0.6298 -0.1778
 2644SOL    HW119394   3.672   2.358   9.401  1.5688  0.1493 -0.3279
 2644SOL    HW219395   3.568   2.377   9.290  0.4238  1.6888  2.5292
 2645SOL     OW19396   1.390   3.170   3.851 -0.0257 -0.0227 -0.2629
 2645SOL    HW119397   1.408   3.263   3.869  0.6076 -0.1415 -0.2937
 2645SOL    HW219398   1.327   3.148   3.920  0.5209  3.1298  1.2489
 2646SOL     OW19399   0.323   0.359   8.587 -0.4870 -0.2673  0.2627
 2646SOL    HW119400   0.336   0.387   8.496 -0.6635 -0.8231  0.0707
 2646SOL    HW219401   0.309   0.447   8.622 -0.2521 -0.1295  0.0102
 2647SOL     OW19402   2.530   2.599   3.646 -0.6483  0.1671  0.0895
 2647SOL    HW119403   2.608   2.609   3.701  0.9546  0.4650 -2.2169
 2647SOL    HW219404   2.543   2.514   3.604 -3.7598  0.6980 -1.9182
 2648SOL     OW19405   4.711   2.530  12.335 -0.0802  0.4918  0.3424
 2648SOL    HW119406   0.045   2.559  12.262 -0.4420  1.0890  0.3162
 2648SOL    HW219407   4.686   2.444  12.301  0.3434  0.5714 -0.1647
 2649SOL     OW19408   2.375   0.710   7.491 -0.2543 -0.2808  0.2771
 2649SOL    HW119409   2.345   0.660   7.414  0.2775 -2.6838  1.6072
 2649SOL    HW219410   2.298   0.763   7.512 -0.1194 -0.1481  0.4240
 2650SOL     OW19411   1.022   2.942   3.955  0.4697 -0.4571 -0.3742
 2650SOL    HW119412   0.970   2.903   4.025 -1.3846  0.2248 -1.3620
 2650SOL    HW219413   0.957   2.994   3.907 -2.0571 -3.0267  0.2306
 2651SOL     OW19414   4.431   4.511   5.654 -0.2490  0.6798 -0.3881
 2651SOL    HW119415   4.457   4.443   5.716  0.7080  0.2581 -1.2473
 2651SOL    HW219416   4.336   4.507   5.653 -0.1711 -1.2501  0.0112
 2652SOL     OW19417   1.510   1.232   6.293 -0.9326  0.6444 -0.6554
 2652SOL    HW119418   1.556   1.223   6.209 -2.7748 -1.1748 -1.4769
 2652SOL    HW219419   1.565   1.289   6.346 -0.6182  0.8344 -1.1891
 2653SOL     OW19420   4.189   0.510   1.901 -0.5443  0.2634 -0.3770
 2653SOL    HW119421   4.098   0.539   1.896  0.0352  2.6466  2.4700
 2653SOL    HW219422   4.210   0.474   1.815 -2.7395 -1.7293 -0.0727
 2654SOL     OW19423   3.586   1.847  12.792 -0.0490  0.1546 -0.2331
 2654SOL    HW119424   3.577   1.813  12.881  1.2019  3.5955  1.2191
 2654SOL    HW219425   3.646   1.920  12.808  1.2784 -0.7894 -0.8290
 2655SOL     OW19426   1.752   2.053   2.553 -0.4974 -0.1160 -0.4957
 2655SOL    HW119427   1.710   2.112   2.615 -0.6395 -1.2966  0.5146
 2655SOL    HW219428   1.738   2.091   2.466 -2.0292  1.9903  0.6579
 2656SOL     OW19429   2.637   1.652  14.287 -0.3736 -0.0445 -0.1648
 2656SOL    HW119430   2.620   1.733  14.239  2.5364  1.2466  0.9643
 2656SOL    HW219431   2.552   1.624  14.319  0.4127 -0.9169  1.1655
 2657SOL     OW19432   1.499   1.631   3.502 -1.0547  0.0394  0.0228
 2657SOL    HW119433   1.527   1.637   3.411  1.2381  1.3319  0.8170
 2657SOL    HW219434   1.527   1.715   3.538  1.8267 -0.9987  0.1792
 2658SOL     OW19435   1.892   0.328   8.262  0.2844  0.3699  0.6985
 2658SOL    HW119436   1.886   0.294   8.351  1.0772  0.3185  0.7289
 2658SOL    HW219437   1.837   0.406   8.275 -0.5272 -0.1670  0.4870
 2659SOL     OW19438   1.230   4.482  15.765  0.7692  0.4088 -0.3645
 2659SOL    HW119439   1.160   4.489  15.701  1.5948  2.4947 -1.0449
 2659SOL    HW219440   1.246   4.389  15.751  0.9857  1.0567 -4.3316
 2660SOL     OW19441   3.852   3.982   5.209 -0.3495 -0.1777 -0.4417
 2660SOL    HW119442   3.856   4.026   5.294  0.7865  2.2886 -1.7678
 2660SOL    HW219443   3.931   3.928   5.209  0.4525  0.9902 -0.6477
 2661SOL     OW19444   4.061   3.671   2.614  0.9281  0.0869 -0.7107
 2661SOL    HW119445   4.148   3.685   2.652  0.0337  0.2127  1.2931
 2661SOL    HW219446   4.059   3.575   2.607  0.4594  0.1013 -0.7847
 2662SOL     OW19447   0.894   0.135  13.318 -0.0126 -0.1663  0.2868
 2662SOL    HW119448   0.976   0.086  13.328  0.3178  0.6108  1.3424
 2662SOL    HW219449   0.844   0.088  13.385 -2.1707  1.6821 -0.0365
 2663SOL     OW19450   0.462   4.126   6.841 -0.5506  0.3051  0.1495
 2663SOL    HW119451   0.406   4.057   6.874  0.5426 -0.3431  0.6507
 2663SOL    HW219452   0.523   4.135   6.914  1.5974  1.5468 -1.7841
 2664SOL     OW19453   3.173   1.294   4.789 -0.1167 -0.5568 -0.1048
 2664SOL    HW119454   3.109   1.336   4.732  1.1990 -1.5432 -2.3385
 2664SOL    HW219455   3.231   1.366   4.814 -3.0466  2.2745 -1.4367
 2665SOL     OW19456   3.642   1.562   9.304  0.2323  0.3523  0.2132
 2665SOL    HW119457   3.556   1.578   9.265  1.2194 -0.7181 -2.4119
 2665SOL    HW219458   3.669   1.504   9.233 -2.4626  0.9874 -1.3284
 2666SOL     OW19459   2.888   0.652   4.862  0.4399 -0.1484  0.1519
 2666SOL    HW119460   2.802   0.633   4.825  0.5197 -2.8045  1.2938
 2666SOL    HW219461   2.882   0.745   4.882  0.6171 -0.2810  0.8335
 2667SOL     OW19462   3.601   0.984   9.116 -0.1483 -0.1883 -0.4430
 2667SOL    HW119463   3.598   0.925   9.191  0.7625  0.0085 -0.2413
 2667SOL    HW219464   3.573   1.061   9.166  0.2355 -0.6268  0.4547
 2668SOL     OW19465   0.580   1.785   5.163  0.0978 -0.2740 -0.2575
 2668SOL    HW119466   0.496   1.810   5.126  1.1832  1.9968 -1.2020
 2668SOL    HW219467   0.638   1.790   5.087 -0.7635  2.4041 -0.7350
 2669SOL     OW19468   0.691   0.264   5.595 -0.0947  0.2189  0.3164
 2669SOL    HW119469   0.758   0.228   5.538  2.1382  1.4615  2.1814
 2669SOL    HW219470   0.683   0.351   5.556  1.5009 -0.0877 -0.6783
 2670SOL     OW19471   2.999   4.017   2.458  0.1400 -0.2184 -0.0743
 2670SOL    HW119472   3.038   4.104   2.446  0.5279 -0.4618 -0.5908
 2670SOL    HW219473   2.918   4.037   2.410  0.6353 -1.1611 -1.2888
 2671SOL     OW19474   3.723   4.708   5.402 -0.3025  0.2349 -0.2800
 2671SOL    HW119475   3.775   4.636   5.368 -0.2090 -0.2570  0.9263
 2671SOL    HW219476   3.745   4.704   5.495 -2.4768 -3.3593  0.0527
 2672SOL     OW19477   1.860   4.043   7.631 -0.3992 -0.4419  0.1458
 2672SOL    HW119478   1.832   3.953   7.618 -0.7560 -0.5145  1.5170
 2672SOL    HW219479   1.774   4.083   7.642 -0.5557 -0.6955 -0.1529
 2673SOL     OW19480   2.753   3.482  11.817 -0.0012 -0.5622  0.0279
 2673SOL    HW119481   2.742   3.559  11.760 -1.4617 -0.8930 -0.1479
 2673SOL    HW219482   2.758   3.525  11.902  3.1745  0.8805 -0.9313
 2674SOL     OW19483   0.776   4.594  15.615 -0.0603 -0.1300 -0.1653
 2674SOL    HW119484   0.787   4.626  15.526 -1.7663 -0.3548 -0.4544
 2674SOL    HW219485   0.702   4.537  15.594 -0.1082 -0.5584  1.1474
 2675SOL     OW19486   2.603   3.376   6.568  0.3269 -0.1133  0.0215
 2675SOL    HW119487   2.521   3.420   6.546  1.2558  1.5054 -0.2592
 2675SOL    HW219488   2.573   3.314   6.634 -2.6281  1.7512  0.4292
 2676SOL     OW19489   4.078   3.015  15.083 -0.5105 -0.4960 -0.1433
 2676SOL    HW119490   3.984   2.996  15.095 -0.0363 -2.4366  0.5977
 2676SOL    HW219491   4.113   2.967  15.158  0.5596  1.2062  0.4411
 2677SOL     OW19492   3.884   0.306  10.672  0.0547 -0.2395  0.3170
 2677SOL    HW119493   3.880   0.227  10.726 -3.5541 -2.2997 -2.9002
 2677SOL    HW219494   3.970   0.288  10.633 -1.2097  0.3002 -2.7311
 2678SOL     OW19495   2.758   3.818  10.088 -0.2408 -0.3279 -0.1696
 2678SOL    HW119496   2.724   3.837  10.001  3.3278  1.1464 -1.2431
 2678SOL    HW219497   2.698   3.757  10.130  1.2575 -1.6793  0.0132
 2679SOL     OW19498   2.024   0.900   1.075 -0.4659 -0.2884  0.2089
 2679SOL    HW119499   1.949   0.960   1.073 -1.4584 -1.5178  1.2495
 2679SOL    HW219500   2.067   0.921   1.158  1.3209 -0.1194 -0.7656
 2680SOL     OW19501   1.407   3.254   3.069  0.1648 -0.6479 -0.1322
 2680SOL    HW119502   1.368   3.311   3.003  0.1296  0.1856  0.6109
 2680SOL    HW219503   1.470   3.315   3.107 -3.5629  1.3890  2.6873
 2681SOL     OW19504   3.641   0.107  10.848  0.7534 -0.0441 -0.1154
 2681SOL    HW119505   3.686   0.068  10.773  1.1769  0.4018 -0.1003
 2681SOL    HW219506   3.667   0.055  10.923 -1.1041 -2.9569 -1.5050
 2682SOL     OW19507   0.013   3.768   1.275 -0.0026 -1.0156  0.4508
 2682SOL    HW119508   0.038   3.834   1.339  1.8020 -0.2694 -0.9938
 2682SOL    HW219509   0.072   3.702   1.312 -0.5035 -1.3357  0.6787
 2683SOL     OW19510   2.723   1.691  11.400 -0.1725  0.0048  0.4434
 2683SOL    HW119511   2.801   1.639  11.383 -0.1442 -0.0982  0.8839
 2683SOL    HW219512   2.745   1.724  11.487 -1.2589  0.2200  0.6361
 2684SOL     OW19513   1.934   0.213   7.387  0.0307 -0.6149  0.2114
 2684SOL    HW119514   1.928   0.173   7.474  1.4247 -0.5269  0.3511
 2684SOL    HW219515   1.902   0.301   7.402 -1.7136 -1.3800  0.9179
 2685SOL     OW19516   2.843   0.139   9.891  0.1015  0.2061  1.0738
 2685SOL    HW119517   2.782   0.193   9.841  2.0903  3.0597  1.7311
 2685SOL    HW219518   2.840   0.064   9.832  0.9093  0.5725  0.5792
 2686SOL     OW19519   1.814   3.824   4.725  0.3801 -0.5247  0.2016
 2686SOL    HW119520   1.839   3.896   4.666  0.4002 -0.4775  0.2672
 2686SOL    HW219521   1.720   3.839   4.719  0.3410 -1.1675 -0.7574
 2687SOL     OW19522   1.654   3.442   7.610 -0.5208 -0.0367 -0.3910
 2687SOL    HW119523   1.562   3.469   7.605 -1.0288 -1.7182  0.2401
 2687SOL    HW219524   1.653   3.349   7.588 -0.1899  0.0773 -0.8962
 2688SOL     OW19525   0.270   1.576   4.420 -0.1848 -0.7511 -0.0718
 2688SOL    HW119526   0.303   1.531   4.498  0.1249 -2.4010 -1.1567
 2688SOL    HW219527   0.222   1.646   4.463  0.1636 -0.9787  0.6891
 2689SOL     OW19528   2.562   0.887   6.672 -0.2772 -0.6586 -0.2545
 2689SOL    HW119529   2.581   0.931   6.589 -3.1959 -1.7129 -1.4827
 2689SOL    HW219530   2.474   0.861   6.646  0.0388 -1.2654 -0.7161
 2690SOL     OW19531   1.175   1.164   5.006 -0.3886 -0.4463  0.0048
 2690SOL    HW119532   1.115   1.127   4.940 -0.5362 -3.6578  1.9391
 2690SOL    HW219533   1.257   1.117   4.990  0.2790  0.9526 -0.6240
 2691SOL     OW19534   1.288   3.163  15.972  0.5359  0.5014  0.0972
 2691SOL    HW119535   1.286   3.255  15.947  1.4456  0.9700  1.7113
 2691SOL    HW219536   1.364   3.132  15.924  0.0460 -2.1708  1.0330
 2692SOL     OW19537   1.089   0.389  14.555 -0.3777 -0.1618  0.0038
 2692SOL    HW119538   1.089   0.358  14.464  1.4024 -0.5192  0.1132
 2692SOL    HW219539   1.165   0.446  14.556  0.0906 -0.7765 -0.2793
 2693SOL     OW19540   1.934   2.350   6.151  0.2478  1.1033 -0.0946
 2693SOL    HW119541   1.945   2.337   6.057  0.0007 -1.5959  0.2563
 2693SOL    HW219542   1.847   2.390   6.156 -0.2776  0.1746 -1.7715
 2694SOL     OW19543   2.924   4.028   4.727  0.3087  0.6023  0.3224
 2694SOL    HW119544   2.885   3.946   4.698  1.3505 -0.1371  1.0067
 2694SOL    HW219545   3.017   4.016   4.705  0.5762  5.2943 -1.1717
 2695SOL     OW19546   4.684   0.474   0.578 -0.2122 -0.6645 -0.2781
 2695SOL    HW119547   4.603   0.440   0.541 -0.0880 -0.8746 -0.3548
 2695SOL    HW219548   4.654   0.489   0.668 -0.3251 -0.4345 -0.3512
 2696SOL     OW19549   0.120   4.133   5.683  0.0210  0.1950 -0.1556
 2696SOL    HW119550   0.103   4.080   5.761 -2.8416 -0.2692 -1.0849
 2696SOL    HW219551   0.213   4.119   5.668  0.2659 -0.9236  2.3899
 2697SOL     OW19552   0.936   3.995   6.913  0.6351  0.0243 -0.5214
 2697SOL    HW119553   0.957   3.974   6.822  0.8842 -1.3020 -0.1684
 2697SOL    HW219554   0.844   3.968   6.916  0.8534 -0.6218  0.4381
 2698SOL     OW19555   3.200   4.583   5.280 -0.2254 -0.0454  0.4821
 2698SOL    HW119556   3.105   4.572   5.276 -0.2580  0.2765  0.4043
 2698SOL    HW219557   3.202   4.644   5.206  1.5784  0.4083  0.8989
 2699SOL     OW19558   0.107   1.891   5.100 -0.1388 -0.2615  0.6170
 2699SOL    HW119559   0.135   1.830   5.169 -0.7719  2.8750  3.6378
 2699SOL    HW219560   0.061   1.957   5.153 -1.0505 -0.0292 -0.4779
 2700SOL     OW19561   0.945   0.103   8.716  0.2441 -0.0277 -0.0411
 2700SOL    HW119562   0.991   0.150   8.786  0.5979  1.8986 -1.5818
 2700SOL    HW219563   0.932   0.182   8.663  1.6337  1.1906  1.4268
 2701SOL     OW19564   4.031   4.272   4.722 -0.0733  0.1319  0.5124
 2701SOL    HW119565   3.959   4.325   4.757  0.2321  1.1536 -0.4170
 2701SOL    HW219566   4.050   4.302   4.633  0.1583 -1.1845  0.1252
 2702SOL     OW19567   1.480   2.407   4.815  0.1003 -0.0075 -0.0340
 2702SOL    HW119568   1.397   2.408   4.768  0.1260  1.2323 -0.0636
 2702SOL    HW219569   1.531   2.479   4.776  1.6075 -1.3801 -0.5819
 2703SOL     OW19570   2.261   4.265   7.389 -0.0617 -0.0360 -0.2027
 2703SOL    HW119571   2.256   4.169   7.391  1.6795 -0.1832 -1.9803
 2703SOL    HW219572   2.316   4.272   7.466  0.1650  0.4316 -0.4057
 2704SOL     OW19573   3.789   2.283   0.579 -0.5493 -0.4840  0.0607
 2704SOL    HW119574   3.759   2.374   0.574  0.8430  0.0584  1.6295
 2704SOL    HW219575   3.724   2.244   0.637 -2.0684  0.4354 -1.0492
 2705SOL     OW19576   2.428   1.098   7.905  0.1830  1.0058  0.6366
 2705SOL    HW119577   2.506   1.128   7.952  2.2240 -0.1409 -2.0209
 2705SOL    HW219578   2.462   1.014   7.873 -0.9682  1.3955 -1.5849
 2706SOL     OW19579   4.384   0.903   3.927 -0.7377  0.1219  0.0815
 2706SOL    HW119580   4.414   0.814   3.944 -0.8099 -0.5067 -3.1004
 2706SOL    HW219581   4.340   0.921   4.010 -1.5867  0.9603 -0.5525
 2707SOL     OW19582   3.888   4.122   7.330 -0.1383  0.0548 -0.3738
 2707SOL    HW119583   3.835   4.143   7.252  1.4829 -0.0550 -1.5004
 2707SOL    HW219584   3.879   4.027   7.320 -1.6134  0.2614 -1.0333
 2708SOL     OW19585   0.134   3.958   8.036 -0.1489 -0.0448 -0.0659
 2708SOL    HW119586   0.074   3.904   7.985 -1.5487 -1.1205  2.6959
 2708SOL    HW219587   0.221   3.946   7.998 -0.2132 -0.6501 -0.0235
 2709SOL     OW19588   0.871   3.567   0.879  0.4482  0.0219 -0.0291
 2709SOL    HW119589   0.963   3.582   0.858  0.8487  0.4404  2.0504
 2709SOL    HW219590   0.849   3.652   0.917 -0.2813 -0.4645  0.6605
 2710SOL     OW19591   2.917   1.609   7.184  0.4432  0.0423  0.2920
 2710SOL    HW119592   2.942   1.593   7.093 -1.2046  1.2075 -0.3665
 2710SOL    HW219593   2.860   1.534   7.201  1.6743 -0.5912  1.6143
 2711SOL     OW19594   0.813   4.394   0.377  0.2935  0.3517  0.1971
 2711SOL    HW119595   0.871   4.470   0.381 -0.1786  0.6866  0.6593
 2711SOL    HW219596   0.730   4.420   0.416 -0.0065 -0.5476  0.1607
 2712SOL     OW19597   2.543   0.837   8.034  0.2284 -0.4938 -0.1938
 2712SOL    HW119598   2.607   0.767   8.018  0.4260 -0.9218  2.3596
 2712SOL    HW219599   2.579   0.884   8.109  0.5821 -0.9750 -0.0625
 2713SOL     OW19600   3.806   3.667   4.547  0.0216 -0.3078 -0.3843
 2713SOL    HW119601   3.725   3.649   4.500 -1.3900  0.7265  1.6287
 2713SOL    HW219602   3.799   3.608   4.622 -3.7875 -0.9820 -1.3012
 2714SOL     OW19603   4.541   1.774   4.148  0.4391  0.3075  0.3583
 2714SOL    HW119604   4.459   1.726   4.139  0.9252 -0.5138  0.3206
 2714SOL    HW219605   4.568   1.729   4.229  1.7615 -0.0327 -0.2672
 2715SOL     OW19606   1.890   2.398   9.154 -0.2426  0.5257  0.1116
 2715SOL    HW119607   1.899   2.337   9.228 -0.2916 -0.3361 -0.5967
 2715SOL    HW219608   1.917   2.346   9.078 -1.7478 -2.1498  1.4248
 2716SOL     OW19609   4.078   2.572  15.867 -0.8093 -0.0914  0.0730
 2716SOL    HW119610   4.120   2.492  15.836  0.6088  0.5703  0.2551
 2716SOL    HW219611   4.013   2.579  15.797 -0.4882 -1.4027 -0.3524
 2717SOL     OW19612   2.990   1.349   1.906 -0.4707 -0.4206 -0.0874
 2717SOL    HW119613   3.032   1.419   1.856 -2.0362 -0.0359 -0.8948
 2717SOL    HW219614   2.913   1.392   1.943 -0.2983 -1.0074  0.9467
 2718SOL     OW19615   3.737   3.404  12.212  0.6317 -0.4414 -0.2695
 2718SOL    HW119616   3.779   3.320  12.192  2.6701 -0.0907  2.6088
 2718SOL    HW219617   3.674   3.409  12.139 -0.8085 -0.0286  1.0016
 2719SOL     OW19618   2.446   0.639   4.290  0.0627 -0.3674  0.1519
 2719SOL    HW119619   2.463   0.575   4.221  1.7523 -0.3432  0.5473
 2719SOL    HW219620   2.530   0.669   4.325 -0.5685 -0.8914  2.1386
 2720SOL     OW19621   1.567   3.574   2.163  0.0801 -0.0775  0.4442
 2720SOL    HW119622   1.649   3.536   2.132 -0.0736 -0.3695  0.3984
 2720SOL    HW219623   1.574   3.549   2.255  1.2288 -0.9030  0.1230
 2721SOL     OW19624   3.521   2.331   4.443 -0.3672 -0.2175 -0.4883
 2721SOL    HW119625   3.457   2.314   4.374 -0.1760 -0.7342 -0.5440
 2721SOL    HW219626   3.559   2.414   4.417 -2.8441  1.1327  0.2310
 2722SOL     OW19627   1.372   4.330   1.419  0.3528 -0.4891  0.5211
 2722SOL    HW119628   1.339   4.248   1.455  1.1019  0.3676  3.1919
 2722SOL    HW219629   1.355   4.310   1.327  0.3811  1.2286  0.1294
 2723SOL     OW19630   2.070   3.341  15.875  0.5250 -0.0341 -0.3266
 2723SOL    HW119631   2.061   3.418  15.930 -0.4900  0.0842 -0.6482
 2723SOL    HW219632   2.007   3.368  15.808 -0.0281 -1.9560 -0.5847
 2724SOL     OW19633   3.919   0.346   9.455  0.4698  0.0711 -0.3210
 2724SOL    HW119634   3.970   0.274   9.491 -2.1011 -0.8793  1.3934
 2724SOL    HW219635   3.898   0.393   9.535  0.5477  1.2921 -1.0124
 2725SOL     OW19636   0.891   2.689   3.112  0.5175  0.3893  0.4431
 2725SOL    HW119637   0.945   2.754   3.066  0.4959  0.8207  1.0315
 2725SOL    HW219638   0.817   2.713   3.056  0.8912 -3.6080 -1.8012
 2726SOL     OW19639   2.028   2.351  11.130 -0.2336  0.0111 -0.4105
 2726SOL    HW119640   2.066   2.270  11.164 -0.8852 -0.7894 -1.5685
 2726SOL    HW219641   2.056   2.418  11.192  1.6388 -0.9299 -0.2120
 2727SOL     OW19642   2.558   3.440  15.778 -0.2949 -0.0151  0.3077
 2727SOL    HW119643   2.580   3.488  15.858 -0.1042  0.5669 -0.0921
 2727SOL    HW219644   2.505   3.364  15.800 -0.1296  0.2002  1.4844
 2728SOL     OW19645   3.789   3.162  13.897  0.5141 -0.1561 -0.0579
 2728SOL    HW119646   3.740   3.081  13.914  2.0091 -1.0296  0.0702
 2728SOL    HW219647   3.819   3.174  13.987  1.3418 -2.9959  0.0359
 2729SOL     OW19648   2.877   3.580   6.003 -0.6012  0.8587  0.2335
 2729SOL    HW119649   2.956   3.579   5.949  0.5856 -1.9206  2.0342
 2729SOL    HW219650   2.913   3.525   6.072 -0.2866 -1.1546 -1.5391
 2730SOL     OW19651   3.749   3.015  16.377 -0.5204  0.4154 -0.5679
 2730SOL    HW119652   3.675   2.958  16.356 -0.7149  0.2496  0.5619
 2730SOL    HW219653   3.818   2.986  16.318 -0.1498  0.9609 -0.4064
 2731SOL     OW19654   3.347   3.369   4.866  0.3335 -0.3722 -0.6455
 2731SOL    HW119655   3.373   3.322   4.786  1.3539 -1.0051  0.0515
 2731SOL    HW219656   3.430   3.406   4.897  0.2938 -2.2698  1.6701
 2732SOL     OW19657   2.559   0.249  17.455  0.2329  0.1396 -0.1913
 2732SOL    HW119658   2.529   0.258  17.545  2.1958 -0.5741  0.5420
 2732SOL    HW219659   2.653   0.237  17.469  0.0496  0.7214  1.4441
 2733SOL     OW19660   0.100   2.866   7.612 -0.1817 -0.1930  0.2124
 2733SOL    HW119661   0.140   2.822   7.687  0.2200  1.9414  1.2597
 2733SOL    HW219662   0.008   2.840   7.618 -0.0082 -0.7861  0.2249
 2734SOL     OW19663   2.715   1.809   0.008  0.0995  0.5505  0.2311
 2734SOL    HW119664   2.628   1.809  17.651 -0.1415  3.2817  0.7413
 2734SOL    HW219665   2.765   1.882  17.654  0.2787  0.3414  0.0572
 2735SOL     OW19666   2.612   4.375  10.302  0.3720  0.1464  0.0317
 2735SOL    HW119667   2.590   4.461  10.265 -0.1342  0.5625  1.2989
 2735SOL    HW219668   2.528   4.355  10.341  1.1806 -0.2523  1.5452
 2736SOL     OW19669   1.385   0.277   3.530 -0.4805  0.1125  0.1344
 2736SOL    HW119670   1.381   0.353   3.588 -0.9514  0.9854 -1.0500
 2736SOL    HW219671   1.301   0.233   3.545  0.0551 -0.9333  0.1336
 2737SOL     OW19672   0.615   1.818   8.029 -0.5131 -0.0014 -0.1242
 2737SOL    HW119673   0.614   1.882   7.958 -0.2271  0.9232  0.6957
 2737SOL    HW219674   0.521   1.804   8.042 -0.7102  0.5565 -0.9653
 2738SOL     OW19675   2.524   3.504   0.310  0.7759 -0.4780  0.3123
 2738SOL    HW119676   2.462   3.431   0.313  1.3426 -0.9046  1.6490
 2738SOL    HW219677   2.477   3.549   0.240  4.5435  1.0243 -1.2460
 2739SOL     OW19678   3.733   0.340   9.265  0.4882 -0.2267 -0.0632
 2739SOL    HW119679   3.713   0.425   9.226  0.0243 -0.1377  0.3564
 2739SOL    HW219680   3.778   0.369   9.344  2.1179 -0.8106 -0.7858
 2740SOL     OW19681   1.108   1.903   3.837 -0.2591  0.4090  0.2512
 2740SOL    HW119682   1.108   1.839   3.766 -1.5790  0.6655  0.0286
 2740SOL    HW219683   1.119   1.984   3.788 -1.0678  0.3905  0.0551
 2741SOL     OW19684   1.344   1.791   0.823 -0.7592 -0.7231  0.2476
 2741SOL    HW119685   1.372   1.795   0.915 -2.2358  1.0603  0.6185
 2741SOL    HW219686   1.430   1.768   0.789  0.3775 -1.4444  3.5870
 2742SOL     OW19687   0.709   1.461   2.925  0.0331 -0.3498 -0.1910
 2742SOL    HW119688   0.802   1.442   2.915 -0.8004 -5.2253  1.5103
 2742SOL    HW219689   0.686   1.508   2.845 -0.8286 -1.6097 -0.6897
 2743SOL     OW19690   2.382   3.295   8.345 -0.0257  0.2670  0.0265
 2743SOL    HW119691   2.313   3.279   8.281 -0.4696 -2.3055  1.1686
 2743SOL    HW219692   2.345   3.359   8.406 -1.0305  0.0334 -0.3353
 2744SOL     OW19693   2.502   2.062   2.864  0.2928 -0.2187 -0.1274
 2744SOL    HW119694   2.430   2.044   2.925  0.1535  0.4050 -0.1062
 2744SOL    HW219695   2.458   2.136   2.822 -0.4402  0.0893  1.1839
 2745SOL     OW19696   0.013   1.271   2.452 -0.0161  0.1082 -0.2113
 2745SOL    HW119697   0.087   1.301   2.398  0.0508 -0.3674 -0.3817
 2745SOL    HW219698   4.683   1.221   2.388  1.4095 -1.5952 -0.0000
 2746SOL     OW19699   4.661   0.711   2.371 -0.1980 -0.0380  0.2915
 2746SOL    HW119700   4.631   0.620   2.381 -0.9386  0.2140  0.3650
 2746SOL    HW219701   4.583   0.761   2.395 -0.9230 -0.9103 -0.2341
 2747SOL     OW19702   2.523   0.928   4.032 -0.0037 -0.1225 -0.3593
 2747SOL    HW119703   2.584   0.909   4.103 -0.1872 -0.0664 -0.1894
 2747SOL    HW219704   2.440   0.903   4.072  0.0276  2.3142  1.2470
 2748SOL     OW19705   0.465   2.205   1.153 -0.1593 -0.0972  0.0185
 2748SOL    HW119706   0.517   2.155   1.090 -0.2483 -0.9874  0.6446
 2748SOL    HW219707   0.532   2.216   1.221 -0.0139  1.4245 -0.3636
 2749SOL     OW19708   1.101   2.593  17.312 -0.2223 -0.3327 -0.2581
 2749SOL    HW119709   1.030   2.640  17.357  0.0316  0.1757 -0.3831
 2749SOL    HW219710   1.091   2.511  17.359 -0.0742  0.0464  0.4324
 2750SOL     OW19711   4.315   0.859   5.009  0.4819 -0.0158 -0.4219
 2750SOL    HW119712   4.336   0.787   5.069 -4.0524 -0.1571  1.0566
 2750SOL    HW219713   4.280   0.920   5.075  0.0861 -0.9982  0.2803
 2751SOL     OW19714   0.283   0.279   7.296  0.0950  0.1942  0.4338
 2751SOL    HW119715   0.229   0.342   7.250 -2.4516 -1.0845  1.6846
 2751SOL    HW219716   0.225   0.203   7.303 -1.9529  1.7480  0.1183
 2752SOL     OW19717   1.747   3.337   0.574  0.2418 -0.1798 -0.0331
 2752SOL    HW119718   1.718   3.246   0.577 -0.2899  0.0176  0.9861
 2752SOL    HW219719   1.701   3.363   0.494 -2.8628 -0.6732  1.5749
 2753SOL     OW19720   2.870   4.474   2.495 -0.1565 -0.0916 -0.3422
 2753SOL    HW119721   2.909   4.453   2.580 -0.7914 -1.5643 -0.4320
 2753SOL    HW219722   2.781   4.455   2.525  0.3750 -1.3652  0.4062
 2754SOL     OW19723   2.994   3.109  14.808  0.4821 -0.6342 -0.1693
 2754SOL    HW119724   3.084   3.081  14.825  0.3749 -1.0943 -0.3591
 2754SOL    HW219725   3.006   3.098  14.714 -0.4993  0.3901 -0.4120
 2755SOL     OW19726   1.405   0.376   5.298  0.2236 -0.0017  0.4352
 2755SOL    HW119727   1.363   0.447   5.347 -0.8956 -0.6680  0.4290
 2755SOL    HW219728   1.411   0.409   5.209 -2.9026  1.5898  0.8308
 2756SOL     OW19729   1.893   3.456  15.691  0.6202 -0.1337  0.0512
 2756SOL    HW119730   1.913   3.548  15.674  1.0459 -0.2860 -0.2665
 2756SOL    HW219731   1.884   3.432  15.599 -0.3718 -0.8758  0.3439
 2757SOL     OW19732   4.386   2.977   6.397 -0.3337  0.1846  0.4717
 2757SOL    HW119733   4.390   3.068   6.425 -0.1023 -0.1278  1.4442
 2757SOL    HW219734   4.362   2.937   6.480 -0.0853  1.2345  1.0498
 2758SOL     OW19735   1.033   2.584   5.732  0.3934 -0.1192 -0.2955
 2758SOL    HW119736   0.982   2.651   5.686 -0.7073 -0.2692  0.7197
 2758SOL    HW219737   1.078   2.647   5.789  2.8024 -0.4773 -1.7882
 2759SOL     OW19738   1.168   3.841  12.296  0.2842  0.3105 -0.7129
 2759SOL    HW119739   1.111   3.768  12.271  0.1293  0.1695  0.0593
 2759SOL    HW219740   1.163   3.901  12.221 -0.1845  0.9148 -0.2010
 2760SOL     OW19741   1.218   0.805  17.538 -0.0065  0.6578 -0.2875
 2760SOL    HW119742   1.313   0.801  17.539  0.0175  1.6066  0.7418
 2760SOL    HW219743   1.193   0.769  17.453  1.1445 -0.4969 -0.1262
 2761SOL     OW19744   3.729   4.156   6.604  0.1130  0.3690  0.3378
 2761SOL    HW119745   3.651   4.104   6.582  0.4118  0.1746 -0.2521
 2761SOL    HW219746   3.683   4.228   6.647 -0.4277  0.2659 -0.0659
 2762SOL     OW19747   1.519   2.064   8.189  0.1112 -0.3322 -1.0779
 2762SOL    HW119748   1.461   2.099   8.257  2.4560  1.4436  0.0189
 2762SOL    HW219749   1.473   1.982   8.175 -0.1191 -0.2407 -0.8656
 2763SOL     OW19750   1.688   1.836  15.615 -0.1941 -0.3860  0.5415
 2763SOL    HW119751   1.736   1.788  15.682 -0.4360  0.4109  1.2838
 2763SOL    HW219752   1.761   1.849  15.554  1.0004 -0.5358  1.9522
 2764SOL     OW19753   2.287   4.334  17.227  0.4709 -0.2569 -0.0355
 2764SOL    HW119754   2.231   4.399  17.185  2.1653  1.3857  0.2367
 2764SOL    HW219755   2.365   4.333  17.172  0.1655  2.6049 -0.5361
 2765SOL     OW19756   0.059   0.141   9.157  0.0121 -0.1673  0.7693
 2765SOL    HW119757   0.144   0.099   9.170  0.1778  0.0238  0.2903
 2765SOL    HW219758   0.044   0.167   9.248 -2.3380 -0.6786  0.5107
 2766SOL     OW19759   0.153   4.275   3.996  0.5150 -0.0404  0.1683
 2766SOL    HW119760   0.148   4.224   4.076 -3.3973 -2.5486 -1.6890
 2766SOL    HW219761   0.125   4.356   4.039  0.7213  0.3992 -0.5220
 2767SOL     OW19762   3.171   4.530   4.819 -0.6951  0.3204 -0.1947
 2767SOL    HW119763   3.143   4.520   4.728  2.9705  1.5574 -1.4524
 2767SOL    HW219764   3.134   4.458   4.870 -1.7230  1.7504  1.1133
 2768SOL     OW19765   0.430   3.075   2.604  0.3114  0.4094  0.0836
 2768SOL    HW119766   0.450   3.025   2.525 -0.7058  1.7000 -0.9963
 2768SOL    HW219767   0.486   3.146   2.572  0.2874  0.4422  0.1140
 2769SOL     OW19768   0.887   1.177   7.677  0.3338  0.1826 -0.0758
 2769SOL    HW119769   0.895   1.268   7.706 -0.3422  0.0022  0.6888
 2769SOL    HW219770   0.942   1.180   7.599 -0.5681  1.3183 -0.6716
 2770SOL     OW19771   0.814   1.422   1.554  0.8907 -0.4656  0.0429
 2770SOL    HW119772   0.746   1.365   1.517  1.8337 -2.2216  1.0245
 2770SOL    HW219773   0.872   1.420   1.478  1.9975 -1.1858  0.9256
 2771SOL     OW19774   1.556   3.022   5.122 -0.2587  0.0949  0.3579
 2771SOL    HW119775   1.648   3.045   5.109  0.1007 -1.5288  0.0340
 2771SOL    HW219776   1.561   2.948   5.183  1.1152 -0.6435 -0.6268
 2772SOL     OW19777   3.704   2.740  12.886 -0.3125  1.0680  0.1759
 2772SOL    HW119778   3.775   2.683  12.859  1.4595  3.0286  0.6763
 2772SOL    HW219779   3.642   2.672  12.910  0.7642  0.7910  2.2025
 2773SOL     OW19780   1.993   1.506  16.709  0.4213  0.2756  0.2500
 2773SOL    HW119781   2.006   1.523  16.616  0.5041 -3.4929 -0.4526
 2773SOL    HW219782   1.914   1.451  16.712  0.5508 -0.0570 -2.6595
 2774SOL     OW19783   2.941   3.034   0.312  0.1313 -0.4196 -1.0685
 2774SOL    HW119784   3.031   3.068   0.312 -1.1127  2.8543  2.2736
 2774SOL    HW219785   2.919   3.018   0.404  0.3619  0.3681 -0.8715
 2775SOL     OW19786   0.626   3.166  13.482  0.6298 -0.5166  0.3290
 2775SOL    HW119787   0.705   3.128  13.520  0.7721  1.6512  2.1427
 2775SOL    HW219788   0.566   3.148  13.554  1.4862  1.2033  1.4711
 2776SOL     OW19789   3.852   4.196  12.645 -0.6682 -0.2445 -0.1190
 2776SOL    HW119790   3.869   4.110  12.683  0.5947 -0.1512 -0.4750
 2776SOL    HW219791   3.928   4.244  12.677 -1.8957  0.5292  1.6445
 2777SOL     OW19792   0.809   4.032   6.196  0.0257 -0.0569 -0.2073
 2777SOL    HW119793   0.727   4.076   6.218 -0.2544  0.4406 -2.2341
 2777SOL    HW219794   0.789   3.947   6.156  1.7074 -0.1019 -0.9748
 2778SOL     OW19795   2.460   2.534   4.220  0.0662  0.0264  0.3384
 2778SOL    HW119796   2.379   2.556   4.174  0.2530  1.3414  0.6441
 2778SOL    HW219797   2.509   2.616   4.219 -2.6442  1.6578  1.3088
 2779SOL     OW19798   0.771   0.185   1.074  0.7427  0.0421  0.0519
 2779SOL    HW119799   0.805   0.274   1.071  2.3881 -0.6035 -0.4586
 2779SOL    HW219800   0.759   0.162   0.982 -1.1968 -1.3485  0.6484
 2780SOL     OW19801   1.843   2.714   1.373 -0.3606  0.6300  0.4085
 2780SOL    HW119802   1.885   2.638   1.414 -0.1526  1.4955  1.7776
 2780SOL    HW219803   1.768   2.682   1.323 -0.1892  0.6880  0.1073
 2781SOL     OW19804   3.006   3.879  16.510 -0.2592 -0.2231 -0.3181
 2781SOL    HW119805   3.061   3.932  16.568 -1.8411 -0.5336  1.4891
 2781SOL    HW219806   2.919   3.913  16.533  0.4281  1.5321 -0.3090
 2782SOL     OW19807   2.336   1.160   5.083 -0.1751  0.3563  0.0674
 2782SOL    HW119808   2.330   1.067   5.060 -0.5721  0.5112 -0.4618
 2782SOL    HW219809   2.426   1.148   5.114 -0.4164 -1.9325 -0.0899
 2783SOL     OW19810   0.537   2.061  15.520 -0.2906 -0.6600  0.3660
 2783SOL    HW119811   0.561   2.097  15.605 -0.7366 -1.2786  0.7538
 2783SOL    HW219812   0.515   2.144  15.478 -0.9931 -2.2450 -2.3985
 2784SOL     OW19813   0.915   4.104  10.529 -0.5360  0.0487 -0.2769
 2784SOL    HW119814   0.870   4.159  10.593 -0.8507  2.4329 -2.5515
 2784SOL    HW219815   0.845   4.098  10.465  0.5558  1.5074 -1.6134
 2785SOL     OW19816   1.164   1.797   2.254 -0.3661  0.0770  0.1510
 2785SOL    HW119817   1.232   1.795   2.186  0.3520 -0.0084  0.8753
 2785SOL    HW219818   1.153   1.890   2.273 -1.0723  0.4074 -1.9123
 2786SOL     OW19819   0.871   0.305   8.516 -0.2512  0.1252  0.5010
 2786SOL    HW119820   0.788   0.303   8.468 -0.6775 -0.2359  1.2661
 2786SOL    HW219821   0.901   0.380   8.464 -0.1778  0.3208  0.8235
 2787SOL     OW19822   3.268   1.581  13.114 -1.3628  0.3419 -0.3952
 2787SOL    HW119823   3.357   1.575  13.150 -1.5882 -0.3055  0.0741
 2787SOL    HW219824   3.240   1.491  13.135  0.5891  0.1190  1.2847
 2788SOL     OW19825   3.824   3.081  10.328 -0.0125 -0.3156  0.0317
 2788SOL    HW119826   3.834   3.109  10.237 -0.5605  0.8646  0.3276
 2788SOL    HW219827   3.754   3.017  10.317  0.8141 -1.3015  0.5894
 2789SOL     OW19828   2.367   1.977   0.898  0.2923  0.1803 -0.2915
 2789SOL    HW119829   2.393   2.067   0.919 -2.9176  1.2796 -1.0421
 2789SOL    HW219830   2.342   1.945   0.985  1.6082 -0.5237 -0.1720
 2790SOL     OW19831   2.583   3.864  10.850  0.3027  0.2064 -0.4152
 2790SOL    HW119832   2.633   3.896  10.925  1.6198 -1.8226 -0.4242
 2790SOL    HW219833   2.491   3.877  10.873  0.4732  0.1359  0.3156
 2791SOL     OW19834   3.889   4.424   8.360  0.1199  0.3658 -0.5914
 2791SOL    HW119835   3.839   4.348   8.332  1.6839 -1.0981  0.5403
 2791SOL    HW219836   3.943   4.443   8.284  0.9520  0.4349  0.0113
 2792SOL     OW19837   2.955   0.489   1.790  0.1409  0.0623  0.5882
 2792SOL    HW119838   3.023   0.511   1.853  1.7449  2.3001 -1.9448
 2792SOL    HW219839   2.902   0.421   1.832 -1.4846 -0.9572 -3.1234
 2793SOL     OW19840   3.317   0.725   2.521  0.0472  0.2999 -0.2292
 2793SOL    HW119841   3.341   0.743   2.612 -0.1247 -1.5145  0.1789
 2793SOL    HW219842   3.222   0.717   2.521  0.2539 -2.0830 -1.7502
 2794SOL     OW19843   1.015   1.530   1.202 -0.4895  0.0602 -0.2199
 2794SOL    HW119844   1.008   1.483   1.119 -0.3878  0.5308 -0.4931
 2794SOL    HW219845   1.095   1.581   1.193 -0.3913 -0.7046 -3.6035
 2795SOL     OW19846   4.130   0.921   1.086 -0.0818 -0.1541  0.3059
 2795SOL    HW119847   4.125   0.903   0.992  1.7457 -1.0398  0.3853
 2795SOL    HW219848   4.180   1.003   1.084 -0.2302 -0.0611  0.4674
 2796SOL     OW19849   4.212   0.259   8.581  0.1813 -0.3947  0.1346
 2796SOL    HW119850   4.290   0.224   8.624  0.2539 -0.5123 -0.0954
 2796SOL    HW219851   4.214   0.204   8.503 -1.2071  0.2836 -0.3817
 2797SOL     OW19852   4.443   0.002  13.648  0.4620 -0.1322 -0.8287
 2797SOL    HW119853   4.364   0.034  13.692 -0.7705  0.1046 -3.1949
 2797SOL    HW219854   4.406   4.673  13.574 -1.8322  1.2473 -0.5853
 2798SOL     OW19855   2.777   0.689   5.490 -0.3919 -0.4061 -0.2819
 2798SOL    HW119856   2.872   0.699   5.489 -0.6868  2.2091 -1.0822
 2798SOL    HW219857   2.771   0.667   5.397  0.3145  1.5403 -0.7708
 2799SOL     OW19858   0.383   0.696   4.959  0.6852  0.1133  0.0369
 2799SOL    HW119859   0.330   0.617   4.968 -1.1277  1.5718  2.3405
 2799SOL    HW219860   0.397   0.705   4.865  4.3137 -0.1240  0.5601
 2800SOL     OW19861   3.062   3.891   9.730  0.1377 -0.1067  0.1757
 2800SOL    HW119862   3.136   3.953   9.733 -0.1504  0.2845 -0.6015
 2800SOL    HW219863   3.098   3.816   9.682  0.5351 -0.1550  0.5474
 2801SOL     OW19864   2.422   4.152  17.427 -0.2634  0.9211 -0.5752
 2801SOL    HW119865   2.354   4.089  17.451  1.2404 -1.0761 -1.4917
 2801SOL    HW219866   2.374   4.221  17.383  0.6675  2.2710  0.5171
 2802SOL     OW19867   0.673   1.752   9.154 -0.4343  0.0059  0.2565
 2802SOL    HW119868   0.633   1.798   9.079  1.2701  1.9928  0.5888
 2802SOL    HW219869   0.679   1.824   9.216  0.5783 -0.2412  0.4453
 2803SOL     OW19870   1.705   1.812   2.108  0.1025 -0.2123  0.1328
 2803SOL    HW119871   1.744   1.889   2.068 -0.5809  0.6749  1.2036
 2803SOL    HW219872   1.748   1.742   2.058 -2.2572 -2.9174  1.8646
 2804SOL     OW19873   2.270   3.906  13.587  0.8142 -0.3000 -0.1625
 2804SOL    HW119874   2.268   3.895  13.682 -2.4620  1.1987 -0.0569
 2804SOL    HW219875   2.344   3.966  13.579  1.3872 -0.8426  1.0888
 2805SOL     OW19876   3.237   0.844   3.165  0.3126  0.2325 -0.1741
 2805SOL    HW119877   3.169   0.778   3.180  1.5061 -1.0233 -0.2968
 2805SOL    HW219878   3.305   0.827   3.230  0.1310  0.2521  0.0214
 2806SOL     OW19879   4.194   2.651   6.806 -0.3229 -0.1868 -0.0747
 2806SOL    HW119880   4.197   2.595   6.884  0.5551 -0.4394 -0.2831
 2806SOL    HW219881   4.282   2.631   6.774 -0.3700  3.7017 -2.5905
 2807SOL     OW19882   3.191   1.447   0.471  0.4841 -0.5204  0.1727
 2807SOL    HW119883   3.154   1.535   0.483  0.0624 -0.7556  0.6183
 2807SOL    HW219884   3.152   1.400   0.545  1.1682 -0.4511  0.5786
 2808SOL     OW19885   3.401   2.162   9.405 -0.6784  0.0775  0.4603
 2808SOL    HW119886   3.406   2.256   9.424  2.0712 -0.4383  2.2425
 2808SOL    HW219887   3.311   2.158   9.375 -0.9292  3.2146  0.7590
 2809SOL     OW19888   3.881   2.831   0.271 -0.9619 -0.2670  0.5119
 2809SOL    HW119889   3.866   2.875   0.355  1.3250  1.4589  0.0258
 2809SOL    HW219890   3.928   2.901   0.226 -0.7656  0.7598  2.3001
 2810SOL     OW19891   0.442   1.822  11.840 -0.3265  0.0410 -0.2633
 2810SOL    HW119892   0.517   1.797  11.893  0.1930  0.5577 -0.7535
 2810SOL    HW219893   0.373   1.768  11.877 -0.1892 -1.1152 -1.6732
 2811SOL     OW19894   0.811   0.313   7.957  0.7559  0.2522  0.6148
 2811SOL    HW119895   0.724   0.350   7.940  0.4179 -1.0956 -0.5519
 2811SOL    HW219896   0.788   0.221   7.971 -0.5515  0.6875  1.3644
 2812SOL     OW19897   4.500   4.032  14.341 -0.4075 -0.4760  0.3286
 2812SOL    HW119898   4.513   3.950  14.293 -2.4631 -1.5565  1.5985
 2812SOL    HW219899   4.430   4.073  14.290 -0.1194  0.1612  0.4563
 2813SOL     OW19900   0.867   3.398   4.615  0.0271 -0.2581  0.1332
 2813SOL    HW119901   0.802   3.420   4.683  1.4041  0.8844  1.0667
 2813SOL    HW219902   0.943   3.447   4.646  0.0117  1.7564 -3.0780
 2814SOL     OW19903   3.599   0.862   5.413  0.5652 -0.5806  0.2106
 2814SOL    HW119904   3.562   0.928   5.354  2.4331  0.1176 -0.1794
 2814SOL    HW219905   3.599   0.784   5.357  0.6745 -0.2595 -0.2350
 2815SOL     OW19906   0.598   1.490   4.021 -0.2614  0.4424 -0.1508
 2815SOL    HW119907   0.663   1.519   4.083  0.7919 -0.3626 -0.8707
 2815SOL    HW219908   0.521   1.530   4.062 -2.3605 -0.5927 -3.0319
 2816SOL     OW19909   3.983   2.831   6.352 -0.1438  0.0354 -0.0168
 2816SOL    HW119910   3.997   2.918   6.389 -0.9561  0.0126  0.3505
 2816SOL    HW219911   4.015   2.772   6.421 -2.3556  0.5189  1.4386
 2817SOL     OW19912   2.860   3.702   2.576 -0.5692  0.4628  0.0155
 2817SOL    HW119913   2.843   3.609   2.561  0.4390  0.2295  0.2823
 2817SOL    HW219914   2.765   3.712   2.571 -0.4914 -1.2437 -4.8714
 2818SOL     OW19915   3.770   3.730  10.923  0.0558 -0.6294 -0.3450
 2818SOL    HW119916   3.791   3.647  10.966  0.0185  0.5496  1.9554
 2818SOL    HW219917   3.802   3.707  10.836 -2.0521  0.3353 -1.3922
 2819SOL     OW19918   3.502   2.722  14.256  0.5239 -0.3288 -0.4176
 2819SOL    HW119919   3.566   2.779  14.213 -0.8047  1.3992 -0.1118
 2819SOL    HW219920   3.440   2.725  14.183 -0.0405 -1.8275  0.0143
 2820SOL     OW19921   2.296   0.498   9.767 -0.0792 -0.5292 -0.4090
 2820SOL    HW119922   2.330   0.461   9.848  1.5259  0.4185 -0.6496
 2820SOL    HW219923   2.299   0.587   9.802 -0.4226 -0.4042 -0.6944
 2821SOL     OW19924   2.871   0.076   4.297  0.1253  0.3615  0.1747
 2821SOL    HW119925   2.911   0.070   4.384 -2.7944  0.7708  1.5501
 2821SOL    HW219926   2.944   0.116   4.252 -0.8286 -1.6408 -3.1447
 2822SOL     OW19927   3.184   2.831   0.030 -0.4517  0.2191 -0.1466
 2822SOL    HW119928   3.264   2.872   0.065 -2.0747  0.5868  3.1090
 2822SOL    HW219929   3.203   2.738   0.019 -1.2119  0.2775 -1.8733
 2823SOL     OW19930   0.732   4.460   9.644 -0.2852 -0.2358 -0.0458
 2823SOL    HW119931   0.687   4.382   9.676 -0.1881  0.0969  0.8933
 2823SOL    HW219932   0.768   4.504   9.721 -1.6458 -0.5978  0.8071
 2824SOL     OW19933   1.898   0.752   4.756 -0.0717 -0.0981  0.2886
 2824SOL    HW119934   1.874   0.693   4.685  0.2225 -2.0963  1.8731
 2824SOL    HW219935   1.817   0.758   4.807  0.7377 -0.9516  1.6513
 2825SOL     OW19936   3.850   0.703  17.463 -0.4017 -0.2448  0.4541
 2825SOL    HW119937   3.908   0.777  17.447 -2.4188  1.7548  2.3730
 2825SOL    HW219938   3.820   0.723  17.552  1.8617  0.9877  0.9467
 2826SOL     OW19939   0.017   3.507   4.854  0.2198  0.0384 -0.1368
 2826SOL    HW119940   4.702   3.499   4.765 -3.1355  0.8331  1.0864
 2826SOL    HW219941   0.099   3.552   4.835  0.2982  0.7500  1.8785
 2827SOL     OW19942   4.486   0.051   5.734  0.0683  0.0434  0.7212
 2827SOL    HW119943   4.561   0.063   5.677 -1.1581 -0.6231 -1.0482
 2827SOL    HW219944   4.449   4.688   5.703 -2.5550  1.0662  1.1184
 2828SOL     OW19945   0.340   0.288   8.008  0.2638  0.1691  0.1499
 2828SOL    HW119946   0.320   0.239   7.929 -1.2809  2.0490 -0.5924
 2828SOL    HW219947   0.317   0.378   7.987  1.7876  0.8647  1.4032
 2829SOL     OW19948   1.580   3.476   1.751  0.1026  0.3322 -0.1629
 2829SOL    HW119949   1.661   3.445   1.793 -0.3160 -0.2878  0.1698
 2829SOL    HW219950   1.617   3.511   1.670 -1.9689  0.6605 -0.9465
 2830SOL     OW19951   4.315   3.753   4.265  0.1163 -0.2948 -0.0196
 2830SOL    HW119952   4.293   3.674   4.315  0.7784  0.7334  1.8948
 2830SOL    HW219953   4.362   3.801   4.333 -1.9176  2.3559 -0.4817
 2831SOL     OW19954   0.743   1.981  16.398  0.0191 -0.4403  0.5421
 2831SOL    HW119955   0.811   2.010  16.459  2.2395 -0.2386 -1.9653
 2831SOL    HW219956   0.793   1.918  16.345  1.3243 -0.8002  2.2028
 2832SOL     OW19957   4.210   1.639   1.793 -0.0352 -0.3721  0.0494
 2832SOL    HW119958   4.180   1.561   1.747  2.0444 -1.0312 -0.1925
 2832SOL    HW219959   4.305   1.627   1.798  0.1612  1.2066  0.0530
 2833SOL     OW19960   0.467   3.409  17.493  0.3553 -0.0081 -0.0199
 2833SOL    HW119961   0.396   3.467  17.468  0.5681 -0.3177 -1.3250
 2833SOL    HW219962   0.540   3.468  17.478  0.8825 -0.3911  0.9802
 2834SOL     OW19963   4.024   3.710   3.986  0.1229  0.2126 -0.1412
 2834SOL    HW119964   4.015   3.729   4.079  1.8553  1.3756 -0.2148
 2834SOL    HW219965   4.119   3.724   3.985  0.1310  0.1279 -1.7699
 2835SOL     OW19966   3.134   1.472   7.543  1.0316  0.2209 -0.3365
 2835SOL    HW119967   3.120   1.390   7.590 -0.9221 -0.0072 -1.3256
 2835SOL    HW219968   3.222   1.448   7.514 -0.0490 -1.7455 -2.0370
 2836SOL     OW19969   0.530   3.556   1.028  0.5010 -0.1495 -0.2130
 2836SOL    HW119970   0.563   3.533   1.115  0.8649  1.7808  0.1453
 2836SOL    HW219971   0.439   3.562   1.057  0.0902 -1.3480 -1.2440
 2837SOL     OW19972   3.383   2.456   2.061  0.4720 -0.4657 -0.1378
 2837SOL    HW119973   3.378   2.392   1.990 -0.7837  0.0005 -0.4642
 2837SOL    HW219974   3.477   2.471   2.077  0.1557  0.5307  0.8479
 2838SOL     OW19975   3.940   0.604   1.862  0.5588 -0.0438 -0.3384
 2838SOL    HW119976   3.884   0.544   1.911 -1.5910  0.6052 -1.9694
 2838SOL    HW219977   3.863   0.657   1.842  0.2307 -1.1732 -2.0489
 2839SOL     OW19978   1.951   0.988   9.079 -0.0114  0.4935 -0.1736
 2839SOL    HW119979   2.009   1.050   9.124 -0.9749  1.1441  0.1800
 2839SOL    HW219980   1.981   0.903   9.111  0.0589  1.5505  2.5140
 2840SOL     OW19981   0.015   1.199   0.610  0.1963 -0.1220  0.0938
 2840SOL    HW119982   0.093   1.181   0.661 -0.4030 -0.0715  1.0224
 2840SOL    HW219983   0.054   1.227   0.527 -0.3131  0.8839  0.1934
 2841SOL     OW19984   2.143   1.137   0.304 -0.1371 -0.4012  0.1974
 2841SOL    HW119985   2.059   1.091   0.307  0.3143 -1.2325  0.2150
 2841SOL    HW219986   2.183   1.072   0.246  1.6420  0.3297  0.5795
 2842SOL     OW19987   0.555   3.277   5.311 -0.9227 -0.4004 -0.3674
 2842SOL    HW119988   0.510   3.203   5.352  1.1295 -1.9388 -0.8459
 2842SOL    HW219989   0.625   3.226   5.269  0.1395 -0.4360  1.4475
 2843SOL     OW19990   3.439   3.926   8.985  0.4549 -0.2545  0.4797
 2843SOL    HW119991   3.473   3.840   8.959  0.0141  0.5249 -2.6067
 2843SOL    HW219992   3.491   3.949   9.062  1.4579 -0.8801 -0.0021
 2844SOL     OW19993   1.156   1.481   4.708  0.0184  0.0334  0.2785
 2844SOL    HW119994   1.145   1.486   4.613 -0.5940  1.7255  0.4332
 2844SOL    HW219995   1.169   1.575   4.719  1.2704  0.1202 -1.8934
 2845SOL     OW19996   3.664   0.482   9.690 -0.5354 -0.7586  0.1346
 2845SOL    HW119997   3.636   0.460   9.779  1.1453 -0.8195  0.6374
 2845SOL    HW219998   3.708   0.402   9.660 -0.3334 -0.6851  0.2347
 2846SOL     OW19999   1.047   4.268   8.039 -0.1093 -0.2231 -0.1906
 2846SOL    HW120000   0.990   4.244   8.111  0.2908  1.0747  0.5482
 2846SOL    HW220001   1.124   4.213   8.055  0.9083  1.2834  0.1003
 2847SOL     OW20002   3.781   1.132   7.917  0.2580 -0.5691  0.4159
 2847SOL    HW120003   3.803   1.198   7.851 -2.3560 -0.8679 -0.7443
 2847SOL    HW220004   3.688   1.124   7.896  0.2295 -0.8644  0.6531
 2848SOL     OW20005   1.606   2.343   9.272  0.1360  0.4384 -0.4080
 2848SOL    HW120006   1.671   2.290   9.319 -1.1783 -1.5907 -0.8837
 2848SOL    HW220007   1.658   2.388   9.204 -1.4289  1.1833 -1.0977
 2849SOL     OW20008   3.515   4.446   2.824  0.3254  0.1705 -0.1927
 2849SOL    HW120009   3.581   4.392   2.867  3.7719  1.2534 -4.1699
 2849SOL    HW220010   3.498   4.404   2.739 -2.5562 -0.5643  0.7261
 2850SOL     OW20011   4.070   0.769   3.738 -0.0002 -0.4158  0.7417
 2850SOL    HW120012   4.002   0.772   3.805  0.8874  1.2329  1.5439
 2850SOL    HW220013   4.110   0.684   3.755  1.0749 -0.0993 -0.1909
 2851SOL     OW20014   2.295   0.364   8.816 -0.1603 -0.4308 -0.2908
 2851SOL    HW120015   2.233   0.386   8.886 -1.1333 -2.2773 -0.5736
 2851SOL    HW220016   2.287   0.268   8.821 -0.8024 -0.3341  0.6196
 2852SOL     OW20017   3.424   1.606   7.598 -0.0780 -0.0572  0.0173
 2852SOL    HW120018   3.498   1.662   7.575  0.8420 -1.9601 -1.6035
 2852SOL    HW220019   3.372   1.666   7.652 -0.1043  1.0146 -1.1812
 2853SOL     OW20020   2.259   1.699   7.063  0.2555  0.2978  0.1191
 2853SOL    HW120021   2.296   1.616   7.035 -0.7393 -0.5527  1.3419
 2853SOL    HW220022   2.187   1.703   7.001 -0.0069 -0.8185  0.3527
 2854SOL     OW20023   3.985   4.541   9.083  0.0652 -0.1803 -0.6322
 2854SOL    HW120024   3.990   4.607   9.014  1.0120  0.7200  0.2840
 2854SOL    HW220025   4.030   4.465   9.046  1.0929 -0.7139  1.7075
 2855SOL     OW20026   2.160   3.340   3.190  0.7678 -0.2783  0.4337
 2855SOL    HW120027   2.210   3.327   3.271 -0.9912 -0.8025  1.4644
 2855SOL    HW220028   2.097   3.273   3.220  0.9410 -0.3225  0.7019
 2856SOL     OW20029   3.794   1.039   2.367 -0.5214 -0.0712 -0.2057
 2856SOL    HW120030   3.836   0.960   2.403 -2.6104 -0.6210  1.0237
 2856SOL    HW220031   3.861   1.102   2.340  0.9001 -1.8138 -0.7661
 2857SOL     OW20032   2.815   1.483   7.987  0.5829 -0.7545 -0.5650
 2857SOL    HW120033   2.759   1.561   7.982  2.3693  0.5642 -0.1444
 2857SOL    HW220034   2.795   1.453   8.076 -2.7176  1.9355 -0.4070
 2858SOL     OW20035   4.372   3.694  11.143 -0.0741 -0.4296  0.1035
 2858SOL    HW120036   4.321   3.712  11.222 -1.9573 -1.8626 -0.7636
 2858SOL    HW220037   4.362   3.599  11.142  1.2872 -0.5840  3.7637
 2859SOL     OW20038   0.617   4.507   6.452 -0.0054 -0.1013 -0.3390
 2859SOL    HW120039   0.662   4.576   6.501 -1.0391  1.5422 -1.6781
 2859SOL    HW220040   0.578   4.459   6.525 -4.2310 -2.0987 -3.8783
 2860SOL     OW20041   2.754   4.381  13.096  0.6052  0.6014  0.8947
 2860SOL    HW120042   2.668   4.343  13.080  0.6825  0.8104 -0.0375
 2860SOL    HW220043   2.816   4.313  13.069  0.2021  0.1069  1.2116
 2861SOL     OW20044   3.899   0.946   4.014  0.0069 -0.4456  0.5769
 2861SOL    HW120045   3.846   0.985   4.083 -1.3274 -1.6134  0.2054
 2861SOL    HW220046   3.978   0.917   4.059  0.8271  0.0636 -0.5292
 2862SOL     OW20047   2.182   2.768  15.039 -0.0243  0.1290  0.6021
 2862SOL    HW120048   2.230   2.687  15.053  2.9631  1.7770 -0.2309
 2862SOL    HW220049   2.111   2.750  15.102 -0.8645 -3.0035 -1.2310
 2863SOL     OW20050   3.374   4.576   9.099 -0.4744 -0.3383  0.2703
 2863SOL    HW120051   3.304   4.589   9.036  0.0617  0.2202 -0.2061
 2863SOL    HW220052   3.360   4.641   9.168 -0.1230 -0.9159  0.8909
 2864SOL     OW20053   1.454   2.692   6.389 -0.0951  0.7560 -0.1901
 2864SOL    HW120054   1.529   2.744   6.360  0.3863  0.4619  0.5045
 2864SOL    HW220055   1.423   2.726   6.473  1.2559 -0.3370  0.7762
 2865SOL     OW20056   2.264   2.242   0.985  0.2466  0.6499 -0.5675
 2865SOL    HW120057   2.198   2.253   1.053  1.2998 -2.6607  0.9760
 2865SOL    HW220058   2.338   2.280   1.033  0.3524 -0.9613  0.5319
 2866SOL     OW20059   0.956   0.645  13.132 -0.2338 -0.5752 -0.6597
 2866SOL    HW120060   0.972   0.597  13.051  0.3122  1.1360 -1.5606
 2866SOL    HW220061   0.969   0.582  13.204 -0.4257 -0.2258 -0.3187
 2867SOL     OW20062   4.646   0.539   4.602  0.3088  0.4335  0.0124
 2867SOL    HW120063   4.679   0.509   4.687 -0.9821 -1.5009 -0.1819
 2867SOL    HW220064   4.570   0.483   4.587 -0.6251  1.9606 -1.0228
 2868SOL     OW20065   3.493   3.629   3.258 -0.0572 -0.0685 -0.2205
 2868SOL    HW120066   3.528   3.687   3.191 -0.1750  0.1705 -0.0732
 2868SOL    HW220067   3.399   3.645   3.248 -0.0062 -0.6423 -1.6010
 2869SOL     OW20068   1.783   2.176  13.090 -0.3721  0.0065  0.0681
 2869SOL    HW120069   1.779   2.103  13.027 -1.8957 -1.7325  2.1789
 2869SOL    HW220070   1.746   2.244  13.035 -2.4332 -0.2103  1.2086
 2870SOL     OW20071   4.600   4.640   3.535  0.7140 -0.5580 -0.3919
 2870SOL    HW120072   4.529   4.687   3.579  0.4428  0.3487 -1.8153
 2870SOL    HW220073   4.572   4.647   3.444  0.1716  0.0524 -0.1811
 2871SOL     OW20074   0.179   1.419  15.248 -0.3651  0.5127 -0.6545
 2871SOL    HW120075   0.229   1.465  15.316  0.5118 -0.1237 -0.8606
 2871SOL    HW220076   0.101   1.380  15.288  0.3497 -2.1703 -1.8307
 2872SOL     OW20077   2.070   0.823   3.967  0.2172  0.5754  0.2556
 2872SOL    HW120078   2.162   0.814   3.992  0.3470  0.1677 -0.3619
 2872SOL    HW220079   2.031   0.746   4.007  0.9699  0.6725  1.1866
 2873SOL     OW20080   2.028   0.783   8.135  0.4309  0.5290 -0.2647
 2873SOL    HW120081   2.030   0.776   8.230 -1.2406  0.1596 -0.2614
 2873SOL    HW220082   2.100   0.722   8.119 -0.1935 -0.4235  0.6107
 2874SOL     OW20083   4.388   3.424   7.065  0.3704 -0.3541 -0.0729
 2874SOL    HW120084   4.360   3.445   7.154  1.0838 -1.8033  0.4976
 2874SOL    HW220085   4.384   3.509   7.021  1.5533  0.2376  0.9586
 2875SOL     OW20086   1.802   4.515  12.835  0.1046 -0.2365 -0.3084
 2875SOL    HW120087   1.837   4.584  12.778  0.0156  0.1684  0.1356
 2875SOL    HW220088   1.809   4.446  12.769 -0.3107  0.3917 -1.0209
 2876SOL     OW20089   1.882   3.292   5.765  0.0579 -0.6695  0.2364
 2876SOL    HW120090   1.904   3.380   5.794  2.6030 -1.8481  1.8776
 2876SOL    HW220091   1.931   3.295   5.683 -1.1218 -0.1142 -0.4474
 2877SOL     OW20092   1.034   1.776  10.512  0.0046  0.3132  0.9790
 2877SOL    HW120093   0.977   1.705  10.539  1.0900 -1.2892 -0.9368
 2877SOL    HW220094   0.981   1.855  10.500  1.0886  0.8092 -0.5791
 2878SOL     OW20095   0.836   2.066   8.142 -0.4243  0.4370 -0.1718
 2878SOL    HW120096   0.889   2.070   8.062 -0.8057 -0.2566 -0.4572
 2878SOL    HW220097   0.762   2.010   8.121 -1.3166  2.4271 -2.3352
 2879SOL     OW20098   0.997   0.003  15.707  0.1426 -0.0237  0.3630
 2879SOL    HW120099   0.945   4.645  15.687 -0.3074  0.0175  1.3967
 2879SOL    HW220100   0.993   0.011  15.802 -0.0574  0.6077  0.2968
 2880SOL     OW20101   1.913   3.565   4.020 -0.0209  0.3026  0.6185
 2880SOL    HW120102   1.886   3.597   3.934  1.0970  3.5908  1.4986
 2880SOL    HW220103   1.988   3.621   4.038  0.1870  0.6559 -1.3390
 2881SOL     OW20104   1.557   0.645   1.960  0.0232  0.5337 -0.4202
 2881SOL    HW120105   1.566   0.641   2.055 -1.4841  0.6908 -0.2681
 2881SOL    HW220106   1.463   0.636   1.941  0.2635 -1.9431 -0.4133
 2882SOL     OW20107   0.168   2.299  17.163 -0.3474 -0.7011  0.5502
 2882SOL    HW120108   0.146   2.216  17.206  0.8855 -1.3783 -0.1362
 2882SOL    HW220109   0.087   2.299  17.112 -1.4777  2.4255  2.3266
 2883SOL     OW20110   0.983   2.844   0.058 -0.0150  0.1872  0.0415
 2883SOL    HW120111   0.916   2.892   0.108 -0.6945 -1.2164  0.4859
 2883SOL    HW220112   0.983   2.907  17.668  1.3729 -0.3656 -0.4280
 2884SOL     OW20113   3.756   1.603  12.154  0.0775 -0.5523 -0.0270
 2884SOL    HW120114   3.813   1.678  12.169 -1.6318  0.6463  0.5665
 2884SOL    HW220115   3.668   1.641  12.157 -0.4715 -1.6840 -1.6124
 2885SOL     OW20116   3.443   0.584  11.835  0.1970 -0.0779  0.1095
 2885SOL    HW120117   3.470   0.502  11.793 -0.8883 -0.0765 -0.5907
 2885SOL    HW220118   3.475   0.648  11.771  1.8404 -0.0865  0.9248
 2886SOL     OW20119   1.599   1.127  10.050 -0.3220  0.0038  0.0336
 2886SOL    HW120120   1.516   1.149  10.008  0.6756  0.8936 -1.4573
 2886SOL    HW220121   1.574   1.047  10.096  1.7417  0.0302  1.1997
 2887SOL     OW20122   1.134   3.558   4.843 -1.0613 -0.0116 -0.6133
 2887SOL    HW120123   1.053   3.566   4.792 -1.4110  1.7447  0.2574
 2887SOL    HW220124   1.164   3.478   4.799  0.4528  0.1105  0.2002
 2888SOL     OW20125   2.074   2.843   2.736 -0.4225  0.0003 -0.1517
 2888SOL    HW120126   2.157   2.835   2.690 -0.0452  0.4185  0.4680
 2888SOL    HW220127   2.027   2.770   2.694  1.0801  0.5422 -2.7951
 2889SOL     OW20128   0.054   0.506   1.948  0.1894  0.1734  0.3910
 2889SOL    HW120129   4.717   0.432   1.969  1.4801 -1.7182 -2.7181
 2889SOL    HW220130   0.014   0.517   1.861 -1.2676 -0.8326  0.9310
 2890SOL     OW20131   2.639   4.623   6.188 -0.2232  0.0337  0.2058
 2890SOL    HW120132   2.563   4.611   6.244  0.0009  0.6362  0.6284
 2890SOL    HW220133   2.710   4.583   6.238 -1.1039  0.7471  2.0012
 2891SOL     OW20134   2.703   3.211  17.199 -0.0879  0.1392  0.1771
 2891SOL    HW120135   2.732   3.300  17.220  1.8529 -0.4291 -0.0420
 2891SOL    HW220136   2.698   3.176  17.288  1.6214 -0.2095  0.1466
 2892SOL     OW20137   2.638   4.319   9.078 -0.2466 -0.5252  0.2683
 2892SOL    HW120138   2.678   4.401   9.048  0.4033 -1.3839 -1.1881
 2892SOL    HW220139   2.585   4.316   8.998 -1.0360  2.6940  0.6625
 2893SOL     OW20140   1.116   3.091   6.218 -0.4318 -0.5225  0.5774
 2893SOL    HW120141   1.174   3.050   6.153  1.1037  0.8020  1.1080
 2893SOL    HW220142   1.175   3.119   6.288 -1.1300  0.2758  0.8497
 2894SOL     OW20143   1.469   2.241   1.167  0.1419  0.5408  0.6123
 2894SOL    HW120144   1.403   2.302   1.134 -0.5641 -0.0125  1.0025
 2894SOL    HW220145   1.409   2.191   1.222 -0.8928  0.5620 -0.4823
 2895SOL     OW20146   1.584   3.029   1.849  0.2326  0.2006 -0.6371
 2895SOL    HW120147   1.607   3.066   1.764  0.9399 -1.5158 -1.1993
 2895SOL    HW220148   1.662   3.030   1.905 -0.0549  0.2052 -0.2407
 2896SOL     OW20149   4.208   0.437   9.722 -0.4838  0.1337 -0.4805
 2896SOL    HW120150   4.292   0.434   9.767 -0.3063 -0.9852 -0.8748
 2896SOL    HW220151   4.180   0.346   9.735 -3.4674  0.9689 -1.1606
 2897SOL     OW20152   3.183   2.210   8.294  0.7669 -0.1161  0.2536
 2897SOL    HW120153   3.152   2.180   8.208 -0.2213  1.1122  0.1949
 2897SOL    HW220154   3.191   2.131   8.348  0.5045 -0.5004 -0.2695
 2898SOL     OW20155   1.076   1.717   4.978  0.3716  0.2153  0.1890
 2898SOL    HW120156   1.124   1.696   4.898 -1.0430 -0.0842 -0.5900
 2898SOL    HW220157   0.993   1.730   4.932  1.3117  0.0994 -1.5248
 2899SOL     OW20158   1.278   3.752  17.334 -0.1119  0.3428  0.0811
 2899SOL    HW120159   1.315   3.818  17.276 -0.8576  0.3616 -0.3702
 2899SOL    HW220160   1.280   3.801  17.416  2.2862 -0.2179  0.3455
 2900SOL     OW20161   3.763   4.256  10.848 -0.8034  0.4667  0.1733
 2900SOL    HW120162   3.789   4.165  10.832 -0.6496  0.6242 -0.4939
 2900SOL    HW220163   3.668   4.242  10.855 -0.8707  1.0781  0.4192
 2901SOL     OW20164   3.844   2.410   4.526 -0.4924 -0.0202 -0.3438
 2901SOL    HW120165   3.919   2.368   4.484 -1.4489 -0.8479 -1.2355
 2901SOL    HW220166   3.822   2.353   4.600  0.2505  0.3091  0.1276
 2902SOL     OW20167   3.715   2.953   3.723  0.0484 -0.4543 -0.0575
 2902SOL    HW120168   3.793   3.008   3.719  0.1499 -0.5980 -0.0441
 2902SOL    HW220169   3.698   2.962   3.629  1.5666 -2.2021 -0.4785
 2903SOL     OW20170   4.234   0.986   7.042  0.0983  0.0440 -0.0725
 2903SOL    HW120171   4.142   1.007   7.027 -0.4609 -1.2642  1.4643
 2903SOL    HW220172   4.232   0.905   7.094 -0.9812 -0.4405 -0.8612
 2904SOL     OW20173   1.463   1.710   2.451 -0.2297 -0.5267 -0.3281
 2904SOL    HW120174   1.415   1.779   2.405 -1.6193 -1.1128  0.2426
 2904SOL    HW220175   1.548   1.713   2.407 -0.2903  0.3328 -0.3953
 2905SOL     OW20176   1.393   2.059   1.674  0.2259 -0.3761 -0.2655
 2905SOL    HW120177   1.454   2.006   1.724 -0.0340 -0.1667  0.2696
 2905SOL    HW220178   1.331   1.987   1.663  0.9702 -1.2877  1.5622
 2906SOL     OW20179   2.825   2.491   1.604  0.1996 -0.7822 -0.2262
 2906SOL    HW120180   2.752   2.430   1.613 -1.1915  0.5131 -2.6214
 2906SOL    HW220181   2.893   2.429   1.577 -0.1340  0.1045 -3.0812
 2907SOL     OW20182   3.785   1.179  14.637  0.5877 -0.4429 -0.0444
 2907SOL    HW120183   3.769   1.141  14.723 -1.8665  1.7737  0.4932
 2907SOL    HW220184   3.737   1.124  14.576 -0.4370 -0.4623  0.7685
 2908SOL     OW20185   3.186   2.292   4.882 -0.1983  0.4949  0.5595
 2908SOL    HW120186   3.261   2.299   4.822 -0.6472 -2.8879 -0.3744
 2908SOL    HW220187   3.123   2.254   4.821 -1.4007  1.7735  1.0020
 2909SOL     OW20188   4.318   4.710   4.489 -0.0161 -0.3986 -0.0777
 2909SOL    HW120189   4.347   4.716   4.398 -1.2170  0.0082 -0.4416
 2909SOL    HW220190   4.386   0.049   4.522  1.0451 -2.2088  0.9298
 2910SOL     OW20191   4.618   1.824   5.837 -0.2410 -0.1727  0.4476
 2910SOL    HW120192   4.706   1.787   5.824  0.0175  0.3924  0.6026
 2910SOL    HW220193   4.614   1.894   5.772  2.5992  0.1804  0.6725
 2911SOL     OW20194   1.163   4.180   7.683 -0.0069 -0.7261 -0.3396
 2911SOL    HW120195   1.195   4.094   7.656 -0.0747 -1.0834  0.7302
 2911SOL    HW220196   1.073   4.150   7.696  0.3163 -1.6089 -0.1212
 2912SOL     OW20197   3.760   0.285   8.467 -0.1632  0.9711  0.1251
 2912SOL    HW120198   3.825   0.354   8.478 -1.2469  2.1619 -1.0308
 2912SOL    HW220199   3.699   0.303   8.538  1.5186 -2.0020  2.3057
 2913SOL     OW20200   4.353   4.081   9.634 -0.5510 -0.2941  0.4521
 2913SOL    HW120201   4.292   4.152   9.612  1.4201  1.3427  0.2439
 2913SOL    HW220202   4.328   4.009   9.576  0.7860  1.3231 -2.1356
 2914SOL     OW20203   1.928   3.951   2.823 -0.3782  0.1920 -0.1668
 2914SOL    HW120204   1.851   3.894   2.812  1.1959 -1.6832 -1.3861
 2914SOL    HW220205   1.920   3.977   2.915  0.1208 -2.7231  0.6935
 2915SOL     OW20206   3.196   0.591   1.905  0.8183 -0.0878  0.3221
 2915SOL    HW120207   3.175   0.605   1.998  0.1057  1.1465 -0.0191
 2915SOL    HW220208   3.192   0.680   1.870  1.3777 -1.8721 -4.3110
 2916SOL     OW20209   2.342   2.330   6.575  0.3976  0.5305 -0.1187
 2916SOL    HW120210   2.284   2.372   6.512  1.3348  1.4801 -0.3462
 2916SOL    HW220211   2.351   2.408   6.631 -1.4359 -0.2644  1.2876
 2917SOL     OW20212   4.679   2.226   3.646  0.0524  0.4018 -0.3574
 2917SOL    HW120213   4.671   2.241   3.740  1.3372 -0.1271 -0.1721
 2917SOL    HW220214   4.639   2.308   3.618 -0.6720  0.8513  2.0058
 2918SOL     OW20215   0.721   2.023   4.934  0.0345  0.0620  0.7182
 2918SOL    HW120216   0.679   2.079   4.869  0.0149 -1.8579 -0.9211
 2918SOL    HW220217   0.782   2.089   4.967 -0.1871  0.0993  1.0564
 2919SOL     OW20218   2.905   3.351   7.381 -0.1894 -0.2764 -0.3114
 2919SOL    HW120219   2.985   3.389   7.343 -0.4326  0.7855  0.2432
 2919SOL    HW220220   2.842   3.410   7.339  2.3649  2.0410 -0.9564
 2920SOL     OW20221   0.869   2.680   6.372 -0.1886 -0.9432  0.0942
 2920SOL    HW120222   0.905   2.767   6.386  3.7070 -2.2355 -1.8099
 2920SOL    HW220223   0.909   2.633   6.445  1.6999 -0.1792 -0.4738
 2921SOL     OW20224   1.724   0.795   5.320  0.7195  0.3388  0.2570
 2921SOL    HW120225   1.751   0.745   5.244  0.8709 -0.9546  1.1603
 2921SOL    HW220226   1.737   0.881   5.280 -0.7845 -0.1710 -1.2972
 2922SOL     OW20227   2.947   2.797   2.444  0.3408  0.0103  0.0688
 2922SOL    HW120228   2.953   2.786   2.538 -2.7340 -0.3470  0.2135
 2922SOL    HW220229   3.039   2.789   2.416  0.9299  5.7818  0.3090
 2923SOL     OW20230   2.308   2.244   4.208  0.1683 -0.4453 -0.2112
 2923SOL    HW120231   2.350   2.245   4.122 -0.8428 -0.6030 -0.7097
 2923SOL    HW220232   2.364   2.309   4.250 -2.0842  2.2066 -1.3744
 2924SOL     OW20233   3.317   1.827   2.842 -0.5009  0.3851 -0.6936
 2924SOL    HW120234   3.299   1.807   2.934  1.8892  1.3614 -0.0067
 2924SOL    HW220235   3.293   1.749   2.792  0.5742 -0.5525  0.2550
 2925SOL     OW20236   1.926   2.021  15.682  0.1820 -0.1107 -0.6076
 2925SOL    HW120237   1.933   2.115  15.666 -1.2671 -0.0351 -0.7581
 2925SOL    HW220238   1.934   1.981  15.595 -0.5645  1.4571 -1.3922
 2926SOL     OW20239   4.349   3.141   3.026  0.4380 -0.4665  0.1547
 2926SOL    HW120240   4.385   3.052   3.035 -0.2984 -0.6417  1.2525
 2926SOL    HW220241   4.427   3.196   3.030  0.3280 -0.1916 -1.5651
 2927SOL     OW20242   4.058   4.567  10.178  0.1886 -0.0985  0.2023
 2927SOL    HW120243   3.977   4.538  10.220  0.0071 -0.0396 -0.1077
 2927SOL    HW220244   4.120   4.524  10.238 -1.2045 -2.3819 -0.0062
 2928SOL     OW20245   0.557   3.704   6.036 -0.5778 -0.2517  1.1933
 2928SOL    HW120246   0.632   3.761   6.021 -0.8309  0.5795  3.0563
 2928SOL    HW220247   0.532   3.721   6.127  1.0967 -1.8246  1.9385
 2929SOL     OW20248   1.795   1.805   6.284  0.7710  0.0785  0.1244
 2929SOL    HW120249   1.733   1.856   6.336 -2.1806 -2.0761 -1.2703
 2929SOL    HW220250   1.833   1.876   6.232 -1.3685  0.0959 -1.4399
 2930SOL     OW20251   1.232   4.618  15.280 -0.4357 -0.4698  0.4956
 2930SOL    HW120252   1.224   4.651  15.369  1.3380  0.3098  0.3701
 2930SOL    HW220253   1.246   4.531  15.318 -1.0315 -1.2473 -1.0721
 2931SOL     OW20254   3.061   4.493  10.741 -0.4564  0.4505 -0.3027
 2931SOL    HW120255   3.119   4.524  10.672 -0.2673 -1.2280 -0.8844
 2931SOL    HW220256   3.059   4.398  10.728 -1.7457  0.4015  0.1955
 2932SOL     OW20257   3.092   1.038   4.922  0.2816  0.2394  0.7814
 2932SOL    HW120258   3.130   1.082   4.998  1.4015  1.3122 -0.3853
 2932SOL    HW220259   3.133   1.095   4.857 -0.3930 -1.1637 -0.8904
 2933SOL     OW20260   0.689   1.095   6.922 -0.3784 -0.3252  0.2702
 2933SOL    HW120261   0.597   1.105   6.898 -0.5190  0.7022  1.2340
 2933SOL    HW220262   0.739   1.153   6.865 -1.1296 -0.5806 -0.6479
 2934SOL     OW20263   1.469   0.933   5.926  0.8264  0.6183  0.4570
 2934SOL    HW120264   1.500   0.994   5.993  0.2897  1.5866 -0.1802
 2934SOL    HW220265   1.546   0.921   5.871  0.4028 -0.0169 -0.0001
 2935SOL     OW20266   2.500   2.823   4.525 -0.1066  0.2296  0.0796
 2935SOL    HW120267   2.566   2.863   4.580  0.1210  0.1943 -0.1653
 2935SOL    HW220268   2.424   2.872   4.556 -1.4079  0.9027 -4.1842
 2936SOL     OW20269   3.918   2.794   5.183  0.9329 -0.2226  0.0249
 2936SOL    HW120270   3.920   2.721   5.121 -3.1435  0.5705 -1.0382
 2936SOL    HW220271   3.847   2.775   5.245 -0.5860  0.0457 -1.6341
 2937SOL     OW20272   0.746   3.182   6.405  0.2759  0.3110  0.1096
 2937SOL    HW120273   0.722   3.250   6.469  1.5432 -0.2824  1.2186
 2937SOL    HW220274   0.725   3.231   6.326  1.9600  0.9227  0.0460
 2938SOL     OW20275   1.227   4.641   4.035 -0.2565  0.0604  0.9324
 2938SOL    HW120276   1.281   4.641   4.114  0.0736 -4.0023  0.7043
 2938SOL    HW220277   1.160   4.701   4.067 -0.4508  0.1817  0.2940
 2939SOL     OW20278   2.456   3.861   2.089 -0.3600 -0.3124 -0.4403
 2939SOL    HW120279   2.392   3.816   2.144 -0.2288  0.4832  0.3784
 2939SOL    HW220280   2.396   3.880   2.018 -0.5168 -1.9385 -0.7425
 2940SOL     OW20281   3.714   1.674   6.814 -0.2815  0.5917  0.5546
 2940SOL    HW120282   3.785   1.681   6.750 -0.9868  0.6612 -0.2147
 2940SOL    HW220283   3.640   1.677   6.754  0.9795  2.3249 -0.9136
 2941SOL     OW20284   2.959   4.386   3.870 -0.4457  0.1786  0.2395
 2941SOL    HW120285   2.950   4.369   3.964  1.1706  0.4054  0.4296
 2941SOL    HW220286   2.958   4.301   3.826  2.7917  0.6421 -0.7380
 2942SOL     OW20287   4.305   1.027  11.293 -0.4985 -0.0629 -0.5080
 2942SOL    HW120288   4.344   0.953  11.248 -0.4007  0.2169 -0.8846
 2942SOL    HW220289   4.365   1.092  11.256  1.3158 -2.3686 -1.6266
 2943SOL     OW20290   0.862   1.958   5.255 -0.3383 -0.2812 -0.1947
 2943SOL    HW120291   0.873   1.977   5.348  1.0328 -0.4708 -0.3204
 2943SOL    HW220292   0.781   2.004   5.232  0.0187  0.1719 -0.5523
 2944SOL     OW20293   3.415   0.303   3.233  0.7305  0.1180  0.0615
 2944SOL    HW120294   3.343   0.295   3.296 -0.0502  3.3788 -0.4219
 2944SOL    HW220295   3.442   0.212   3.222 -1.2856 -0.5163  0.4092
 2945SOL     OW20296   0.677   2.511   8.197 -0.3540  0.3527 -0.6538
 2945SOL    HW120297   0.657   2.535   8.107 -1.3982 -1.4272 -0.8911
 2945SOL    HW220298   0.662   2.417   8.194  2.3974 -0.1280  0.6383
 2946SOL     OW20299   4.659   3.185   0.114  0.0010  0.6081 -0.3478
 2946SOL    HW120300   4.608   3.263   0.136 -0.2444  0.0645  0.9662
 2946SOL    HW220301   4.636   3.172   0.022  2.0150 -1.5493 -0.5477
 2947SOL     OW20302   3.507   3.435  16.600 -0.1539  0.5566  0.3029
 2947SOL    HW120303   3.484   3.483  16.520 -1.6987 -0.1959  0.2812
 2947SOL    HW220304   3.540   3.512  16.645  0.7104  0.4626 -0.1677
 2948SOL     OW20305   1.121   2.494   3.979  0.5400  0.0127 -0.4791
 2948SOL    HW120306   1.143   2.569   4.034 -1.9672  0.9180 -0.7086
 2948SOL    HW220307   1.200   2.497   3.925  2.1779  0.7180  1.9794
 2949SOL     OW20308   1.419   2.585   4.197 -0.5171  0.3104  0.1942
 2949SOL    HW120309   1.359   2.638   4.144 -0.4541  0.4534  0.2677
 2949SOL    HW220310   1.501   2.617   4.161 -1.3037 -1.6487 -3.3193
 2950SOL     OW20311   0.032   4.171   6.870  0.2250  0.3433 -0.0928
 2950SOL    HW120312   4.701   4.249   6.849  0.9273  1.3308  1.8350
 2950SOL    HW220313   0.058   4.183   6.961 -2.2791 -1.1044  0.7983
 2951SOL     OW20314   1.119   2.339  15.913  0.9389  0.0708  0.3821
 2951SOL    HW120315   1.105   2.320  15.820 -2.7914  1.6447  0.6196
 2951SOL    HW220316   1.134   2.249  15.943  3.0105  0.7277  1.2981
 2952SOL     OW20317   1.446   3.260   2.549 -0.5071 -0.0362  0.3700
 2952SOL    HW120318   1.499   3.322   2.499 -0.2895 -1.0387 -0.6396
 2952SOL    HW220319   1.382   3.239   2.481  1.8498 -0.5832 -1.6354
 2953SOL     OW20320   3.568   1.556   3.428  0.0527  0.1176 -0.1033
 2953SOL    HW120321   3.626   1.483   3.449  1.0892  1.8347  2.9888
 2953SOL    HW220322   3.476   1.538   3.451 -0.1044 -1.8779 -2.2735
 2954SOL     OW20323   4.341   0.212  10.380  0.3431  0.1187  0.3833
 2954SOL    HW120324   4.380   0.299  10.381 -1.7795  1.0702  1.9732
 2954SOL    HW220325   4.308   0.223  10.291  2.1263 -0.1022 -0.2999
 2955SOL     OW20326   1.945   1.732   7.243  0.4916  0.6367  0.2844
 2955SOL    HW120327   1.899   1.788   7.180 -0.4179  0.0647  0.4448
 2955SOL    HW220328   2.031   1.738   7.201  1.3161 -2.3238  1.5628
 2956SOL     OW20329   0.139   1.897   2.922  0.0094  0.5072  0.2229
 2956SOL    HW120330   0.222   1.851   2.934  0.5204  1.0759 -1.1643
 2956SOL    HW220331   0.098   1.874   3.005  2.8603 -0.1675  1.4540
 2957SOL     OW20332   1.861   3.137   4.561 -0.4985 -0.1659 -0.6851
 2957SOL    HW120333   1.936   3.132   4.620  0.4201  0.5079 -1.8015
 2957SOL    HW220334   1.897   3.086   4.489  1.3479 -1.2929  1.0352
 2958SOL     OW20335   1.487   1.091   4.099  0.6734 -0.5178  0.7189
 2958SOL    HW120336   1.479   1.163   4.036 -3.2916 -1.9034 -0.3720
 2958SOL    HW220337   1.446   1.017   4.054  2.8424  0.0419 -2.1841
 2959SOL     OW20338   4.090   0.862   7.687  0.4370 -0.2456  0.2059
 2959SOL    HW120339   4.000   0.866   7.718  0.7229  0.8173  0.9076
 2959SOL    HW220340   4.134   0.879   7.771 -0.4067 -1.4847  0.9026
 2960SOL     OW20341   3.608   1.920   3.725  0.0791 -0.1090 -0.2799
 2960SOL    HW120342   3.518   1.911   3.693 -0.5685 -0.6863  1.6997
 2960SOL    HW220343   3.643   1.831   3.734  1.9803  0.5857 -0.7706
 2961SOL     OW20344   2.590   2.319   7.753  0.6717  0.7045  0.1923
 2961SOL    HW120345   2.544   2.238   7.774  0.4426  0.4515 -1.2741
 2961SOL    HW220346   2.641   2.324   7.833  1.8883 -0.2655 -0.5249
 2962SOL     OW20347   2.837   2.558   5.042  0.2360  0.3247  0.6546
 2962SOL    HW120348   2.843   2.651   5.065  1.2572  0.8104 -1.5343
 2962SOL    HW220349   2.918   2.526   5.081 -0.7163  0.5992  2.8197
 2963SOL     OW20350   0.967   1.696   9.580 -0.0809  0.5850  0.1325
 2963SOL    HW120351   0.993   1.604   9.589 -0.5898  0.3917 -0.4102
 2963SOL    HW220352   0.965   1.722   9.672  2.2061  2.0633 -0.2304
 2964SOL     OW20353   1.506   1.797  17.348 -0.3587  0.3430 -0.0683
 2964SOL    HW120354   1.597   1.807  17.320  0.0231  0.3365  1.1602
 2964SOL    HW220355   1.497   1.706  17.375 -2.5889  0.0104 -1.9589
 2965SOL     OW20356   4.546   4.159   2.663  0.2639 -0.3366 -0.0245
 2965SOL    HW120357   4.567   4.224   2.596  1.9392  0.7770  1.6026
 2965SOL    HW220358   4.502   4.221   2.721 -0.4754 -1.6435  0.8012
 2966SOL     OW20359   1.858   0.697   0.806 -0.5106  0.0395  0.0898
 2966SOL    HW120360   1.791   0.746   0.853 -0.6031  1.3137 -1.3692
 2966SOL    HW220361   1.943   0.722   0.840  0.3976 -1.9809 -0.6798
 2967SOL     OW20362   2.467   1.050  14.398 -0.0975 -0.1367 -0.0991
 2967SOL    HW120363   2.502   1.135  14.426 -3.2250  0.8857  0.7489
 2967SOL    HW220364   2.548   1.016  14.361  1.0154  1.0726  1.2340
 2968SOL     OW20365   0.738   0.797  12.694 -0.3016 -0.1859 -0.2328
 2968SOL    HW120366   0.805   0.864  12.711 -0.4733 -0.1860  0.4458
 2968SOL    HW220367   0.673   0.828  12.757  0.1976  1.0714 -0.3286
 2969SOL     OW20368   2.071   2.381   9.997  0.2021 -0.4202 -0.7512
 2969SOL    HW120369   2.143   2.376   9.934  1.1398 -0.3911  0.3219
 2969SOL    HW220370   1.999   2.405   9.939 -1.0880  3.5300  2.4387
 2970SOL     OW20371   0.000   4.028  15.149  0.6729  0.3473 -0.2104
 2970SOL    HW120372   4.698   4.008  15.058  0.0483  0.7936 -0.1531
 2970SOL    HW220373   0.031   4.118  15.142 -2.1801  1.5459  2.9214
 2971SOL     OW20374   4.258   1.620   5.878  0.2806  0.1616  0.0412
 2971SOL    HW120375   4.172   1.608   5.917 -0.3097  0.8009 -1.0440
 2971SOL    HW220376   4.304   1.601   5.959 -2.2827 -1.6685  1.0650
 2972SOL     OW20377   3.320   1.096   2.569 -0.3350 -0.0431 -0.3883
 2972SOL    HW120378   3.398   1.075   2.518  0.4865 -2.1570  1.7441
 2972SOL    HW220379   3.248   1.048   2.528 -0.7784 -0.2353  0.6205
 2973SOL     OW20380   3.353   0.611   1.571 -0.1183 -0.0669 -0.0399
 2973SOL    HW120381   3.316   0.525   1.550 -0.5336  0.5269 -1.7679
 2973SOL    HW220382   3.436   0.616   1.524  1.5459 -2.1236  2.7105
 2974SOL     OW20383   0.623   3.919   6.607 -0.3722 -0.3681 -0.4394
 2974SOL    HW120384   0.705   3.896   6.564  0.4764 -0.2779  1.1234
 2974SOL    HW220385   0.667   3.921   6.692 -0.4605  0.2612 -0.4108
 2975SOL     OW20386   1.917   3.141  14.952 -0.4849  0.0412  0.3870
 2975SOL    HW120387   1.887   3.224  14.914  3.1089  1.5415  0.7899
 2975SOL    HW220388   1.859   3.074  14.918 -0.7055  0.0066  0.8318
 2976SOL     OW20389   0.528   3.138   9.024  0.7207  0.1473 -0.6681
 2976SOL    HW120390   0.463   3.193   8.981 -0.4622  0.1082  1.0684
 2976SOL    HW220391   0.553   3.078   8.955  1.5182  1.3551 -1.4384
 2977SOL     OW20392   0.795   0.701   6.776  0.1004 -0.3407 -0.0534
 2977SOL    HW120393   0.830   0.775   6.826  2.6228 -0.4995 -1.6163
 2977SOL    HW220394   0.877   0.653   6.769  1.0252  1.3295 -0.6609
 2978SOL     OW20395   0.187   2.646   5.699 -0.3683 -0.1464  0.6363
 2978SOL    HW120396   0.215   2.609   5.783 -1.3727 -1.1934  0.5122
 2978SOL    HW220397   0.253   2.622   5.633 -3.4934 -2.7383 -1.5622
 2979SOL     OW20398   1.665   1.651   2.299 -0.5409 -0.0919 -0.0947
 2979SOL    HW120399   1.744   1.597   2.304  0.2456  1.1538  1.0898
 2979SOL    HW220400   1.690   1.722   2.240  1.7589 -1.0566 -0.3069
 2980SOL     OW20401   1.479   0.384   7.004  0.8898 -0.6932 -0.1699
 2980SOL    HW120402   1.510   0.366   6.915 -0.7769  1.5307 -1.1909
 2980SOL    HW220403   1.400   0.433   6.984 -1.0200 -3.3850  0.7951
 2981SOL     OW20404   3.972   3.426  15.608 -0.5638  0.0241  0.4454
 2981SOL    HW120405   3.915   3.452  15.681 -1.8351 -0.6927 -0.2861
 2981SOL    HW220406   4.019   3.349  15.638  0.7580  1.3083  1.6771
 2982SOL     OW20407   4.011   3.467   4.159 -0.2199 -0.3978  0.1439
 2982SOL    HW120408   4.005   3.551   4.204 -1.2013 -0.5386  0.2672
 2982SOL    HW220409   3.932   3.421   4.187 -0.5234 -0.8585 -1.4634
 2983SOL     OW20410   3.199   2.556   8.518  0.0420 -0.3028  0.4892
 2983SOL    HW120411   3.127   2.565   8.580 -1.0071 -2.4196 -0.4260
 2983SOL    HW220412   3.261   2.620   8.552 -0.0338  0.1539 -0.2258
 2984SOL     OW20413   3.677   3.181   0.858  0.2094 -0.1063 -0.8487
 2984SOL    HW120414   3.655   3.087   0.857 -2.3032  0.4468  1.5717
 2984SOL    HW220415   3.720   3.189   0.943 -1.4951  3.7574 -0.3674
 2985SOL     OW20416   2.062   1.891  15.174  0.3839 -0.0511  0.0880
 2985SOL    HW120417   2.127   1.822  15.167  0.0684 -0.7637  4.3472
 2985SOL    HW220418   1.979   1.851  15.147  0.3793  0.9468 -1.4368
 2986SOL     OW20419   1.618   4.672   4.935 -0.5222  0.6849 -0.0234
 2986SOL    HW120420   1.626   4.610   5.008 -1.7764 -0.0850 -0.5570
 2986SOL    HW220421   1.599   0.037   4.976  0.6830  0.4371  1.0597
 2987SOL     OW20422   3.549   0.177   9.432  0.2364 -0.2080 -0.2716
 2987SOL    HW120423   3.601   0.242   9.386 -0.0982  0.5473  0.4121
 2987SOL    HW220424   3.472   0.232   9.447  1.2405  0.8625  0.9738
 2988SOL     OW20425   2.101   0.770   7.598  0.1580 -0.1552  0.5036
 2988SOL    HW120426   2.114   0.824   7.675  1.0395  0.9597 -0.4245
 2988SOL    HW220427   2.014   0.735   7.617  0.4764 -0.8694  0.6701
 2989SOL     OW20428   4.580   3.126  14.845  0.0241  0.9166 -0.4647
 2989SOL    HW120429   4.636   3.179  14.902  1.1690  2.6761 -3.2245
 2989SOL    HW220430   4.586   3.179  14.765  0.9195 -0.6911 -1.4599
 2990SOL     OW20431   3.076   1.551   3.181 -0.1630 -0.1131 -0.1638
 2990SOL    HW120432   3.053   1.466   3.220 -2.4860  1.5566  2.0935
 2990SOL    HW220433   3.091   1.592   3.266 -0.2051  0.5946 -0.4991
 2991SOL     OW20434   2.951   4.266   4.478  1.1558 -0.1191 -0.1963
 2991SOL    HW120435   2.888   4.288   4.409  2.4313  1.0845 -0.9740
 2991SOL    HW220436   2.995   4.192   4.437  2.4103 -0.4529  1.7425
 2992SOL     OW20437   2.799   0.731  14.599  0.2122 -0.2157 -0.4052
 2992SOL    HW120438   2.806   0.826  14.597 -2.4120 -0.0283 -0.7827
 2992SOL    HW220439   2.705   0.715  14.611  0.0627  3.2768  3.2815
 2993SOL     OW20440   2.702   0.804   9.381  0.3435 -0.0370 -0.4762
 2993SOL    HW120441   2.686   0.866   9.452  1.1658 -0.7862  0.3560
 2993SOL    HW220442   2.763   0.853   9.326 -0.1823  0.0483 -0.9951
 2994SOL     OW20443   1.336   2.217  11.408  0.4165  0.2848  0.2022
 2994SOL    HW120444   1.391   2.179  11.477 -2.3562 -1.0849  1.6571
 2994SOL    HW220445   1.245   2.218  11.438  0.1397  3.4853 -0.7786
 2995SOL     OW20446   4.590   3.025   6.215  0.0456 -0.8652  0.7214
 2995SOL    HW120447   4.666   2.983   6.255  0.1503  0.0414  1.4892
 2995SOL    HW220448   4.522   3.027   6.281  2.0136 -0.2190  2.7462
 2996SOL     OW20449   1.812   3.307   3.604 -0.2135  0.4768 -0.4511
 2996SOL    HW120450   1.739   3.249   3.625  0.7083 -0.7204 -0.5852
 2996SOL    HW220451   1.775   3.386   3.565 -1.4856  0.3297  0.4489
 2997SOL     OW20452   2.121   1.407   4.780  0.1733 -0.3185 -0.5244
 2997SOL    HW120453   2.150   1.437   4.866 -1.1916 -1.9520  0.5057
 2997SOL    HW220454   2.075   1.325   4.799  0.1457  0.0288  0.8756
 2998SOL     OW20455   0.113   0.048  11.185  0.1975  0.2676 -0.0903
 2998SOL    HW120456   0.045   0.053  11.118 -0.3877  0.4364  0.5178
 2998SOL    HW220457   0.187   0.016  11.132 -0.2425 -0.0184 -0.5329
 2999SOL     OW20458   1.684   0.229   3.041 -0.0393 -0.8208 -0.6431
 2999SOL    HW120459   1.700   0.303   2.982  1.9354 -1.0471 -0.3882
 2999SOL    HW220460   1.599   0.206   3.004 -0.4869  0.2816 -0.2807
 3000SOL     OW20461   2.942   1.495   2.200  0.0367 -0.0064  0.3514
 3000SOL    HW120462   2.855   1.469   2.169  0.3946 -0.6934 -0.0829
 3000SOL    HW220463   2.984   1.527   2.121  0.6836 -1.4687  0.1000
 3001SOL     OW20464   3.709   1.034   5.957  0.3696 -0.2321  0.4078
 3001SOL    HW120465   3.792   0.997   5.928 -0.4081 -1.7842  0.1400
 3001SOL    HW220466   3.697   0.978   6.033 -0.2288  0.2731  0.6903
 3002SOL     OW20467   0.153   1.520   3.844 -0.1549 -0.0420  0.3531
 3002SOL    HW120468   0.223   1.583   3.865  0.3735 -0.5350  0.0476
 3002SOL    HW220469   0.194   1.453   3.789  1.0752 -0.7285  2.0865
 3003SOL     OW20470   1.195   3.713   6.383 -0.4350  0.3027 -0.3534
 3003SOL    HW120471   1.133   3.786   6.380 -0.0435  0.8158  3.3228
 3003SOL    HW220472   1.280   3.758   6.389 -0.1266 -0.4095  0.6782
 3004SOL     OW20473   1.323   0.868   7.186  0.6298  0.6098  0.0107
 3004SOL    HW120474   1.324   0.879   7.281  1.8975 -1.2074  0.1994
 3004SOL    HW220475   1.338   0.774   7.181 -1.9880  0.2129 -0.1264
 3005SOL     OW20476   0.934   3.670  11.198 -0.2368  0.0623 -0.4551
 3005SOL    HW120477   0.878   3.599  11.229 -0.9466  0.9411  0.2539
 3005SOL    HW220478   0.866   3.736  11.193 -0.4578 -0.0554  1.1179
 3006SOL     OW20479   4.126   2.890   6.905 -0.0595 -0.1085  0.4058
 3006SOL    HW120480   4.035   2.877   6.933  0.9825 -1.3094  3.2943
 3006SOL    HW220481   4.140   2.802   6.869 -2.0124  0.7937 -2.5402
 3007SOL     OW20482   0.981   2.721  16.542 -0.3538 -0.2376  0.0539
 3007SOL    HW120483   0.926   2.768  16.479  0.7238 -0.1417 -0.8131
 3007SOL    HW220484   0.911   2.672  16.585 -0.6441 -0.8175 -1.1023
 3008SOL     OW20485   2.430   4.145   9.140  0.1170  0.5593 -0.2446
 3008SOL    HW120486   2.510   4.189   9.108 -0.7849  0.4833 -2.6227
 3008SOL    HW220487   2.437   4.064   9.090 -2.1345  0.9414 -1.1830
 3009SOL     OW20488   0.932   0.090   5.892 -0.5133  0.7052  0.2427
 3009SOL    HW120489   0.971   0.178   5.894 -0.7735  0.8251  0.0811
 3009SOL    HW220490   0.852   0.110   5.843 -1.6640  2.0533  2.6939
 3010SOL     OW20491   0.916   2.888  10.932 -0.1227 -0.3278  0.3058
 3010SOL    HW120492   0.968   2.878  10.852 -0.3217  2.1317 -0.1142
 3010SOL    HW220493   0.985   2.869  10.996  0.1129  0.1906  0.2000
 3011SOL     OW20494   1.512   1.321   8.003  0.4100 -0.0194 -0.1236
 3011SOL    HW120495   1.498   1.331   7.909 -1.5852  0.1316  0.2054
 3011SOL    HW220496   1.430   1.276   8.022  0.6750 -1.1579 -1.6312
 3012SOL     OW20497   3.497   1.072   5.274  0.5433  0.1014 -0.2921
 3012SOL    HW120498   3.410   1.087   5.239  0.8258  3.4349  0.3767
 3012SOL    HW220499   3.547   1.080   5.193  0.6836  0.8555 -0.1392
 3013SOL     OW20500   4.238   0.589   7.093 -0.2879  0.7241 -0.8646
 3013SOL    HW120501   4.158   0.560   7.135  0.2740 -0.6172 -0.7080
 3013SOL    HW220502   4.261   0.512   7.041 -0.2324  0.9232 -1.1415
 3014SOL     OW20503   1.900   0.441  12.552 -0.3712  0.5320  0.2338
 3014SOL    HW120504   1.988   0.479  12.558 -1.4233  2.8261  0.7773
 3014SOL    HW220505   1.922   0.367  12.609 -2.3472  0.3357  0.7447
 3015SOL     OW20506   4.457   2.408  16.664  0.6060 -0.0703  0.0275
 3015SOL    HW120507   4.551   2.394  16.675  0.6956 -0.7549 -1.5482
 3015SOL    HW220508   4.444   2.490  16.616 -1.6534 -0.5827 -0.2399
 3016SOL     OW20509   3.417   4.360   6.176 -0.3702 -0.1002  0.7323
 3016SOL    HW120510   3.369   4.375   6.094 -2.1641 -1.6069  1.5057
 3016SOL    HW220511   3.371   4.281   6.206  0.7724 -1.0651 -0.0457
 3017SOL     OW20512   2.687   3.347  10.982  0.3500  0.0536  0.3818
 3017SOL    HW120513   2.648   3.309  10.903 -2.9337 -0.3563  2.1845
 3017SOL    HW220514   2.700   3.439  10.959  0.3225  0.2476  1.1511
 3018SOL     OW20515   1.028   3.466   8.450 -0.1856  0.2615  0.5114
 3018SOL    HW120516   0.965   3.414   8.400  0.8595 -1.0281  0.5238
 3018SOL    HW220517   0.992   3.467   8.539  0.2477 -1.4034  0.7188
 3019SOL     OW20518   0.822   2.954   2.248  0.1960 -0.0092  0.1782
 3019SOL    HW120519   0.873   2.879   2.277  1.3887  1.4744  1.8509
 3019SOL    HW220520   0.836   3.018   2.317  0.3157  1.3859 -1.1351
 3020SOL     OW20521   0.963   4.592   0.454 -0.0396 -0.4820 -0.0926
 3020SOL    HW120522   1.043   4.592   0.402  0.0460 -1.2579  0.0328
 3020SOL    HW220523   0.978   4.668   0.510  2.0151 -1.3185  0.5006
 3021SOL     OW20524   2.823   1.872   6.962  0.1191 -0.4698  0.6299
 3021SOL    HW120525   2.810   1.955   6.916  1.8707 -0.0732  0.8659
 3021SOL    HW220526   2.769   1.815   6.907 -2.1159 -1.7354  4.1140
 3022SOL     OW20527   1.144   1.665   4.239  0.5841 -0.3992 -0.3303
 3022SOL    HW120528   1.206   1.713   4.184 -1.4646 -0.1575 -2.3817
 3022SOL    HW220529   1.214   1.613   4.280  0.6704 -0.7435 -0.9172
 3023SOL     OW20530   0.804   2.575   7.030  0.0988  0.2529 -0.1920
 3023SOL    HW120531   0.893   2.595   7.003  0.2480 -1.7144 -1.1884
 3023SOL    HW220532   0.812   2.494   6.980 -1.0005  2.0712 -3.3280
 3024SOL     OW20533   3.493   3.955   6.641  0.0561  0.1091  0.9229
 3024SOL    HW120534   3.419   3.993   6.594  0.7557 -0.3356 -0.5366
 3024SOL    HW220535   3.511   3.886   6.577  0.1895 -0.0170  1.0956
 3025SOL     OW20536   1.364   3.003  13.707  0.2230  0.0615  0.2774
 3025SOL    HW120537   1.425   2.957  13.764 -0.8141 -1.4009  0.2007
 3025SOL    HW220538   1.408   3.088  13.699  1.4384 -0.8532 -2.7702
 3026SOL     OW20539   3.664   0.704   8.051 -0.7153  0.2362  0.2766
 3026SOL    HW120540   3.662   0.713   7.956 -1.8845 -0.7511  0.2054
 3026SOL    HW220541   3.719   0.778   8.076 -1.1866 -0.2139  2.6832
 3027SOL     OW20542   2.147   4.059   6.260 -0.8327 -0.5058  0.0490
 3027SOL    HW120543   2.184   4.131   6.310 -0.4287 -0.3468 -0.4762
 3027SOL    HW220544   2.092   4.103   6.195 -2.5449  0.4227  2.1670
 3028SOL     OW20545   0.418   3.080   9.668  0.0703 -0.9827  0.3745
 3028SOL    HW120546   0.384   3.056   9.755  3.7356 -1.2853  1.7307
 3028SOL    HW220547   0.381   3.167   9.652 -1.3207 -1.1302  2.6646
 3029SOL     OW20548   4.059   2.212  16.028 -0.5197 -0.9726 -0.2836
 3029SOL    HW120549   4.132   2.231  16.087 -1.7951 -0.7672  1.2031
 3029SOL    HW220550   4.096   2.241  15.944 -3.5676  1.3092 -0.8292
 3030SOL     OW20551   1.970   4.170   9.353  0.3990 -0.1142  0.0285
 3030SOL    HW120552   1.978   4.107   9.424  0.1778 -0.2198 -0.0396
 3030SOL    HW220553   1.984   4.104   9.285 -1.6652 -1.8076  1.2331
 3031SOL     OW20554   0.821   3.426  16.710  0.4912  0.1218 -1.0388
 3031SOL    HW120555   0.810   3.412  16.804 -0.0641  1.5695 -0.8859
 3031SOL    HW220556   0.816   3.338  16.672  0.0870 -0.9707  1.5553
 3032SOL     OW20557   1.747   3.593   3.487  0.5765 -0.3875  0.2836
 3032SOL    HW120558   1.743   3.685   3.464  0.1879 -0.2485  0.9214
 3032SOL    HW220559   1.674   3.571   3.429  2.4418  1.3803 -2.7403
 3033SOL     OW20560   0.833   3.393  17.341  0.1102 -0.2532 -0.1086
 3033SOL    HW120561   0.771   3.328  17.309 -0.7317  1.4413 -1.9238
 3033SOL    HW220562   0.909   3.351  17.301  0.4124 -0.1438  0.3525
 3034SOL     OW20563   4.106   2.923  15.423  0.1321  0.0082 -0.3995
 3034SOL    HW120564   4.167   2.950  15.492 -2.1777 -0.5258  1.8736
 3034SOL    HW220565   4.166   2.892  15.355 -0.2561 -0.1062 -0.6906
 3035SOL     OW20566   3.200   3.439   3.396  0.2743  0.1213  0.4052
 3035SOL    HW120567   3.116   3.393   3.403  0.2916  0.3233  1.8267
 3035SOL    HW220568   3.255   3.365   3.371 -2.0861 -1.9724  1.3555
 3036SOL     OW20569   0.959   2.111   9.402 -0.6621 -0.6486  0.3111
 3036SOL    HW120570   0.966   2.062   9.484  1.2180 -2.3059 -0.8532
 3036SOL    HW220571   0.929   2.194   9.439 -0.6882 -0.5034 -0.0279
 3037SOL     OW20572   1.007   3.059   5.736  0.0219  0.8312 -0.2466
 3037SOL    HW120573   1.077   3.004   5.702  0.0811  0.7373  0.0284
 3037SOL    HW220574   1.027   3.087   5.825 -0.1691 -1.3304  0.4800
 3038SOL     OW20575   3.846   1.166   5.158 -0.6486 -0.0466  0.1402
 3038SOL    HW120576   3.774   1.108   5.132 -2.0382 -0.2296  4.3897
 3038SOL    HW220577   3.814   1.252   5.133 -1.5995  0.4118  2.9617
 3039SOL     OW20578   0.095   4.631   7.070 -0.5863 -0.4511 -0.4668
 3039SOL    HW120579   0.043   4.705   7.040  0.7398  0.7534  0.2191
 3039SOL    HW220580   0.041   4.556   7.046 -1.5895 -0.3834  1.6320
 3040SOL     OW20581   1.830   4.592   6.173  0.0519  0.1679 -0.1072
 3040SOL    HW120582   1.773   4.519   6.199  0.2028 -0.3532 -1.2530
 3040SOL    HW220583   1.883   4.593   6.253  1.0091  0.0878 -0.7496
 3041SOL     OW20584   1.584   2.415   9.629  0.5185  0.2207 -0.6122
 3041SOL    HW120585   1.599   2.483   9.695 -2.5658  0.4413 -0.1237
 3041SOL    HW220586   1.676   2.401   9.608  0.0820 -1.6852 -1.2647
 3042SOL     OW20587   1.135   4.513   8.923  0.1335  0.1858  0.3876
 3042SOL    HW120588   1.163   4.599   8.955  2.0080 -0.0461 -0.6448
 3042SOL    HW220589   1.071   4.482   8.987 -0.7916  0.3515 -0.4452
 3043SOL     OW20590   4.303   1.309   5.254  0.4011  1.0167  0.4110
 3043SOL    HW120591   4.260   1.379   5.205 -4.1210  0.0868  3.0430
 3043SOL    HW220592   4.393   1.340   5.241  1.0097 -0.6070  0.7751
 3044SOL     OW20593   1.958   1.091  12.353 -0.2056 -0.0386 -0.1004
 3044SOL    HW120594   1.881   1.084  12.410  0.6109 -3.0844  0.6508
 3044SOL    HW220595   2.014   1.120  12.425 -1.2746 -0.6545  0.9840
 3045SOL     OW20596   2.045   4.691   2.167  0.6041  0.1418  0.4672
 3045SOL    HW120597   2.009   4.607   2.196  0.0569  0.6746  1.3404
 3045SOL    HW220598   2.019   0.032   2.237 -1.3858 -0.7243  0.4988
 3046SOL     OW20599   1.328   3.942   2.531  0.3020 -0.8997 -0.6263
 3046SOL    HW120600   1.354   4.034   2.530 -0.5003 -0.6739  0.0589
 3046SOL    HW220601   1.237   3.950   2.503 -0.0026  1.3945  1.0675
 3047SOL     OW20602   2.516   3.954   7.811 -0.4264 -0.5671  0.5926
 3047SOL    HW120603   2.500   3.892   7.882  1.0577 -0.5802  0.9293
 3047SOL    HW220604   2.442   4.013   7.821 -0.5733 -0.6749  0.1455
 3048SOL     OW20605   2.257   1.931   4.653 -0.8717  0.1586  0.1864
 3048SOL    HW120606   2.283   1.853   4.603  1.3891 -1.0324  3.2415
 3048SOL    HW220607   2.229   1.989   4.582  1.0931 -0.8275 -1.4178
 3049SOL     OW20608   4.455   3.061   4.467 -0.0006 -0.5331  0.7307
 3049SOL    HW120609   4.505   3.123   4.413 -0.7915 -1.8656 -1.5351
 3049SOL    HW220610   4.461   3.110   4.549 -0.7207  0.3123  0.2712
 3050SOL     OW20611   3.945   3.899   5.493 -0.4142 -0.1310  0.5513
 3050SOL    HW120612   3.931   3.842   5.417 -1.2775  3.4531 -1.9400
 3050SOL    HW220613   4.034   3.871   5.515 -0.4629 -0.4988  0.2772
 3051SOL     OW20614   1.351   2.417   0.292  0.0726  0.1640 -0.2322
 3051SOL    HW120615   1.266   2.458   0.277 -0.6403 -1.3447 -0.3202
 3051SOL    HW220616   1.364   2.365   0.212 -1.7035  2.0086 -1.7376
 3052SOL     OW20617   4.677   0.166   1.587  0.0617 -0.0438 -0.0134
 3052SOL    HW120618   4.712   0.252   1.608  2.2706 -0.8680 -0.2630
 3052SOL    HW220619   4.597   0.157   1.638  0.4493 -0.2286  0.5678
 3053SOL     OW20620   4.010   1.300   5.987  0.3225  0.4162  0.1798
 3053SOL    HW120621   4.103   1.313   5.974 -0.1785  2.6569 -1.1256
 3053SOL    HW220622   4.014   1.215   5.942 -2.2492  0.8318 -0.8759
 3054SOL     OW20623   2.990   4.540   7.308  0.2500  0.0900 -0.0303
 3054SOL    HW120624   3.008   4.450   7.337 -0.9780 -0.3214 -0.5427
 3054SOL    HW220625   2.901   4.524   7.276  0.7842 -1.3958 -0.7801
 3055SOL     OW20626   2.051   0.743   9.149  0.1934 -0.5737 -0.2158
 3055SOL    HW120627   2.005   0.685   9.210  2.4438 -0.1014  1.9444
 3055SOL    HW220628   2.134   0.748   9.197 -0.7479 -0.2020  1.3922
 3056SOL     OW20629   0.372   2.614   2.637  0.1703 -0.3416 -0.0076
 3056SOL    HW120630   0.445   2.564   2.601  0.9611  0.7706  0.0682
 3056SOL    HW220631   0.307   2.621   2.568  0.5700 -0.6468 -0.4133
 3057SOL     OW20632   4.166   3.842  15.110 -0.9179 -0.3808  0.4325
 3057SOL    HW120633   4.143   3.833  15.202  0.7432  3.1542  1.1596
 3057SOL    HW220634   4.248   3.890  15.116 -0.5290 -1.0919  0.8654
 3058SOL     OW20635   2.073   0.318  11.048  0.8619  0.0207 -0.1127
 3058SOL    HW120636   1.987   0.286  11.075 -0.5501  2.4604 -1.6684
 3058SOL    HW220637   2.061   0.398  11.100  1.4764  1.0140 -1.4786
 3059SOL     OW20638   1.048   2.194  10.668  0.5625 -0.2706 -0.2846
 3059SOL    HW120639   0.997   2.252  10.726  0.9278 -0.5134  0.2776
 3059SOL    HW220640   1.107   2.156  10.733 -0.7832 -1.3157  0.3397
 3060SOL     OW20641   0.830   4.704  14.468 -0.2328  0.6946  0.1502
 3060SOL    HW120642   0.905   4.686  14.411 -0.4812  0.8655 -0.2339
 3060SOL    HW220643   0.874   4.719  14.552 -0.4024 -0.0453  0.3677
 3061SOL     OW20644   0.042   1.339   8.338  0.4828 -0.2021 -0.3274
 3061SOL    HW120645   4.694   1.390   8.382  0.1466 -0.7372 -0.2306
 3061SOL    HW220646   0.092   1.300   8.410  1.0634 -0.2026 -0.7271
 3062SOL     OW20647   2.770   3.721  14.395 -0.1054 -0.0762 -0.1777
 3062SOL    HW120648   2.725   3.639  14.375 -1.8044  1.2679 -1.8349
 3062SOL    HW220649   2.786   3.711  14.489 -1.9923  0.6656  0.2193
 3063SOL     OW20650   2.065   3.819  13.245  0.1495 -0.3306 -0.0927
 3063SOL    HW120651   2.154   3.806  13.212  0.5188  0.0765  0.7434
 3063SOL    HW220652   2.080   3.904  13.286 -0.3521 -0.3818  0.1934
 3064SOL     OW20653   3.644   1.366  13.634  0.2152 -0.2137  1.1846
 3064SOL    HW120654   3.588   1.330  13.703  0.0728 -1.7630  0.2585
 3064SOL    HW220655   3.634   1.300  13.565  3.5106  0.5052  0.0314
 3065SOL     OW20656   3.785   3.476  12.919 -0.0681 -0.4625 -0.3475
 3065SOL    HW120657   3.839   3.400  12.942 -2.0920 -1.9999 -0.6866
 3065SOL    HW220658   3.774   3.531  12.997 -2.3660 -0.7238 -0.4790
 3066SOL     OW20659   2.082   0.844   3.669  0.6755  0.3664  0.0473
 3066SOL    HW120660   2.082   0.838   3.765 -0.2193  1.0122  0.0883
 3066SOL    HW220661   1.999   0.798   3.655 -0.3084  1.0326  3.5939
 3067SOL     OW20662   0.307   0.237   9.567 -0.1220  0.0060 -0.2789
 3067SOL    HW120663   0.327   0.155   9.521  2.6922  1.1619 -1.1642
 3067SOL    HW220664   0.321   0.208   9.657 -1.5402  1.3125  0.3390
 3068SOL     OW20665   1.975   1.437   8.158  0.1721 -0.2748 -0.4382
 3068SOL    HW120666   1.955   1.350   8.123  1.4647 -0.0602 -1.7329
 3068SOL    HW220667   1.975   1.496   8.083 -2.4491  1.0504  0.6323
 3069SOL     OW20668   1.224   2.037   4.375  0.6487 -0.4181 -0.3161
 3069SOL    HW120669   1.199   2.080   4.457  1.8945  1.0676 -0.7090
 3069SOL    HW220670   1.163   2.081   4.315 -0.4015 -2.2775 -0.6261
 3070SOL     OW20671   1.436   0.898   7.934 -0.3909  0.0498  0.0813
 3070SOL    HW120672   1.419   0.804   7.944 -2.3988  0.4817  0.8372
 3070SOL    HW220673   1.493   0.906   7.857 -0.6023  0.3581 -0.0461
 3071SOL     OW20674   3.024   0.005   3.897 -0.4622 -0.7209 -0.4900
 3071SOL    HW120675   2.993   4.673   3.823 -0.4993  1.3140 -1.8755
 3071SOL    HW220676   2.941   0.001   3.945 -0.0791  0.4885  0.2650
 3072SOL     OW20677   4.329   4.359  12.928 -0.4755 -0.8666 -0.3969
 3072SOL    HW120678   4.295   4.293  12.868  0.3464 -1.3105 -0.3731
 3072SOL    HW220679   4.410   4.332  12.972 -0.5886 -2.6193 -1.2682
 3073SOL     OW20680   0.065   4.165   8.243 -0.0080  0.6819  0.5749
 3073SOL    HW120681   0.101   4.108   8.175 -1.0164 -0.4433  0.9851
 3073SOL    HW220682   0.005   4.223   8.196 -0.9926 -1.4608 -0.8117
 3074SOL     OW20683   0.078   0.173   4.677 -0.2422 -0.3927  0.1663
 3074SOL    HW120684   0.084   0.229   4.600  0.7089 -1.5900 -0.6136
 3074SOL    HW220685   0.164   0.182   4.717 -1.2330  0.6705  2.0706
 3075SOL     OW20686   3.818   2.259   4.777  0.4719  0.5659 -0.0015
 3075SOL    HW120687   3.884   2.268   4.846  2.0711  0.9020 -1.5737
 3075SOL    HW220688   3.809   2.164   4.785  1.9785  0.3424 -0.9898
 3076SOL     OW20689   4.147   0.503   0.063 -0.2402 -0.0422  0.2594
 3076SOL    HW120690   4.211   0.575   0.059  0.0604 -0.3369 -0.2656
 3076SOL    HW220691   4.211   0.437   0.091 -0.1457  0.2416  0.7127
 3077SOL     OW20692   0.231   3.009   0.062  0.0412 -0.4086 -0.7292
 3077SOL    HW120693   0.308   2.968   0.101  0.8145  2.0182  0.2566
 3077SOL    HW220694   0.222   3.096   0.099 -0.1534 -0.5823 -0.3706
 3078SOL     OW20695   3.016   4.435   8.298  0.2614 -0.3535 -0.1216
 3078SOL    HW120696   2.956   4.412   8.227  1.6404 -1.0322 -1.0734
 3078SOL    HW220697   2.961   4.498   8.343  1.9249  1.2001 -0.2769
 3079SOL     OW20698   3.623   4.653   9.315  0.7942  0.0023  0.1095
 3079SOL    HW120699   3.584   4.593   9.379 -0.6835 -1.0047 -1.7449
 3079SOL    HW220700   3.584   0.015   9.347 -0.4837 -1.1891  1.6499
 3080SOL     OW20701   4.149   0.300  10.598  0.0153 -0.2298 -0.4737
 3080SOL    HW120702   4.182   0.377  10.552  1.3466 -0.1511  0.6184
 3080SOL    HW220703   4.182   0.232  10.540  0.3350 -1.0500  0.6719
 3081SOL     OW20704   1.097   0.930  10.658  0.4958 -0.5428 -0.4021
 3081SOL    HW120705   1.023   0.970  10.611  0.1349 -1.4298 -0.5843
 3081SOL    HW220706   1.053   0.882  10.728 -0.6024  0.4909 -0.3871
 3082SOL     OW20707   2.919   4.239  14.750 -0.2361  0.1034 -0.1172
 3082SOL    HW120708   3.009   4.255  14.722  0.1964 -0.1449  1.1215
 3082SOL    HW220709   2.902   4.164  14.693 -2.0622  0.0303  0.5179
 3083SOL     OW20710   1.423   2.988   4.294  0.7752  0.6326 -0.1291
 3083SOL    HW120711   1.457   3.041   4.222  0.4383  2.5092  1.0678
 3083SOL    HW220712   1.498   2.995   4.354  1.2246  2.0811 -0.8492
 3084SOL     OW20713   3.387   2.397  14.793 -0.5971  0.5452 -0.0577
 3084SOL    HW120714   3.346   2.398  14.707  0.8628  0.1929 -0.7501
 3084SOL    HW220715   3.420   2.486  14.808  1.3250 -0.6081  2.5766
 3085SOL     OW20716   3.747   3.859   4.291 -0.5661  0.6156 -0.0166
 3085SOL    HW120717   3.769   3.951   4.306  0.1095  0.4545 -0.0200
 3085SOL    HW220718   3.656   3.859   4.320 -0.8438  1.8732 -0.8658
 3086SOL     OW20719   0.940   2.600   9.181  1.1592  0.3221  0.6220
 3086SOL    HW120720   0.882   2.560   9.245 -0.3455  1.0017 -0.2999
 3086SOL    HW220721   0.945   2.689   9.216 -0.8532  0.8845 -0.4713
 3087SOL     OW20722   1.831   3.025   8.019 -0.6253 -0.9756 -0.7676
 3087SOL    HW120723   1.763   3.064   8.074 -0.7970  0.6849 -2.1780
 3087SOL    HW220724   1.895   3.006   8.088 -0.8873  0.6952 -0.0796
 3088SOL     OW20725   1.648   2.538   9.007 -0.0156 -0.0710 -0.0565
 3088SOL    HW120726   1.658   2.446   8.981 -1.0247  0.5746 -2.6216
 3088SOL    HW220727   1.733   2.555   9.048 -0.1628  1.8308 -0.5410
 3089SOL     OW20728   3.003   1.325   5.240 -0.1768  0.2897 -0.2378
 3089SOL    HW120729   2.918   1.339   5.282 -0.5195 -0.8374 -0.5466
 3089SOL    HW220730   3.064   1.355   5.307  1.4445 -3.0634 -0.1889
 3090SOL     OW20731   3.316   1.007   4.243  0.0181 -0.0410 -0.4470
 3090SOL    HW120732   3.403   0.973   4.266  0.4590  0.3705 -1.4815
 3090SOL    HW220733   3.261   0.933   4.267 -0.7655  0.3628 -0.9767
 3091SOL     OW20734   4.088   1.292   9.150 -0.0525  0.1456 -0.4142
 3091SOL    HW120735   3.999   1.277   9.120  0.0937 -1.4985 -0.0514
 3091SOL    HW220736   4.135   1.271   9.069  0.6563  2.3442 -0.5701
 3092SOL     OW20737   3.672   4.628   5.963  0.0530  0.1787  0.1576
 3092SOL    HW120738   3.698   4.624   6.054  0.7213 -0.6571 -0.0784
 3092SOL    HW220739   3.690   4.539   5.933 -1.7776 -0.3930  0.7844
 3093SOL     OW20740   4.050   4.485  11.678 -0.6408 -0.2484  0.2801
 3093SOL    HW120741   3.981   4.461  11.740 -2.8783  0.8947 -1.7489
 3093SOL    HW220742   4.018   4.453  11.593 -0.1014 -0.2225  0.0636
 3094SOL     OW20743   4.032   0.101   9.496 -0.3724  0.2976  0.5475
 3094SOL    HW120744   4.072   0.105   9.583  0.3264  1.9294  0.1601
 3094SOL    HW220745   4.052   0.016   9.457 -1.3279  0.5587 -0.5332
 3095SOL     OW20746   0.504   0.121  14.678  0.5920  0.4212 -0.6470
 3095SOL    HW120747   0.537   0.199  14.723 -0.2045  1.2244 -1.4278
 3095SOL    HW220748   0.444   0.083  14.742  0.8624  1.3184  0.1285
 3096SOL     OW20749   0.160   2.154   2.533  0.2021  0.4394  0.3327
 3096SOL    HW120750   0.223   2.085   2.549  1.2650  0.6085 -3.0247
 3096SOL    HW220751   0.102   2.135   2.607  2.9168 -1.3767  1.9813
 3097SOL     OW20752   3.314   2.615  13.536 -0.4909  0.1220  0.2843
 3097SOL    HW120753   3.365   2.695  13.548 -1.0249  0.7774 -1.8860
 3097SOL    HW220754   3.366   2.559  13.593  1.3028  0.0865 -1.3953
 3098SOL     OW20755   0.382   3.446   5.784  0.0585  0.5660 -0.0995
 3098SOL    HW120756   0.362   3.356   5.757 -1.5962  1.4217 -1.6670
 3098SOL    HW220757   0.296   3.467   5.821  0.2728 -0.5855  1.0679
 3099SOL     OW20758   3.188   2.820   9.964 -0.6066 -0.1145 -0.1842
 3099SOL    HW120759   3.195   2.901  10.014  2.1321 -1.7544  2.0960
 3099SOL    HW220760   3.106   2.784   9.999 -1.1298  1.0271 -0.2460
 3100SOL     OW20761   0.174   3.901   7.116  0.4597 -0.0234 -0.3268
 3100SOL    HW120762   0.174   3.860   7.203 -0.2044 -1.1072 -0.8366
 3100SOL    HW220763   0.136   3.988   7.129  0.3079 -0.3118  1.2130
 3101SOL     OW20764   0.811   3.062  15.780 -0.1311  0.2137 -0.0094
 3101SOL    HW120765   0.796   3.078  15.873  0.4693  3.2196 -0.4382
 3101SOL    HW220766   0.725   3.040  15.744 -0.2808 -1.7994  1.5640
 3102SOL     OW20767   1.404   3.629   5.992  0.1636 -0.1263 -0.1181
 3102SOL    HW120768   1.371   3.711   6.029  2.2917  1.2326 -1.3027
 3102SOL    HW220769   1.370   3.636   5.903  0.8465  0.6295 -0.3097
 3103SOL     OW20770   3.511   1.930  13.849  0.3956 -0.3290  0.1483
 3103SOL    HW120771   3.605   1.919  13.834  0.1295 -1.0682 -0.9725
 3103SOL    HW220772   3.501   1.906  13.941  1.5002  0.6032  0.5089
 3104SOL     OW20773   1.417   1.927   5.589 -0.3518 -0.1468 -0.1299
 3104SOL    HW120774   1.477   1.859   5.559 -0.3634 -0.6744  1.0582
 3104SOL    HW220775   1.354   1.924   5.517 -1.4365  3.7868  0.6686
 3105SOL     OW20776   0.975   2.145   4.359  1.0465  0.4351 -0.3656
 3105SOL    HW120777   0.906   2.088   4.326 -0.4142  2.8939 -1.5696
 3105SOL    HW220778   0.937   2.157   4.446  0.5600 -1.7711 -0.2564
 3106SOL     OW20779   3.059   1.216  14.022  0.1654  0.0430  0.0494
 3106SOL    HW120780   3.085   1.293  14.073  0.1501  0.7234 -0.9732
 3106SOL    HW220781   2.971   1.193  14.052  0.2370  0.3104  0.4670
 3107SOL     OW20782   4.186   3.297   6.867 -0.4426 -0.3691 -0.3886
 3107SOL    HW120783   4.153   3.256   6.946  0.9359 -0.8016 -0.0354
 3107SOL    HW220784   4.233   3.367   6.912  0.0890 -0.2745 -1.0821
 3108SOL     OW20785   0.321   0.078   7.668  0.7440 -0.0105 -0.0161
 3108SOL    HW120786   0.360   4.717   7.635 -0.3330  0.1768 -1.7761
 3108SOL    HW220787   0.388   0.142   7.644  0.8229  0.5015  1.5750
 3109SOL     OW20788   1.809   3.241   5.374 -0.2167  0.1294  0.7470
 3109SOL    HW120789   1.893   3.236   5.419 -0.5907  0.4421  1.4787
 3109SOL    HW220790   1.770   3.155   5.394  0.4671  0.0841  1.8874
 3110SOL     OW20791   1.062   1.189   3.061 -0.3663  0.5994 -0.5446
 3110SOL    HW120792   1.025   1.211   3.147  1.2065  2.2271 -0.2880
 3110SOL    HW220793   0.985   1.187   3.004  0.1944  1.6995 -1.3366
 3111SOL     OW20794   4.137   3.901  10.015  0.4103  0.8850 -0.4160
 3111SOL    HW120795   4.070   3.833  10.020  0.5179  0.9994  2.5134
 3111SOL    HW220796   4.074   3.970  10.037  0.7929  0.7941  0.9484
 3112SOL     OW20797   4.627   3.959  15.526  0.1772 -0.2749 -0.3130
 3112SOL    HW120798   4.615   3.883  15.470  1.2060  0.0461 -0.9766
 3112SOL    HW220799   4.583   4.027  15.475  0.5085 -0.9288 -1.4794
 3113SOL     OW20800   3.770   3.693   6.512  0.2028 -0.3344 -0.2828
 3113SOL    HW120801   3.747   3.663   6.600 -0.7037  0.2419 -0.3209
 3113SOL    HW220802   3.858   3.729   6.519  0.5902 -1.2920 -0.2821
 3114SOL     OW20803   4.223   2.274   0.288 -0.4000 -0.8698  0.1861
 3114SOL    HW120804   4.187   2.202   0.235  0.5886 -0.0555 -1.5849
 3114SOL    HW220805   4.149   2.324   0.323 -0.6483 -0.5177 -0.8272
 3115SOL     OW20806   2.582   3.107   0.134 -0.4653  0.2102  0.2323
 3115SOL    HW120807   2.488   3.087   0.133 -0.4478  0.2066 -1.5865
 3115SOL    HW220808   2.609   3.060   0.213 -0.0106 -0.5604 -0.3818
 3116SOL     OW20809   4.524   3.874   1.467 -0.0313  0.4178  0.9849
 3116SOL    HW120810   4.576   3.816   1.522 -0.8257 -0.6481  0.6279
 3116SOL    HW220811   4.516   3.827   1.384  1.3486 -0.6662  1.4666
 3117SOL     OW20812   4.162   2.962   9.181 -0.1096 -0.1266 -0.1235
 3117SOL    HW120813   4.108   2.883   9.173 -2.3083  1.5748 -2.2538
 3117SOL    HW220814   4.238   2.931   9.230 -0.2748  1.2678  1.0079
 3118SOL     OW20815   3.334   3.698   6.222  0.0169 -0.0319  0.2555
 3118SOL    HW120816   3.281   3.618   6.226 -0.3692  0.1401 -1.6407
 3118SOL    HW220817   3.415   3.673   6.267  0.1914 -3.1790 -1.7600
 3119SOL     OW20818   0.754   4.136   8.444  0.0517 -0.4476 -0.2728
 3119SOL    HW120819   0.761   4.186   8.525  1.1902 -2.4322  0.8527
 3119SOL    HW220820   0.801   4.056   8.467  0.5761 -0.7706 -2.4773
 3120SOL     OW20821   1.958   4.245   4.921  0.1097 -0.5644  0.0642
 3120SOL    HW120822   2.041   4.257   4.877  0.1829  1.0247  0.6460
 3120SOL    HW220823   1.973   4.177   4.987  1.1440 -1.0628 -0.6996
 3121SOL     OW20824   4.668   1.778  15.828 -0.6677 -0.2900  0.9712
 3121SOL    HW120825   4.626   1.702  15.789 -1.3363  0.5941 -0.0282
 3121SOL    HW220826   4.703   1.742  15.910  0.1012  0.1126  0.8220
 3122SOL     OW20827   2.059   2.218   3.860 -0.1770  0.5862  0.2448
 3122SOL    HW120828   2.130   2.249   3.916  0.7374 -2.0461  0.5389
 3122SOL    HW220829   2.108   2.181   3.787  0.3809  0.4683  0.6816
 3123SOL     OW20830   4.356   1.317   1.416 -0.2351  0.0775  0.5053
 3123SOL    HW120831   4.362   1.339   1.323  1.3929  1.0528  0.8303
 3123SOL    HW220832   4.301   1.239   1.417 -0.8237  0.4867  0.0104
 3124SOL     OW20833   2.088   0.201  15.464  0.4851 -0.5341 -0.2727
 3124SOL    HW120834   2.126   0.278  15.505  0.1423 -0.6496  0.2530
 3124SOL    HW220835   2.148   0.183  15.391  1.6460  1.6865  0.1343
 3125SOL     OW20836   2.533   2.745   5.444  0.5963  0.1101 -0.0198
 3125SOL    HW120837   2.565   2.704   5.523 -2.1192  1.7986  1.9656
 3125SOL    HW220838   2.595   2.818   5.433 -0.5882  0.8131 -2.1845
 3126SOL     OW20839   0.155   0.591   1.077 -0.6047 -0.2402 -0.6204
 3126SOL    HW120840   0.115   0.669   1.115  1.0138 -0.0352  0.6495
 3126SOL    HW220841   0.125   0.603   0.987 -3.7472  1.3995  0.6487
 3127SOL     OW20842   0.799   1.333   0.063 -0.3310  0.2487 -0.2223
 3127SOL    HW120843   0.851   1.263   0.104 -0.0301  0.3848 -0.3706
 3127SOL    HW220844   0.749   1.288  17.677  1.1499 -0.7256 -0.6542
 3128SOL     OW20845   1.704   1.058   9.040 -0.1554  0.1574  0.1187
 3128SOL    HW120846   1.793   1.031   9.063  1.2827  4.0797 -0.7749
 3128SOL    HW220847   1.692   1.028   8.950  0.9107 -0.3132  0.1371
 3129SOL     OW20848   2.757   4.270   4.676  0.4346  0.3796  0.0014
 3129SOL    HW120849   2.832   4.267   4.615  0.3739 -2.2155  0.0264
 3129SOL    HW220850   2.806   4.213   4.736  2.7661  0.6124 -1.6674
 3130SOL     OW20851   4.081   1.189   8.881  0.1852 -0.4320  0.3190
 3130SOL    HW120852   4.109   1.098   8.875 -0.1641 -0.4274 -1.3259
 3130SOL    HW220853   3.985   1.185   8.876  0.2930  0.2869 -2.2898
 3131SOL     OW20854   3.717   0.551   2.551  0.2167  0.5574 -0.0287
 3131SOL    HW120855   3.804   0.589   2.567  0.9435 -0.5408 -1.4779
 3131SOL    HW220856   3.662   0.629   2.560 -0.5494  0.1260 -1.0459
 3132SOL     OW20857   4.598   1.618   4.723  0.5451 -0.4876  0.4156
 3132SOL    HW120858   4.576   1.555   4.655 -2.4381  0.9582  0.0681
 3132SOL    HW220859   4.531   1.607   4.790 -0.9816  0.1897 -1.0161
 3133SOL     OW20860   3.671   0.597   4.976 -0.4262  0.2987 -0.0183
 3133SOL    HW120861   3.659   0.509   4.939 -1.0625 -0.3782  1.8329
 3133SOL    HW220862   3.668   0.643   4.892  0.0858 -0.1441 -0.2818
 3134SOL     OW20863   4.417   1.165   4.078  0.2689 -0.1159 -0.2543
 3134SOL    HW120864   4.464   1.116   4.145  0.3142 -0.9624 -0.8930
 3134SOL    HW220865   4.400   1.098   4.011 -1.6529  2.1951 -2.0792
 3135SOL     OW20866   1.229   1.151   5.788  0.2847  0.0521 -0.4350
 3135SOL    HW120867   1.263   1.212   5.854  1.2377 -0.2404 -0.6529
 3135SOL    HW220868   1.138   1.180   5.781  0.0353 -0.9430 -1.3477
 3136SOL     OW20869   1.000   3.383   3.085 -0.6806 -0.4482 -0.6402
 3136SOL    HW120870   1.084   3.350   3.117 -0.7263 -0.2336 -0.2940
 3136SOL    HW220871   0.976   3.315   3.023 -1.7072 -0.4477 -0.2503
 3137SOL     OW20872   0.898   0.230   3.386  0.0441  0.1275 -0.3496
 3137SOL    HW120873   0.942   0.300   3.434  1.8628  0.2277 -2.1327
 3137SOL    HW220874   0.892   0.167   3.458 -2.0647  0.2990 -0.4024
 3138SOL     OW20875   2.208   1.956   3.939 -0.4015  0.3196 -0.1597
 3138SOL    HW120876   2.219   1.909   3.856  1.8533  1.4403 -0.4969
 3138SOL    HW220877   2.122   1.995   3.928 -0.8098 -0.5523 -0.0247
 3139SOL     OW20878   2.591   4.018   8.496  0.8992  0.0706  0.5630
 3139SOL    HW120879   2.615   4.092   8.552 -1.9897 -1.2310  3.5217
 3139SOL    HW220880   2.618   4.055   8.412  1.3222  0.7712  1.0102
 3140SOL     OW20881   2.758   3.622  10.892  0.6217  0.1066 -0.3177
 3140SOL    HW120882   2.705   3.697  10.920 -0.4912 -1.1067  0.8581
 3140SOL    HW220883   2.807   3.643  10.813  2.9508  0.3555  1.1783
 3141SOL     OW20884   3.963   4.299   9.670 -0.3014 -0.1094  0.0974
 3141SOL    HW120885   3.973   4.290   9.575  1.5901  1.3378  0.1699
 3141SOL    HW220886   4.056   4.310   9.690 -0.5698  1.1911  0.6040
 3142SOL     OW20887   0.178   2.371   8.297 -0.2646 -0.6374 -0.4359
 3142SOL    HW120888   0.190   2.279   8.320 -1.2301 -0.8140 -0.6413
 3142SOL    HW220889   0.118   2.356   8.225 -1.1544  1.9227 -0.2423
 3143SOL     OW20890   3.566   3.482   4.951  0.4434 -0.3596  0.0070
 3143SOL    HW120891   3.654   3.455   4.923  0.5052 -0.8792  0.7119
 3143SOL    HW220892   3.588   3.499   5.043  0.1015  3.3991 -0.5984
 3144SOL     OW20893   3.225   2.235  10.508  0.0493  0.2178 -0.0169
 3144SOL    HW120894   3.140   2.225  10.550  0.0729  0.1859  0.0241
 3144SOL    HW220895   3.291   2.208  10.572 -0.3142 -0.4615  0.0616
 3145SOL     OW20896   2.882   4.703   5.523 -0.0211  0.3465  0.1076
 3145SOL    HW120897   2.813   0.045   5.499 -2.1316 -1.8583  0.5557
 3145SOL    HW220898   2.834   4.632   5.565  0.2522 -1.4654 -2.6579
 3146SOL     OW20899   0.920   3.183   7.645  0.7824 -0.1590  0.1466
 3146SOL    HW120900   1.005   3.193   7.690 -0.5118  0.6637  2.4466
 3146SOL    HW220901   0.865   3.167   7.722  1.9022 -0.7487  0.8266
 3147SOL     OW20902   3.992   1.851   5.562  1.0417  0.2446  0.2589
 3147SOL    HW120903   4.024   1.903   5.635  1.5848  0.8089 -0.3751
 3147SOL    HW220904   4.007   1.762   5.592 -1.5572 -0.5570 -0.7742
 3148SOL     OW20905   0.012   0.438   8.697 -0.4071  0.2924  0.0548
 3148SOL    HW120906   0.051   0.356   8.666  0.2412  1.0463 -1.1478
 3148SOL    HW220907   0.014   0.417   8.790  1.8572  3.3603  0.7051
 3149SOL     OW20908   0.343   2.512  14.417  0.4861 -0.1768 -0.2976
 3149SOL    HW120909   0.437   2.516  14.436  0.6534 -0.7387 -1.0405
 3149SOL    HW220910   0.315   2.456  14.490 -1.2679 -0.9753 -1.5830
 3150SOL     OW20911   3.214   0.928   1.486 -0.1936  0.3663 -0.2292
 3150SOL    HW120912   3.175   0.841   1.496  1.7096 -0.6770 -1.9033
 3150SOL    HW220913   3.144   0.982   1.449 -1.2091 -1.1251 -0.4678
 3151SOL     OW20914   3.234   2.548   2.936 -0.8703 -0.0825  0.6977
 3151SOL    HW120915   3.146   2.512   2.931 -0.6819 -0.0437 -2.7478
 3151SOL    HW220916   3.276   2.508   2.860 -1.3266  2.5858 -0.9454
 3152SOL     OW20917   2.658   2.889   0.852 -0.4851  0.7663  0.2843
 3152SOL    HW120918   2.577   2.866   0.898 -0.4816  0.7964  0.3050
 3152SOL    HW220919   2.712   2.819   0.888  0.7609  0.7860 -1.5603
 3153SOL     OW20920   2.910   2.970   4.548  0.3019 -0.1745 -0.3258
 3153SOL    HW120921   2.989   3.022   4.533 -0.9161  0.6561 -3.9444
 3153SOL    HW220922   2.905   2.911   4.472 -0.3540 -1.7685  0.9699
 3154SOL     OW20923   4.447   4.418   9.169 -0.5283 -0.3473 -0.5456
 3154SOL    HW120924   4.484   4.497   9.131  0.2800  0.0830  1.1185
 3154SOL    HW220925   4.463   4.355   9.099  0.1923  2.6759 -3.0743
 3155SOL     OW20926   4.329   0.501   6.492 -0.2252  0.2926 -0.3357
 3155SOL    HW120927   4.356   0.591   6.474  1.9071 -0.4391 -0.8325
 3155SOL    HW220928   4.341   0.496   6.586  2.2212 -1.3770 -0.7270
 3156SOL     OW20929   1.253   2.815   9.340 -0.2007 -0.8486 -0.2593
 3156SOL    HW120930   1.184   2.882   9.345  2.2591  1.5964  1.0894
 3156SOL    HW220931   1.271   2.802   9.433 -0.0110  2.2842  0.1506
 3157SOL     OW20932   1.861   2.977   4.334 -0.1687  0.0597  0.0902
 3157SOL    HW120933   1.955   2.973   4.355 -0.0611 -0.2916 -0.4470
 3157SOL    HW220934   1.852   2.882   4.339  2.2194 -0.2138 -0.4584
 3158SOL     OW20935   4.611   4.498   0.035 -0.0114 -0.0731  0.4966
 3158SOL    HW120936   4.562   4.424  17.682  0.3008  0.3289 -0.7720
 3158SOL    HW220937   4.700   4.468   0.055  0.0383 -0.0230  0.3491
 3159SOL     OW20938   4.176   0.530  17.444  0.2995 -0.8746  0.0499
 3159SOL    HW120939   4.268   0.546  17.465  1.4491 -3.5435 -2.9436
 3159SOL    HW220940   4.129   0.539  17.527  2.1818 -1.1759  1.1479
 3160SOL     OW20941   2.434   1.115   5.457  0.1048 -0.3697  0.2003
 3160SOL    HW120942   2.472   1.201   5.472  0.8913 -1.1976  2.8689
 3160SOL    HW220943   2.348   1.136   5.494 -0.3919 -1.1648 -0.4880
 3161SOL     OW20944   1.781   0.940  15.132 -0.1902  0.0249  0.0268
 3161SOL    HW120945   1.734   1.007  15.082 -0.2665  1.4355  2.0081
 3161SOL    HW220946   1.711   0.876  15.144  0.8401 -1.5932 -2.6608
 3162SOL     OW20947   2.193   3.694   1.899 -0.3438  0.0704  0.1676
 3162SOL    HW120948   2.257   3.685   1.828  0.9054 -0.0815  1.3171
 3162SOL    HW220949   2.238   3.640   1.964 -0.4750 -1.6645 -1.1609
 3163SOL     OW20950   3.053   2.715  17.045 -0.3533 -1.1535 -0.4093
 3163SOL    HW120951   2.979   2.776  17.041  0.1306 -0.7348 -2.6449
 3163SOL    HW220952   3.037   2.672  17.129 -1.5175 -0.7941 -0.4450
 3164SOL     OW20953   1.152   3.511   2.841  0.0165  0.6978 -0.3424
 3164SOL    HW120954   1.105   3.585   2.803  0.5753  0.2796 -1.8317
 3164SOL    HW220955   1.098   3.498   2.919 -0.3010  1.4851 -0.4359
 3165SOL     OW20956   0.266   0.542   8.016  0.4579  0.4768  0.1003
 3165SOL    HW120957   0.315   0.614   8.055 -1.4545  1.7299  0.1896
 3165SOL    HW220958   0.184   0.589   7.999 -0.8554 -1.8938 -0.1044
 3166SOL     OW20959   4.190   3.367   5.031 -0.0284  0.2568  0.1507
 3166SOL    HW120960   4.157   3.418   5.105 -0.8139  1.1252 -0.7905
 3166SOL    HW220961   4.212   3.435   4.968 -0.2661  1.3936  1.2845
 3167SOL     OW20962   3.618   3.706  14.652  0.1104  0.3100  0.4623
 3167SOL    HW120963   3.679   3.740  14.717 -0.0036 -1.6452  1.5919
 3167SOL    HW220964   3.587   3.791  14.621  0.6222 -0.0106 -0.9306
 3168SOL     OW20965   3.198   2.412   6.375  0.3360  0.3845  0.8129
 3168SOL    HW120966   3.251   2.333   6.384  0.4497  0.3166 -0.5234
 3168SOL    HW220967   3.184   2.426   6.469 -1.9890 -1.4587  0.7537
 3169SOL     OW20968   3.334   3.961   1.966  0.0872 -0.3614 -0.3116
 3169SOL    HW120969   3.302   3.968   2.056  1.1934  0.1525  0.0457
 3169SOL    HW220970   3.293   3.878   1.942  0.9183 -0.4661 -1.3824
 3170SOL     OW20971   1.188   3.030   0.776  0.9786  0.2455  0.0164
 3170SOL    HW120972   1.164   3.087   0.849  0.5014 -1.3542  1.1146
 3170SOL    HW220973   1.169   2.944   0.814  0.3728  0.1931 -0.4141
 3171SOL     OW20974   3.010   3.197   1.549 -0.9330 -0.1291 -0.3463
 3171SOL    HW120975   2.948   3.125   1.551 -1.6811  0.5748  1.5669
 3171SOL    HW220976   3.080   3.170   1.608 -0.0044 -0.9369 -1.8132
 3172SOL     OW20977   3.488   3.129   9.974  0.3025  0.2338 -0.3931
 3172SOL    HW120978   3.436   3.058  10.013 -0.2861  0.1016 -1.4254
 3172SOL    HW220979   3.455   3.210  10.012  0.3050 -0.3482  0.8759
 3173SOL     OW20980   0.781   0.981   3.427  0.0112 -0.1604 -0.5081
 3173SOL    HW120981   0.791   1.070   3.461 -1.5294 -0.3962  0.5840
 3173SOL    HW220982   0.720   0.988   3.354 -1.1019  1.2426  0.5553
 3174SOL     OW20983   4.352   4.510   7.565  0.4059  0.4938 -0.0719
 3174SOL    HW120984   4.360   4.586   7.624  0.2810 -2.2524  3.5187
 3174SOL    HW220985   4.261   4.485   7.577  1.3862 -2.3057  1.5054
 3175SOL     OW20986   4.307   4.383   4.900  0.3288  0.6974  0.5469
 3175SOL    HW120987   4.328   4.298   4.939  2.6966 -0.6098 -3.5944
 3175SOL    HW220988   4.275   4.367   4.811  0.0626  2.9628  0.2315
 3176SOL     OW20989   2.135   1.015   3.258 -0.2903  0.2092  0.0453
 3176SOL    HW120990   2.128   1.101   3.300  1.6521  0.3866  0.0293
 3176SOL    HW220991   2.069   0.964   3.305 -2.0339  0.9391 -1.6269
 3177SOL     OW20992   1.749   3.440   7.214  0.5482 -0.5624 -0.1403
 3177SOL    HW120993   1.723   3.532   7.211  1.9520 -0.1465  0.6404
 3177SOL    HW220994   1.821   3.444   7.277 -0.1159 -0.4188  0.6143
 3178SOL     OW20995   1.974   0.811  14.445  0.1862  0.2342 -0.1475
 3178SOL    HW120996   1.959   0.905  14.455 -1.1396 -0.0271  0.3303
 3178SOL    HW220997   2.029   0.809  14.367 -1.3033 -2.2906 -1.1213
 3179SOL     OW20998   0.773   2.232   7.723  0.6511  0.0180 -0.3412
 3179SOL    HW120999   0.832   2.199   7.790 -0.1152  0.5730  0.6006
 3179SOL    HW221000   0.824   2.211   7.645  2.5482 -0.7449  1.0972
 3180SOL     OW21001   1.811   1.913  11.720  0.7151 -0.1339 -0.0160
 3180SOL    HW121002   1.890   1.925  11.773  1.6354 -1.1243 -1.1385
 3180SOL    HW221003   1.850   1.864  11.647  1.8297  1.4458 -0.4888
 3181SOL     OW21004   2.342   1.085   6.822  0.7575  0.2237  0.0890
 3181SOL    HW121005   2.430   1.121   6.826  1.3626 -1.3937  1.1738
 3181SOL    HW221006   2.355   1.034   6.742  1.5148 -1.6723  1.4120
 3182SOL     OW21007   1.204   1.744   4.716  0.3798 -0.1879  0.1670
 3182SOL    HW121008   1.209   1.821   4.660  0.5638 -0.2996  0.0314
 3182SOL    HW221009   1.290   1.738   4.756  0.0786  1.0795  0.9823
 3183SOL     OW21010   3.802   3.011  12.871 -0.3916  0.3144  0.2685
 3183SOL    HW121011   3.765   2.925  12.893 -0.6953  0.0080 -1.4826
 3183SOL    HW221012   3.723   3.054  12.836 -1.0610 -1.6430 -0.6437
 3184SOL     OW21013   0.385   2.958  10.756  0.1318  0.3127 -0.1010
 3184SOL    HW121014   0.405   3.044  10.719  0.7284 -0.5051 -1.6802
 3184SOL    HW221015   0.305   2.982  10.802  0.3707 -1.3763  1.1799
 3185SOL     OW21016   2.158   0.645  10.202  0.3557 -0.2573  0.1784
 3185SOL    HW121017   2.095   0.674  10.268 -0.1120  0.9265 -0.7908
 3185SOL    HW221018   2.131   0.685  10.119  0.8426  0.7329  0.5019
 3186SOL     OW21019   1.801   4.262  14.726  0.0906 -0.2282  0.0736
 3186SOL    HW121020   1.714   4.231  14.701 -0.1238  0.7058 -0.3557
 3186SOL    HW221021   1.810   4.250  14.821 -1.0108 -0.6981  0.1120
 3187SOL     OW21022   2.126   1.533  10.831  0.0006  0.0131 -0.3443
 3187SOL    HW121023   2.192   1.574  10.887 -0.5463  1.3101 -0.6466
 3187SOL    HW221024   2.179   1.492  10.763 -0.5644  0.5152 -1.0970
 3188SOL     OW21025   3.442   3.089  12.463 -0.4844 -0.1096  0.1813
 3188SOL    HW121026   3.462   3.148  12.391 -1.2580 -2.3844 -1.9036
 3188SOL    HW221027   3.513   3.026  12.456 -1.1273 -0.7519 -0.5792
 3189SOL     OW21028   0.895   3.990  17.423  0.2902 -0.2347  0.4693
 3189SOL    HW121029   0.981   4.026  17.399 -0.2492 -1.3334 -3.1482
 3189SOL    HW221030   0.867   4.052  17.490  0.2592  2.2384 -1.8097
 3190SOL     OW21031   4.635   3.025   5.955  0.1917  0.2185  0.2841
 3190SOL    HW121032   4.606   2.939   5.923  0.9494 -0.2327  0.8137
 3190SOL    HW221033   4.621   3.011   6.049 -1.3741  0.2539  0.0570
 3191SOL     OW21034   4.475   2.533   3.134 -0.0717 -0.0739  0.1001
 3191SOL    HW121035   4.387   2.569   3.127 -0.4673 -0.8994  0.7309
 3191SOL    HW221036   4.516   2.574   3.059  1.0642  1.9604  1.8199
 3192SOL     OW21037   3.813   3.499   3.599  0.3750  0.3153  0.0736
 3192SOL    HW121038   3.786   3.556   3.527 -0.8972  1.0541  1.1520
 3192SOL    HW221039   3.777   3.417   3.563 -1.2930  1.7064 -1.4220
 3193SOL     OW21040   0.972   2.307   0.369  0.3021 -0.0414 -0.5752
 3193SOL    HW121041   1.046   2.342   0.319  0.2693  1.7830  0.6411
 3193SOL    HW221042   0.981   2.216   0.343  0.4523 -0.0535 -0.4806
 3194SOL     OW21043   2.606   2.562   7.644  0.0257 -0.6829 -0.0891
 3194SOL    HW121044   2.606   2.472   7.677 -0.5625 -0.5624  0.2299
 3194SOL    HW221045   2.672   2.600   7.702 -0.4041  0.2023 -0.1834
 3195SOL     OW21046   3.317   3.295  10.630  0.3915  0.0636  0.2823
 3195SOL    HW121047   3.262   3.217  10.620  2.4147 -1.0991 -1.6117
 3195SOL    HW221048   3.404   3.256  10.641 -0.6687 -1.1244  4.5059
 3196SOL     OW21049   3.787   4.138   8.025 -0.2748 -0.1164 -0.1058
 3196SOL    HW121050   3.764   4.146   8.118 -0.9328 -0.5004 -0.2371
 3196SOL    HW221051   3.861   4.077   8.030 -0.2851 -0.0889  0.4289
 3197SOL     OW21052   0.815   2.518  15.669  0.3671 -0.1390  0.1840
 3197SOL    HW121053   0.824   2.611  15.692  0.4744 -0.7141  2.4714
 3197SOL    HW221054   0.775   2.481  15.748 -0.1617  1.3960  0.6484
 3198SOL     OW21055   1.546   2.321   5.728 -0.3593 -0.1330 -0.2393
 3198SOL    HW121056   1.635   2.321   5.692 -0.0922  0.4980  0.4310
 3198SOL    HW221057   1.505   2.352   5.647 -0.4393 -0.1906 -0.2217
 3199SOL     OW21058   0.779   3.073   3.815  0.1286  0.1977 -0.3830
 3199SOL    HW121059   0.764   3.140   3.749  0.5611 -1.0910 -1.7845
 3199SOL    HW221060   0.705   3.016   3.794 -0.3776  1.5295 -2.1560
 3200SOL     OW21061   1.240   3.752   6.915 -0.1570 -0.3143 -0.2734
 3200SOL    HW121062   1.289   3.694   6.973  0.3395 -1.7081 -2.0815
 3200SOL    HW221063   1.239   3.717   6.826 -0.4431  2.0387 -1.2007
 3201SOL     OW21064   3.921   3.805  11.953  0.0326 -0.2988 -0.2655
 3201SOL    HW121065   3.914   3.782  11.860 -1.0870  1.0746 -0.5218
 3201SOL    HW221066   3.840   3.853  11.968 -2.0629 -3.9795 -0.0788
 3202SOL     OW21067   0.018   4.304   7.817 -0.0210  0.3148  0.6866
 3202SOL    HW121068   4.704   4.263   7.896  1.0236 -0.0592  0.9334
 3202SOL    HW221069   4.662   4.300   7.759  1.4787  2.8883 -1.4761
 3203SOL     OW21070   0.553   3.825  11.907 -0.6153 -0.2073  0.0068
 3203SOL    HW121071   0.463   3.851  11.925 -0.2526  0.2994  1.1124
 3203SOL    HW221072   0.558   3.840  11.812 -0.2194 -0.2444  0.0206
 3204SOL     OW21073   2.527   1.382  15.229 -0.2628 -0.4564 -0.5887
 3204SOL    HW121074   2.598   1.429  15.273 -0.5421 -0.1685 -0.4455
 3204SOL    HW221075   2.559   1.378  15.139  1.3719  0.7018 -0.0445
 3205SOL     OW21076   0.580   2.329  15.462  0.4747 -0.4085 -0.6352
 3205SOL    HW121077   0.523   2.343  15.537 -1.3363 -1.0562 -1.8800
 3205SOL    HW221078   0.669   2.339  15.497  0.5152 -0.1197 -0.8171
 3206SOL     OW21079   3.293   1.472   6.730 -0.0108 -0.0319  0.6706
 3206SOL    HW121080   3.291   1.535   6.802 -0.1524  0.5564  0.1505
 3206SOL    HW221081   3.340   1.394   6.761  0.6173  0.3039  0.5613
 3207SOL     OW21082   4.381   4.709   1.949 -0.8398 -0.0683 -0.6506
 3207SOL    HW121083   4.342   0.075   1.960  1.1486  0.7917 -0.3511
 3207SOL    HW221084   4.374   4.693   2.044  0.8585  0.1513 -0.4787
 3208SOL     OW21085   0.383   0.448   8.354  0.2516 -0.1799 -0.6586
 3208SOL    HW121086   0.433   0.436   8.273  0.2252 -1.4035 -0.4939
 3208SOL    HW221087   0.357   0.540   8.348  2.0032  0.3577  0.0106
 3209SOL     OW21088   0.022   1.345  17.288  0.3212 -0.2706 -0.0430
 3209SOL    HW121089   0.085   1.343  17.361 -1.5240  0.8041  1.5912
 3209SOL    HW221090   0.050   1.427  17.249  0.8211  0.0477  0.9675
 3210SOL     OW21091   1.938   4.640   7.336 -0.2068 -0.0800  0.3855
 3210SOL    HW121092   1.901   4.590   7.263 -0.1369 -0.8228  0.8513
 3210SOL    HW221093   1.886   0.000   7.329  1.9497  1.4623  2.1014
 3211SOL     OW21094   0.751   3.971  15.251  0.1596  0.1176  0.2217
 3211SOL    HW121095   0.795   3.992  15.169  0.2131  1.4653  0.6108
 3211SOL    HW221096   0.668   3.950  15.208  0.9930  1.3864 -2.0323
 3212SOL     OW21097   4.067   2.385   4.352  0.1537  0.0987 -0.1568
 3212SOL    HW121098   4.100   2.469   4.384  0.3867 -0.5602  1.3232
 3212SOL    HW221099   4.146   2.332   4.345 -0.5225 -1.0322  0.6621
 3213SOL     OW21100   3.602   3.550  16.033  0.1103  1.2012  0.1637
 3213SOL    HW121101   3.553   3.582  16.108  1.3681 -0.2271  1.5756
 3213SOL    HW221102   3.636   3.632  15.997 -0.3886  2.1956  1.9694
 3214SOL     OW21103   3.046   0.264   6.191  0.1437  0.1121 -0.1660
 3214SOL    HW121104   3.006   0.328   6.131 -1.3167 -1.9542 -1.3892
 3214SOL    HW221105   2.974   0.204   6.174 -1.5903  1.7652  1.2472
 3215SOL     OW21106   0.189   3.752   2.718 -0.2993  0.2278  0.3220
 3215SOL    HW121107   0.143   3.817   2.665 -0.1039  0.5101  0.4983
 3215SOL    HW221108   0.276   3.792   2.708  0.1023 -0.6803  0.1608
 3216SOL     OW21109   3.052   1.319   4.386  0.4463 -0.0241 -0.3634
 3216SOL    HW121110   3.003   1.237   4.386 -1.3436  1.0367  2.7694
 3216SOL    HW221111   3.017   1.355   4.468  2.1876 -1.4907  1.0209
 3217SOL     OW21112   0.600   3.565   3.398  0.0668  0.1715 -0.0787
 3217SOL    HW121113   0.676   3.519   3.362 -0.6799 -2.5222  1.7521
 3217SOL    HW221114   0.621   3.565   3.492 -1.9115 -1.1724  0.3816
 3218SOL     OW21115   2.658   2.691   1.974 -0.1735 -0.1257  0.3395
 3218SOL    HW121116   2.585   2.650   2.020  0.3724 -0.3132  1.0470
 3218SOL    HW221117   2.616   2.751   1.912  0.8622 -0.4827 -0.6973
 3219SOL     OW21118   0.147   0.465   2.201  0.1015  0.6037 -0.1484
 3219SOL    HW121119   0.118   0.493   2.114 -0.8367 -2.2526 -0.7528
 3219SOL    HW221120   0.201   0.538   2.234  1.5049 -0.8921  0.8766
 3220SOL     OW21121   0.820   3.588   2.673  0.1791  0.4070  0.1459
 3220SOL    HW121122   0.765   3.663   2.695 -1.3489 -0.5609 -0.3926
 3220SOL    HW221123   0.854   3.583   2.762  1.7080  1.4549 -0.3609
 3221SOL     OW21124   3.713   3.264   8.067 -0.1678 -0.2753 -0.2144
 3221SOL    HW121125   3.761   3.345   8.050 -1.5495  0.5520 -0.2280
 3221SOL    HW221126   3.684   3.286   8.156  2.2605 -0.2905  0.5841
 3222SOL     OW21127   0.269   2.161   1.782  0.7553 -0.2119  0.0971
 3222SOL    HW121128   0.243   2.203   1.700 -2.1612 -2.9097 -0.3723
 3222SOL    HW221129   0.182   2.162   1.824  0.8131  0.0089  0.2130
 3223SOL     OW21130   0.207   4.138   4.238 -0.0879  0.3031  0.4021
 3223SOL    HW121131   0.214   4.043   4.248  0.4359  0.0078 -2.7672
 3223SOL    HW221132   0.287   4.176   4.273  1.1131 -2.2655  0.4979
 3224SOL     OW21133   2.603   2.925  17.183 -0.4796  0.3468  0.2190
 3224SOL    HW121134   2.588   3.011  17.221 -0.9228  1.3649 -2.2799
 3224SOL    HW221135   2.513   2.906  17.154 -0.4663 -0.0786  0.4498
 3225SOL     OW21136   1.847   3.999  13.531  0.2879  0.2248 -0.2387
 3225SOL    HW121137   1.932   4.014  13.488 -0.3391  0.4265 -1.4216
 3225SOL    HW221138   1.801   3.963  13.455  0.6564  1.6399 -1.1561
 3226SOL     OW21139   1.700   2.519   3.156  0.7284 -0.2279 -0.0909
 3226SOL    HW121140   1.631   2.585   3.162 -0.1863 -1.0412 -1.8200
 3226SOL    HW221141   1.710   2.507   3.062  1.8067  0.0285 -0.0172
 3227SOL     OW21142   2.313   3.269   6.163 -0.0612 -0.2158 -0.0732
 3227SOL    HW121143   2.378   3.245   6.230 -1.1594 -1.6486  0.4740
 3227SOL    HW221144   2.259   3.190   6.167  0.2917 -0.3931  1.3451
 3228SOL     OW21145   2.563   3.332   9.075  0.1664  0.1977 -0.3150
 3228SOL    HW121146   2.484   3.370   9.038  0.1127  1.2901  0.9163
 3228SOL    HW221147   2.599   3.406   9.123 -0.7588  0.3645  0.1034
 3229SOL     OW21148   2.101   2.818   1.190 -0.2561 -0.4555  0.1848
 3229SOL    HW121149   2.115   2.787   1.100  0.3307 -0.7412  0.3746
 3229SOL    HW221150   2.068   2.736   1.226  1.3488 -0.7439  0.9985
 3230SOL     OW21151   1.730   2.021   5.568 -0.4517 -0.2077  0.6224
 3230SOL    HW121152   1.718   1.981   5.654  1.9842  0.0053  1.0590
 3230SOL    HW221153   1.767   2.106   5.589  0.1975 -0.6092  1.1058
 3231SOL     OW21154   2.216   2.134   3.660 -0.2797  0.3651  0.2742
 3231SOL    HW121155   2.218   2.200   3.591  2.6691 -1.8265 -1.7223
 3231SOL    HW221156   2.303   2.095   3.667 -0.1149  0.4467 -1.4028
 3232SOL     OW21157   4.048   0.961   6.714 -0.0573 -0.1858 -0.3084
 3232SOL    HW121158   4.081   0.951   6.625  0.2969 -1.0963 -0.0760
 3232SOL    HW221159   4.022   0.872   6.739 -0.6832  0.6217  1.8715
 3233SOL     OW21160   2.399   4.127   8.047 -0.5137  0.3384 -0.2778
 3233SOL    HW121161   2.308   4.100   8.030  1.3069 -4.1078 -2.7350
 3233SOL    HW221162   2.388   4.220   8.066  0.9196  0.4250  0.1231
 3234SOL     OW21163   2.818   0.419   3.002 -0.0867  0.2459  0.1619
 3234SOL    HW121164   2.771   0.402   3.084 -1.2224 -2.4045 -1.0502
 3234SOL    HW221165   2.774   0.361   2.940  0.1836 -0.5545  0.7187
 3235SOL     OW21166   4.135   4.365   0.347 -0.0826  0.0264 -0.6324
 3235SOL    HW121167   4.213   4.310   0.353 -0.6977 -0.8951 -1.2219
 3235SOL    HW221168   4.073   4.305   0.389  0.1178 -0.8588 -1.6099
 3236SOL     OW21169   2.516   3.207   2.247  0.0806 -0.1223 -0.4703
 3236SOL    HW121170   2.496   3.285   2.298  1.4864 -1.8155  2.6978
 3236SOL    HW221171   2.578   3.161   2.305 -0.4794 -0.1628  0.0996
 3237SOL     OW21172   1.929   2.345   0.656  0.6674  0.2088  0.5714
 3237SOL    HW121173   1.901   2.258   0.629  0.2809  0.0829  1.3919
 3237SOL    HW221174   1.968   2.373   0.573 -1.8298  0.9345 -0.3732
 3238SOL     OW21175   1.699   3.145   4.790 -0.0087  0.3842  0.1132
 3238SOL    HW121176   1.616   3.182   4.760  0.2014  2.2343  1.7839
 3238SOL    HW221177   1.746   3.143   4.707  2.2411  2.2589  1.3240
 3239SOL     OW21178   1.639   2.206   4.722 -0.8548  0.1842 -0.3000
 3239SOL    HW121179   1.564   2.259   4.751 -1.3680 -0.5245 -0.3432
 3239SOL    HW221180   1.677   2.268   4.659  0.2121  0.8954  1.0677
 3240SOL     OW21181   3.888   4.094  10.197  0.0047 -0.1509 -0.0492
 3240SOL    HW121182   3.957   4.137  10.249 -0.1393 -0.1155  0.1111
 3240SOL    HW221183   3.831   4.161  10.160  0.6579  0.7156  0.4823
 3241SOL     OW21184   4.108   2.123   8.016 -0.6292  0.0499 -0.4515
 3241SOL    HW121185   4.117   2.182   8.091 -3.9921  0.7544 -0.5902
 3241SOL    HW221186   4.142   2.042   8.054 -1.6453  0.1894  0.7334
 3242SOL     OW21187   1.143   3.310  17.226 -0.3087  0.0825 -0.4060
 3242SOL    HW121188   1.103   3.393  17.201  0.2470 -0.0272 -1.6936
 3242SOL    HW221189   1.216   3.302  17.165  1.4821  0.1296  1.7347
 3243SOL     OW21190   0.743   0.973  14.250  0.1391  0.1239 -0.5070
 3243SOL    HW121191   0.814   0.933  14.199 -0.9703 -1.8828 -0.4795
 3243SOL    HW221192   0.665   0.925  14.223 -1.3836  1.2136  2.0173
 3244SOL     OW21193   0.894   3.415   4.084 -0.6145 -0.1373 -0.2405
 3244SOL    HW121194   0.819   3.355   4.076 -1.5572  1.2000 -1.5273
 3244SOL    HW221195   0.915   3.408   4.177  1.4806 -0.3844 -0.7284
 3245SOL     OW21196   3.027   0.700   2.583 -0.0516 -0.3081 -0.1719
 3245SOL    HW121197   3.058   0.619   2.625  0.6051 -0.6528 -1.3211
 3245SOL    HW221198   2.966   0.664   2.520  0.3975  0.1996 -0.8985
 3246SOL     OW21199   1.188   1.468   2.093 -0.1785  0.0846 -0.0160
 3246SOL    HW121200   1.282   1.483   2.088 -0.0352 -0.7913 -0.0156
 3246SOL    HW221201   1.194   1.390   2.149 -0.0726  0.5904  0.6694
 3247SOL     OW21202   2.776   3.913   4.100  0.5947  0.0047  0.3191
 3247SOL    HW121203   2.843   3.980   4.085  0.2905  0.1974 -0.1597
 3247SOL    HW221204   2.731   3.924   4.017 -0.3974  0.2528  0.8971
 3248SOL     OW21205   2.557   3.255   4.894  0.8338  0.1404  0.0519
 3248SOL    HW121206   2.650   3.254   4.873  0.7795  2.0751 -0.3422
 3248SOL    HW221207   2.522   3.311   4.824  0.5693 -0.5898 -0.3922
 3249SOL     OW21208   0.609   2.328   4.481 -0.0756 -0.5629  0.4161
 3249SOL    HW121209   0.533   2.381   4.506  0.8945  0.9893  0.0687
 3249SOL    HW221210   0.652   2.347   4.564 -0.6680  2.6162 -0.0092
 3250SOL     OW21211   1.116   2.950  10.168  0.4101 -0.4758 -0.3526
 3250SOL    HW121212   1.140   2.875  10.223 -0.1119 -0.6307 -0.3354
 3250SOL    HW221213   1.174   2.945  10.092  0.0564 -1.0787 -0.5765
 3251SOL     OW21214   1.949   3.896   4.131  0.5344  0.2863 -0.0194
 3251SOL    HW121215   1.925   3.971   4.076  1.0589  0.3130 -0.2176
 3251SOL    HW221216   2.024   3.867   4.079 -0.5088 -0.7486 -0.9578
 3252SOL     OW21217   1.115   3.099   2.784  0.1585  0.3774 -0.6046
 3252SOL    HW121218   1.072   3.024   2.741 -0.1384  1.6214 -2.5049
 3252SOL    HW221219   1.043   3.162   2.792  0.1599  0.0810  1.6823
 3253SOL     OW21220   0.070   0.214   9.418  0.0204  0.3446 -0.3788
 3253SOL    HW121221   0.156   0.244   9.448  0.3966 -1.7350  0.6211
 3253SOL    HW221222   0.024   0.296   9.434  0.2318  0.7475 -1.8532
 3254SOL     OW21223   1.897   1.213   8.662  0.4947 -0.3623 -0.5295
 3254SOL    HW121224   1.900   1.250   8.574  0.7062  0.4592 -0.1793
 3254SOL    HW221225   1.925   1.122   8.657  0.2301 -0.4594 -0.2928
 3255SOL     OW21226   3.339   4.019   5.058  0.0153 -0.1157  0.6169
 3255SOL    HW121227   3.382   4.009   4.973 -1.5409  0.3986 -0.2371
 3255SOL    HW221228   3.413   4.041   5.114  0.2091  2.1738 -0.5512
 3256SOL     OW21229   1.515   1.196   2.059  0.0708 -0.4243  0.2035
 3256SOL    HW121230   1.524   1.122   2.120  0.8012 -0.0577  0.5404
 3256SOL    HW221231   1.449   1.168   1.996  1.0062 -1.3544 -0.3644
 3257SOL     OW21232   0.300   0.688   2.268  0.3540 -0.2671  0.1895
 3257SOL    HW121233   0.331   0.756   2.207 -0.4523  0.6043  0.7438
 3257SOL    HW221234   0.263   0.732   2.344 -2.4009 -2.2290 -0.0349
 3258SOL     OW21235   0.951   2.051   1.431  0.3961  0.2762 -0.2424
 3258SOL    HW121236   1.025   2.069   1.372  0.7922  1.2523  0.5522
 3258SOL    HW221237   0.965   1.965   1.468 -1.7244  0.2663  0.5329
 3259SOL     OW21238   1.266   3.342   7.932 -0.2907  0.3946 -0.0052
 3259SOL    HW121239   1.360   3.336   7.949 -0.4152  2.2571  1.2632
 3259SOL    HW221240   1.237   3.418   7.981 -0.8876  0.2263 -0.0988
 3260SOL     OW21241   1.855   3.902  14.210  0.3628 -0.0920  0.0846
 3260SOL    HW121242   1.816   3.948  14.284 -0.2482  0.7386 -0.7527
 3260SOL    HW221243   1.774   3.881  14.163 -0.1133  0.7856  0.5292
 3261SOL     OW21244   0.071   2.422   5.324  0.2465 -0.2537  0.2237
 3261SOL    HW121245   0.011   2.455   5.257 -0.7071 -2.3397  0.0351
 3261SOL    HW221246   0.059   2.489   5.392  1.1312 -0.4179  0.5375
 3262SOL     OW21247   4.317   0.259   3.891 -0.8551 -0.2224  0.3358
 3262SOL    HW121248   4.312   0.187   3.953  3.0596 -2.4511 -1.9475
 3262SOL    HW221249   4.234   0.258   3.843 -1.1384 -1.7735  0.8583
 3263SOL     OW21250   1.852   3.389  12.360 -0.2753  0.2411  0.4953
 3263SOL    HW121251   1.908   3.406  12.435 -0.1661 -0.5198  0.5770
 3263SOL    HW221252   1.771   3.355  12.398  0.0012  0.4601  1.2839
 3264SOL     OW21253   3.511   3.416   5.937  0.0239 -0.2542 -0.2983
 3264SOL    HW121254   3.606   3.425   5.944 -0.2988 -0.1146  3.5388
 3264SOL    HW221255   3.488   3.367   6.016  0.2283  0.5318  0.2452
 3265SOL     OW21256   0.031   1.339   3.533  0.1528  0.2378 -0.2567
 3265SOL    HW121257   0.024   1.370   3.623 -1.6719 -2.4241  0.5215
 3265SOL    HW221258   0.051   1.423   3.491  1.2660 -0.5801 -1.3405
 3266SOL     OW21259   0.439   1.484   1.944  0.0745  0.0842 -0.2224
 3266SOL    HW121260   0.409   1.415   1.885  1.4379  0.0339 -0.8669
 3266SOL    HW221261   0.443   1.548   1.873  3.5436  1.3954  1.1325
 3267SOL     OW21262   3.020   2.868  14.302  0.0796  0.0205 -0.2500
 3267SOL    HW121263   3.105   2.908  14.286 -0.6606  1.5513 -0.3808
 3267SOL    HW221264   3.043   2.802  14.367  3.3962  0.2515 -1.2185
 3268SOL     OW21265   3.636   3.301  15.364  0.4831  0.0675  0.4617
 3268SOL    HW121266   3.582   3.379  15.372 -0.3728 -0.6068  1.1567
 3268SOL    HW221267   3.635   3.279  15.271  2.3285 -0.7908  0.6356
 3269SOL     OW21268   0.132   1.180   2.892 -0.0149 -0.4574  0.0233
 3269SOL    HW121269   0.040   1.154   2.888  0.2669 -1.4532 -0.0479
 3269SOL    HW221270   0.122   1.272   2.914  0.2847  0.0292 -1.8691
 3270SOL     OW21271   3.808   0.659   3.988 -0.1062  0.4747  0.4897
 3270SOL    HW121272   3.731   0.641   4.042 -0.9036  2.2621 -0.0442
 3270SOL    HW221273   3.840   0.747   4.010  0.0814  0.5498 -0.1025
 3271SOL     OW21274   0.345   0.613   3.630  0.0732 -0.2195  0.0457
 3271SOL    HW121275   0.289   0.630   3.706  2.6509  1.1179  1.6401
 3271SOL    HW221276   0.371   0.702   3.607  1.8348 -0.4986  0.9849
 3272SOL     OW21277   0.980   0.632  12.668  0.1428  0.2182  0.2419
 3272SOL    HW121278   0.895   0.675  12.663 -0.0732  0.2110  3.6649
 3272SOL    HW221279   1.026   0.698  12.720  1.5875 -0.2693 -0.4214
 3273SOL     OW21280   1.838   3.280  13.925 -0.0279  0.4536  1.0734
 3273SOL    HW121281   1.786   3.219  13.977 -0.7320 -0.1111 -0.3038
 3273SOL    HW221282   1.916   3.284  13.982  0.6569 -0.2885  0.1842
 3274SOL     OW21283   2.008   3.603  13.044 -0.5421  0.0346 -0.4584
 3274SOL    HW121284   2.087   3.586  13.097  0.1173  0.8058 -1.1888
 3274SOL    HW221285   1.958   3.523  13.056 -1.0653  0.2959 -0.8985
 3275SOL     OW21286   3.447   1.391   1.881 -0.4012 -0.3892  0.0104
 3275SOL    HW121287   3.403   1.436   1.809 -1.0976  3.9560  3.2070
 3275SOL    HW221288   3.385   1.318   1.886 -1.7094  0.7381  0.3639
 3276SOL     OW21289   3.123   2.036  10.763 -0.0909 -0.6447  0.1873
 3276SOL    HW121290   3.049   2.091  10.789  1.1418  0.6755  0.9034
 3276SOL    HW221291   3.083   1.962  10.718 -0.0804  0.0300 -0.9219
 3277SOL     OW21292   3.188   1.016   6.838 -0.6024 -0.0800  0.3753
 3277SOL    HW121293   3.176   1.111   6.836  1.0629  0.0510 -2.3043
 3277SOL    HW221294   3.215   0.990   6.926  2.1458 -1.8584 -1.0156
 3278SOL     OW21295   1.401   2.267   0.096 -0.1456 -0.0864 -0.4802
 3278SOL    HW121296   1.353   2.255   0.015 -0.2109  1.8315 -0.7258
 3278SOL    HW221297   1.471   2.202   0.089 -0.5462 -0.4313 -1.2257
 3279SOL     OW21298   0.839   2.583   5.380 -0.5620  0.1913  0.4625
 3279SOL    HW121299   0.814   2.491   5.371  1.4346 -0.3057 -0.1391
 3279SOL    HW221300   0.902   2.598   5.309 -0.1917 -0.2756  0.6864
 3280SOL     OW21301   3.114   2.862  14.777 -0.4631 -0.1110  0.1903
 3280SOL    HW121302   3.208   2.879  14.771 -0.1030 -2.2092  0.1210
 3280SOL    HW221303   3.093   2.826  14.691 -1.4972  1.3708 -0.1798
 3281SOL     OW21304   1.243   4.458  13.326  0.6262  0.3895 -0.0900
 3281SOL    HW121305   1.314   4.439  13.264  2.1748  1.7776  1.2856
 3281SOL    HW221306   1.291   4.422  13.401 -0.7933 -2.0655 -0.3431
 3282SOL     OW21307   2.414   1.697  16.127  0.1764  0.1519  0.4880
 3282SOL    HW121308   2.490   1.691  16.069 -0.6467  1.3126 -0.7161
 3282SOL    HW221309   2.407   1.792  16.138 -0.1428  0.3008 -0.9738
 3283SOL     OW21310   0.158   3.971   2.291 -0.3908  0.0563 -0.3656
 3283SOL    HW121311   0.171   4.055   2.248 -2.9953  1.7949  2.2960
 3283SOL    HW221312   0.109   3.929   2.220 -0.6600  0.2086 -0.2666
 3284SOL     OW21313   1.466   3.834   0.370 -0.2473  0.1113  0.0887
 3284SOL    HW121314   1.413   3.911   0.390  0.9787  0.8522  0.4846
 3284SOL    HW221315   1.509   3.874   0.295 -1.1989  1.6261  0.3495
 3285SOL     OW21316   4.255   0.949   4.638 -0.1993 -0.2406  0.0578
 3285SOL    HW121317   4.193   0.882   4.610  0.9620 -1.3103  0.0584
 3285SOL    HW221318   4.196   1.024   4.645 -0.0074 -0.0063 -0.8719
 3286SOL     OW21319   0.454   2.756   8.991 -0.2876  0.0532  0.0918
 3286SOL    HW121320   0.420   2.739   9.079 -0.2281 -3.2480 -0.5519
 3286SOL    HW221321   0.521   2.689   8.983  0.8363  1.1902 -0.1156
 3287SOL     OW21322   3.412   1.504  12.344 -0.2404  0.2031 -0.8161
 3287SOL    HW121323   3.462   1.574  12.302  1.6617 -1.2247 -0.9254
 3287SOL    HW221324   3.337   1.554  12.377  1.3541  1.0749  1.5137
 3288SOL     OW21325   4.051   3.081   2.497 -0.2120  0.3734 -0.6075
 3288SOL    HW121326   4.124   3.127   2.539  0.0089 -2.2884  1.9618
 3288SOL    HW221327   4.103   3.022   2.442  1.0634  1.0652 -0.1569
 3289SOL     OW21328   0.774   0.493  16.911 -0.2972 -0.6014 -0.1668
 3289SOL    HW121329   0.809   0.416  16.956  0.7126  0.4377  0.8217
 3289SOL    HW221330   0.769   0.557  16.982 -0.2970 -1.3779  0.5328
 3290SOL     OW21331   3.891   1.507   6.362  0.1063 -0.4722  0.6926
 3290SOL    HW121332   3.885   1.414   6.341  1.1767  0.0381 -1.9220
 3290SOL    HW221333   3.857   1.496   6.451 -0.6285 -1.1542  0.3267
 3291SOL     OW21334   1.609   3.920   1.537  0.9206  0.2799  0.1689
 3291SOL    HW121335   1.547   3.954   1.473  1.5958  1.9484  0.4008
 3291SOL    HW221336   1.553   3.859   1.585  0.6415  1.1652  0.9553
 3292SOL     OW21337   4.680   0.471   9.530  0.2803 -0.4457  0.0906
 3292SOL    HW121338   4.616   0.402   9.547 -0.4658  0.3942  0.7171
 3292SOL    HW221339   4.614   0.541   9.526 -0.0607 -0.8728 -1.5024
 3293SOL     OW21340   3.956   4.030   9.427  0.4785  0.0919  0.4911
 3293SOL    HW121341   3.863   4.006   9.423  0.2667  0.8108  1.0570
 3293SOL    HW221342   3.984   3.989   9.508  0.1470 -0.6642  0.2209
 3294SOL     OW21343   2.952   0.203   8.756  0.1612 -0.2236  0.2470
 3294SOL    HW121344   2.895   0.272   8.724 -1.6451 -0.1990  3.5024
 3294SOL    HW221345   2.955   0.135   8.689  0.5241  0.2893 -0.2531
 3295SOL     OW21346   2.234   3.013  14.654 -0.2570 -0.1154  0.4998
 3295SOL    HW121347   2.151   2.975  14.680 -0.6712  0.2939 -0.2157
 3295SOL    HW221348   2.252   3.078  14.722 -1.2970  0.6673  0.0380
 3296SOL     OW21349   3.436   1.398  10.007  0.9166 -0.5348 -0.4191
 3296SOL    HW121350   3.487   1.323   9.978  1.2605 -0.1124 -0.9072
 3296SOL    HW221351   3.497   1.466  10.037  2.0633 -1.7529 -0.0092
 3297SOL     OW21352   0.552   2.343   6.160  0.2947  0.4791 -0.2155
 3297SOL    HW121353   0.616   2.368   6.226  1.1873  0.9013 -1.2265
 3297SOL    HW221354   0.608   2.271   6.130  0.3171  0.4753 -0.1650
 3298SOL     OW21355   4.682   2.669   2.646  0.0845  0.1660  0.3670
 3298SOL    HW121356   4.675   2.712   2.561 -2.4598 -1.2165 -0.1402
 3298SOL    HW221357   0.038   2.622   2.613  1.4400  2.4018  0.3506
 3299SOL     OW21358   3.034   0.061   6.840  0.0090  0.8621  0.5013
 3299SOL    HW121359   3.017   0.155   6.845  0.5302  0.9258  1.0459
 3299SOL    HW221360   3.051   0.049   6.933 -1.9701  0.9984  0.8713
 3300SOL     OW21361   2.149   1.532  17.246 -0.1963  0.5845 -0.1909
 3300SOL    HW121362   2.124   1.521  17.154  0.7761  1.5617 -0.5782
 3300SOL    HW221363   2.201   1.452  17.257  0.5724  1.1619  0.3936
 3301SOL     OW21364   3.716   3.789   3.814  0.3615 -0.1974  0.5320
 3301SOL    HW121365   3.672   3.782   3.729  1.7541 -0.2405 -0.1801
 3301SOL    HW221366   3.790   3.845   3.792  0.8573 -1.3657 -0.7632
 3302SOL     OW21367   4.407   0.820  14.976 -0.7449 -0.1436 -0.1152
 3302SOL    HW121368   4.425   0.727  14.959  0.2949  0.0179  0.1568
 3302SOL    HW221369   4.484   0.839  15.029 -0.2842  1.1845 -1.2629
 3303SOL     OW21370   0.358   0.305   2.148  0.6190  0.1832  0.2413
 3303SOL    HW121371   0.307   0.231   2.114  0.5653  0.0461  0.6147
 3303SOL    HW221372   0.291   0.367   2.177 -0.4835 -1.6040  1.5299
 3304SOL     OW21373   0.314   0.553   1.439 -0.5830 -0.1927  0.6244
 3304SOL    HW121374   0.278   0.626   1.389  0.5613  0.5722  0.9077
 3304SOL    HW221375   0.408   0.565   1.426 -1.1241  1.2110 -2.0286
 3305SOL     OW21376   0.418   3.929   3.145  0.3980 -0.2023  0.1965
 3305SOL    HW121377   0.352   3.973   3.091  0.8518  0.8762  0.5220
 3305SOL    HW221378   0.399   3.969   3.229 -1.1981  1.6391 -1.0633
 3306SOL     OW21379   4.238   4.130   9.265 -0.1198  0.2316  0.4935
 3306SOL    HW121380   4.160   4.136   9.320 -0.9441 -0.8474 -0.5672
 3306SOL    HW221381   4.296   4.196   9.305  1.6261 -0.5962 -0.6616
 3307SOL     OW21382   2.453   3.468   7.995 -0.0467 -0.0834 -0.0645
 3307SOL    HW121383   2.458   3.563   7.992  2.5701 -0.1843  1.2980
 3307SOL    HW221384   2.472   3.450   7.903 -0.1620  0.3721 -0.1787
 3308SOL     OW21385   0.137   4.540   1.183  0.0049  0.3126 -0.4277
 3308SOL    HW121386   0.076   4.547   1.109 -0.5622 -1.7499 -0.1567
 3308SOL    HW221387   0.210   4.598   1.163  1.0373 -0.7250  0.2803
 3309SOL     OW21388   1.269   0.363   4.522 -0.1956  0.6469  0.7547
 3309SOL    HW121389   1.361   0.350   4.499 -0.5586  1.2209 -1.0242
 3309SOL    HW221390   1.273   0.456   4.502 -0.2671  0.5267  0.1803
 3310SOL     OW21391   1.777   0.034   4.700  0.1615  0.1807  0.3525
 3310SOL    HW121392   1.727   4.711   4.769 -1.2082 -1.1008 -1.4321
 3310SOL    HW221393   1.711   0.039   4.631 -0.6275  1.9932  1.2666
 3311SOL     OW21394   4.356   0.550   2.454  0.2712  0.5768 -0.4645
 3311SOL    HW121395   4.325   0.476   2.401 -4.0532  2.1362 -0.1854
 3311SOL    HW221396   4.379   0.502   2.533 -1.4442 -0.6166 -0.6731
 3312SOL     OW21397   3.569   2.930  13.962  0.0858 -0.7482  0.2378
 3312SOL    HW121398   3.598   2.839  13.971  0.8945 -0.6363 -1.2948
 3312SOL    HW221399   3.587   2.942  13.869  1.7100 -1.1993  0.4884
 3313SOL     OW21400   1.793   3.867   3.797 -0.4003  0.1013  0.4990
 3313SOL    HW121401   1.845   3.934   3.842 -0.3080 -0.9486  1.9813
 3313SOL    HW221402   1.835   3.877   3.712  0.7490 -1.2765  0.9003
 3314SOL     OW21403   1.886   0.479   6.305 -0.0237 -0.2167 -0.3639
 3314SOL    HW121404   1.880   0.439   6.392  1.1707  0.0868 -0.1457
 3314SOL    HW221405   1.911   0.570   6.319 -0.9995 -0.0831  0.5463
 3315SOL     OW21406   2.785   4.542   8.439 -0.1660  0.4093 -0.1539
 3315SOL    HW121407   2.735   4.463   8.418  1.3408 -0.3068 -0.9973
 3315SOL    HW221408   2.780   4.547   8.535  2.0465 -1.0725  0.0226
 3316SOL     OW21409   2.730   2.678  11.172 -0.4077  0.1949 -0.1255
 3316SOL    HW121410   2.742   2.655  11.264 -1.5340  0.5690  0.1226
 3316SOL    HW221411   2.677   2.601  11.151  0.3768 -0.7439  1.3816
 3317SOL     OW21412   1.365   1.629  15.702 -0.2206  0.6844 -0.2181
 3317SOL    HW121413   1.355   1.617  15.607 -0.3620  0.4352 -0.1727
 3317SOL    HW221414   1.422   1.552  15.709 -1.6289 -0.3148  0.2860
 3318SOL     OW21415   0.901   0.396   0.915  0.3443 -0.6126  0.1818
 3318SOL    HW121416   0.968   0.373   0.850  0.2628 -0.6793  0.1206
 3318SOL    HW221417   0.953   0.441   0.981 -0.3612 -0.1531  0.4182
 3319SOL     OW21418   2.706   0.320  13.518 -0.1755 -0.1554  0.2668
 3319SOL    HW121419   2.723   0.358  13.432 -1.4798 -2.7882 -1.1551
 3319SOL    HW221420   2.632   0.373  13.546  0.4547  0.8742 -0.0228
 3320SOL     OW21421   0.881   3.573   3.786  0.2219 -0.8628  0.4768
 3320SOL    HW121422   0.910   3.585   3.876 -0.4556  4.4527  0.0029
 3320SOL    HW221423   0.878   3.663   3.753  1.0600 -0.6061  1.1010
 3321SOL     OW21424   3.311   1.220   4.421 -0.4038  0.0080 -0.9368
 3321SOL    HW121425   3.320   1.153   4.352 -0.9167  2.6101 -3.5259
 3321SOL    HW221426   3.230   1.262   4.393 -1.2932 -2.0566 -1.4977
 3322SOL     OW21427   0.925   2.811   7.249 -0.5654 -0.7936 -0.2644
 3322SOL    HW121428   0.926   2.822   7.344  0.8509 -0.3414 -0.3341
 3322SOL    HW221429   0.942   2.717   7.250  0.0695 -0.6974 -2.2592
 3323SOL     OW21430   2.282   3.979  14.398 -0.6207  0.1678  0.6664
 3323SOL    HW121431   2.267   3.987  14.304  1.2784 -1.0490  0.2691
 3323SOL    HW221432   2.363   3.930  14.387 -0.0821  1.6177 -1.8570
 3324SOL     OW21433   0.233   2.498   5.019 -0.3345  0.2287  0.9525
 3324SOL    HW121434   0.140   2.489   5.040 -0.3210 -0.6489  0.6641
 3324SOL    HW221435   0.267   2.555   5.088  0.9821  2.8342 -1.8775
 3325SOL     OW21436   0.548   1.107   3.743  0.0779 -0.0615 -0.2019
 3325SOL    HW121437   0.504   1.152   3.815 -0.0761  0.7174 -0.7827
 3325SOL    HW221438   0.488   1.055   3.690 -1.7377  2.1037 -0.2604
 3326SOL     OW21439   0.774   3.276   2.224 -0.1723 -0.7684 -0.1642
 3326SOL    HW121440   0.860   3.303   2.192 -0.6975  1.0386 -0.0528
 3326SOL    HW221441   0.742   3.363   2.248  0.4577 -0.5630 -0.0660
 3327SOL     OW21442   2.160   0.700   6.583 -0.7379 -0.1110  0.1298
 3327SOL    HW121443   2.091   0.670   6.643 -0.3542  0.7818  1.0123
 3327SOL    HW221444   2.196   0.613   6.565  2.6021  1.3681 -0.2196
 3328SOL     OW21445   1.562   0.795  15.285  0.2936 -0.2525 -0.1713
 3328SOL    HW121446   1.487   0.756  15.239  0.9376  1.2641 -2.5090
 3328SOL    HW221447   1.542   0.888  15.277  0.0933 -0.3516 -0.8933
 3329SOL     OW21448   2.347   0.100  14.483  0.4480 -0.1940  0.1779
 3329SOL    HW121449   2.327   0.146  14.401 -1.5048 -1.4099 -0.0532
 3329SOL    HW221450   2.296   0.021  14.464 -1.6743  0.9634  1.1282
 3330SOL     OW21451   4.292   1.573   6.538 -0.1187 -0.8773 -0.4117
 3330SOL    HW121452   4.365   1.547   6.482 -1.5684  0.8127 -3.0855
 3330SOL    HW221453   4.231   1.501   6.521  0.0051 -0.7132 -1.5566
 3331SOL     OW21454   1.275   2.774   1.139  0.1219 -0.1263  1.1526
 3331SOL    HW121455   1.182   2.793   1.129  1.0426  3.7999 -0.1109
 3331SOL    HW221456   1.313   2.853   1.100  3.1016 -2.1463  0.0122
 3332SOL     OW21457   3.329   2.938  15.346 -0.0044  0.6236  0.0656
 3332SOL    HW121458   3.277   3.004  15.392  1.0487  0.5039  1.4461
 3332SOL    HW221459   3.308   2.857  15.394  1.7154  0.7310  1.0084
 3333SOL     OW21460   0.911   2.391   2.217 -0.1060 -0.0406  0.4750
 3333SOL    HW121461   0.899   2.356   2.305  0.5965  0.2183  0.6759
 3333SOL    HW221462   0.832   2.354   2.179  0.1231 -1.0641  0.9704
 3334SOL     OW21463   0.543   3.351  13.231  0.4480  0.2285  0.0001
 3334SOL    HW121464   0.590   3.282  13.278 -2.6860 -1.7847  0.1079
 3334SOL    HW221465   0.612   3.401  13.187 -0.4819  2.8194  1.5411
 3335SOL     OW21466   3.354   0.561   7.926  0.0683  0.4854  0.2289
 3335SOL    HW121467   3.367   0.524   8.014 -0.9289  1.2149  0.6808
 3335SOL    HW221468   3.397   0.646   7.928  0.2050  0.4455 -1.2880
 3336SOL     OW21469   3.034   0.995   8.775  0.2173 -0.0524 -0.0017
 3336SOL    HW121470   3.062   0.993   8.866 -0.1882 -0.4577  0.1161
 3336SOL    HW221471   2.941   1.013   8.790 -0.3071 -3.0128  0.2649
 3337SOL     OW21472   2.663   3.932   2.855 -0.0089 -0.9522 -0.3392
 3337SOL    HW121473   2.607   3.871   2.807 -2.7956  0.3565  1.2201
 3337SOL    HW221474   2.693   3.980   2.778 -2.6673  1.5456  0.1761
 3338SOL     OW21475   4.596   0.186   3.040  0.7384  0.8116  0.5057
 3338SOL    HW121476   4.501   0.196   3.046  0.8904  1.4050  2.0421
 3338SOL    HW221477   4.615   0.275   3.010  0.4323  1.4259  2.1323
 3339SOL     OW21478   0.602   4.067  17.590  0.1030  0.2347  0.2671
 3339SOL    HW121479   0.544   4.109  17.654  0.4882  0.0925  0.7107
 3339SOL    HW221480   0.689   4.098  17.615  0.3035  1.8315 -2.3372
 3340SOL     OW21481   4.048   0.458   6.917  0.2606  0.1932  0.7559
 3340SOL    HW121482   4.041   0.527   6.983 -0.1976  1.2522 -0.4097
 3340SOL    HW221483   4.124   0.483   6.865 -0.2566 -0.8012 -0.4765
 3341SOL     OW21484   3.579   2.466  12.245  0.6682 -0.3189  0.3248
 3341SOL    HW121485   3.670   2.442  12.260  0.1659 -2.1958  0.3809
 3341SOL    HW221486   3.525   2.388  12.252 -2.0190  1.4419 -0.7395
 3342SOL     OW21487   1.779   1.520  14.387 -0.1587  0.1344 -0.4305
 3342SOL    HW121488   1.865   1.560  14.402 -0.1489  0.6442 -1.8056
 3342SOL    HW221489   1.808   1.444  14.337  0.8129  2.3472 -3.2223
 3343SOL     OW21490   1.137   0.785   7.750  0.2667  0.2600  0.3195
 3343SOL    HW121491   1.089   0.712   7.710  2.2848 -1.1335  0.4548
 3343SOL    HW221492   1.066   0.809   7.810  0.8785  0.4668  0.9566
 3344SOL     OW21493   0.630   4.083  13.241  0.7769 -0.3655 -0.1735
 3344SOL    HW121494   0.615   3.988  13.244  1.3678 -0.4182  1.0811
 3344SOL    HW221495   0.610   4.097  13.148 -1.2985 -0.5430  0.2433
 3345SOL     OW21496   0.038   2.998   8.818  0.3235 -0.0728  0.0027
 3345SOL    HW121497   4.696   2.965   8.883  1.0074 -1.2758  0.0367
 3345SOL    HW221498   0.126   2.980   8.850 -0.0574  0.0163  1.1137
 3346SOL     OW21499   1.939   2.504   5.711 -0.4595  0.5379 -1.0333
 3346SOL    HW121500   1.893   2.586   5.728 -0.9592  0.2143 -0.8321
 3346SOL    HW221501   2.029   2.528   5.691 -0.3823  1.4515  0.4274
 3347SOL     OW21502   3.916   4.037   8.949  0.2087  0.7446 -0.4583
 3347SOL    HW121503   3.914   4.091   8.870 -0.2311  2.5635  0.8077
 3347SOL    HW221504   4.010   4.022   8.958 -0.0780  0.8155  2.4012
 3348SOL     OW21505   2.650   0.740   5.718  0.3253  0.1768  0.5624
 3348SOL    HW121506   2.686   0.707   5.636  0.6243 -1.0888  1.2005
 3348SOL    HW221507   2.637   0.834   5.702  0.1452  0.0098 -0.2261
 3349SOL     OW21508   4.299   1.863   1.274  0.1574 -0.6626 -0.5511
 3349SOL    HW121509   4.366   1.794   1.270  0.0798 -0.7909  0.2544
 3349SOL    HW221510   4.218   1.820   1.247 -0.1529  0.0453 -0.7312
 3350SOL     OW21511   3.258   2.881   3.125 -0.1367 -0.1012 -0.3776
 3350SOL    HW121512   3.315   2.916   3.057  0.5645  0.4925  0.5094
 3350SOL    HW221513   3.212   2.959   3.157 -0.4018 -0.1158 -0.7221
 3351SOL     OW21514   3.798   0.194   7.639 -0.2434 -0.2340  0.0117
 3351SOL    HW121515   3.763   0.120   7.688  1.0550 -0.7441  0.1707
 3351SOL    HW221516   3.815   0.151   7.555  0.2950 -2.8375  1.4533
 3352SOL     OW21517   1.561   1.876   3.931  0.3099  0.1439  0.3610
 3352SOL    HW121518   1.602   1.790   3.936  1.2803  0.6337  0.8169
 3352SOL    HW221519   1.639   1.928   3.951  1.3844 -0.7600 -1.4753
 3353SOL     OW21520   4.011   4.716   3.890 -0.0179 -0.9249 -0.1013
 3353SOL    HW121521   4.001   0.034   3.977  2.7397  0.1681 -0.2697
 3353SOL    HW221522   3.920   4.719   3.860  0.2417  0.0801 -0.7825
 3354SOL     OW21523   1.509   3.516   2.461  0.3928  0.2237  0.0993
 3354SOL    HW121524   1.426   3.539   2.503  1.1394  0.7529  1.2886
 3354SOL    HW221525   1.541   3.603   2.438 -1.4395  0.4168 -1.7448
 3355SOL     OW21526   2.575   1.515   4.860 -0.6344 -0.2686  0.0174
 3355SOL    HW121527   2.481   1.509   4.879 -1.3636  2.8302 -2.5846
 3355SOL    HW221528   2.580   1.580   4.790 -0.5905  0.4289  0.6594
 3356SOL     OW21529   4.331   0.593   5.925 -0.1341  0.2654 -0.1527
 3356SOL    HW121530   4.359   0.571   5.837 -2.3098 -0.3426 -0.6686
 3356SOL    HW221531   4.366   0.518   5.973 -0.6953 -0.2946 -0.6378
 3357SOL     OW21532   1.517   0.003   0.102 -0.2372 -0.2982  0.2647
 3357SOL    HW121533   1.549   0.019   0.191  1.0617  1.4719 -0.5369
 3357SOL    HW221534   1.602   0.019   0.061  0.2974  0.3383  1.6151
 3358SOL     OW21535   1.382   0.764   5.160 -0.1017 -0.3327 -0.3992
 3358SOL    HW121536   1.305   0.729   5.205  0.3132 -0.3419  0.2921
 3358SOL    HW221537   1.411   0.828   5.224 -1.2853  1.1510 -1.3404
 3359SOL     OW21538   2.654   3.500   2.204  0.8127 -0.7761 -0.8141
 3359SOL    HW121539   2.735   3.522   2.158 -0.0699 -0.2507 -2.1334
 3359SOL    HW221540   2.662   3.406   2.222  0.8218 -0.6469 -0.1335
 3360SOL     OW21541   4.551   1.053   8.177  0.7216 -0.7171 -0.0328
 3360SOL    HW121542   4.464   1.076   8.209  0.8305 -1.4238  0.7689
 3360SOL    HW221543   4.536   1.059   8.083  0.4041  0.8691  0.1216
 3361SOL     OW21544   3.124   1.541   8.609  0.3071 -0.4532 -1.0050
 3361SOL    HW121545   3.142   1.559   8.702  2.1343  0.3188 -1.5204
 3361SOL    HW221546   3.050   1.483   8.630  1.4574 -1.6159 -0.0998
 3362SOL     OW21547   0.378   0.635  16.047  0.0655 -0.5155  0.0660
 3362SOL    HW121548   0.318   0.704  16.076  0.8226 -0.5631  1.7471
 3362SOL    HW221549   0.433   0.622  16.124 -0.0668  0.7980  0.3935
 3363SOL     OW21550   3.171   0.025  11.653 -0.0534 -1.0313  0.0186
 3363SOL    HW121551   3.218   0.108  11.660  0.2557 -0.9766 -2.7109
 3363SOL    HW221552   3.091   0.053  11.699 -1.4799 -0.2677 -2.9465
 3364SOL     OW21553   4.552   0.652  11.464  0.2957  0.1086  0.2149
 3364SOL    HW121554   4.476   0.626  11.516 -0.9757  0.4042 -1.4888
 3364SOL    HW221555   4.590   0.701  11.537 -1.8403  0.0190  1.3920
 3365SOL     OW21556   2.936   3.381   3.426 -0.5493  0.5755  0.4656
 3365SOL    HW121557   2.888   3.299   3.439 -0.4443  0.2722 -0.9892
 3365SOL    HW221558   2.878   3.420   3.361 -0.6762  0.1162  0.3008
 3366SOL     OW21559   0.346   0.782   8.134 -0.2513 -0.0180 -0.2272
 3366SOL    HW121560   0.278   0.849   8.133  1.8839  2.1477 -1.7161
 3366SOL    HW221561   0.317   0.725   8.205  3.5773 -0.2465  1.1585
 3367SOL     OW21562   0.303   1.035   2.333 -0.3936  0.4362 -0.4802
 3367SOL    HW121563   0.324   1.032   2.240  0.5240  0.0987 -0.2632
 3367SOL    HW221564   0.371   0.979   2.371  0.5196  0.9421 -1.3649
 3368SOL     OW21565   0.146   0.367  13.346  0.5709  0.2034  0.1000
 3368SOL    HW121566   0.200   0.357  13.268  0.5220 -1.5935  0.2815
 3368SOL    HW221567   0.065   0.322  13.321  0.6037  0.4945 -0.5339
 3369SOL     OW21568   3.070   2.721   7.340 -0.7122  0.0209  0.0277
 3369SOL    HW121569   3.162   2.708   7.319 -0.9479  0.6173 -1.3406
 3369SOL    HW221570   3.063   2.669   7.420  0.7179 -1.3639 -0.7483
 3370SOL     OW21571   3.521   0.115  13.646  0.1633 -0.1377 -0.2580
 3370SOL    HW121572   3.605   0.074  13.666 -0.4879 -1.0004  0.7460
 3370SOL    HW221573   3.537   0.149  13.558  0.3487 -0.7945 -0.4784
 3371SOL     OW21574   1.384   2.274   7.602  0.4397  0.0715  0.2136
 3371SOL    HW121575   1.388   2.254   7.695 -3.6034 -0.5546  0.2631
 3371SOL    HW221576   1.310   2.217   7.579 -1.4402  1.6314  2.4604
 3372SOL     OW21577   2.122   4.061  13.409  0.3501 -0.3230  0.1133
 3372SOL    HW121578   2.162   4.008  13.478  0.4735 -1.0732 -0.5320
 3372SOL    HW221579   2.125   4.151  13.440  0.5844  0.0501 -0.9918
 3373SOL     OW21580   4.160   3.353   3.945  0.3026  0.1635  0.6592
 3373SOL    HW121581   4.119   3.399   4.018 -0.9315 -1.0765  0.7286
 3373SOL    HW221582   4.142   3.266   3.980  2.2904 -0.1015  1.0129
 3374SOL     OW21583   3.580   2.668  17.064 -0.8866 -0.3834  0.2004
 3374SOL    HW121584   3.604   2.628  17.148 -0.6717 -1.7358 -0.4994
 3374SOL    HW221585   3.606   2.599  17.003 -2.4110 -0.1931 -0.6812
 3375SOL     OW21586   0.614   2.646   1.739  0.1952  0.7128 -0.0632
 3375SOL    HW121587   0.565   2.564   1.730 -0.6938  1.1543  0.8026
 3375SOL    HW221588   0.556   2.720   1.756  0.2812  0.5235  1.0029
 3376SOL     OW21589   3.093   0.951   2.499 -0.1162 -0.1831  0.5113
 3376SOL    HW121590   3.077   0.864   2.537  0.9425 -0.7612 -0.3646
 3376SOL    HW221591   3.015   0.998   2.530  1.1004  0.0061  3.2342
 3377SOL     OW21592   0.183   0.809  12.151  0.2503  0.7235  0.6306
 3377SOL    HW121593   0.277   0.805  12.165  0.2492 -1.9226 -0.0142
 3377SOL    HW221594   0.164   0.716  12.136  0.2441  1.0511 -1.3841
 3378SOL     OW21595   1.327   0.678   6.146  0.4505 -0.6499  0.1806
 3378SOL    HW121596   1.340   0.749   6.208 -0.4876  3.3434 -4.1804
 3378SOL    HW221597   1.366   0.604   6.193  1.3367 -0.5480 -0.3936
 3379SOL     OW21598   3.308   4.171  17.068  0.4620 -0.7594 -0.1339
 3379SOL    HW121599   3.258   4.242  17.108  1.7485  1.1735 -2.0264
 3379SOL    HW221600   3.247   4.098  17.085  0.1020 -0.9024 -2.0758
 3380SOL     OW21601   4.687   2.338   1.471  0.3600  0.2380  0.3832
 3380SOL    HW121602   4.649   2.421   1.498  0.6470 -0.3575  2.5806
 3380SOL    HW221603   4.643   2.277   1.530 -2.2498  0.4553 -1.3241
 3381SOL     OW21604   3.253   2.404   1.709 -0.4152 -0.2193  0.2892
 3381SOL    HW121605   3.277   2.363   1.626 -2.3513  0.4063 -0.5982
 3381SOL    HW221606   3.270   2.339   1.777  2.0437  0.0479 -0.0960
 3382SOL     OW21607   1.950   3.190   6.653  0.2415  0.5304 -0.4603
 3382SOL    HW121608   1.971   3.169   6.562  2.3605  0.3427  0.0867
 3382SOL    HW221609   1.856   3.207   6.652  0.1020 -0.0263  2.9175
 3383SOL     OW21610   3.625   1.703   8.180  0.1886 -0.2731 -1.3946
 3383SOL    HW121611   3.681   1.778   8.196  0.2517 -0.6332  0.0414
 3383SOL    HW221612   3.685   1.628   8.192  2.1081  1.3653 -0.7258
 3384SOL     OW21613   0.081   0.745   1.361 -0.1273 -0.5409 -0.1665
 3384SOL    HW121614   0.024   0.743   1.285  0.7445  0.1753 -0.8397
 3384SOL    HW221615   0.125   0.828   1.341 -2.4147  0.3800 -1.3283
 3385SOL     OW21616   0.700   0.962   5.055 -0.1789  0.6375 -0.4777
 3385SOL    HW121617   0.726   1.031   5.116 -1.0786  0.7466 -0.2206
 3385SOL    HW221618   0.759   0.983   4.982  0.6321 -0.8391 -0.2415
 3386SOL     OW21619   3.898   4.187  11.980 -1.1115 -0.2184  0.6157
 3386SOL    HW121620   3.853   4.103  11.991 -1.1042 -0.1043  1.4939
 3386SOL    HW221621   3.980   4.152  11.944 -0.6021  3.6130 -1.9249
 3387SOL     OW21622   2.183   2.143  15.127  0.6725  0.4438 -0.4618
 3387SOL    HW121623   2.113   2.180  15.073  0.1909 -0.9973 -0.8194
 3387SOL    HW221624   2.145   2.057  15.145  1.3966  0.6587  2.0486
 3388SOL     OW21625   1.697   4.177   7.914  0.0669  0.4292 -0.1839
 3388SOL    HW121626   1.667   4.263   7.943  0.9315  0.8056 -0.4029
 3388SOL    HW221627   1.670   4.180   7.822 -0.2164  0.7393 -0.0903
 3389SOL     OW21628   2.698   3.620   8.911  0.1146  0.4179 -0.8651
 3389SOL    HW121629   2.635   3.686   8.881 -2.5831 -2.3040 -1.2098
 3389SOL    HW221630   2.704   3.557   8.840  1.8883 -0.4049  0.0351
 3390SOL     OW21631   3.439   1.662   2.491 -0.4023  0.0582  0.3514
 3390SOL    HW121632   3.478   1.592   2.544 -0.5503  1.6605  2.5911
 3390SOL    HW221633   3.440   1.626   2.403 -1.9723 -1.8995  1.1212
 3391SOL     OW21634   4.207   1.967   7.050  0.1565 -0.1168 -0.2734
 3391SOL    HW121635   4.267   2.029   7.008  0.6847 -0.4109  0.0565
 3391SOL    HW221636   4.245   1.973   7.137 -1.0608  2.9896  0.0616
 3392SOL     OW21637   0.690   2.035  12.667  0.1093  0.5429  0.3030
 3392SOL    HW121638   0.626   2.059  12.734 -1.7053  0.8942 -1.5523
 3392SOL    HW221639   0.773   2.071  12.698  0.2070  0.0758  0.5751
 3393SOL     OW21640   2.432   4.317   1.422 -0.2176  0.7356  0.0478
 3393SOL    HW121641   2.411   4.399   1.378 -0.1243  1.7138  1.8309
 3393SOL    HW221642   2.450   4.260   1.347 -1.1198 -1.4036  1.4661
 3394SOL     OW21643   1.266   3.506  12.332  0.9524  0.4335 -0.5438
 3394SOL    HW121644   1.336   3.542  12.386  1.2120 -0.1059 -0.5197
 3394SOL    HW221645   1.193   3.543  12.381  1.3360 -1.1075  1.1833
 3395SOL     OW21646   1.007   2.675   7.940  0.4380 -0.5995 -0.0597
 3395SOL    HW121647   1.027   2.654   7.849  1.8740 -0.2060  0.1708
 3395SOL    HW221648   1.091   2.712   7.966  0.2579  0.1841 -0.5934
 3396SOL     OW21649   2.882   2.000   3.549 -0.1032 -0.7069  0.0814
 3396SOL    HW121650   2.962   1.958   3.519  0.7822 -0.3714  1.9505
 3396SOL    HW221651   2.879   1.961   3.637 -1.5452 -0.3748  0.1812
 3397SOL     OW21652   0.764   2.274  10.574  0.3633 -0.4690  0.6009
 3397SOL    HW121653   0.732   2.349  10.624  0.1343  0.2870 -0.6889
 3397SOL    HW221654   0.695   2.208  10.577  1.6192 -1.8488 -0.5974
 3398SOL     OW21655   1.041   4.707  12.636  0.4269  0.2032  0.0523
 3398SOL    HW121656   0.952   0.009  12.661  0.5354  0.8036 -0.0750
 3398SOL    HW221657   1.062   0.067  12.587  2.3071  0.3102  1.0082
 3399SOL     OW21658   3.316   0.689   4.595 -0.1950 -0.5228  0.3816
 3399SOL    HW121659   3.349   0.751   4.661 -0.2663  0.0857 -0.1513
 3399SOL    HW221660   3.227   0.666   4.619  0.2472  0.8473  3.3760
 3400SOL     OW21661   3.727   2.756   5.677 -0.5243 -0.4406  0.5867
 3400SOL    HW121662   3.736   2.680   5.734  2.9724  0.2937  0.9993
 3400SOL    HW221663   3.634   2.776   5.688 -0.0784  1.6728  0.5890
 3401SOL     OW21664   1.408   3.153  13.980 -0.3825  0.3023 -0.0420
 3401SOL    HW121665   1.385   3.072  14.026 -0.9943  0.7644  0.4764
 3401SOL    HW221666   1.330   3.162  13.924 -2.5737  1.7532  3.2652
 3402SOL     OW21667   4.445   0.142   8.664  0.1661 -0.0471  0.1953
 3402SOL    HW121668   4.517   0.154   8.726  0.0226  2.2937 -0.1203
 3402SOL    HW221669   4.489   0.091   8.596 -2.1975 -0.0817 -1.3248
 3403SOL     OW21670   1.201   1.820  11.478  0.3333  0.1675  0.2843
 3403SOL    HW121671   1.148   1.895  11.506 -0.7531  0.1080 -1.6104
 3403SOL    HW221672   1.203   1.830  11.383 -1.6948  0.2261  0.2672
 3404SOL     OW21673   4.298   3.103   7.310 -0.9193 -0.3090 -0.1153
 3404SOL    HW121674   4.284   3.150   7.392  1.3635 -1.5042  0.9541
 3404SOL    HW221675   4.291   3.015   7.347  0.9974  0.3736  1.8437
 3405SOL     OW21676   3.748   2.153   6.379 -0.2668  0.2861 -0.3386
 3405SOL    HW121677   3.739   2.086   6.312  0.7485 -0.1821 -0.0041
 3405SOL    HW221678   3.839   2.136   6.404 -0.6374 -0.6905  0.3443
 3406SOL     OW21679   2.635   1.005   2.012  0.6946 -0.1827  0.1914
 3406SOL    HW121680   2.668   1.058   1.940  1.4872 -0.1082  0.6075
 3406SOL    HW221681   2.707   0.943   2.029  3.2149  2.6159 -0.2762
 3407SOL     OW21682   2.932   3.506  15.646 -0.1138 -0.0970  0.4033
 3407SOL    HW121683   2.855   3.559  15.625 -0.1500  0.0420  0.8959
 3407SOL    HW221684   2.913   3.422  15.604  0.3182 -0.5492  1.1132
 3408SOL     OW21685   3.031   4.148   3.614  0.2047  0.5261 -0.4434
 3408SOL    HW121686   3.099   4.131   3.680  0.1794  0.5627 -0.4079
 3408SOL    HW221687   3.051   4.071   3.561 -0.9867 -0.1672  0.1174
 3409SOL     OW21688   0.429   0.813   0.913 -0.0564  0.1120  0.8439
 3409SOL    HW121689   0.409   0.724   0.884 -0.4637  0.4085  0.2191
 3409SOL    HW221690   0.382   0.863   0.847  0.8678  0.4834  0.4662
 3410SOL     OW21691   1.606   3.707  17.037 -0.0963 -0.5939 -0.5006
 3410SOL    HW121692   1.642   3.711  17.126  0.4206 -0.5849 -0.7087
 3410SOL    HW221693   1.637   3.617  17.020  1.4754 -0.2268  0.3843
 3411SOL     OW21694   2.904   3.846   0.551  0.0982  0.2476 -0.8133
 3411SOL    HW121695   2.920   3.765   0.599 -2.8994 -0.2550 -0.7095
 3411SOL    HW221696   2.858   3.897   0.618 -0.5810  0.1404 -1.2037
 3412SOL     OW21697   0.287   3.009   6.663 -0.5893 -0.3366  0.3418
 3412SOL    HW121698   0.289   3.026   6.569  0.0233  1.2082  0.6370
 3412SOL    HW221699   0.354   2.941   6.672 -0.0866  0.1574  0.3034
 3413SOL     OW21700   2.706   3.197   5.559 -0.2408  0.0080 -0.6470
 3413SOL    HW121701   2.620   3.230   5.535 -1.1380 -1.5025  0.4498
 3413SOL    HW221702   2.688   3.103   5.556 -0.0162 -0.0032 -1.7587
 3414SOL     OW21703   3.355   1.550  16.611  0.4325 -0.2499  0.3491
 3414SOL    HW121704   3.266   1.530  16.640  1.6291 -0.3972  3.8828
 3414SOL    HW221705   3.386   1.463  16.586  1.4982  0.1681  0.2300
 3415SOL     OW21706   0.952   1.388   5.120 -0.7084  0.1059  0.7118
 3415SOL    HW121707   1.020   1.449   5.151  0.0127 -0.0252 -0.5980
 3415SOL    HW221708   0.971   1.379   5.026  1.4086  0.5357  1.1005
 3416SOL     OW21709   1.232   0.643   3.700 -0.1079  0.1355 -0.1475
 3416SOL    HW121710   1.186   0.560   3.716 -2.6975  2.1801  3.1447
 3416SOL    HW221711   1.320   0.612   3.680 -0.4152 -0.5321 -0.4841
 3417SOL     OW21712   0.871   3.419   1.404  0.4524 -0.3241 -0.4089
 3417SOL    HW121713   0.845   3.501   1.363  1.8791  0.2435 -0.1683
 3417SOL    HW221714   0.836   3.359   1.338  1.5939  0.0517 -1.3330
 3418SOL     OW21715   0.923   3.903   8.455  0.0141 -0.5238 -0.0076
 3418SOL    HW121716   0.889   3.839   8.392 -0.1293 -1.4080  0.9778
 3418SOL    HW221717   0.940   3.844   8.528  1.9495 -0.9528 -0.8270
 3419SOL     OW21718   0.910   0.932   3.748 -0.8287  0.1862  0.2734
 3419SOL    HW121719   0.854   0.855   3.759 -2.3518  1.2810  0.0514
 3419SOL    HW221720   0.984   0.885   3.708  0.3847  1.9295  0.4865
 3420SOL     OW21721   0.182   3.163   5.249 -0.1676  0.2630  0.4259
 3420SOL    HW121722   0.092   3.149   5.219 -0.5257  0.8956  1.2181
 3420SOL    HW221723   0.165   3.174   5.343 -2.2076 -1.9168  0.3358
 3421SOL     OW21724   2.791   0.903   6.194  0.7582  0.4798 -0.3442
 3421SOL    HW121725   2.723   0.966   6.218  0.5719  0.3254 -0.4653
 3421SOL    HW221726   2.741   0.843   6.138 -0.6764  0.1104  1.3173
 3422SOL     OW21727   3.321   1.924   9.656  0.2694  0.1849  0.2605
 3422SOL    HW121728   3.353   1.997   9.603 -3.1844  1.3096 -0.3062
 3422SOL    HW221729   3.391   1.910   9.719  1.2517  1.0861 -0.6179
 3423SOL     OW21730   3.884   0.083   2.283  0.2707 -0.0006 -0.0339
 3423SOL    HW121731   3.862   0.096   2.375 -1.3001  1.2795 -0.5839
 3423SOL    HW221732   3.900   4.708   2.278  1.4473  0.3026 -1.7361
 3424SOL     OW21733   2.837   2.955  11.833  0.2254  0.4929 -0.0168
 3424SOL    HW121734   2.799   3.032  11.790  0.3552  0.7434  0.3206
 3424SOL    HW221735   2.899   3.004  11.887  1.6590  0.5595 -1.7239
 3425SOL     OW21736   2.451   0.811   8.825  0.3250  0.5921  0.1673
 3425SOL    HW121737   2.454   0.829   8.919 -0.8769  1.8548 -0.0447
 3425SOL    HW221738   2.459   0.894   8.778 -2.6401  1.4497  1.1461
 3426SOL     OW21739   3.074   0.628   5.875 -0.2169  0.1556  0.3213
 3426SOL    HW121740   3.073   0.591   5.787 -0.6388 -0.9721  0.8062
 3426SOL    HW221741   2.984   0.618   5.904 -0.5639 -3.3078 -1.9313
 3427SOL     OW21742   3.279   1.248   1.598 -0.5821 -0.0199 -0.2995
 3427SOL    HW121743   3.281   1.341   1.621 -1.5065  0.2769 -1.4293
 3427SOL    HW221744   3.257   1.205   1.681  2.0738  0.2800  0.5417
 3428SOL     OW21745   2.225   3.844  12.918 -0.7757 -0.2308  0.2180
 3428SOL    HW121746   2.276   3.849  12.999  0.4890  1.3662 -0.6710
 3428SOL    HW221747   2.133   3.861  12.940 -0.7710  1.9029 -1.3910
 3429SOL     OW21748   2.182   3.706   7.912 -0.2360 -0.1001  0.6969
 3429SOL    HW121749   2.168   3.614   7.888 -1.3974  0.2228  0.1526
 3429SOL    HW221750   2.103   3.728   7.961 -1.3654  0.1772 -1.2501
 3430SOL     OW21751   2.629   3.726  14.037  0.2836 -0.0614 -0.2475
 3430SOL    HW121752   2.595   3.679  14.113  0.1959  1.1178  0.4401
 3430SOL    HW221753   2.558   3.709  13.975  2.1552 -0.0544 -2.3986
 3431SOL     OW21754   3.563   1.414   2.578  0.0057 -0.7003  0.4453
 3431SOL    HW121755   3.600   1.327   2.563 -0.3105 -0.3279 -2.4235
 3431SOL    HW221756   3.551   1.416   2.673  2.1383 -2.3835  0.7598
 3432SOL     OW21757   0.147   4.675   6.145 -0.3782  0.1221  0.5575
 3432SOL    HW121758   0.118   0.021   6.082 -2.6985 -0.5769  0.9186
 3432SOL    HW221759   0.212   4.617   6.104 -1.5757 -1.3681  0.7554
 3433SOL     OW21760   3.467   0.398   4.265 -0.0277 -0.3077 -0.2540
 3433SOL    HW121761   3.384   0.354   4.285  0.2957  0.1264  2.1471
 3433SOL    HW221762   3.521   0.323   4.241  1.6988  1.0932 -0.7413
 3434SOL     OW21763   0.053   2.827  15.180  0.1995  0.1790 -0.1899
 3434SOL    HW121764   0.075   2.815  15.088 -1.2796 -0.2435 -0.4865
 3434SOL    HW221765   0.003   2.908  15.182 -3.0961 -1.8423  0.6065
 3435SOL     OW21766   1.195   4.267  11.638 -0.9028 -0.0363  0.6986
 3435SOL    HW121767   1.144   4.311  11.706  0.9480 -0.2110  2.2083
 3435SOL    HW221768   1.279   4.286  11.678 -2.1218 -1.1227  3.8140
 3436SOL     OW21769   1.992   0.677   7.333  0.1541 -0.9426 -0.3285
 3436SOL    HW121770   2.028   0.701   7.247  0.2564 -1.8374 -0.5345
 3436SOL    HW221771   2.061   0.711   7.391 -1.8426  0.9203  0.9278
 3437SOL     OW21772   0.426   1.557   9.058  0.4841  0.8534  0.1699
 3437SOL    HW121773   0.376   1.513   9.127  2.0134 -0.6945  0.2920
 3437SOL    HW221774   0.513   1.574   9.094  1.5207 -1.5893 -1.2104
 3438SOL     OW21775   2.405   1.544   6.706 -0.3815  0.7306  0.6754
 3438SOL    HW121776   2.467   1.597   6.656  1.3313 -0.6572  1.3179
 3438SOL    HW221777   2.329   1.602   6.703  1.1600  2.6845 -0.9250
 3439SOL     OW21778   4.410   0.469   6.752 -0.8558 -0.8641 -0.4034
 3439SOL    HW121779   4.493   0.421   6.749 -0.8504 -0.8079 -1.2745
 3439SOL    HW221780   4.370   0.405   6.810 -2.8777  1.1401  0.4044
 3440SOL     OW21781   3.188   1.003  15.979  0.0930 -0.0532  0.0941
 3440SOL    HW121782   3.218   1.079  15.928  1.9037 -0.6374  0.2847
 3440SOL    HW221783   3.220   1.025  16.067 -0.1271 -0.2478  0.2235
 3441SOL     OW21784   0.417   0.935   4.037 -0.5891  0.5034  0.0361
 3441SOL    HW121785   0.452   1.022   4.015  0.4026  0.3963  1.1924
 3441SOL    HW221786   0.487   0.882   4.000 -1.4500 -1.0248  0.6322
 3442SOL     OW21787   4.133   3.253  15.736  0.3681  0.0803 -0.8393
 3442SOL    HW121788   4.133   3.310  15.813  0.1984 -1.2375  0.1535
 3442SOL    HW221789   4.228   3.241  15.731  0.3528 -0.1537 -0.6010
 3443SOL     OW21790   0.250   2.758   1.987 -0.3823 -0.5325 -0.2622
 3443SOL    HW121791   0.250   2.664   2.003 -1.4179 -0.3899  0.5198
 3443SOL    HW221792   0.301   2.778   1.908  2.6884  0.8586  2.0741
 3444SOL     OW21793   2.698   3.848   8.696  0.0191 -1.0186 -0.0389
 3444SOL    HW121794   2.681   3.898   8.616 -1.6854  2.1287  2.2878
 3444SOL    HW221795   2.612   3.823   8.731 -0.2935  2.0253  1.3389
 3445SOL     OW21796   0.253   2.419   2.894  0.4293  0.0528 -0.3505
 3445SOL    HW121797   0.281   2.327   2.897  1.3430  0.2447 -3.4905
 3445SOL    HW221798   0.316   2.463   2.837 -0.8147  0.2375 -1.5831
 3446SOL     OW21799   1.245   3.875   6.071 -0.3644  0.2833 -0.4710
 3446SOL    HW121800   1.312   3.943   6.068 -1.8473  1.7669  0.2813
 3446SOL    HW221801   1.165   3.927   6.077 -0.2680  0.2546  1.1142
 3447SOL     OW21802   2.183   1.668   3.497  0.4132 -0.5959  0.1263
 3447SOL    HW121803   2.266   1.625   3.475 -0.9087 -1.9505 -2.2928
 3447SOL    HW221804   2.122   1.616   3.444  2.2193 -3.5218  0.9609
 3448SOL     OW21805   1.981   4.489  12.314  0.0262 -0.1854 -0.2435
 3448SOL    HW121806   1.985   4.552  12.242  1.6887  0.7134  0.6487
 3448SOL    HW221807   2.042   4.419  12.288  1.6474  0.4291  1.9612
 3449SOL     OW21808   2.261   0.736   9.870 -0.0100 -0.2893 -0.0840
 3449SOL    HW121809   2.181   0.768   9.912  0.8247  0.4463  0.9386
 3449SOL    HW221810   2.294   0.814   9.826 -1.2797  0.0907 -0.3583
 3450SOL     OW21811   3.159   1.612   6.378  0.4366  0.0951  0.5614
 3450SOL    HW121812   3.130   1.703   6.382  1.1394  0.3933 -0.9134
 3450SOL    HW221813   3.113   1.562   6.446 -1.0609 -0.2534 -0.6895
 3451SOL     OW21814   0.925   0.943   2.001  0.4685  0.3930  0.7381
 3451SOL    HW121815   0.933   0.905   2.088  0.9564 -0.2359  0.4228
 3451SOL    HW221816   0.903   0.869   1.945  0.5620  1.0737 -0.2009
 3452SOL     OW21817   4.147   1.097   1.685  0.0692 -0.0493 -0.0403
 3452SOL    HW121818   4.087   1.078   1.758 -1.5255  2.4309 -0.7248
 3452SOL    HW221819   4.224   1.128   1.732 -0.3246  0.4054  0.3006
 3453SOL     OW21820   1.058   2.680  12.881 -0.1204  0.1258  0.2521
 3453SOL    HW121821   1.147   2.645  12.890 -0.2863 -0.7226 -1.3287
 3453SOL    HW221822   1.050   2.674  12.785  1.6327 -0.9916  0.1644
 3454SOL     OW21823   3.207   2.876   7.750 -0.0274 -0.4093  0.1063
 3454SOL    HW121824   3.251   2.956   7.781 -1.1801  0.2626  0.0318
 3454SOL    HW221825   3.271   2.823   7.702 -0.3643 -1.1348  0.4627
 3455SOL     OW21826   4.643   4.311   3.069  0.3542 -0.0772 -0.1256
 3455SOL    HW121827   4.593   4.237   3.103  0.4760 -0.2993 -0.4389
 3455SOL    HW221828   4.657   4.279   2.980  0.4414  1.7754 -0.7911
 3456SOL     OW21829   1.839   1.648   1.749  0.2454  0.5021 -0.1591
 3456SOL    HW121830   1.758   1.599   1.766  0.4362  0.5412  0.8456
 3456SOL    HW221831   1.855   1.677   1.838 -0.4707  1.9116 -0.4910
 3457SOL     OW21832   3.097   3.252  16.149  1.2293 -0.2898 -0.0539
 3457SOL    HW121833   3.025   3.190  16.162  2.0378 -1.1780  0.1447
 3457SOL    HW221834   3.111   3.248  16.054  3.3643 -3.7043  0.4387
 3458SOL     OW21835   4.244   3.492   4.379  0.3355  0.1699  0.2920
 3458SOL    HW121836   4.154   3.472   4.403 -0.1452  2.5488  0.4813
 3458SOL    HW221837   4.261   3.422   4.316 -0.9953 -0.8041  1.0247
 3459SOL     OW21838   1.283   3.689   0.196  0.4671 -0.1883 -0.1113
 3459SOL    HW121839   1.346   3.728   0.257  1.2060 -3.3329  1.1155
 3459SOL    HW221840   1.197   3.709   0.232  0.2322 -0.8699 -0.2961
 3460SOL     OW21841   0.950   0.881  11.749  0.3287 -0.4308  0.1305
 3460SOL    HW121842   0.857   0.879  11.771 -0.1834  2.6769 -1.6874
 3460SOL    HW221843   0.946   0.904  11.656  0.7478  0.0245  0.2271
 3461SOL     OW21844   1.869   1.471   3.083  0.1997 -0.1403  0.3104
 3461SOL    HW121845   1.905   1.542   3.136  0.9398 -0.6739  0.5293
 3461SOL    HW221846   1.838   1.406   3.146 -0.2016 -1.2682 -1.0535
 3462SOL     OW21847   0.821   4.524   3.390 -0.3965  0.1589  0.4639
 3462SOL    HW121848   0.872   4.548   3.467  0.8375 -1.8188  0.2778
 3462SOL    HW221849   0.760   4.597   3.385 -0.4677  0.1008  0.4903
 3463SOL     OW21850   0.587   3.257   6.846  0.4446 -0.1805 -0.1733
 3463SOL    HW121851   0.652   3.262   6.917 -0.3739 -0.1683  0.5765
 3463SOL    HW221852   0.600   3.167   6.818  0.1394  0.6279 -2.9094
 3464SOL     OW21853   4.540   2.579   4.115  0.0661 -0.1207 -0.2442
 3464SOL    HW121854   4.490   2.508   4.074  0.7028  0.3130 -1.7721
 3464SOL    HW221855   4.475   2.640   4.151 -1.3361 -0.5427 -2.0353
 3465SOL     OW21856   1.627   0.589   4.647 -0.5418 -0.2168  0.4486
 3465SOL    HW121857   1.539   0.593   4.685  1.3115 -1.2524  4.8437
 3465SOL    HW221858   1.612   0.624   4.560  2.2205 -0.7890 -0.2360
 3466SOL     OW21859   0.135   0.021  11.468  0.4969  0.4154 -0.1245
 3466SOL    HW121860   0.117   0.055  11.381  0.2339  0.8725  0.1118
 3466SOL    HW221861   0.175   4.656  11.447 -2.8545 -1.2161  0.0611
 3467SOL     OW21862   0.185   2.254  16.781 -0.5394 -0.2684 -0.0137
 3467SOL    HW121863   0.253   2.190  16.803  1.3221  1.3278 -1.1103
 3467SOL    HW221864   0.151   2.281  16.866 -0.0283 -1.1499  0.4729
 3468SOL     OW21865   0.993   1.831   2.833 -0.0390  0.0461  0.5264
 3468SOL    HW121866   0.940   1.822   2.754  1.5794 -0.7800 -0.4803
 3468SOL    HW221867   0.946   1.900   2.880 -0.1783  0.0098  0.4397
 3469SOL     OW21868   1.839   2.835   3.595  0.3497 -0.2825  0.1406
 3469SOL    HW121869   1.795   2.834   3.680 -1.2830 -1.9388 -0.7175
 3469SOL    HW221870   1.774   2.777   3.555 -0.3149  1.0526 -0.6911
 3470SOL     OW21871   4.655   0.332   6.711 -0.1809 -0.9069 -0.1554
 3470SOL    HW121872   0.011   0.340   6.770 -2.0243  2.4916  1.7803
 3470SOL    HW221873   4.687   0.277   6.640  2.1628  0.6233 -0.3148
 3471SOL     OW21874   2.361   3.264   9.308  0.4062  0.1929  0.3983
 3471SOL    HW121875   2.337   3.322   9.235 -0.6043 -0.5257  0.1601
 3471SOL    HW221876   2.280   3.221   9.337  1.5735 -1.4286  1.2053
 3472SOL     OW21877   0.890   2.654   2.795 -0.5596 -0.1011 -0.9250
 3472SOL    HW121878   0.911   2.626   2.706  0.8276  0.4173 -0.7524
 3472SOL    HW221879   0.845   2.577   2.829 -2.7129  1.8324  0.6161
 3473SOL     OW21880   3.120   2.285   5.735 -0.6309  0.1089  0.7016
 3473SOL    HW121881   3.087   2.359   5.684 -0.0510  1.5369  2.4106
 3473SOL    HW221882   3.095   2.317   5.822  2.1172  2.0920  0.7795
 3474SOL     OW21883   4.161   2.060   7.356 -0.3673  0.6214  0.3952
 3474SOL    HW121884   4.250   2.052   7.322 -0.7782 -0.0996 -0.5171
 3474SOL    HW221885   4.178   2.012   7.437  0.0874  1.0613  0.5543
 3475SOL     OW21886   3.981   4.609   5.281 -0.2771 -0.6986 -0.4344
 3475SOL    HW121887   3.964   4.703   5.270  0.6081 -0.3149  1.4927
 3475SOL    HW221888   4.042   4.594   5.209  0.9548  1.7934  0.0812
 3476SOL     OW21889   1.249   0.298   9.307  0.2559  0.2711 -0.4540
 3476SOL    HW121890   1.200   0.243   9.368 -0.5564  0.6109 -0.7989
 3476SOL    HW221891   1.193   0.259   9.240  1.0261 -0.1399 -0.8513
 3477SOL     OW21892   0.466   1.566   6.431 -0.5474  0.0238 -0.3406
 3477SOL    HW121893   0.494   1.657   6.417  0.8857 -0.4659 -0.6395
 3477SOL    HW221894   0.513   1.529   6.506 -2.0531 -0.6175  0.2919
 3478SOL     OW21895   1.496   1.449   6.087 -0.0496 -0.2216 -0.4726
 3478SOL    HW121896   1.488   1.486   6.175  2.8520 -1.1136  0.1702
 3478SOL    HW221897   1.464   1.521   6.033 -1.5387 -1.4093 -1.1947
 3479SOL     OW21898   0.847   2.532   4.254  0.3487  0.7664 -0.1611
 3479SOL    HW121899   0.821   2.597   4.318 -2.9188 -1.1246  0.4357
 3479SOL    HW221900   0.926   2.487   4.286 -0.0783  0.6566  0.7385
 3480SOL     OW21901   1.829   0.201   4.048 -0.5081 -0.3723  0.0199
 3480SOL    HW121902   1.846   0.158   4.132  0.6310 -2.9582 -1.5413
 3480SOL    HW221903   1.913   0.193   4.003 -0.6648 -0.6642 -0.2214
 3481SOL     OW21904   0.467   1.587   7.487  0.3988  0.0824  0.4595
 3481SOL    HW121905   0.384   1.559   7.448  0.2565  1.2802 -0.0921
 3481SOL    HW221906   0.522   1.577   7.409 -0.7141  1.8485 -0.5423
 3482SOL     OW21907   1.351   2.682   2.172  0.5690  0.0859 -0.5557
 3482SOL    HW121908   1.312   2.687   2.085 -0.0771 -2.4629 -0.4127
 3482SOL    HW221909   1.382   2.772   2.186 -0.6871  0.4298 -0.0038
 3483SOL     OW21910   1.055   1.403   4.448  0.0995  0.2877 -0.8930
 3483SOL    HW121911   1.090   1.389   4.361 -1.0720  3.7572 -1.9118
 3483SOL    HW221912   1.095   1.327   4.489 -0.1975  0.8422  0.4607
 3484SOL     OW21913   2.631   2.358   2.639 -0.8429 -0.3494 -0.2795
 3484SOL    HW121914   2.612   2.342   2.731 -0.4977  1.0640  0.0390
 3484SOL    HW221915   2.724   2.336   2.634 -0.7636  0.0338 -0.4516
 3485SOL     OW21916   4.510   1.670   3.729 -0.3849  0.0344  0.0909
 3485SOL    HW121917   4.487   1.697   3.640  0.5541  1.2219  0.2168
 3485SOL    HW221918   4.551   1.752   3.756 -0.6676  0.3643 -0.4773
 3486SOL     OW21919   4.123   0.179   3.725 -0.1860  1.0153 -0.3879
 3486SOL    HW121920   4.077   0.126   3.791  0.8696  0.4587 -0.1045
 3486SOL    HW221921   4.065   0.175   3.649 -0.3747 -2.1159 -0.0888
 3487SOL     OW21922   3.107   3.873   7.529 -0.3374 -0.1979  0.7359
 3487SOL    HW121923   3.130   3.784   7.554 -1.7433 -0.1941  2.0332
 3487SOL    HW221924   3.022   3.887   7.571 -0.4070 -2.7160  1.4203
 3488SOL     OW21925   2.513   3.445   5.453  0.4368 -0.3381 -0.1245
 3488SOL    HW121926   2.567   3.400   5.388  4.0253  2.7092  0.7576
 3488SOL    HW221927   2.571   3.487   5.516  0.6069 -2.0962  0.8880
 3489SOL     OW21928   2.862   0.409  15.504 -0.3242 -0.3036 -0.5494
 3489SOL    HW121929   2.897   0.495  15.528  2.3097 -0.6320 -3.1455
 3489SOL    HW221930   2.900   0.395  15.417 -0.6050 -1.3485 -0.5057
 3490SOL     OW21931   3.211   2.840   6.533  0.1372 -0.1385 -0.3936
 3490SOL    HW121932   3.153   2.783   6.585  0.6855 -1.3549 -1.1030
 3490SOL    HW221933   3.224   2.779   6.460 -2.1909 -1.0421 -0.0731
 3491SOL     OW21934   0.405   0.878  13.530  0.5484  0.3847  0.1974
 3491SOL    HW121935   0.492   0.853  13.563  0.1589 -1.3548 -0.0582
 3491SOL    HW221936   0.354   0.797  13.539 -1.2999  1.5574  0.1227
 3492SOL     OW21937   3.956   3.956  12.406 -0.2356  0.0500 -0.0745
 3492SOL    HW121938   3.909   3.928  12.485 -3.8976 -3.1191 -3.3659
 3492SOL    HW221939   3.958   3.879  12.349 -0.4366  0.4292 -0.5995
 3493SOL     OW21940   1.374   3.264   5.888 -0.0058  0.5226  0.9998
 3493SOL    HW121941   1.364   3.339   5.946 -2.4055  1.3275 -0.4875
 3493SOL    HW221942   1.453   3.293   5.842  0.7801 -2.6830  0.3237
 3494SOL     OW21943   4.354   1.122   6.830 -0.0238 -0.5093  0.0331
 3494SOL    HW121944   4.318   1.210   6.834  0.7940 -0.3401  3.5057
 3494SOL    HW221945   4.328   1.069   6.905  1.3991 -2.0049 -0.5249
 3495SOL     OW21946   2.127   2.733   3.095 -0.0261  0.3705 -0.6877
 3495SOL    HW121947   2.187   2.788   3.045  0.9613  1.2353  1.4782
 3495SOL    HW221948   2.167   2.736   3.182  0.0301 -1.3878 -0.6451
 3496SOL     OW21949   1.243   2.448   4.595 -0.6563  0.7019 -0.1006
 3496SOL    HW121950   1.291   2.365   4.592 -0.2420  0.8560  1.7148
 3496SOL    HW221951   1.175   2.423   4.658  2.1424 -2.2380  1.7745
 3497SOL     OW21952   3.099   0.783   0.339 -0.2864 -0.0876 -0.3290
 3497SOL    HW121953   3.095   0.878   0.332 -0.3044 -0.0788 -0.1838
 3497SOL    HW221954   3.087   0.770   0.433  0.6869 -0.1451 -0.2168
 3498SOL     OW21955   0.842   0.692   7.835  0.0795 -0.4518 -0.3901
 3498SOL    HW121956   0.820   0.778   7.798 -0.3468 -0.4628 -0.1594
 3498SOL    HW221957   0.831   0.645   7.753  0.9551 -0.8270 -0.2886
 3499SOL     OW21958   2.110   1.681   2.149 -0.4669  0.2035 -0.1821
 3499SOL    HW121959   2.117   1.609   2.212 -0.0369  1.5491  1.2978
 3499SOL    HW221960   2.189   1.728   2.174 -0.3972 -0.5826  1.0990
 3500SOL     OW21961   0.039   4.244   2.831  0.0751 -0.1508  0.8640
 3500SOL    HW121962   4.700   4.198   2.771  1.6385 -0.4737 -0.4297
 3500SOL    HW221963   0.060   4.323   2.780 -1.9404  0.7387  1.4274
 3501SOL     OW21964   1.858   2.556   8.714  0.0588  0.0620  0.4396
 3501SOL    HW121965   1.911   2.506   8.776  2.8498  1.2337 -1.0011
 3501SOL    HW221966   1.907   2.637   8.700  1.8578 -0.8669  1.3823
 3502SOL     OW21967   1.696   2.521   1.925  0.3679  0.3720  0.4927
 3502SOL    HW121968   1.671   2.529   1.832 -0.8342 -0.7935  0.7190
 3502SOL    HW221969   1.695   2.615   1.946  0.2361  0.3611  0.5348
 3503SOL     OW21970   0.823   2.425  12.019  0.7415 -0.5209  0.0825
 3503SOL    HW121971   0.746   2.369  12.014  0.0615  0.4728 -0.6808
 3503SOL    HW221972   0.843   2.447  11.928 -0.1429  2.4005  0.5883
 3504SOL     OW21973   4.095   0.329  12.383  0.2943  0.3027  0.4195
 3504SOL    HW121974   4.014   0.301  12.425  0.3088  0.8748  0.8421
 3504SOL    HW221975   4.122   0.390  12.452  2.5615 -2.2288  1.7827
 3505SOL     OW21976   0.229   4.466   8.688 -0.3949  0.0085 -0.0364
 3505SOL    HW121977   0.194   4.449   8.601  1.1677 -1.9476 -0.2762
 3505SOL    HW221978   0.224   4.561   8.695  2.6361 -0.0063  2.2346
 3506SOL     OW21979   4.620   2.503   6.149 -0.0510 -0.3769 -0.1400
 3506SOL    HW121980   4.668   2.429   6.184  5.0817  3.2172  0.4875
 3506SOL    HW221981   4.677   2.570   6.186 -0.4932 -0.6874  1.1025
 3507SOL     OW21982   0.572   0.298  14.179 -0.2536 -0.0599 -0.1332
 3507SOL    HW121983   0.654   0.253  14.201 -1.2641 -1.1824  1.3276
 3507SOL    HW221984   0.537   0.241  14.111  1.2259 -1.6061  0.3908
 3508SOL     OW21985   0.130   3.247   4.244 -0.6461 -0.2484  0.2659
 3508SOL    HW121986   0.201   3.278   4.301 -0.8673 -1.3556  1.1390
 3508SOL    HW221987   0.144   3.304   4.168  0.5602 -1.4014 -0.3808
 3509SOL     OW21988   2.022   3.550  16.034 -0.0219 -0.1292  0.2690
 3509SOL    HW121989   1.992   3.545  16.125  1.7690  4.2724  1.1149
 3509SOL    HW221990   2.115   3.571  16.050  0.7604 -1.4392 -2.6580
 3510SOL     OW21991   1.989   3.265   0.535 -0.3863 -0.4019  0.2836
 3510SOL    HW121992   1.986   3.172   0.513  1.0299 -0.3764 -0.0555
 3510SOL    HW221993   1.906   3.280   0.579 -0.6987 -0.5872 -0.2407
 3511SOL     OW21994   2.520   3.642   3.723  0.3116  0.6511 -0.7137
 3511SOL    HW121995   2.532   3.719   3.667  2.8989  1.1786  0.5413
 3511SOL    HW221996   2.612   3.619   3.739  0.4694  1.3269 -0.6477
 3512SOL     OW21997   0.520   4.138   8.324 -0.2942  0.3907 -0.7691
 3512SOL    HW121998   0.604   4.112   8.363 -2.2557 -1.6359  2.0820
 3512SOL    HW221999   0.507   4.209   8.385  2.5127 -1.9486  2.5562
 3513SOL     OW22000   0.395   4.611   7.488 -0.3348  0.0162  0.1773
 3513SOL    HW122001   0.316   4.572   7.525  0.3150 -0.0813  1.4623
 3513SOL    HW222002   0.459   4.541   7.475  0.6650  1.2356 -1.6148
 3514SOL     OW22003   3.692   1.564   1.597 -0.3808  0.5278 -0.2930
 3514SOL    HW122004   3.665   1.472   1.592 -0.8218  0.5619  1.3390
 3514SOL    HW222005   3.655   1.600   1.517 -0.5077 -0.4858 -0.6917
 3515SOL     OW22006   1.969   2.348  11.487 -0.0520  0.7244 -0.3926
 3515SOL    HW122007   1.885   2.306  11.506  0.3551 -0.1306 -0.4477
 3515SOL    HW222008   2.023   2.313  11.559 -0.9253  1.4852  0.6366
 3516SOL     OW22009   3.279   1.836   0.264  0.0291 -0.3781 -0.2907
 3516SOL    HW122010   3.222   1.913   0.265 -1.3448 -1.3945  0.5856
 3516SOL    HW222011   3.245   1.794   0.343  0.2887  0.8674  0.4878
 3517SOL     OW22012   4.203   2.485   3.521  0.7080 -0.3271 -0.2248
 3517SOL    HW122013   4.268   2.415   3.530  0.2406 -0.6116  1.0360
 3517SOL    HW222014   4.254   2.566   3.520 -0.6143  0.5139  0.2905
 3518SOL     OW22015   4.397   3.401   0.509  0.2374  0.3000 -0.1128
 3518SOL    HW122016   4.354   3.316   0.504 -1.0052  0.8170  1.6956
 3518SOL    HW222017   4.486   3.381   0.480  0.1615  1.3947 -1.0675
 3519SOL     OW22018   0.426   4.016   7.279  0.4767  0.4711  0.2605
 3519SOL    HW122019   0.356   3.954   7.302  0.9062  0.1425  0.6926
 3519SOL    HW222020   0.412   4.094   7.334 -1.1430  1.8304 -2.0886
 3520SOL     OW22021   4.476   0.466   0.339  0.5978 -0.5091  0.0839
 3520SOL    HW122022   4.460   0.379   0.374 -1.7969  1.1167  3.0833
 3520SOL    HW222023   4.406   0.517   0.380 -1.4131 -1.3343 -2.3183
 3521SOL     OW22024   4.461   1.567   4.926 -0.7724 -0.4357 -0.2853
 3521SOL    HW122025   4.385   1.512   4.948 -1.4703  0.0086 -1.5878
 3521SOL    HW222026   4.500   1.580   5.013 -0.4120  0.0996 -0.5300
 3522SOL     OW22027   3.979   2.271  12.600 -0.4678  0.7057 -0.0887
 3522SOL    HW122028   3.956   2.264  12.693 -2.3981  1.7160 -0.4733
 3522SOL    HW222029   4.067   2.307  12.604 -1.3534  2.9976 -1.3856
 3523SOL     OW22030   0.492   2.890   4.243  0.4171  0.4537  0.2004
 3523SOL    HW122031   0.450   2.804   4.234 -0.3316  0.6942  1.4175
 3523SOL    HW222032   0.573   2.860   4.285 -0.4650  1.7289  2.7763
 3524SOL     OW22033   3.658   0.320   5.314 -0.0113  0.3449 -0.0877
 3524SOL    HW122034   3.599   0.395   5.311  0.1051  0.4113 -0.7429
 3524SOL    HW222035   3.663   0.304   5.408  3.9444 -1.0925 -0.5371
 3525SOL     OW22036   4.548   1.736  14.610 -0.3353  0.2977  0.2927
 3525SOL    HW122037   4.536   1.767  14.699 -0.6851 -1.1541  0.7483
 3525SOL    HW222038   4.574   1.803  14.547 -0.3431 -0.9359 -1.0331
 3526SOL     OW22039   1.570   4.252   2.850  0.0488 -0.0197  0.1503
 3526SOL    HW122040   1.555   4.161   2.824  0.6753  0.2088 -1.0460
 3526SOL    HW222041   1.480   4.285   2.851  0.3945  0.9749 -0.8649
 3527SOL     OW22042   1.185   2.163   4.114 -0.1112  0.4937  0.3341
 3527SOL    HW122043   1.263   2.125   4.154  0.1567 -0.4856 -1.1331
 3527SOL    HW222044   1.220   2.200   4.033  1.5214 -0.5769  0.5743
 3528SOL     OW22045   0.431   3.420   3.237  0.0223  0.0193  0.0877
 3528SOL    HW122046   0.464   3.483   3.302  0.5422 -1.1510  0.9645
 3528SOL    HW222047   0.379   3.480   3.185 -1.8575 -1.5035  0.2173
 3529SOL     OW22048   4.641   3.367  10.577  0.0949 -0.1844 -0.0002
 3529SOL    HW122049   4.621   3.448  10.624 -1.1670  0.0359 -0.9397
 3529SOL    HW222050   4.560   3.317  10.586 -0.1424  0.4645  1.4317
 3530SOL     OW22051   2.656   1.960  11.358 -1.0289 -0.4360 -0.1308
 3530SOL    HW122052   2.704   2.006  11.427 -0.4066 -1.2580 -0.0212
 3530SOL    HW222053   2.661   1.870  11.391  0.3111  0.4432  2.0444
 3531SOL     OW22054   2.983   0.052   4.567 -0.4869 -0.6391 -0.0072
 3531SOL    HW122055   3.063   0.093   4.600 -1.3632  0.8605  0.2793
 3531SOL    HW222056   2.997   4.679   4.586 -0.5062 -0.9081 -1.3347
 3532SOL     OW22057   4.702   0.411   6.329  0.0201  0.1246 -0.2412
 3532SOL    HW122058   4.622   0.377   6.290  2.4465 -3.2391 -2.3413
 3532SOL    HW222059   0.033   0.331   6.314  1.5865  0.7078  1.8432
 3533SOL     OW22060   1.021   3.253   7.890  0.2090  0.3094  0.6401
 3533SOL    HW122061   1.106   3.292   7.906  0.3758  0.0469  0.3882
 3533SOL    HW222062   0.985   3.253   7.979 -2.0658 -3.4510 -0.2474
 3534SOL     OW22063   1.091   1.775   0.992  0.4248 -0.6468 -0.0865
 3534SOL    HW122064   1.153   1.729   1.049 -0.0488 -1.2661 -0.0635
 3534SOL    HW222065   1.144   1.784   0.913  1.9981 -0.4447  0.9899
 3535SOL     OW22066   2.367   2.037  11.648 -0.8127  0.3747 -0.6769
 3535SOL    HW122067   2.372   2.036  11.553 -1.6661 -3.7003 -0.7110
 3535SOL    HW222068   2.278   2.010  11.673 -0.0003  0.5122  2.4695
 3536SOL     OW22069   4.480   1.758  11.431  0.2379  0.5137 -0.2977
 3536SOL    HW122070   4.574   1.774  11.419  0.0687  0.6440 -1.5086
 3536SOL    HW222071   4.447   1.749  11.342  0.1818  1.7051 -0.4020
 3537SOL     OW22072   0.829   2.335   6.857  0.0607 -0.4339 -0.0687
 3537SOL    HW122073   0.872   2.253   6.880 -1.0586 -0.9845  0.0766
 3537SOL    HW222074   0.839   2.332   6.762 -0.3019  4.1127 -0.2523
 3538SOL     OW22075   3.898   2.174  16.319  0.0450 -0.2348  0.1150
 3538SOL    HW122076   3.933   2.151  16.405 -0.5715  1.2297  0.7736
 3538SOL    HW222077   3.959   2.243  16.293 -1.1329  0.7132 -0.1368
 3539SOL     OW22078   3.354   0.846   5.568  0.5746 -0.2431 -0.0571
 3539SOL    HW122079   3.349   0.931   5.611 -2.3597 -1.0247  1.1071
 3539SOL    HW222080   3.434   0.845   5.516  0.6964  1.1017  0.1091
 3540SOL     OW22081   0.110   4.232   7.120  0.2635  0.7665  0.4257
 3540SOL    HW122082   0.193   4.273   7.143  0.3440  1.8917 -1.8704
 3540SOL    HW222083   0.057   4.250   7.198 -0.1141  2.2608 -0.1648
 3541SOL     OW22084   1.645   1.577   4.044  0.3783  0.2096  0.2348
 3541SOL    HW122085   1.725   1.525   4.052 -0.5418 -1.3229 -0.3789
 3541SOL    HW222086   1.647   1.620   4.129  1.2588 -2.3303  1.4914
 3542SOL     OW22087   1.993   3.521  13.317  0.2200 -0.0265 -0.3077
 3542SOL    HW122088   2.050   3.597  13.319  0.4796 -0.2708  1.2322
 3542SOL    HW222089   1.908   3.561  13.336  0.4438 -0.9000  2.4751
 3543SOL     OW22090   3.024   0.356   2.360  0.1582  0.5478  0.3731
 3543SOL    HW122091   3.108   0.330   2.398 -0.1028  2.3180  2.1455
 3543SOL    HW222092   2.996   0.291   2.296  0.5301  1.5314 -0.7880
 3544SOL     OW22093   2.016   1.782   5.451  0.5933 -0.2184  0.2476
 3544SOL    HW122094   1.984   1.838   5.381  1.6665  0.3340  0.1932
 3544SOL    HW222095   2.097   1.824   5.480  1.3668 -1.9647  0.6324
 3545SOL     OW22096   2.280   0.808   4.556  0.2595 -0.0364  0.0592
 3545SOL    HW122097   2.235   0.840   4.634  1.8839 -1.8671  1.7331
 3545SOL    HW222098   2.334   0.882   4.529  0.2491  0.0709  0.3393
 3546SOL     OW22099   3.154   3.818   9.988 -0.0380 -0.0871  0.3237
 3546SOL    HW122100   3.096   3.830   9.912 -0.1497 -0.6723  0.3166
 3546SOL    HW222101   3.112   3.866  10.059 -0.7145  1.5299 -1.1789
 3547SOL     OW22102   0.769   2.225   1.808  0.0458 -0.3585 -0.0293
 3547SOL    HW122103   0.800   2.248   1.720 -1.5667 -0.2875 -0.5788
 3547SOL    HW222104   0.692   2.171   1.787  1.1926 -2.4733  1.2385
 3548SOL     OW22105   1.730   4.306   6.284 -0.3917  0.7349 -0.5048
 3548SOL    HW122106   1.778   4.270   6.359  1.8454  0.1634 -2.2330
 3548SOL    HW222107   1.676   4.374   6.326 -1.2666  0.1145 -0.6370
 3549SOL     OW22108   3.182   2.695   5.029  0.6356 -0.2107 -0.2574
 3549SOL    HW122109   3.207   2.771   4.977 -1.2101 -1.1808 -2.5722
 3549SOL    HW222110   3.219   2.724   5.112 -1.3525  1.9943 -0.1596
 3550SOL     OW22111   2.425   1.277  15.448  0.5108  0.0626 -0.4750
 3550SOL    HW122112   2.428   1.336  15.373  1.1584  1.6754  0.8172
 3550SOL    HW222113   2.463   1.202  15.401 -0.9516 -0.0999 -1.3779
 3551SOL     OW22114   1.115   2.554   2.963  0.4993  0.1353  0.0802
 3551SOL    HW122115   1.082   2.607   3.035 -0.8146 -2.2245  1.2352
 3551SOL    HW222116   1.035   2.524   2.919 -0.3914  0.1585  1.6982
 3552SOL     OW22117   3.159   4.543   7.695  0.2098  0.0032  0.1774
 3552SOL    HW122118   3.246   4.520   7.728  0.2218  0.9489  0.8173
 3552SOL    HW222119   3.121   4.455   7.701  2.9649 -1.2117 -0.1921
 3553SOL     OW22120   1.907   2.935   5.348 -0.3970 -0.1197  0.7480
 3553SOL    HW122121   1.877   2.870   5.285 -0.0635  1.2676 -0.8627
 3553SOL    HW222122   1.819   2.965   5.372 -0.0982 -0.0805  1.7982
 3554SOL     OW22123   2.045   4.491   5.212  0.0745 -0.3332 -0.0539
 3554SOL    HW122124   2.024   4.485   5.118 -0.5192 -0.2384  0.0758
 3554SOL    HW222125   2.035   4.397   5.228  0.8967 -0.2748  0.7881
 3555SOL     OW22126   0.387   3.774  16.490 -0.3899 -0.7793 -0.4619
 3555SOL    HW122127   0.438   3.751  16.568  0.8868 -2.7340 -1.8772
 3555SOL    HW222128   0.299   3.758  16.524  1.1626 -3.5258  2.3739
 3556SOL     OW22129   1.042   3.830   0.291 -0.6231 -0.6533  0.5706
 3556SOL    HW122130   0.976   3.773   0.332  0.0252 -2.0187 -0.2969
 3556SOL    HW222131   1.025   3.801   0.202 -0.7008  1.3248 -0.0539
 3557SOL     OW22132   3.536   0.537   4.520  0.1990  0.2437  0.2340
 3557SOL    HW122133   3.534   0.487   4.439 -0.3350 -1.3393  1.2236
 3557SOL    HW222134   3.453   0.583   4.517 -0.3458 -0.6989  0.9268
 3558SOL     OW22135   1.470   1.867  16.988  0.0480 -0.7105  0.7274
 3558SOL    HW122136   1.557   1.882  17.026 -0.5900 -0.0407  1.9130
 3558SOL    HW222137   1.422   1.950  16.984  2.5321  0.6983  0.3377
 3559SOL     OW22138   0.092   2.898   5.634  0.0499 -0.1868  0.2963
 3559SOL    HW122139   0.006   2.878   5.673  0.3514 -1.7142  0.1954
 3559SOL    HW222140   0.145   2.820   5.652  0.3623 -0.2221 -0.7922
 3560SOL     OW22141   0.771   2.341   6.356 -0.0217  0.1191 -0.1039
 3560SOL    HW122142   0.849   2.295   6.326 -0.9184 -1.6511  0.2720
 3560SOL    HW222143   0.792   2.378   6.442  0.3469  1.4460 -0.7553
 3561SOL     OW22144   0.840   1.905  13.046  0.3125 -0.3782 -0.3221
 3561SOL    HW122145   0.754   1.914  13.005 -0.2444  3.2870  1.6403
 3561SOL    HW222146   0.900   1.906  12.972  1.4161 -0.9963  0.5577
 3562SOL     OW22147   3.759   0.156  16.545  0.0319 -0.1306 -0.1972
 3562SOL    HW122148   3.728   0.233  16.497  0.4248 -2.2455 -3.8288
 3562SOL    HW222149   3.769   0.103  16.467 -1.5181 -0.4968 -0.1471
 3563SOL     OW22150   3.078   4.340   9.021 -0.0344 -0.7317 -0.5948
 3563SOL    HW122151   3.010   4.291   9.068 -0.8444  2.8278  1.8919
 3563SOL    HW222152   3.069   4.423   9.067 -1.2527 -1.4505  0.4816
 3564SOL     OW22153   1.998   4.717  10.849 -0.1454 -0.0532 -0.0351
 3564SOL    HW122154   1.990   0.053  10.926 -2.5258 -0.0683 -0.2565
 3564SOL    HW222155   1.931   0.040  10.796  1.2652  0.7857 -1.1322
 3565SOL     OW22156   2.989   3.410   3.046  0.7016 -0.2352 -0.0640
 3565SOL    HW122157   3.026   3.468   2.980 -0.5795  1.7662  0.9817
 3565SOL    HW222158   3.049   3.335   3.042  1.4111  0.4621 -2.3563
 3566SOL     OW22159   4.197   0.990   0.809 -0.0065  0.1292 -0.0121
 3566SOL    HW122160   4.137   0.993   0.735  0.2597 -2.2657 -0.2985
 3566SOL    HW222161   4.256   1.058   0.775  2.0104 -0.5924  2.0188
 3567SOL     OW22162   3.990   3.161   7.677  0.0473  0.3384 -0.1421
 3567SOL    HW122163   3.917   3.186   7.622  0.0437 -0.5862 -0.5533
 3567SOL    HW222164   4.048   3.108   7.623  0.9106  2.1216 -0.9743
 3568SOL     OW22165   3.494   0.297   4.659  0.2612  0.4198  0.7558
 3568SOL    HW122166   3.529   0.383   4.636  0.9063 -0.3738 -1.1919
 3568SOL    HW222167   3.548   0.275   4.735  0.6368 -1.6232 -0.1206
 3569SOL     OW22168   2.785   3.793  12.667  0.0016  0.8742  0.3162
 3569SOL    HW122169   2.745   3.826  12.586 -4.0117 -2.4362  0.9667
 3569SOL    HW222170   2.877   3.812  12.647  0.3365 -0.8743  0.1999
 3570SOL     OW22171   4.062   1.361   6.585  0.0658 -0.0404  0.0450
 3570SOL    HW122172   4.062   1.313   6.668  1.2566  0.8167  0.5405
 3570SOL    HW222173   3.971   1.393   6.580 -0.6518 -1.9040  1.2983
 3571SOL     OW22174   4.674   1.836  11.690  0.3238  0.6773 -0.1895
 3571SOL    HW122175   4.657   1.746  11.715  2.4079  0.5377  0.7614
 3571SOL    HW222176   4.706   1.841  11.600  0.4529 -1.4776 -0.2520
 3572SOL     OW22177   2.352   1.853   3.231 -0.5418 -0.6244 -0.2193
 3572SOL    HW122178   2.389   1.764   3.228  0.3749 -0.3879  4.1971
 3572SOL    HW222179   2.350   1.861   3.326  1.6723 -0.1829 -0.2039
 3573SOL     OW22180   2.393   2.947   6.133  0.1442  0.2034  0.6146
 3573SOL    HW122181   2.430   2.876   6.186 -0.6198 -0.1495  0.6678
 3573SOL    HW222182   2.380   2.909   6.046 -0.2749  0.8500  0.3968
 3574SOL     OW22183   2.532   3.379   1.599  0.7494  0.4905  0.5896
 3574SOL    HW122184   2.614   3.392   1.647  1.7477  1.8965 -1.4912
 3574SOL    HW222185   2.552   3.429   1.520  3.3547 -1.2671  0.1175
 3575SOL     OW22186   4.278   0.213   9.467  0.0457  0.9983  0.3453
 3575SOL    HW122187   4.184   0.209   9.447 -0.1769  0.1797  1.5618
 3575SOL    HW222188   4.316   0.174   9.388  0.2654  0.3954  0.7476
 3576SOL     OW22189   2.362   1.888   6.369  0.1197  0.3051 -0.1342
 3576SOL    HW122190   2.311   1.849   6.298  0.5024 -0.2340 -0.1124
 3576SOL    HW222191   2.307   1.958   6.403 -0.2827  0.4091 -0.9832
 3577SOL     OW22192   1.797   1.796  13.144  0.1002  0.1610  0.1154
 3577SOL    HW122193   1.770   1.853  13.072  2.2138  0.4723 -0.4239
 3577SOL    HW222194   1.816   1.721  13.088 -0.3857  0.0157  0.1463
 3578SOL     OW22195   1.526   1.012   3.268  0.0269 -0.3153 -0.5879
 3578SOL    HW122196   1.552   0.922   3.251 -2.5923 -0.7260 -2.3237
 3578SOL    HW222197   1.434   1.012   3.241 -0.0760  0.9614 -0.2646
 3579SOL     OW22198   0.468   0.617   2.003 -0.1104 -0.6887  0.2315
 3579SOL    HW122199   0.430   0.577   1.926  2.3585 -1.4509 -0.5875
 3579SOL    HW222200   0.415   0.696   2.013  0.6009 -0.0732 -0.8944
 3580SOL     OW22201   1.067   3.940   2.406 -0.5397  0.0904  0.1460
 3580SOL    HW122202   1.049   3.854   2.369 -0.9940 -0.6409  2.0634
 3580SOL    HW222203   1.024   3.992   2.339  1.5464 -0.1214 -1.3393
 3581SOL     OW22204   1.499   1.472   8.466  0.2923 -0.0898  0.5703
 3581SOL    HW122205   1.523   1.462   8.374  0.9366 -1.9890  0.9555
 3581SOL    HW222206   1.552   1.551   8.477 -2.4116  1.7825  0.2610
 3582SOL     OW22207   2.276   3.362   4.435  0.2918  0.3875 -0.6967
 3582SOL    HW122208   2.181   3.370   4.426 -0.2449  0.3342  4.9445
 3582SOL    HW222209   2.307   3.352   4.345 -3.9548  0.6058 -2.2268
 3583SOL     OW22210   3.171   4.246   8.138  0.3474  0.1374 -0.1162
 3583SOL    HW122211   3.111   4.240   8.064 -0.6929  1.2620  0.6261
 3583SOL    HW222212   3.254   4.240   8.091  0.3122  1.4343 -0.3495
 3584SOL     OW22213   2.247   1.005  14.538  0.2105  0.0103  0.0938
 3584SOL    HW122214   2.264   1.031  14.629 -1.8503  1.6274  0.0133
 3584SOL    HW222215   2.326   1.018  14.486  1.3914  0.2044  1.9307
 3585SOL     OW22216   0.221   0.958   9.361  0.0769 -0.4606 -0.6688
 3585SOL    HW122217   0.309   0.943   9.395 -0.0770 -0.7525 -0.4013
 3585SOL    HW222218   0.174   0.951   9.443  1.2273  0.5775  0.0860
 3586SOL     OW22219   3.194   1.486   6.138  0.0949  0.1988 -0.1638
 3586SOL    HW122220   3.189   1.532   6.222 -0.1267 -1.1906  0.5909
 3586SOL    HW222221   3.260   1.426   6.172  0.6332  0.7268 -0.2674
 3587SOL     OW22222   3.124   4.500   6.303  0.2712 -0.2941  0.1435
 3587SOL    HW122223   3.094   4.562   6.235  2.0851 -0.0241 -0.4125
 3587SOL    HW222224   3.078   4.425   6.266 -2.5805  2.1946 -1.4619
 3588SOL     OW22225   2.961   0.173   1.794 -0.5295  0.4427  0.6707
 3588SOL    HW122226   2.977   0.134   1.708  2.4867  1.2721  0.8677
 3588SOL    HW222227   3.045   0.216   1.810 -0.3122  0.9735 -1.8167
 3589SOL     OW22228   1.273   3.727   4.100  0.1677  0.1729  0.0482
 3589SOL    HW122229   1.243   3.642   4.130  0.5477  0.0441  0.0629
 3589SOL    HW222230   1.247   3.722   4.008 -0.0127  1.4759  0.0256
 3590SOL     OW22231   1.022   3.059  16.892  0.6507  0.2868 -0.5779
 3590SOL    HW122232   1.078   3.136  16.899  0.0468  0.8618 -2.0102
 3590SOL    HW222233   1.033   3.040  16.799 -0.1489 -0.5771 -0.4926
 3591SOL     OW22234   2.912   1.210   6.378  0.1233  0.2657 -0.0145
 3591SOL    HW122235   2.939   1.253   6.459  1.2646 -0.4875 -0.0028
 3591SOL    HW222236   2.905   1.122   6.413  1.9980 -0.2270 -0.8623
 3592SOL     OW22237   0.495   2.938  17.677 -0.2204 -0.1411  0.0926
 3592SOL    HW122238   0.510   3.032  17.675  0.2328 -0.1408  3.2285
 3592SOL    HW222239   0.443   2.919  17.599  0.3154  1.2859 -0.6144
 3593SOL     OW22240   1.394   2.152   2.740 -0.2671  0.1675  0.1336
 3593SOL    HW122241   1.356   2.196   2.816 -0.0203  1.1834 -0.3357
 3593SOL    HW222242   1.444   2.222   2.698 -1.8122  0.8390 -0.5870
 3594SOL     OW22243   1.802   2.004   1.920  0.4001 -0.2547 -0.9187
 3594SOL    HW122244   1.872   1.987   1.982  0.0423  0.2196 -0.3824
 3594SOL    HW222245   1.836   2.077   1.869  0.3941  1.2872  1.2726
 3595SOL     OW22246   3.642   3.769   6.112  0.3790 -0.0623 -0.1862
 3595SOL    HW122247   3.612   3.729   6.194  0.9655 -2.1123 -0.9736
 3595SOL    HW222248   3.723   3.809   6.143 -0.6483  0.9903  1.1445
 3596SOL     OW22249   0.338   0.898   5.433 -0.0513 -0.7052 -0.0102
 3596SOL    HW122250   0.406   0.942   5.484  0.2613 -0.3273 -0.7590
 3596SOL    HW222251   0.385   0.871   5.354 -0.5454 -0.1757 -0.4734
 3597SOL     OW22252   3.007   1.237   6.892  0.4209  0.1325 -0.1394
 3597SOL    HW122253   2.974   1.167   6.835 -1.8718  0.5552  0.6739
 3597SOL    HW222254   3.016   1.194   6.977  0.0293  2.4360  1.0599
 3598SOL     OW22255   2.964   3.086  11.617  0.0968 -1.1454  0.6470
 3598SOL    HW122256   2.910   3.055  11.544  0.9092 -2.4221  0.5889
 3598SOL    HW222257   2.910   3.128  11.684  0.2355 -1.1704  0.7720
 3599SOL     OW22258   4.404   1.732   5.694  0.4443 -0.3152 -0.0326
 3599SOL    HW122259   4.470   1.759   5.757 -0.9716 -0.0182  1.3158
 3599SOL    HW222260   4.328   1.710   5.747 -1.3929  0.0975 -2.5056
 3600SOL     OW22261   1.363   4.183  13.726 -0.5884  0.2408  0.9705
 3600SOL    HW122262   1.451   4.149  13.743 -1.3242 -1.9185  0.4785
 3600SOL    HW222263   1.366   4.203  13.633 -0.8760 -0.2602  0.8566
 3601SOL     OW22264   2.370   1.343  13.018 -0.3841 -0.5070  0.0344
 3601SOL    HW122265   2.432   1.275  13.046 -0.0567 -0.0770  0.3549
 3601SOL    HW222266   2.388   1.404  13.089 -1.0786 -1.2120  0.8097
 3602SOL     OW22267   0.283   0.054   8.432 -0.3256  0.4370 -0.1193
 3602SOL    HW122268   0.334   4.697   8.406  0.4172  0.5595  0.9793
 3602SOL    HW222269   0.212   0.021   8.487  1.4656 -1.2529  1.1601
 3603SOL     OW22270   0.601   1.339   3.501  0.4348  0.7451 -0.1308
 3603SOL    HW122271   0.540   1.286   3.450 -0.3772 -0.0816  1.6858
 3603SOL    HW222272   0.555   1.351   3.585 -0.7431 -1.2011 -0.4994
 3604SOL     OW22273   2.022   2.670   9.121  0.2015  0.3872  0.2905
 3604SOL    HW122274   1.981   2.752   9.151 -1.9286 -0.5816  0.0517
 3604SOL    HW222275   2.000   2.595   9.176 -0.2643 -1.2345 -2.1201
 3605SOL     OW22276   0.067   1.323   3.197  0.0938  0.7766 -0.2113
 3605SOL    HW122277   0.039   1.377   3.124 -1.4853  1.9222  1.2380
 3605SOL    HW222278   0.159   1.348   3.211  0.1462 -0.2544  1.3617
 3606SOL     OW22279   3.465   3.377   2.270  0.2588 -0.2169 -0.2860
 3606SOL    HW122280   3.515   3.310   2.222 -1.4363  0.0888 -2.5023
 3606SOL    HW222281   3.382   3.366   2.221 -0.6858  0.4398  1.1910
 3607SOL     OW22282   2.723   1.387  14.241 -0.1499 -0.1348 -0.2111
 3607SOL    HW122283   2.666   1.371  14.165 -1.4305  2.0854  0.2513
 3607SOL    HW222284   2.708   1.481  14.255  1.8992  0.0855  0.4520
 3608SOL     OW22285   1.809   2.054   8.608 -0.3470 -0.3310 -0.8377
 3608SOL    HW122286   1.796   2.144   8.637  0.2700 -0.4957 -0.0509
 3608SOL    HW222287   1.835   2.016   8.692  1.8856  2.3002 -0.3299
 3609SOL     OW22288   1.293   2.565  12.804  0.4917 -0.0290  0.2428
 3609SOL    HW122289   1.382   2.534  12.822  0.5960  1.3622  2.2040
 3609SOL    HW222290   1.282   2.532  12.715 -1.2414 -0.0840  0.4932
 3610SOL     OW22291   0.055   1.732  12.448 -0.2062  0.2690 -0.5508
 3610SOL    HW122292   0.002   1.659  12.481  0.1936  0.4920  0.5989
 3610SOL    HW222293   4.711   1.795  12.413 -1.4114  0.9486  2.8758
 3611SOL     OW22294   3.245   4.681   3.041  0.6989  0.1148  0.7079
 3611SOL    HW122295   3.231   4.588   3.022 -0.9802  0.7583 -1.1302
 3611SOL    HW222296   3.341   4.674   3.045  0.9786  2.6152 -1.6670
 3612SOL     OW22297   4.684   3.358   6.111 -0.6791  0.3068 -0.0031
 3612SOL    HW122298   4.631   3.334   6.035 -0.3173  0.2333 -0.2363
 3612SOL    HW222299   4.714   3.271   6.138  1.2311  1.6616  2.2165
 3613SOL     OW22300   2.630   3.899  14.622  1.0410 -0.7812  0.0717
 3613SOL    HW122301   2.593   3.811  14.617  1.2134 -0.8647  0.2405
 3613SOL    HW222302   2.557   3.940  14.668  0.3421 -0.2261 -1.5368
 3614SOL     OW22303   3.516   2.873   6.438 -0.5673 -0.3064 -0.1422
 3614SOL    HW122304   3.540   2.781   6.450  2.5492  0.2262 -2.3227
 3614SOL    HW222305   3.571   2.904   6.510 -2.5893  0.5665  1.0264
 3615SOL     OW22306   3.663   2.185  11.103  0.4196  0.4609 -0.1765
 3615SOL    HW122307   3.572   2.210  11.117  0.9306  1.5477  1.2405
 3615SOL    HW222308   3.650   2.091  11.116  3.6683 -0.0215 -0.3904
 3616SOL     OW22309   0.767   1.285  16.012 -0.2308  0.0056  0.0014
 3616SOL    HW122310   0.697   1.346  16.033 -2.0936 -2.1222 -0.0494
 3616SOL    HW222311   0.718   1.207  16.039 -0.6483  0.6928  1.2550
 3617SOL     OW22312   4.172   0.054  10.702  0.0017 -0.2778 -0.3164
 3617SOL    HW122313   4.255   0.013  10.724  0.8466  1.4706 -0.2349
 3617SOL    HW222314   4.193   0.143  10.731  0.8092 -0.1109 -1.3953
 3618SOL     OW22315   0.134   1.505   8.624  0.2652  0.7343 -0.2684
 3618SOL    HW122316   0.160   1.419   8.591  1.0269  1.3985 -1.3768
 3618SOL    HW222317   0.172   1.495   8.711  1.3237  0.0551 -0.8184
 3619SOL     OW22318   4.501   4.267   4.372 -0.2717  0.4654 -0.0740
 3619SOL    HW122319   4.483   4.274   4.278  0.2390  1.3169 -0.1180
 3619SOL    HW222320   4.593   4.290   4.386  0.0318 -1.1702  0.4896
 3620SOL     OW22321   3.714   1.676  12.632 -0.3164 -0.2146 -0.2764
 3620SOL    HW122322   3.793   1.729  12.623 -0.7786  0.4806 -0.2076
 3620SOL    HW222323   3.672   1.725  12.703  1.2591 -3.0973  2.6182
 3621SOL     OW22324   0.534   0.810   7.776 -0.3475  0.3212 -0.0668
 3621SOL    HW122325   0.493   0.761   7.704 -2.2164  0.2781  1.0407
 3621SOL    HW222326   0.570   0.875   7.715  2.3172  1.1148  2.3826
 3622SOL     OW22327   1.581   2.795  12.624 -0.5514  0.5925  0.4598
 3622SOL    HW122328   1.568   2.703  12.603  0.6505  0.5952 -0.2568
 3622SOL    HW222329   1.606   2.832  12.539  0.1181  2.1173  1.3210
 3623SOL     OW22330   4.485   0.013   9.618 -0.1984  0.6566  0.3575
 3623SOL    HW122331   4.467   0.010   9.524 -1.1408  3.4102  0.4484
 3623SOL    HW222332   4.521   4.647   9.639  0.5467  1.2882  1.6334
 3624SOL     OW22333   3.151   4.273   2.429  0.1964 -1.1351 -0.2119
 3624SOL    HW122334   3.190   4.309   2.349 -1.4773 -2.0169 -1.4141
 3624SOL    HW222335   3.141   4.348   2.487  0.5024 -1.1076 -0.1958
 3625SOL     OW22336   4.209   2.557  13.230  0.2615 -0.5334 -0.1504
 3625SOL    HW122337   4.292   2.604  13.228  0.1104 -0.1620  2.5112
 3625SOL    HW222338   4.244   2.472  13.203  0.3579  0.3049 -2.6376
 3626SOL     OW22339   2.686   0.615   4.456  0.6938 -0.2384 -0.2130
 3626SOL    HW122340   2.757   0.669   4.490  2.5527 -2.5748 -0.3406
 3626SOL    HW222341   2.620   0.633   4.523  1.0016  1.6507 -0.4095
 3627SOL     OW22342   0.712   3.984  10.280  0.3459  0.5573  0.0359
 3627SOL    HW122343   0.706   3.920  10.209  0.2076  3.4910 -2.5740
 3627SOL    HW222344   0.659   3.950  10.352 -0.0057  0.3304 -0.3233
 3628SOL     OW22345   1.886   2.575  11.776  0.5421 -0.3832 -0.1162
 3628SOL    HW122346   1.893   2.484  11.747 -1.4592 -0.3573 -0.6758
 3628SOL    HW222347   1.808   2.568  11.830  1.8141 -0.1825  1.7335
 3629SOL     OW22348   0.237   4.578   5.199 -0.1513  0.2255 -0.3522
 3629SOL    HW122349   0.156   4.547   5.158 -0.4932 -0.1814  0.6424
 3629SOL    HW222350   0.313   4.529   5.167  1.6097  0.9830  2.6809
 3630SOL     OW22351   1.169   1.985   3.421  0.1120 -0.3803  0.0835
 3630SOL    HW122352   1.133   2.041   3.490 -0.7932 -1.7846  0.7342
 3630SOL    HW222353   1.166   2.039   3.342 -2.7145  0.5945  0.8714
 3631SOL     OW22354   2.683   2.052   4.078  0.1282 -0.4981 -0.3788
 3631SOL    HW122355   2.675   2.033   4.171 -1.4743  0.5077 -0.3245
 3631SOL    HW222356   2.765   2.101   4.078 -0.4085  0.3848 -3.3969
 3632SOL     OW22357   3.381   0.458   8.171  0.0809  0.0921 -0.1230
 3632SOL    HW122358   3.357   0.377   8.217  0.3894 -0.2613 -0.5933
 3632SOL    HW222359   3.431   0.500   8.241 -1.0737  1.0924  0.1072
 3633SOL     OW22360   2.125   4.685   6.159  0.8575 -0.4880 -0.5894
 3633SOL    HW122361   2.057   0.007   6.212  2.6897  1.0721  0.5151
 3633SOL    HW222362   2.120   0.013   6.076 -0.5459  0.1225 -0.1593
 3634SOL     OW22363   3.255   2.674   6.329 -0.6276 -0.0890  0.1493
 3634SOL    HW122364   3.345   2.652   6.307 -0.6315 -0.7205  0.7629
 3634SOL    HW222365   3.214   2.588   6.317 -3.2194  1.2925 -0.9404
 3635SOL     OW22366   1.371   4.221   2.352  0.1532  0.3100  0.0039
 3635SOL    HW122367   1.378   4.234   2.446  1.9628  1.5629 -0.2975
 3635SOL    HW222368   1.447   4.275   2.329  0.1061  0.2541 -0.2876
 3636SOL     OW22369   0.082   0.337   8.989  0.2370  0.2316  0.1388
 3636SOL    HW122370   0.037   0.389   9.055  0.4993  0.8446 -0.1679
 3636SOL    HW222371   0.085   0.256   9.041 -1.4119  0.3763  0.4592
 3637SOL     OW22372   3.689   3.235  16.569 -0.1828 -0.5009  0.1237
 3637SOL    HW122373   3.671   3.163  16.508  3.8135 -1.0545 -0.3839
 3637SOL    HW222374   3.622   3.299  16.545  0.9190  0.4547 -0.3738
 3638SOL     OW22375   0.873   1.652   4.414 -0.2126  0.3912  0.6726
 3638SOL    HW122376   0.918   1.701   4.345 -0.6838  1.1106  0.8810
 3638SOL    HW222377   0.899   1.561   4.395 -0.5677  1.2822 -4.0651
 3639SOL     OW22378   4.002   2.055   3.558  0.0202 -0.3396 -0.1856
 3639SOL    HW122379   4.031   2.081   3.471 -0.5225  0.7533 -0.0488
 3639SOL    HW222380   4.004   1.960   3.548 -0.3086 -0.3035 -0.6187
 3640SOL     OW22381   2.764   1.311   2.364  0.2396  0.1126  0.4009
 3640SOL    HW122382   2.844   1.342   2.406  0.3707 -1.4643  1.3198
 3640SOL    HW222383   2.746   1.375   2.295  0.0666  0.8856  1.1608
 3641SOL     OW22384   4.622   4.298   5.045 -0.1179  0.2275  0.1688
 3641SOL    HW122385   4.641   4.331   5.133 -0.5628 -0.2384  0.4430
 3641SOL    HW222386   4.639   4.378   4.996 -1.3511  0.1100 -0.4465
 3642SOL     OW22387   3.407   3.692   4.620  0.7417  0.4204  0.1791
 3642SOL    HW122388   3.327   3.678   4.672 -0.4150  1.4593 -1.3078
 3642SOL    HW222389   3.471   3.671   4.688 -1.1674 -1.6960  1.3299
 3643SOL     OW22390   1.673   0.145  16.382  0.0547  0.1230  0.1038
 3643SOL    HW122391   1.578   0.142  16.366  0.0667 -1.7787  0.4910
 3643SOL    HW222392   1.682   0.063  16.430  3.2132  0.6880  0.4775
 3644SOL     OW22393   0.404   2.484   7.449 -0.6028  0.2028  0.2006
 3644SOL    HW122394   0.330   2.513   7.503 -1.4454 -4.6759  1.6910
 3644SOL    HW222395   0.413   2.559   7.391 -2.6737  0.4759  0.2398
 3645SOL     OW22396   1.226   0.016   3.270 -0.7043  0.2863  0.5870
 3645SOL    HW122397   1.262   4.648   3.266  1.4673  1.2986 -2.5912
 3645SOL    HW222398   1.216   0.030   3.364 -5.5485 -0.9327  0.2630
 3646SOL     OW22399   2.269   3.262   3.431  0.6423  0.6232  0.4648
 3646SOL    HW122400   2.271   3.167   3.433  3.0155  0.6935  1.9762
 3646SOL    HW222401   2.269   3.287   3.524  0.8328 -0.7354  0.8173
 3647SOL     OW22402   3.969   1.689  14.530  0.5084 -0.0226 -0.1874
 3647SOL    HW122403   4.034   1.671  14.462  0.0119  1.3325 -1.0224
 3647SOL    HW222404   4.016   1.740  14.596 -0.2781  2.6444 -1.6789
 3648SOL     OW22405   3.730   3.030   1.301  0.1137  0.1647 -0.4729
 3648SOL    HW122406   3.676   2.961   1.340 -1.6677  1.5464 -0.4404
 3648SOL    HW222407   3.728   3.105   1.361  3.4236  0.7066 -1.0405
 3649SOL     OW22408   2.822   0.324   3.533  0.2452  0.4875  0.8572
 3649SOL    HW122409   2.822   0.230   3.551 -0.8076  0.3646  0.2044
 3649SOL    HW222410   2.825   0.348   3.626 -5.5214  2.7452  0.4612
 3650SOL     OW22411   3.675   4.384   5.822 -0.8215  0.3178  0.1313
 3650SOL    HW122412   3.652   4.416   5.735 -1.4356  0.3306  0.3009
 3650SOL    HW222413   3.731   4.316   5.784  1.7864  0.2225  4.0197
 3651SOL     OW22414   4.013   4.506  13.480 -0.6214  0.0078  0.1535
 3651SOL    HW122415   4.031   4.427  13.530 -2.2117  0.5716  1.6068
 3651SOL    HW222416   3.960   4.469  13.409  1.7575 -4.3899  0.6787
 3652SOL     OW22417   1.172   4.132  10.479 -0.2717 -0.0920 -0.0003
 3652SOL    HW122418   1.211   4.161  10.561  0.3383 -1.3876  0.1691
 3652SOL    HW222419   1.084   4.119  10.514  0.2546 -2.3331  0.4587
 3653SOL     OW22420   0.861   2.428  14.389  0.0381  0.5931 -0.5528
 3653SOL    HW122421   0.929   2.440  14.456 -0.8274  1.3119  0.1982
 3653SOL    HW222422   0.896   2.487  14.323 -1.0148  1.4231 -0.3586
 3654SOL     OW22423   1.690   4.498   8.484  0.1448 -0.1668 -0.3143
 3654SOL    HW122424   1.783   4.485   8.500 -0.1325 -0.7403  0.8465
 3654SOL    HW222425   1.648   4.485   8.570  2.5707  0.0180  0.8841
 3655SOL     OW22426   2.549   3.421   2.734 -0.2129  0.4574 -0.5087
 3655SOL    HW122427   2.519   3.330   2.725 -1.4133  0.7389  0.7978
 3655SOL    HW222428   2.617   3.435   2.668 -1.6632  1.5645 -1.7581
 3656SOL     OW22429   2.446   0.695   0.818  0.2473 -0.2471 -0.3792
 3656SOL    HW122430   2.390   0.764   0.782  0.1059  0.3340  0.9652
 3656SOL    HW222431   2.455   0.733   0.905 -1.3913 -1.6005  0.3725
 3657SOL     OW22432   3.417   0.320  15.709  0.0206  0.5909 -0.3381
 3657SOL    HW122433   3.436   0.256  15.641  2.6626  0.1735  0.8070
 3657SOL    HW222434   3.417   0.260  15.783 -1.9646  0.5974 -0.3207
 3658SOL     OW22435   0.154   2.461   1.946 -0.5296  0.1272  0.0134
 3658SOL    HW122436   0.138   2.507   1.863  0.5813  0.9283  0.2478
 3658SOL    HW222437   0.121   2.373   1.929  1.2257 -0.3948 -0.6829
 3659SOL     OW22438   1.156   1.327  15.788  0.1704  0.4025 -0.3334
 3659SOL    HW122439   1.200   1.342  15.704  2.8404 -1.7776  0.6659
 3659SOL    HW222440   1.167   1.232  15.784 -1.2783  0.2593 -0.8516
 3660SOL     OW22441   2.293   3.556  14.390  0.5848 -0.1881 -0.0726
 3660SOL    HW122442   2.364   3.567  14.326  2.2644 -1.4914  1.5937
 3660SOL    HW222443   2.254   3.474  14.361 -2.9562  1.2259  0.7463
 3661SOL     OW22444   3.682   4.372  11.398  0.5566 -0.1134  0.4400
 3661SOL    HW122445   3.647   4.376  11.487  1.2283  0.7076  0.6627
 3661SOL    HW222446   3.612   4.325  11.352 -0.7446 -0.8581  3.1167
 3662SOL     OW22447   2.550   4.624   3.828  0.3675 -0.0370  0.0834
 3662SOL    HW122448   2.619   4.594   3.887  0.3185  1.3474  0.8394
 3662SOL    HW222449   2.473   4.571   3.850  2.4704 -2.0479  2.5626
 3663SOL     OW22450   2.751   2.857   3.700  0.0831 -0.2276 -0.1453
 3663SOL    HW122451   2.805   2.895   3.631 -0.6896  0.2994 -0.4576
 3663SOL    HW222452   2.766   2.893   3.788  1.2821  0.5919 -0.6915
 3664SOL     OW22453   3.691   2.410   3.678 -0.3817 -0.6041  0.0311
 3664SOL    HW122454   3.722   2.475   3.741 -1.8944 -0.3207  0.4747
 3664SOL    HW222455   3.750   2.339   3.703  1.6873  0.4055 -1.9401
 3665SOL     OW22456   1.936   3.702   1.978  0.1696  0.9493  0.0023
 3665SOL    HW122457   2.013   3.673   1.928 -1.2924 -1.9811 -0.5598
 3665SOL    HW222458   1.966   3.674   2.064 -0.3510  0.7469  0.1137
 3666SOL     OW22459   1.612   3.162   3.450 -0.2936 -0.5673 -0.5116
 3666SOL    HW122460   1.697   3.118   3.441 -0.0884  0.3848 -3.1226
 3666SOL    HW222461   1.555   3.087   3.432  0.1406 -0.3103 -2.8772
 3667SOL     OW22462   0.757   0.384  14.971  0.4912  0.4311 -0.5594
 3667SOL    HW122463   0.763   0.295  14.935 -0.8830  0.0251  0.1924
 3667SOL    HW222464   0.815   0.422  14.906  1.1844 -1.3662 -0.9893
 3668SOL     OW22465   4.297   1.913  13.547  0.3897  0.1730 -0.2445
 3668SOL    HW122466   4.319   1.836  13.494  1.3775  0.0760  0.3178
 3668SOL    HW222467   4.376   1.967  13.544  0.8693 -0.6341 -2.0096
 3669SOL     OW22468   0.399   0.602   8.671 -0.3566  0.1851  0.4522
 3669SOL    HW122469   0.408   0.675   8.733  1.3587  1.8181 -1.6876
 3669SOL    HW222470   0.448   0.538   8.722  1.1506 -0.3207 -1.6640
 3670SOL     OW22471   4.216   3.648   1.499 -0.2166 -0.0010  0.2758
 3670SOL    HW122472   4.141   3.610   1.544 -0.4560 -0.1458 -0.2507
 3670SOL    HW222473   4.221   3.602   1.415  2.0386  1.6622 -0.5161
 3671SOL     OW22474   3.243   2.204  14.935  0.4081  0.0810  0.8650
 3671SOL    HW122475   3.294   2.253  14.870 -0.8094  0.0111 -0.1382
 3671SOL    HW222476   3.211   2.133  14.878  2.9190 -0.1110 -0.3347
 3672SOL     OW22477   1.623   0.480   1.033 -0.0241 -0.7614 -0.3672
 3672SOL    HW122478   1.673   0.560   1.046 -0.3714 -0.7029  0.5892
 3672SOL    HW222479   1.690   0.412   1.033  1.1416  0.4168  2.5284
 3673SOL     OW22480   1.774   3.389   6.215  0.2029  0.1603  0.0578
 3673SOL    HW122481   1.777   3.475   6.174 -2.1286 -0.2772 -1.0790
 3673SOL    HW222482   1.679   3.377   6.219  0.1111  0.5199 -0.9532
 3674SOL     OW22483   2.373   2.253   0.368 -0.9337  0.1098  0.3498
 3674SOL    HW122484   2.284   2.225   0.345 -0.8434  0.8760 -0.9383
 3674SOL    HW222485   2.370   2.214   0.455  1.7014  1.0257  0.8320
 3675SOL     OW22486   2.509   4.293   8.353  0.2025 -0.3906 -0.3612
 3675SOL    HW122487   2.485   4.350   8.281  1.2744  1.0331  0.4152
 3675SOL    HW222488   2.431   4.263   8.401 -0.1943 -0.0916 -0.8188
 3676SOL     OW22489   0.493   2.879   3.237 -0.0482  0.2277  1.1321
 3676SOL    HW122490   0.501   2.815   3.307  0.6283 -0.8504  0.0793
 3676SOL    HW222491   0.520   2.961   3.278  0.5253  0.0775  1.0660
 3677SOL     OW22492   1.291   0.281   1.236  0.1088  0.1019  0.7619
 3677SOL    HW122493   1.208   0.234   1.238  1.3313 -2.1268 -1.2948
 3677SOL    HW222494   1.328   0.246   1.316  0.4938 -1.1372  0.0368
 3678SOL     OW22495   0.288   0.625   2.670  0.0303  0.5510 -0.7477
 3678SOL    HW122496   0.369   0.641   2.720  1.1685  1.4790 -2.8773
 3678SOL    HW222497   0.304   0.539   2.631  0.3282  1.5047 -2.7200
 3679SOL     OW22498   1.307   1.466  11.988 -0.0084  0.0248 -0.6532
 3679SOL    HW122499   1.251   1.508  12.054 -0.5530 -0.2983 -0.9107
 3679SOL    HW222500   1.383   1.523  11.996 -0.8679  0.8267  1.7983
 3680SOL     OW22501   2.017   1.080  14.419  0.0363  0.4146 -0.4301
 3680SOL    HW122502   1.978   1.133  14.488  0.1072 -0.1588  0.0478
 3680SOL    HW222503   2.108   1.075  14.446  0.3276  0.6816 -1.3583
 3681SOL     OW22504   3.881   3.903   6.155  0.4878  0.2211  0.2873
 3681SOL    HW122505   3.912   3.951   6.231  2.0109  1.3236 -1.0536
 3681SOL    HW222506   3.912   3.962   6.086 -1.5448 -0.2810 -1.0924
 3682SOL     OW22507   3.534   0.649   5.201 -0.5261 -0.0354 -1.0825
 3682SOL    HW122508   3.440   0.655   5.184 -0.8356 -3.3988 -0.4185
 3682SOL    HW222509   3.576   0.617   5.121  0.8815 -1.9197  0.4074
 3683SOL     OW22510   1.000   3.816  17.051 -0.0640 -0.1053  0.3188
 3683SOL    HW122511   0.938   3.835  16.980 -2.5551  0.0910  2.5747
 3683SOL    HW222512   1.075   3.782  17.002 -0.2844 -0.0272 -0.0720
 3684SOL     OW22513   3.088   1.346  11.730  0.3248  0.2747  0.0633
 3684SOL    HW122514   3.142   1.417  11.764 -1.9273  1.0893  1.9256
 3684SOL    HW222515   3.070   1.381  11.642  1.5122  3.1191  0.9500
 3685SOL     OW22516   1.086   0.092   4.199  0.2613  0.2801 -0.4820
 3685SOL    HW122517   1.073   0.127   4.287  0.0304 -1.8483  0.3537
 3685SOL    HW222518   0.996   0.087   4.167  0.4854 -0.6510 -0.9663
 3686SOL     OW22519   0.555   1.078   1.646  0.3072 -0.3897 -0.5734
 3686SOL    HW122520   0.640   1.035   1.651  0.4944  0.1990  1.1392
 3686SOL    HW222521   0.531   1.057   1.556  0.7644  0.2265 -0.8416
 3687SOL     OW22522   2.361   0.185   3.860 -0.0959  0.1020 -0.2655
 3687SOL    HW122523   2.416   0.261   3.844  1.3030 -0.7010  0.5853
 3687SOL    HW222524   2.431   0.119   3.856 -0.2178 -0.1512  1.7062
 3688SOL     OW22525   4.258   3.833  16.536 -0.3649  0.2119 -0.6030
 3688SOL    HW122526   4.174   3.879  16.537 -0.2687  0.3712  0.3366
 3688SOL    HW222527   4.298   3.870  16.614  1.4117 -1.8814 -0.5228
 3689SOL     OW22528   2.064   0.393   9.411 -0.2007 -0.4007  0.3124
 3689SOL    HW122529   2.152   0.428   9.399 -0.1986 -0.0820  1.2674
 3689SOL    HW222530   2.010   0.462   9.374  1.3728  0.6673 -0.0075
 3690SOL     OW22531   3.970   3.572  14.785 -0.7724 -0.0937 -0.5194
 3690SOL    HW122532   4.051   3.623  14.783  0.3526 -1.8842  0.5416
 3690SOL    HW222533   4.010   3.487  14.767 -1.3013 -0.3802 -0.3491
 3691SOL     OW22534   1.343   1.175   9.905 -0.2546  0.3133  0.1252
 3691SOL    HW122535   1.260   1.205   9.942 -1.0898 -0.4344 -1.1482
 3691SOL    HW222536   1.327   1.081   9.896  1.6879 -0.0966  0.9733
 3692SOL     OW22537   4.035   0.054  13.323 -0.4789  0.4385  0.6602
 3692SOL    HW122538   4.089   4.703  13.289 -0.1415  2.0501 -2.1685
 3692SOL    HW222539   4.049   0.121  13.256 -1.3053  1.0850  1.1326
 3693SOL     OW22540   0.588   2.010   7.838 -0.6596 -0.1331 -0.6010
 3693SOL    HW122541   0.493   2.016   7.828 -0.8138 -3.8540 -1.1315
 3693SOL    HW222542   0.622   2.095   7.810  0.7416 -0.5317 -0.1002
 3694SOL     OW22543   3.529   1.726   6.126 -0.7844  0.3287  0.2233
 3694SOL    HW122544   3.516   1.641   6.084  1.0929 -0.2542  0.8207
 3694SOL    HW222545   3.503   1.779   6.050 -2.1370  0.0263  0.4682
 3695SOL     OW22546   3.711   3.060   9.775  0.6609  0.8056 -0.5881
 3695SOL    HW122547   3.725   3.013   9.858  0.8254 -0.7180 -1.4868
 3695SOL    HW222548   3.632   3.109   9.798  0.9937  1.2333 -0.3484
 3696SOL     OW22549   3.389   1.053   5.752 -0.5837 -0.1418 -0.0660
 3696SOL    HW122550   3.351   1.128   5.798  0.0088 -0.1110  0.3689
 3696SOL    HW222551   3.474   1.082   5.719 -0.1159  0.2969  1.5408
 3697SOL     OW22552   4.482   2.256   4.523 -0.1989  0.4931  0.2250
 3697SOL    HW122553   4.556   2.215   4.568  1.4887  1.9210 -1.2420
 3697SOL    HW222554   4.479   2.339   4.570 -0.6968  1.0548 -0.7807
 3698SOL     OW22555   2.857   0.579  14.398  0.3872 -0.0117 -0.0269
 3698SOL    HW122556   2.840   0.640  14.470 -0.2083 -0.1110 -0.0888
 3698SOL    HW222557   2.882   0.644  14.331  0.3707 -0.1318 -0.1486
 3699SOL     OW22558   2.331   0.889   5.358 -0.5202 -0.2243  0.0362
 3699SOL    HW122559   2.367   0.969   5.395  0.6556 -0.9997  0.5729
 3699SOL    HW222560   2.332   0.825   5.430 -3.3599 -1.1085 -0.7091
 3700SOL     OW22561   4.005   0.927   0.212  0.7095 -0.5440 -0.2948
 3700SOL    HW122562   3.939   0.863   0.185 -0.3642  0.6113 -0.3993
 3700SOL    HW222563   3.969   0.953   0.297  0.7183 -0.1234 -0.4216
 3701SOL     OW22564   3.957   2.617   4.898 -0.9681 -0.1894 -0.5221
 3701SOL    HW122565   3.905   2.604   4.818 -1.4003  0.1445 -0.2978
 3701SOL    HW222566   4.013   2.693   4.881 -1.0093  0.2915  1.5336
 3702SOL     OW22567   3.153   4.395   3.620 -0.8307 -0.3625 -0.2835
 3702SOL    HW122568   3.105   4.417   3.700 -3.0727  0.9017 -1.9526
 3702SOL    HW222569   3.119   4.307   3.602 -0.2358 -0.8537  1.0157
 3703SOL     OW22570   2.054   4.642   4.957 -0.5040 -0.6431  0.3717
 3703SOL    HW122571   1.990   4.603   4.897  0.8497 -0.1828 -1.3609
 3703SOL    HW222572   2.140   4.648   4.916 -0.0032 -0.8153  1.3785
 3704SOL     OW22573   1.589   3.359  15.135  0.1033 -0.2543 -0.1992
 3704SOL    HW122574   1.576   3.418  15.208  1.8695 -1.0229  0.7351
 3704SOL    HW222575   1.673   3.317  15.150  0.8423  1.9043  1.6390
 3705SOL     OW22576   3.770   3.671   1.118  0.1521  0.1185  0.6732
 3705SOL    HW122577   3.695   3.703   1.168 -0.5920 -0.3258 -0.1532
 3705SOL    HW222578   3.821   3.748   1.093  1.4489 -0.5625  1.2527
 3706SOL     OW22579   4.608   0.550   1.706  0.0660  0.3729  0.3872
 3706SOL    HW122580   4.602   0.467   1.659 -0.0332  0.7027 -0.1780
 3706SOL    HW222581   4.519   0.567   1.737 -0.5420 -1.1319 -0.5183
 3707SOL     OW22582   1.892   1.224   2.017  0.0877 -0.4060  0.0598
 3707SOL    HW122583   1.925   1.293   2.075 -3.9690  2.3137 -0.8089
 3707SOL    HW222584   1.832   1.275   1.962  2.2863  0.9305 -1.1105
 3708SOL     OW22585   4.283   0.184   2.431 -0.2352 -0.4728 -0.9332
 3708SOL    HW122586   4.204   0.208   2.479 -0.9152 -1.0844 -1.7525
 3708SOL    HW222587   4.324   0.112   2.478 -1.6688 -1.2831 -0.9206
 3709SOL     OW22588   1.794   2.165   7.628  0.1059 -0.5345 -0.6311
 3709SOL    HW122589   1.784   2.214   7.710  1.0407 -3.1926  1.0455
 3709SOL    HW222590   1.833   2.235   7.575 -0.5785 -0.2871 -0.8125
 3710SOL     OW22591   3.326   2.520  15.419 -0.4722 -0.5239 -0.2524
 3710SOL    HW122592   3.244   2.549  15.460  0.6400 -0.0492  1.6558
 3710SOL    HW222593   3.303   2.428  15.405 -0.3866 -0.4075 -1.1826
 3711SOL     OW22594   2.991   0.048  15.247 -0.2721  0.5242  0.0257
 3711SOL    HW122595   3.011   0.139  15.270  1.1367  0.2396 -0.0768
 3711SOL    HW222596   2.923   0.052  15.181 -0.4057  3.2327  0.3285
 3712SOL     OW22597   0.019   4.414  16.819 -0.4336  0.0756 -0.7341
 3712SOL    HW122598   4.653   4.387  16.785  0.2991 -0.1746 -2.3414
 3712SOL    HW222599   0.018   4.374  16.906  0.4891  0.6330 -0.4668
 3713SOL     OW22600   3.783   0.927   8.146 -0.1850  0.3966  0.6758
 3713SOL    HW122601   3.821   0.933   8.233  1.1946 -0.6263  0.1396
 3713SOL    HW222602   3.744   1.012   8.122  2.0206  0.8585 -1.2032
 3714SOL     OW22603   1.028   1.231   2.336 -0.1437  0.2096 -0.7044
 3714SOL    HW122604   1.107   1.247   2.285  0.0774  1.5738  0.0576
 3714SOL    HW222605   1.068   1.154   2.376 -0.2931 -0.2286 -1.4064
 3715SOL     OW22606   4.100   3.028  13.089 -0.0985  0.0588  0.1080
 3715SOL    HW122607   4.183   3.039  13.136  0.0559 -0.8072  0.0303
 3715SOL    HW222608   4.048   3.089  13.142  1.4594  2.1519 -0.7436
 3716SOL     OW22609   1.812   1.998   3.949  0.3228  0.8791  0.0702
 3716SOL    HW122610   1.880   1.931   3.943  3.1622  3.7425  0.0113
 3716SOL    HW222611   1.864   2.077   3.933  0.4503  0.8919  0.5274
 3717SOL     OW22612   1.258   0.578   3.014  0.7614  0.3571  0.3942
 3717SOL    HW122613   1.188   0.523   2.978  1.5346  0.1432 -0.8081
 3717SOL    HW222614   1.261   0.643   2.944 -1.2062  1.0652  0.9717
 3718SOL     OW22615   3.570   2.318  10.877 -0.0779  0.4213  0.4779
 3718SOL    HW122616   3.582   2.279  10.963 -0.5800  0.0154  0.3612
 3718SOL    HW222617   3.660   2.295  10.855 -1.1592 -2.4933 -0.9554
 3719SOL     OW22618   2.827   0.011   7.573 -0.2872 -0.4919 -0.3541
 3719SOL    HW122619   2.921   4.718   7.558 -0.0126 -0.3876  1.2638
 3719SOL    HW222620   2.798   0.034   7.485  2.1819  1.1731 -0.7686
 3720SOL     OW22621   0.200   3.126  16.370  0.5357  0.0590 -0.0180
 3720SOL    HW122622   0.201   3.201  16.311 -1.4842  1.0664  1.2194
 3720SOL    HW222623   0.267   3.084  16.317  0.7844 -0.5785  0.8009
 3721SOL     OW22624   2.314   3.551   3.097  0.3547  0.3264 -0.2835
 3721SOL    HW122625   2.393   3.506   3.068  0.4038 -1.9417  3.4146
 3721SOL    HW222626   2.259   3.486   3.140  0.7550 -0.1784 -0.5301
 3722SOL     OW22627   2.098   3.409   4.161  0.3254  0.1762  0.1766
 3722SOL    HW122628   2.172   3.441   4.111  0.0442 -0.6461 -0.7644
 3722SOL    HW222629   2.026   3.444   4.108 -0.0599 -0.6244  0.1565
 3723SOL     OW22630   1.530   1.064   7.450  0.9377  0.2081 -0.4139
 3723SOL    HW122631   1.581   1.145   7.442 -0.3527  1.0351 -0.2844
 3723SOL    HW222632   1.599   1.001   7.427  0.7376 -0.5289  1.0728
 3724SOL     OW22633   0.325   2.453  16.998  0.2448  0.0577  0.2851
 3724SOL    HW122634   0.263   2.421  17.064  1.1435  1.5379  1.8162
 3724SOL    HW222635   0.390   2.383  17.002 -0.4851 -0.5732  1.2992
 3725SOL     OW22636   3.249   2.709   2.402  0.4234  0.3897  0.3861
 3725SOL    HW122637   3.320   2.769   2.425  1.7738 -1.3896  0.8555
 3725SOL    HW222638   3.263   2.635   2.462 -0.0394  0.8834  1.0962
 3726SOL     OW22639   4.231   1.747   4.602 -0.7546 -0.0022  0.3663
 3726SOL    HW122640   4.308   1.804   4.608  0.1204 -1.1892  0.5316
 3726SOL    HW222641   4.156   1.805   4.588 -0.7881  0.0091  0.6024
 3727SOL     OW22642   0.081   2.858   0.372  0.1891 -0.0335 -0.0959
 3727SOL    HW122643   0.038   2.870   0.287  0.5355 -0.7376 -0.3675
 3727SOL    HW222644   0.040   2.939   0.402 -1.2381 -0.0327 -2.0447
 3728SOL     OW22645   0.023   1.605   1.276  0.0799 -0.4795  0.1730
 3728SOL    HW122646   0.113   1.588   1.249 -0.3025 -1.8157 -0.3100
 3728SOL    HW222647   0.024   1.555   1.357 -0.3767 -0.9387 -0.1047
 3729SOL     OW22648   0.056   1.335   1.382 -0.1528 -0.5814 -0.5831
 3729SOL    HW122649   4.706   1.287   1.427  0.7390 -0.2841  1.1338
 3729SOL    HW222650   0.023   1.315   1.295 -0.7012  0.6839 -0.6752
 3730SOL     OW22651   4.521   2.457   0.818  0.2617  0.5815 -0.3748
 3730SOL    HW122652   4.610   2.471   0.784 -0.2285 -1.5940 -2.5660
 3730SOL    HW222653   4.477   2.518   0.759 -0.1394  0.2833 -0.3838
 3731SOL     OW22654   2.804   4.588   6.863  0.1323  0.0646 -0.4365
 3731SOL    HW122655   2.866   4.660   6.853  0.1317  0.0685 -0.4124
 3731SOL    HW222656   2.751   4.587   6.783 -0.1462  0.2245 -0.2519
 3732SOL     OW22657   2.035   4.073   4.336  0.1641  0.6859 -0.2160
 3732SOL    HW122658   2.044   4.029   4.251 -0.4000 -0.4599  0.3190
 3732SOL    HW222659   1.979   4.004   4.372  1.2472 -0.4297 -0.6679
 3733SOL     OW22660   4.016   1.138  13.472  0.1935  0.7167  0.0513
 3733SOL    HW122661   3.932   1.181  13.456 -1.3460 -2.4407 -0.3113
 3733SOL    HW222662   3.998   1.056  13.425  0.6317 -0.0443  1.2270
 3734SOL     OW22663   1.076   1.973   6.769 -0.0704 -0.0477  0.1857
 3734SOL    HW122664   1.013   2.006   6.831  0.9493  0.7390  0.7991
 3734SOL    HW222665   1.153   1.960   6.824 -0.6142  1.6194  1.3231
 3735SOL     OW22666   2.505   1.529   6.277  0.1326  0.2293  0.0501
 3735SOL    HW122667   2.548   1.445   6.292 -1.5919 -0.4592  1.2014
 3735SOL    HW222668   2.433   1.507   6.216  1.2931  0.0905 -1.2661
 3736SOL     OW22669   2.343   1.106   8.229 -0.0493  0.2157  0.2840
 3736SOL    HW122670   2.412   1.055   8.273  0.1228 -0.9195 -1.3305
 3736SOL    HW222671   2.385   1.141   8.151  0.8711  0.4407  0.8737
 3737SOL     OW22672   0.374   2.382   8.643  0.4017  0.2923 -0.0681
 3737SOL    HW122673   0.428   2.448   8.687 -1.1368  0.2456  1.8801
 3737SOL    HW222674   0.429   2.304   8.641  1.1323  0.7713  0.8771
 3738SOL     OW22675   3.264   4.083   2.203  0.3545  0.5052 -0.7606
 3738SOL    HW122676   3.283   4.177   2.202  0.8904  0.4147  1.3293
 3738SOL    HW222677   3.168   4.080   2.199  0.2196  2.1553  1.0944
 3739SOL     OW22678   1.336   1.218  12.283  0.0036 -1.0486  0.4085
 3739SOL    HW122679   1.405   1.162  12.247 -0.8733 -1.8856  0.0415
 3739SOL    HW222680   1.271   1.196  12.217  0.7721 -1.5114 -0.1959
 3740SOL     OW22681   2.476   1.867  12.675 -0.2395 -0.2444 -0.2161
 3740SOL    HW122682   2.545   1.913  12.723  0.7815 -2.8611  0.8296
 3740SOL    HW222683   2.422   1.830  12.746 -0.8610  0.6924 -0.2066
 3741SOL     OW22684   3.307   1.111   3.075  0.1757  0.2550  0.6057
 3741SOL    HW122685   3.315   1.098   2.980  0.2975  0.0724  0.6434
 3741SOL    HW222686   3.282   1.022   3.099 -2.9748  1.0518  0.2888
 3742SOL     OW22687   4.069   2.679   3.855 -0.3523 -0.4278  0.1543
 3742SOL    HW122688   4.062   2.617   3.928 -1.0386  0.4910  0.8627
 3742SOL    HW222689   4.032   2.634   3.779  1.7405  0.3125 -1.2938
 3743SOL     OW22690   0.062   0.613   0.095  0.0765 -0.7294 -0.0998
 3743SOL    HW122691   0.135   0.672   0.114 -0.1524 -0.7149  0.7376
 3743SOL    HW222692   0.017   0.659   0.024  2.9335  1.4412 -0.5106
 3744SOL     OW22693   0.933   2.025   4.038  0.3268  0.4058  0.0193
 3744SOL    HW122694   0.908   2.050   3.949  0.8108 -0.1674 -0.2713
 3744SOL    HW222695   1.009   2.080   4.056  0.2054  0.8146 -0.7075
 3745SOL     OW22696   1.477   1.861   6.030 -0.1182 -0.0290 -0.0750
 3745SOL    HW122697   1.474   1.904   6.115  0.7454 -0.4919  0.1886
 3745SOL    HW222698   1.468   1.930   5.964  3.6721 -1.8095 -2.4470
 3746SOL     OW22699   2.842   4.202   7.199  0.6057  0.3082 -0.2210
 3746SOL    HW122700   2.818   4.285   7.241  2.1735 -0.7108  2.6863
 3746SOL    HW222701   2.778   4.149   7.246 -0.6081  1.9338 -0.0423
 3747SOL     OW22702   4.116   1.387   1.969 -0.3979 -0.1266  0.3744
 3747SOL    HW122703   4.064   1.467   1.968 -1.5321 -0.8715  0.0979
 3747SOL    HW222704   4.141   1.382   1.877  1.0470 -0.6530  0.7979
 3748SOL     OW22705   4.268   3.143   4.884 -0.3947 -0.5162 -0.0344
 3748SOL    HW122706   4.238   3.199   4.955 -1.0570  0.7140 -1.2954
 3748SOL    HW222707   4.186   3.107   4.852 -0.2696  0.5001 -1.4879
 3749SOL     OW22708   1.902   3.989  13.034 -0.0459 -0.3137  0.2025
 3749SOL    HW122709   1.904   3.972  12.940  2.7499  1.5801 -0.0775
 3749SOL    HW222710   1.907   4.085  13.031  0.4498 -0.3837 -0.9563
 3750SOL     OW22711   0.176   4.712   3.000 -0.0266  0.5898 -0.5667
 3750SOL    HW122712   0.243   4.643   2.998 -0.3858  0.2109  0.3709
 3750SOL    HW222713   0.182   0.025   2.910 -2.3407  2.5240  0.0029
 3751SOL     OW22714   4.547   1.704   2.491  0.4990 -0.3792 -0.3004
 3751SOL    HW122715   4.483   1.775   2.500  1.6178  0.8680 -2.2482
 3751SOL    HW222716   4.608   1.714   2.565 -0.2100 -0.2224  0.2669
 3752SOL     OW22717   1.520   3.167   8.380 -0.1229 -0.2507  0.0110
 3752SOL    HW122718   1.488   3.249   8.341  1.7899 -0.3427 -1.7698
 3752SOL    HW222719   1.444   3.146   8.433  1.5588 -0.2804  2.4030
 3753SOL     OW22720   2.540   2.167   9.229  0.4647 -0.1135 -0.5526
 3753SOL    HW122721   2.499   2.229   9.169  1.1596  0.3586 -0.5478
 3753SOL    HW222722   2.570   2.226   9.299  1.0884 -0.8939 -0.1601
 3754SOL     OW22723   3.290   1.996   2.040  0.3342 -0.0477 -0.0054
 3754SOL    HW122724   3.347   1.928   2.004 -1.1487 -1.7453  0.9146
 3754SOL    HW222725   3.214   1.952   2.078  0.1589  1.1065  0.9722
 3755SOL     OW22726   0.874   4.568   7.406 -0.4726  0.0825  0.0433
 3755SOL    HW122727   0.876   4.616   7.489 -0.6071  0.9648 -0.4568
 3755SOL    HW222728   0.800   4.510   7.423 -0.8728  1.0567  1.6569
 3756SOL     OW22729   0.182   4.354   6.191 -0.2057  0.4981 -0.2898
 3756SOL    HW122730   0.191   4.382   6.282  1.8738 -1.3889  0.0990
 3756SOL    HW222731   0.257   4.397   6.149  0.4591  0.9014  1.3362
 3757SOL     OW22732   1.425   1.104   5.609 -0.1905  0.1350 -0.7929
 3757SOL    HW122733   1.463   1.191   5.599  0.2611 -0.1206 -1.3151
 3757SOL    HW222734   1.376   1.123   5.689  1.2834 -0.2789  0.2098
 3758SOL     OW22735   3.551   2.426   3.433 -0.4723  0.1736  0.5839
 3758SOL    HW122736   3.557   2.332   3.448  0.5062 -0.0195 -1.0780
 3758SOL    HW222737   3.610   2.449   3.505 -0.9997 -0.0942  1.1074
 3759SOL     OW22738   3.776   2.870  17.025  0.1810  0.9486 -0.0006
 3759SOL    HW122739   3.725   2.951  17.018 -1.4867 -0.1173 -0.2339
 3759SOL    HW222740   3.710   2.810  17.060  1.2250 -0.6049 -0.7253
 3760SOL     OW22741   2.242   3.590   3.728  0.4510 -0.7456  0.0730
 3760SOL    HW122742   2.328   3.630   3.723  0.9699 -2.2015 -2.5772
 3760SOL    HW222743   2.267   3.503   3.697  0.1988 -0.8005  0.0200
 3761SOL     OW22744   2.608   1.755   7.432 -0.0430  0.2060  0.1392
 3761SOL    HW122745   2.584   1.703   7.355 -1.2245 -0.2022  0.7809
 3761SOL    HW222746   2.634   1.838   7.391  0.9576  0.3586  1.0785
 3762SOL     OW22747   3.082   3.161  15.644 -0.1992 -0.7062  0.3379
 3762SOL    HW122748   3.115   3.236  15.695 -0.6892 -1.1253  1.2700
 3762SOL    HW222749   3.150   3.099  15.669 -0.7515 -0.7899  1.6363
 3763SOL     OW22750   1.210   3.440   7.206  0.0510 -0.2100 -0.3067
 3763SOL    HW122751   1.278   3.470   7.265 -0.6996  1.5798 -0.3416
 3763SOL    HW222752   1.256   3.387   7.141  1.1836 -1.4108  1.4751
 3764SOL     OW22753   3.334   3.749   5.323 -0.0139 -1.1595 -0.1589
 3764SOL    HW122754   3.362   3.754   5.414  1.6685 -0.2243 -0.7204
 3764SOL    HW222755   3.378   3.824   5.282 -0.4766  0.0809  1.6292
 3765SOL     OW22756   2.168   0.361  10.128 -0.3356  0.3708  0.3194
 3765SOL    HW122757   2.077   0.331  10.119 -0.3367  0.6383 -0.5825
 3765SOL    HW222758   2.148   0.448  10.161  0.1187  0.8921 -0.8010
 3766SOL     OW22759   1.894   0.630   4.430 -0.2351  0.1451 -0.5536
 3766SOL    HW122760   1.986   0.620   4.404 -0.3230  0.6968 -1.0871
 3766SOL    HW222761   1.873   0.539   4.450  1.6273  0.3060  2.1540
 3767SOL     OW22762   2.683   1.112   5.010  0.0400  0.0879 -0.1691
 3767SOL    HW122763   2.678   1.178   4.941  3.9487 -0.2429 -0.7779
 3767SOL    HW222764   2.668   1.164   5.089 -2.1192 -0.2088 -0.3808
 3768SOL     OW22765   3.937   2.736   8.660  0.3200  0.0230  0.0170
 3768SOL    HW122766   3.944   2.651   8.616 -1.0418  0.8553 -1.8012
 3768SOL    HW222767   3.858   2.710   8.707  0.9196  0.1158  1.0734
 3769SOL     OW22768   0.866   3.119   3.306 -0.1731  0.5532 -0.2862
 3769SOL    HW122769   0.850   3.035   3.349  0.1693  0.3583 -0.5377
 3769SOL    HW222770   0.804   3.118   3.233  0.7953  0.6939 -1.1136
 3770SOL     OW22771   0.257   2.797   9.567  0.0115  0.1020  0.4699
 3770SOL    HW122772   0.211   2.875   9.535 -0.4252 -0.5747 -0.5481
 3770SOL    HW222773   0.340   2.817   9.523 -1.0943  1.4004 -1.0166
 3771SOL     OW22774   3.682   2.729  10.995  0.2930 -0.3909  0.3089
 3771SOL    HW122775   3.769   2.691  10.981  1.1540  1.1531  1.5738
 3771SOL    HW222776   3.648   2.650  11.036  0.8934 -0.1429  1.2754
 3772SOL     OW22777   2.001   3.373   7.065  0.3056 -0.1539 -0.0965
 3772SOL    HW122778   1.907   3.378   7.078  0.4263 -0.5736  0.8932
 3772SOL    HW222779   2.037   3.452   7.106  1.2417 -0.2366 -0.7420
 3773SOL     OW22780   2.112   1.508  16.991  0.2522  0.4649 -0.4511
 3773SOL    HW122781   2.190   1.560  16.972  1.2514 -0.5463  0.8278
 3773SOL    HW222782   2.059   1.516  16.912 -0.1834 -0.4514 -0.2453
 3774SOL     OW22783   1.766   0.103   2.245 -0.1368  0.4764 -0.0236
 3774SOL    HW122784   1.699   0.167   2.268  1.4492  2.2113 -0.2749
 3774SOL    HW222785   1.851   0.143   2.262 -0.7006  0.0808  3.6806
 3775SOL     OW22786   1.532   1.751   8.684  0.1979 -0.2906 -0.4421
 3775SOL    HW122787   1.602   1.704   8.730 -1.1155  0.7573  2.6087
 3775SOL    HW222788   1.574   1.793   8.609  0.2332 -2.8878 -1.8732
 3776SOL     OW22789   2.106   4.125  13.782 -0.3904 -0.0024  0.1645
 3776SOL    HW122790   2.033   4.088  13.832 -1.5761  2.0038 -0.0701
 3776SOL    HW222791   2.080   4.214  13.756 -0.5342  0.9419  3.5246
 3777SOL     OW22792   1.551   0.202   5.000  0.4024  0.3185  0.1181
 3777SOL    HW122793   1.497   0.281   4.996 -0.3488 -0.1807  0.3040
 3777SOL    HW222794   1.630   0.239   5.039  0.6993  0.0394 -0.2302
 3778SOL     OW22795   2.341   4.151   4.274 -0.1703 -0.0135  0.5361
 3778SOL    HW122796   2.374   4.162   4.185 -1.6719 -0.4768 -0.0856
 3778SOL    HW222797   2.245   4.148   4.266 -0.3063 -0.0154  2.1610
 3779SOL     OW22798   2.002   1.722   8.445 -0.0380 -0.5291 -0.6219
 3779SOL    HW122799   1.968   1.765   8.366 -1.9028  0.6476  0.8064
 3779SOL    HW222800   2.035   1.796   8.496 -1.9624 -1.1749  1.5710
 3780SOL     OW22801   2.983   0.137   0.562 -0.7206  0.0598  0.3735
 3780SOL    HW122802   3.055   0.190   0.597  0.5637 -1.1247 -0.4783
 3780SOL    HW222803   2.958   0.102   0.648 -0.4650 -0.3941  0.2624
 3781SOL     OW22804   2.696   3.657  16.601  0.0970  0.3223 -0.5509
 3781SOL    HW122805   2.656   3.661  16.688  2.3452 -0.6072  0.5113
 3781SOL    HW222806   2.684   3.751  16.585 -0.6731  0.3958  0.4310
 3782SOL     OW22807   1.010   4.300   4.197 -0.1444 -0.0789 -0.0784
 3782SOL    HW122808   0.988   4.383   4.238  0.9712 -0.4291  1.2261
 3782SOL    HW222809   0.928   4.251   4.208 -1.5965  2.3709  0.0774
 3783SOL     OW22810   1.371   3.024  14.728  0.4529  0.4765  0.5380
 3783SOL    HW122811   1.358   3.115  14.702  1.9642  0.7324  0.7152
 3783SOL    HW222812   1.329   2.987  14.651 -0.2840 -0.6308  1.4732
 3784SOL     OW22813   2.739   0.293   1.912  0.4309  0.6102 -0.2037
 3784SOL    HW122814   2.682   0.221   1.937  0.5019 -0.0036 -1.8408
 3784SOL    HW222815   2.816   0.246   1.880  0.9731  1.9568 -0.8993
 3785SOL     OW22816   3.270   0.678   7.507  0.3282  0.7385  0.2553
 3785SOL    HW122817   3.287   0.768   7.477 -3.8428  1.8652  1.3214
 3785SOL    HW222818   3.240   0.645   7.422  0.3188 -1.4213  1.1144
 3786SOL     OW22819   3.302   3.926  11.631  0.1607  0.1931 -0.3258
 3786SOL    HW122820   3.283   4.018  11.616  0.2086 -0.1064 -2.2359
 3786SOL    HW222821   3.248   3.898  11.705  3.2148 -1.7947  1.1607
 3787SOL     OW22822   3.790   1.761   6.472  0.5901  0.6024 -0.2678
 3787SOL    HW122823   3.754   1.676   6.496 -0.0604  1.0109  0.2024
 3787SOL    HW222824   3.842   1.778   6.551  0.2567  0.1472  0.0438
 3788SOL     OW22825   3.083   3.992   9.461  0.1106 -0.0746  0.1686
 3788SOL    HW122826   3.085   4.077   9.504  1.0682  0.1539 -0.3486
 3788SOL    HW222827   2.991   3.964   9.462 -0.5679  2.1483 -0.5307
 3789SOL     OW22828   3.556   1.910  10.807 -0.2322 -0.4944  0.4218
 3789SOL    HW122829   3.597   1.827  10.781 -1.9272 -1.3194  0.3865
 3789SOL    HW222830   3.626   1.948  10.860 -0.7049 -0.3616  0.9506
 3790SOL     OW22831   3.664   0.509   5.961  0.1980  0.2725 -0.1514
 3790SOL    HW122832   3.580   0.500   5.916 -0.2387 -3.8969  1.4518
 3790SOL    HW222833   3.708   0.435   5.918 -2.3271 -1.7608  0.7563
 3791SOL     OW22834   1.105   4.011  17.254  0.4511  0.3547 -0.0738
 3791SOL    HW122835   1.200   4.012  17.241  0.1868  2.1258 -2.0380
 3791SOL    HW222836   1.064   3.978  17.174  0.0976 -2.8260  1.4025
 3792SOL     OW22837   3.871   1.536   8.119 -0.0660 -0.1345  0.1026
 3792SOL    HW122838   3.837   1.495   8.198 -1.9895 -0.3595 -0.8367
 3792SOL    HW222839   3.944   1.482   8.087  0.1660  0.7432 -0.8515
 3793SOL     OW22840   3.388   2.943   6.754 -0.0627 -0.9765  0.8296
 3793SOL    HW122841   3.359   2.904   6.672  1.7857  1.1608 -0.8361
 3793SOL    HW222842   3.305   2.974   6.790 -0.0051  2.7216 -2.2392
 3794SOL     OW22843   3.321   0.158   7.876 -0.4096  0.4561  0.5177
 3794SOL    HW122844   3.390   0.201   7.826  1.4018 -1.4455  1.3422
 3794SOL    HW222845   3.265   0.231   7.900 -1.3664  0.1188 -0.6849
 3795SOL     OW22846   0.177   1.981   3.989  0.1657  0.6252 -0.4517
 3795SOL    HW122847   0.142   2.007   3.904  0.3042 -0.8369 -0.9450
 3795SOL    HW222848   0.245   1.925   3.952 -1.7646 -2.7727  1.1359
 3796SOL     OW22849   0.668   2.658   3.632 -0.2096 -0.1926 -0.0910
 3796SOL    HW122850   0.747   2.677   3.683 -0.7396  0.4431  0.5026
 3796SOL    HW222851   0.618   2.591   3.678 -0.6035  0.3366  0.2557
 3797SOL     OW22852   2.750   1.644  16.827 -0.3414  0.0614 -0.0598
 3797SOL    HW122853   2.659   1.671  16.840 -0.6564  0.0438 -2.1984
 3797SOL    HW222854   2.774   1.655  16.734 -1.4870  0.2124 -0.3365
 3798SOL     OW22855   0.123   4.030   5.937 -0.2268  0.5600  0.6239
 3798SOL    HW122856   0.136   3.935   5.936  0.1395  0.6080  0.5518
 3798SOL    HW222857   0.212   4.059   5.959  0.4861 -0.3468 -1.0517
 3799SOL     OW22858   3.656   2.253   1.906  0.1236  0.4993 -0.5078
 3799SOL    HW122859   3.737   2.220   1.866 -0.0487 -1.6360  0.8678
 3799SOL    HW222860   3.668   2.215   1.993  2.8841 -2.8605 -2.3225
 3800SOL     OW22861   4.199   0.080  13.804 -0.4108  0.2986  0.3979
 3800SOL    HW122862   4.142   0.128  13.863  0.7116 -0.6100  2.2174
 3800SOL    HW222863   4.133   0.050  13.742  0.7024 -1.0643 -0.1375
 3801SOL     OW22864   4.262   4.180  14.673  0.6784 -0.3045  0.4178
 3801SOL    HW122865   4.220   4.257  14.711 -0.3520  0.1019 -1.5483
 3801SOL    HW222866   4.188   4.120  14.686  1.8319 -1.5448  1.2271
 3802SOL     OW22867   4.166   3.030   5.298  0.3995 -0.0167 -0.4239
 3802SOL    HW122868   4.095   3.065   5.243 -0.3937 -1.2604 -0.2052
 3802SOL    HW222869   4.167   2.936   5.278 -1.7413  0.1952 -1.5880
 3803SOL     OW22870   4.537   1.886   8.598 -0.3568 -0.3078  0.2965
 3803SOL    HW122871   4.453   1.849   8.570  1.3934 -3.7674 -0.2797
 3803SOL    HW222872   4.511   1.961   8.652  1.2069  0.6123 -0.2195
 3804SOL     OW22873   2.990   4.081   2.160  0.3722  0.3895 -0.3712
 3804SOL    HW122874   2.943   4.128   2.229  1.2050 -1.2865  1.3283
 3804SOL    HW222875   2.989   4.148   2.092 -0.5375  0.9342  0.1779
 3805SOL     OW22876   2.892   0.629   6.255  0.2026  0.4141 -0.0913
 3805SOL    HW122877   2.845   0.566   6.200  0.5389 -0.5123  0.6975
 3805SOL    HW222878   2.837   0.706   6.269 -1.1633 -0.6743  0.5355
 3806SOL     OW22879   2.374   2.067   7.570 -0.0152 -0.0360  0.0187
 3806SOL    HW122880   2.283   2.098   7.562  0.1860  0.8009  0.8948
 3806SOL    HW222881   2.419   2.143   7.533 -0.1149  1.0794  2.2197
 3807SOL     OW22882   3.409   0.244   5.047  0.0929  0.1033  0.6372
 3807SOL    HW122883   3.326   0.203   5.019  1.3062 -1.3576 -0.8295
 3807SOL    HW222884   3.376   0.298   5.118 -0.2909  2.2979 -1.2059
 3808SOL     OW22885   3.519   0.950   7.199  0.0051 -0.2563  0.5897
 3808SOL    HW122886   3.565   0.869   7.217  0.1599 -0.9421 -2.8711
 3808SOL    HW222887   3.456   0.933   7.129  0.4477  2.2596 -0.4085
 3809SOL     OW22888   0.888   3.793   5.346 -0.4279 -0.4403  0.4595
 3809SOL    HW122889   0.954   3.758   5.286  0.2901  0.1707  0.8932
 3809SOL    HW222890   0.852   3.724   5.402  0.8804 -1.0375  0.5729
 3810SOL     OW22891   0.978   1.730   4.050 -1.0263 -0.1531 -0.2191
 3810SOL    HW122892   1.014   1.815   4.022  1.1904 -0.2333  2.4170
 3810SOL    HW222893   1.039   1.704   4.119  1.2707  2.7473 -1.1484
 3811SOL     OW22894   0.756   2.072   4.540  0.1917 -0.1078 -0.5356
 3811SOL    HW122895   0.710   2.080   4.623 -0.6151 -2.4117 -0.7421
 3811SOL    HW222896   0.706   2.127   4.480 -0.4379  0.0968  0.1824
 3812SOL     OW22897   4.271   0.681   7.873  0.1072  0.0918  0.7926
 3812SOL    HW122898   4.187   0.647   7.905  0.7154  0.1255  2.4349
 3812SOL    HW222899   4.295   0.737   7.947 -0.9357  1.9258 -0.2490
 3813SOL     OW22900   1.423   2.310   4.342 -0.1647  0.2641  0.6551
 3813SOL    HW122901   1.481   2.356   4.402  1.7149 -3.3055  1.5616
 3813SOL    HW222902   1.361   2.383   4.339  0.0252  0.3961 -0.1668
 3814SOL     OW22903   3.478   0.047   6.467 -0.3415 -0.1125  0.0006
 3814SOL    HW122904   3.398   0.099   6.467 -0.0105  0.3898 -2.0973
 3814SOL    HW222905   3.463   4.691   6.411 -0.5389 -1.3793  1.7521
 3815SOL     OW22906   4.249   2.909   0.688 -0.1374 -0.3064 -0.3927
 3815SOL    HW122907   4.240   2.893   0.594 -1.3769  0.9306 -0.4899
 3815SOL    HW222908   4.158   2.935   0.706  0.4859  0.3815  1.7524
 3816SOL     OW22909   4.223   1.126  13.632 -0.2437 -0.1583  0.6425
 3816SOL    HW122910   4.141   1.137  13.584  0.5745  2.8098 -0.0347
 3816SOL    HW222911   4.189   1.126  13.722 -2.5505  1.0744 -0.2265
 3817SOL     OW22912   0.437   4.568   8.383 -0.4098  0.1156  0.3993
 3817SOL    HW122913   0.533   4.574   8.384 -0.4871  1.9169 -2.0609
 3817SOL    HW222914   0.440   4.475   8.405  1.6070 -0.3164 -1.6769
 3818SOL     OW22915   2.189   4.041   5.052 -0.0325 -0.2806  0.7084
 3818SOL    HW122916   2.267   4.031   5.106  0.8248 -0.6162 -0.5775
 3818SOL    HW222917   2.180   3.955   5.011 -0.2962  0.3338 -0.5244
 3819SOL     OW22918   0.772   3.882   2.721  0.4890  0.1182  0.1583
 3819SOL    HW122919   0.843   3.942   2.700  0.0102  0.2950 -0.9764
 3819SOL    HW222920   0.722   3.934   2.783 -0.6703  1.4913 -1.9149
 3820SOL     OW22921   3.980   0.174  15.165 -0.1300  0.4806  0.1491
 3820SOL    HW122922   3.961   0.129  15.083  0.0369  1.9946 -0.7222
 3820SOL    HW222923   4.069   0.149  15.188  0.1137 -2.4705 -4.1220
 3821SOL     OW22924   4.439   1.421  11.464  0.2926 -0.2535 -0.2950
 3821SOL    HW122925   4.371   1.381  11.518 -0.9499  2.1216 -0.1027
 3821SOL    HW222926   4.454   1.504  11.510 -2.5061  0.5240 -0.8039
 3822SOL     OW22927   4.167   3.164   2.249 -0.4565  0.4881  0.0004
 3822SOL    HW122928   4.136   3.074   2.254 -3.5750  1.7286  3.1471
 3822SOL    HW222929   4.248   3.152   2.199 -0.4834  1.4811 -0.2726
 3823SOL     OW22930   2.974   2.186  13.230  0.1760 -0.0116 -0.3545
 3823SOL    HW122931   2.942   2.267  13.269 -0.3946 -0.4471  0.0995
 3823SOL    HW222932   2.911   2.129  13.276 -0.0923  0.7564  0.2260
 3824SOL     OW22933   4.026   2.842   8.214  0.2217 -0.1825  0.0079
 3824SOL    HW122934   3.957   2.786   8.249  0.1708  1.0579  1.8811
 3824SOL    HW222935   3.991   2.897   8.143  0.9141  0.4189  0.1242
 3825SOL     OW22936   0.476   2.618   8.705  0.1376 -0.2358  0.6842
 3825SOL    HW122937   0.479   2.706   8.743  0.1725  0.1235 -0.1659
 3825SOL    HW222938   0.483   2.645   8.614 -2.4986 -0.6446  0.3642
 3826SOL     OW22939   3.721   0.848   1.087  1.0081 -0.3807 -0.2150
 3826SOL    HW122940   3.673   0.806   1.158  1.2490  2.4175  1.6104
 3826SOL    HW222941   3.780   0.911   1.129 -0.5293  0.5502  0.5474
 3827SOL     OW22942   3.513   4.231   8.870  0.1116  0.1468  0.0312
 3827SOL    HW122943   3.537   4.231   8.963  0.9437 -1.7905 -0.1877
 3827SOL    HW222944   3.420   4.210   8.874  0.2334 -0.4181 -0.1184
 3828SOL     OW22945   2.735   3.640   4.722  0.2249  0.8611 -0.0837
 3828SOL    HW122946   2.648   3.651   4.759 -0.9370 -4.0545 -1.2486
 3828SOL    HW222947   2.788   3.634   4.802  1.5696  1.0781 -0.9483
 3829SOL     OW22948   4.147   2.283  15.785  0.1274  0.1089  0.0002
 3829SOL    HW122949   4.138   2.317  15.696  0.7006 -1.1675 -0.5363
 3829SOL    HW222950   4.242   2.283  15.789  0.1366  1.7422 -0.1652
 3830SOL     OW22951   3.078   1.520  16.977  0.3865  0.4615  0.2866
 3830SOL    HW122952   3.003   1.475  16.938  0.1879  1.5435 -0.5672
 3830SOL    HW222953   3.125   1.442  17.007 -0.8791 -0.2591  0.3898
 3831SOL     OW22954   0.420   0.423   3.948  0.1430  0.2772  0.0858
 3831SOL    HW122955   0.476   0.359   3.992  0.2803  0.9611  0.9113
 3831SOL    HW222956   0.403   0.396   3.857 -1.9291 -0.1803  0.6217
 3832SOL     OW22957   1.503   0.416   8.517 -0.0617 -0.1078  0.1302
 3832SOL    HW122958   1.561   0.364   8.573 -0.3747 -1.6151 -0.9207
 3832SOL    HW222959   1.457   0.349   8.466 -0.7107  0.7927 -0.4570
 3833SOL     OW22960   1.112   1.062   3.844 -0.1356  0.5978  0.2850
 3833SOL    HW122961   1.064   1.122   3.901  4.7051  1.2721  3.7079
 3833SOL    HW222962   1.038   1.017   3.804  0.6709 -0.0675 -0.4644
 3834SOL     OW22963   1.310   1.082   8.240 -0.9264 -0.4215  0.2027
 3834SOL    HW122964   1.223   1.107   8.269 -0.3152  3.0523 -1.0097
 3834SOL    HW222965   1.295   1.063   8.147 -0.5189 -1.8194  0.4204
 3835SOL     OW22966   2.694   2.887  15.580 -0.0481  0.4098 -0.3570
 3835SOL    HW122967   2.614   2.881  15.632  1.0942 -0.5349  1.3096
 3835SOL    HW222968   2.735   2.958  15.630  1.0350 -1.5193  1.5095
 3836SOL     OW22969   2.877   3.696   7.302 -1.0474  0.0292  0.4163
 3836SOL    HW122970   2.950   3.665   7.356 -1.3346 -0.4187  0.5435
 3836SOL    HW222971   2.829   3.617   7.280 -0.9828  0.4487 -1.2393
 3837SOL     OW22972   2.645   2.767   0.030  0.0678 -0.5170 -0.4326
 3837SOL    HW122973   2.730   2.804   0.055 -1.4802  1.8905  1.2130
 3837SOL    HW222974   2.593   2.830  17.663  1.8725 -0.2060 -1.9326
 3838SOL     OW22975   4.028   3.980   3.380 -0.4301  0.4293 -0.2657
 3838SOL    HW122976   3.945   4.006   3.340 -0.5493 -0.7072 -0.7498
 3838SOL    HW222977   4.062   4.059   3.423  2.5451 -0.8349 -0.3409
 3839SOL     OW22978   1.276   3.010   5.990 -0.4731 -0.5115 -0.2122
 3839SOL    HW122979   1.347   2.974   6.044 -0.4809  0.0692  0.1929
 3839SOL    HW222980   1.315   3.053   5.914 -0.2293 -0.3580 -0.0029
 3840SOL     OW22981   2.016   0.852  10.535 -0.0173  0.0626  0.0742
 3840SOL    HW122982   2.009   0.762  10.567 -0.5450 -0.3120 -1.0964
 3840SOL    HW222983   1.957   0.846  10.460  0.0094 -0.6418  0.1080
 3841SOL     OW22984   1.318   0.929   8.973 -0.0249  0.0797  0.4512
 3841SOL    HW122985   1.278   0.960   8.892 -0.5381  0.1369  0.7259
 3841SOL    HW222986   1.329   1.011   9.023 -1.2374  0.9032 -0.6363
 3842SOL     OW22987   0.250   0.893   3.738  0.1501  0.1627 -0.0692
 3842SOL    HW122988   0.227   0.972   3.787  2.0359 -1.1991  2.9724
 3842SOL    HW222989   0.213   0.913   3.652 -0.5305  2.3042  0.7220
 3843SOL     OW22990   2.538   3.802  12.026 -0.8146  0.3369 -0.0781
 3843SOL    HW122991   2.451   3.772  11.999 -0.3604  1.1060 -2.4375
 3843SOL    HW222992   2.522   3.835  12.114 -2.0339  1.2512 -0.6394
 3844SOL     OW22993   2.621   4.442   2.667 -0.5268  0.0657  0.0577
 3844SOL    HW122994   2.562   4.498   2.717 -1.9572 -1.6165  0.2185
 3844SOL    HW222995   2.650   4.392   2.743  4.4820  1.0557 -1.1838
 3845SOL     OW22996   3.919   1.456   3.749 -0.4747  0.3649 -0.2891
 3845SOL    HW122997   3.932   1.366   3.780  0.5766  1.2553  1.8295
 3845SOL    HW222998   3.891   1.441   3.659 -1.3402 -0.5760  0.1394
 3846SOL     OW22999   1.931   3.250  11.253  0.1716  0.0337  0.2253
 3846SOL    HW123000   1.961   3.278  11.167 -1.8351  1.0076 -0.1576
 3846SOL    HW223001   1.894   3.165  11.231  1.8459 -1.0070  1.4063
 3847SOL     OW23002   4.364   1.374   3.541 -0.3639 -0.0916 -0.3186
 3847SOL    HW123003   4.391   1.304   3.601  1.2310 -0.8610 -1.9221
 3847SOL    HW223004   4.391   1.339   3.456  1.4256  1.9052 -0.5629
 3848SOL     OW23005   1.246   1.516  12.251 -0.0730 -1.0912  0.3740
 3848SOL    HW123006   1.264   1.590  12.310  0.8512  0.2829 -1.6433
 3848SOL    HW223007   1.233   1.441  12.310 -2.5563 -0.9005  0.0625
 3849SOL     OW23008   1.161   2.990   7.128  0.3642 -0.3822 -0.5689
 3849SOL    HW123009   1.167   2.990   7.033 -2.0574 -0.8453 -0.7344
 3849SOL    HW223010   1.090   2.930   7.152  0.6064 -0.3763  0.1690
 3850SOL     OW23011   3.130   0.758  10.138 -0.0779 -0.0956  0.5531
 3850SOL    HW123012   3.208   0.733  10.188 -1.5164 -0.8664  2.4794
 3850SOL    HW223013   3.066   0.691  10.164  0.7957 -0.3402  2.1301
 3851SOL     OW23014   0.183   2.479   7.156 -0.1708 -0.1256  0.0194
 3851SOL    HW123015   0.095   2.490   7.193 -0.5076  1.5094 -1.2637
 3851SOL    HW223016   0.219   2.565   7.179 -1.8095  1.5411 -3.6392
 3852SOL     OW23017   0.791   0.719  13.878 -0.1872  0.6281 -0.2380
 3852SOL    HW123018   0.772   0.647  13.939 -1.7476  0.0913 -1.3497
 3852SOL    HW223019   0.843   0.781  13.929  1.5690 -0.1189 -1.1553
 3853SOL     OW23020   0.437   3.100  13.675  0.8477 -0.2189  0.3561
 3853SOL    HW123021   0.395   3.015  13.686 -1.1527  0.8700  1.1572
 3853SOL    HW223022   0.500   3.093  13.747  1.1647  0.3314  0.1300
 3854SOL     OW23023   1.860   2.335   1.537  0.1406  0.6614 -0.8419
 3854SOL    HW123024   1.848   2.241   1.528  2.7209  0.2724 -0.2219
 3854SOL    HW223025   1.787   2.366   1.483 -1.0525  0.1192  0.4968
 3855SOL     OW23026   1.508   2.826   5.324  0.0112 -0.1528  0.4276
 3855SOL    HW123027   1.574   2.757   5.315  0.7703  0.5912  0.1567
 3855SOL    HW223028   1.433   2.783   5.363 -1.3037  3.0878  1.5012
 3856SOL     OW23029   1.652   0.412   7.200  0.2456  0.1296 -0.1241
 3856SOL    HW123030   1.678   0.391   7.110 -0.3834 -1.4429  0.0594
 3856SOL    HW223031   1.558   0.399   7.185  0.8591 -1.6111 -2.3206
 3857SOL     OW23032   3.686   0.590   9.144 -0.0479  0.1473 -0.2739
 3857SOL    HW123033   3.645   0.661   9.193 -1.6615  1.4928 -3.5588
 3857SOL    HW223034   3.703   0.633   9.060  1.5316 -0.2793 -0.1691
 3858SOL     OW23035   1.154   4.171   2.211  0.3386  0.0561  0.0449
 3858SOL    HW123036   1.221   4.205   2.270 -0.7899 -0.2778  1.5505
 3858SOL    HW223037   1.194   4.095   2.168  0.1232  0.1696 -0.3537
 3859SOL     OW23038   2.928   4.302  11.621 -0.4691  0.0513 -0.1107
 3859SOL    HW123039   2.836   4.281  11.637 -0.5187 -0.1880 -0.7228
 3859SOL    HW223040   2.961   4.311  11.711 -3.3295 -1.6257  1.1479
 3860SOL     OW23041   1.877   0.471   7.934  0.0830 -0.4026 -0.3857
 3860SOL    HW123042   1.853   0.509   7.850 -2.1035  0.2531  0.5479
 3860SOL    HW223043   1.833   0.519   8.004 -0.7217 -2.1892  0.3622
 3861SOL     OW23044   0.526   3.875   8.419  0.1147 -0.9861  0.0831
 3861SOL    HW123045   0.512   3.960   8.378 -0.8084  0.1478  2.7398
 3861SOL    HW223046   0.455   3.884   8.482 -0.5664 -0.1300 -0.8001
 3862SOL     OW23047   4.068   1.371   7.997  0.0861 -0.3992 -0.0704
 3862SOL    HW123048   4.105   1.341   7.914 -1.8009  1.2698 -1.5266
 3862SOL    HW223049   4.065   1.294   8.053  2.1054 -0.0949  0.4590
 3863SOL     OW23050   3.706   1.548   7.815  0.6494 -0.8548  0.2089
 3863SOL    HW123051   3.742   1.628   7.779  0.0866 -0.0188  1.4877
 3863SOL    HW223052   3.633   1.568   7.874  0.0399 -1.8036 -0.2079
 3864SOL     OW23053   1.395   4.433   6.632  0.2197 -0.3576 -0.3927
 3864SOL    HW123054   1.414   4.475   6.716  0.1607 -0.9870 -0.0609
 3864SOL    HW223055   1.432   4.346   6.646 -1.2783 -0.9576 -0.1395
 3865SOL     OW23056   4.637   3.539   7.673 -0.0297 -0.1049 -0.1002
 3865SOL    HW123057   4.596   3.469   7.622 -1.4040  0.0015  0.8588
 3865SOL    HW223058   4.623   3.610   7.609 -0.2880 -0.8132 -0.8293
 3866SOL     OW23059   0.444   2.189   3.833 -0.0335  0.1165 -0.2747
 3866SOL    HW123060   0.509   2.120   3.846 -0.3291  0.3110  2.3552
 3866SOL    HW223061   0.418   2.169   3.743 -1.0979 -0.0868  0.0726
 3867SOL     OW23062   1.290   2.507   9.051  0.5332  0.5146 -0.3969
 3867SOL    HW123063   1.363   2.568   9.066 -0.3732  1.4764  0.1165
 3867SOL    HW223064   1.301   2.452   9.129 -0.4674 -2.0358 -2.0631
 3868SOL     OW23065   0.414   0.821  10.138  0.5396  0.6815 -0.1606
 3868SOL    HW123066   0.368   0.879  10.199 -1.5356 -0.8304 -0.2713
 3868SOL    HW223067   0.381   0.734  10.160  0.1660  0.8554 -0.0228
 3869SOL     OW23068   0.683   1.811  10.254  0.0369 -1.0193  0.1379
 3869SOL    HW123069   0.605   1.858  10.283  0.3313 -0.1488 -0.4736
 3869SOL    HW223070   0.692   1.748  10.325  1.4960 -0.6968  0.2367
 3870SOL     OW23071   1.123   3.349   5.674  0.2961 -0.1306  0.1938
 3870SOL    HW123072   1.213   3.324   5.652  0.1693  0.1142 -0.6217
 3870SOL    HW223073   1.116   3.319   5.764 -1.0892 -0.2570  0.0358
 3871SOL     OW23074   1.124   1.511  14.614  0.5012 -0.2717 -0.4280
 3871SOL    HW123075   1.038   1.537  14.580  1.4789  3.1079 -0.3603
 3871SOL    HW223076   1.171   1.588  14.581  1.8094  0.1196  2.3185
 3872SOL     OW23077   4.067   3.962  14.718  0.0592  0.2966  0.1826
 3872SOL    HW123078   4.130   3.896  14.746  0.0670  0.3351  0.2565
 3872SOL    HW223079   4.000   3.949  14.785  1.2347 -0.0092  1.2933
 3873SOL     OW23080   2.020   1.881   4.364  0.1158  0.0532 -0.0817
 3873SOL    HW123081   2.019   1.845   4.276 -2.0483  0.0412 -0.0338
 3873SOL    HW223082   1.959   1.955   4.357  1.1758  0.8965 -0.4258
 3874SOL     OW23083   3.785   2.095   6.059 -0.0654  0.4243 -0.0375
 3874SOL    HW123084   3.808   2.053   5.976 -1.5147 -1.5943  0.6045
 3874SOL    HW223085   3.762   2.023   6.117 -1.1640 -0.2016 -1.2396
 3875SOL     OW23086   3.960   4.465   2.797  0.5091 -0.1362 -0.3792
 3875SOL    HW123087   3.895   4.534   2.791 -0.3994 -1.0892 -1.4609
 3875SOL    HW223088   3.950   4.426   2.710 -1.0948 -0.5741  0.0129
 3876SOL     OW23089   3.916   0.484  11.938  0.2398 -0.2888 -0.2838
 3876SOL    HW123090   3.977   0.435  11.993  0.9889  0.7837 -0.1448
 3876SOL    HW223091   3.925   0.440  11.854  0.9432  0.7514 -0.7624
 3877SOL     OW23092   4.082   1.497   4.493  0.1069 -0.1324  0.1382
 3877SOL    HW123093   4.133   1.563   4.539 -0.9039  0.8633 -0.1621
 3877SOL    HW223094   4.007   1.556   4.489  0.4646  0.1873 -1.9708
 3878SOL     OW23095   3.130   0.861   8.089  0.4575 -1.0131 -1.1322
 3878SOL    HW123096   3.125   0.907   8.173 -1.1606 -0.2736 -1.6169
 3878SOL    HW223097   3.224   0.850   8.082  0.3317 -2.6940 -0.0397
 3879SOL     OW23098   3.967   1.254   7.057 -0.5132 -0.2912 -0.1583
 3879SOL    HW123099   3.979   1.320   7.125  0.6889  0.1677 -0.8256
 3879SOL    HW223100   3.913   1.185   7.097 -0.3386 -1.3711 -1.7760
 3880SOL     OW23101   0.801   4.469   4.849 -0.1323 -0.3617 -0.3370
 3880SOL    HW123102   0.874   4.407   4.850 -0.8222 -1.1632  0.2715
 3880SOL    HW223103   0.727   4.408   4.855  0.7871 -1.6437 -1.7079
 3881SOL     OW23104   2.843   0.484   7.145 -0.1851 -0.1980  0.2066
 3881SOL    HW123105   2.762   0.534   7.157  1.2447  2.1382  0.0268
 3881SOL    HW223106   2.877   0.528   7.067  0.5436 -0.3731  0.4276
 3882SOL     OW23107   2.805   1.104  14.097 -0.1539  0.0006 -0.6375
 3882SOL    HW123108   2.791   1.049  14.174 -0.4485 -3.4763 -3.1691
 3882SOL    HW223109   2.745   1.178  14.107  0.9360  0.8774 -0.6677
 3883SOL     OW23110   0.358   1.114   8.100 -0.4562  0.6592 -0.1088
 3883SOL    HW123111   0.425   1.170   8.139  2.7902 -2.6487 -0.9446
 3883SOL    HW223112   0.279   1.155   8.136 -0.1676  1.0674  0.0595
 3884SOL     OW23113   3.181   0.038   9.220  0.1554 -0.5649 -0.1412
 3884SOL    HW123114   3.169   0.097   9.146  1.1355  1.0905  1.0100
 3884SOL    HW223115   3.145   0.093   9.290  1.0590  0.9506 -0.8760
 3885SOL     OW23116   4.589   0.565   5.702  0.5370 -0.2924 -0.4143
 3885SOL    HW123117   4.651   0.582   5.772 -0.7795  1.3242  0.3580
 3885SOL    HW223118   4.646   0.559   5.626  0.5427  0.3190 -0.4595
 3886SOL     OW23119   2.009   1.919   7.908 -0.5114  0.3997  0.1131
 3886SOL    HW123120   2.041   1.960   7.989 -0.2971  1.8676 -0.7232
 3886SOL    HW223121   1.995   1.994   7.851 -0.0601 -0.4350 -1.0917
 3887SOL     OW23122   3.762   3.737   3.168  0.0670 -0.4023  0.4185
 3887SOL    HW123123   3.740   3.707   3.257 -2.7326 -0.0230 -0.1494
 3887SOL    HW223124   3.852   3.708   3.157  0.0531  0.4638 -1.8303
 3888SOL     OW23125   2.659   2.647   5.710  0.0133 -0.4597 -0.4967
 3888SOL    HW123126   2.624   2.559   5.714 -3.3751  0.9960  2.0247
 3888SOL    HW223127   2.751   2.641   5.733 -0.0883  1.8568  0.5346
 3889SOL     OW23128   2.346   4.357   5.368  0.2977  0.3112 -1.1406
 3889SOL    HW123129   2.301   4.287   5.415  1.0466  0.9283  0.4826
 3889SOL    HW223130   2.270   4.404   5.333  1.1389  0.1427 -3.1864
 3890SOL     OW23131   3.852   1.215  16.477  0.1414  0.2298  0.7921
 3890SOL    HW123132   3.853   1.124  16.448 -1.5896 -0.4534  2.9916
 3890SOL    HW223133   3.944   1.225  16.502  0.6841 -0.5192 -0.9079
 3891SOL     OW23134   4.431   0.634   7.650  0.1229  0.1277 -0.0849
 3891SOL    HW123135   4.351   0.616   7.602 -0.3460  1.1633  0.2954
 3891SOL    HW223136   4.396   0.654   7.737 -1.6245 -3.3157 -0.0042
 3892SOL     OW23137   1.632   0.462   4.312 -0.0050  0.1119 -0.7121
 3892SOL    HW123138   1.687   0.480   4.235 -0.2637 -1.0278 -1.1599
 3892SOL    HW223139   1.615   0.549   4.348 -1.1572  0.1187 -1.2669
 3893SOL     OW23140   3.228   4.712   5.020 -0.2328 -0.6495  0.4584
 3893SOL    HW123141   3.239   4.630   4.972 -1.4201 -1.2825  1.2793
 3893SOL    HW223142   3.148   0.020   4.976  0.6416  0.4352 -0.4366
 3894SOL     OW23143   0.367   4.334   2.438  0.2443  0.0165  0.2862
 3894SOL    HW123144   0.431   4.352   2.369  0.2090 -2.1808 -0.2945
 3894SOL    HW223145   0.292   4.310   2.383 -1.8206  1.3542  2.4879
 3895SOL     OW23146   2.267   0.486   7.345  0.1113 -0.3344 -0.6609
 3895SOL    HW123147   2.226   0.429   7.411  1.2951  0.6275  0.8853
 3895SOL    HW223148   2.283   0.425   7.272  3.1371  1.1014 -1.1718
 3896SOL     OW23149   4.605   2.123   8.926 -0.8704 -0.2399  0.1905
 3896SOL    HW123150   4.610   2.039   8.972 -1.0545 -0.2412  0.2075
 3896SOL    HW223151   4.525   2.099   8.878 -0.2511 -0.3307 -0.7983
 3897SOL     OW23152   1.935   4.473  10.962  0.4190  0.0202  0.4180
 3897SOL    HW123153   1.972   4.552  10.923  0.5176 -1.2895 -2.1128
 3897SOL    HW223154   1.864   4.451  10.903 -0.3520 -0.6382  1.5832
 3898SOL     OW23155   2.536   2.394  12.679  0.5215 -0.6399  0.0990
 3898SOL    HW123156   2.553   2.333  12.607 -0.5498 -0.3006 -0.4420
 3898SOL    HW223157   2.573   2.356  12.759  2.1988 -2.4537 -1.5491
 3899SOL     OW23158   4.170   1.984   7.620  0.4558  0.2061  0.0333
 3899SOL    HW123159   4.239   1.990   7.686  1.3558 -0.4007 -0.8654
 3899SOL    HW223160   4.115   1.920   7.666  1.5426  2.0033  3.9098
 3900SOL     OW23161   3.267   1.078   4.666  0.5729 -0.0600 -0.4876
 3900SOL    HW123162   3.279   1.106   4.575  0.8833 -1.0456 -0.7547
 3900SOL    HW223163   3.236   1.160   4.704  0.0374 -1.2164  1.5693
 3901SOL     OW23164   3.234   1.769  10.788  0.0846  0.3012 -0.3878
 3901SOL    HW123165   3.163   1.732  10.842  0.0268 -1.0990 -1.4250
 3901SOL    HW223166   3.246   1.711  10.713  0.7024 -0.7032  0.4994
 3902SOL     OW23167   1.777   4.083   5.244  0.0147 -0.6108 -0.0780
 3902SOL    HW123168   1.684   4.069   5.258 -0.4793  1.5569 -1.3039
 3902SOL    HW223169   1.799   4.040   5.161  0.3446  0.0093 -0.3094
 3903SOL     OW23170   1.554   2.680   0.395 -0.6677 -0.2146  0.6307
 3903SOL    HW123171   1.639   2.668   0.436  0.1066  1.3502 -0.4806
 3903SOL    HW223172   1.518   2.592   0.401  0.2041 -0.5866  0.4145
 3904SOL     OW23173   4.619   1.231   0.277 -0.5117 -0.3957  0.1644
 3904SOL    HW123174   4.634   1.148   0.230 -3.1504 -0.5388 -0.3872
 3904SOL    HW223175   4.701   1.263   0.314 -0.6630  0.0406  0.1184
 3905SOL     OW23176   4.156   2.194   1.647 -0.5578  0.3654 -0.5549
 3905SOL    HW123177   4.192   2.277   1.618  2.4640 -0.1242  1.8060
 3905SOL    HW223178   4.181   2.143   1.570  0.8535  1.0767 -0.5558
 3906SOL     OW23179   3.007   1.450   9.911  0.1556 -0.0419 -0.2845
 3906SOL    HW123180   3.088   1.490   9.941 -0.8673  1.3802  0.6415
 3906SOL    HW223181   2.984   1.387   9.981  0.8032  0.9643  0.8260
 3907SOL     OW23182   4.595   3.802   4.484 -0.2325  0.6906  0.0163
 3907SOL    HW123183   4.525   3.866   4.473  2.4510  3.2669 -2.0739
 3907SOL    HW223184   4.548   3.719   4.477 -0.1748  0.6864 -0.2957
 3908SOL     OW23185   1.761   3.428  17.424 -0.0177 -0.3651  0.5157
 3908SOL    HW123186   1.853   3.406  17.409  0.0853  0.7597 -0.5412
 3908SOL    HW223187   1.745   3.398  17.513  1.6679 -1.0787  0.5769
 3909SOL     OW23188   4.450   2.950   9.575 -1.2137  0.6630 -0.3310
 3909SOL    HW123189   4.463   2.872   9.630 -0.8656  1.0602  0.1566
 3909SOL    HW223190   4.376   2.988   9.623 -1.0622 -0.4769  0.8069
 3910SOL     OW23191   3.056   0.473   0.712  0.8523 -0.6908 -0.4305
 3910SOL    HW123192   3.073   0.566   0.723  3.9887 -1.5469  2.0616
 3910SOL    HW223193   2.977   0.460   0.660 -2.2906 -0.2918  4.2678
 3911SOL     OW23194   4.152   0.797   2.755 -0.1163  0.5580 -0.0691
 3911SOL    HW123195   4.148   0.825   2.847  0.2215 -0.7227  0.3351
 3911SOL    HW223196   4.222   0.733   2.768 -1.6545 -0.6869  2.0970
 3912SOL     OW23197   2.351   4.060   1.902  0.0674  0.3856 -0.2172
 3912SOL    HW123198   2.303   3.990   1.857  1.7466 -1.5006  0.9200
 3912SOL    HW223199   2.406   4.095   1.832  1.2955 -2.0463 -0.4509
 3913SOL     OW23200   3.633   4.328  17.621  0.0397  0.5037 -0.1180
 3913SOL    HW123201   3.633   4.345  17.527  0.8392  0.6385 -0.0953
 3913SOL    HW223202   3.547   4.289  17.635 -0.1273  0.0218 -2.4842
 3914SOL     OW23203   4.116   4.202  11.559 -0.2885 -0.8362  0.1865
 3914SOL    HW123204   4.197   4.156  11.543  0.8217  0.7054  1.3207
 3914SOL    HW223205   4.090   4.172  11.646 -0.7128 -0.3456  0.2344
 3915SOL     OW23206   4.516   4.320   7.688 -0.3341 -0.1068  0.0118
 3915SOL    HW123207   4.478   4.249   7.637  1.8491 -0.0667 -1.6623
 3915SOL    HW223208   4.448   4.388   7.688  0.6330  0.8699 -0.5365
 3916SOL     OW23209   0.878   1.083   1.397 -0.3577 -0.2455  0.2196
 3916SOL    HW123210   0.876   1.090   1.301  0.8582  0.0849  0.2191
 3916SOL    HW223211   0.924   1.164   1.419 -0.5966  0.6096 -2.4025
 3917SOL     OW23212   1.403   0.432   7.530 -0.4949  0.2914 -0.1077
 3917SOL    HW123213   1.444   0.346   7.540 -2.4333 -0.5300  0.6962
 3917SOL    HW223214   1.470   0.493   7.560  0.4698 -1.4076  1.1880
 3918SOL     OW23215   1.954   3.442   8.022 -0.9547 -0.3802 -0.4578
 3918SOL    HW123216   1.941   3.533   7.993  1.6369  0.2642  0.4148
 3918SOL    HW223217   1.892   3.443   8.096  0.4480  0.8777  0.7081
 3919SOL     OW23218   3.102   4.681  13.872  0.6957 -0.2052 -0.1218
 3919SOL    HW123219   3.097   4.662  13.778  0.1507 -0.9396  0.0518
 3919SOL    HW223220   3.187   0.005  13.869  0.3804  0.5062  1.3463
 3920SOL     OW23221   1.659   4.032   2.462 -0.2800 -0.0812  0.2235
 3920SOL    HW123222   1.622   4.067   2.381 -3.0723 -1.1028  1.0580
 3920SOL    HW223223   1.730   4.095   2.475 -0.3598  0.5130 -2.2150
 3921SOL     OW23224   0.906   3.107   1.021  0.2516  0.3397  0.4994
 3921SOL    HW123225   0.940   3.181   0.970 -2.1877  1.9203  1.1814
 3921SOL    HW223226   0.874   3.060   0.944  0.8670 -1.2330  1.1857
 3922SOL     OW23227   4.529   1.271   3.341  0.2943 -0.0168 -0.3179
 3922SOL    HW123228   4.594   1.296   3.276  0.4239  2.5236  0.7824
 3922SOL    HW223229   4.572   1.308   3.418  2.1790 -1.7107 -0.5509
 3923SOL     OW23230   4.402   0.349   0.636 -0.4490  0.1070 -0.0514
 3923SOL    HW123231   4.405   0.334   0.731  1.3964  0.6444 -0.0122
 3923SOL    HW223232   4.354   0.270   0.613 -1.2351  1.1107 -1.7903
 3924SOL     OW23233   0.778   2.418  17.483  0.8302  0.2907  0.4271
 3924SOL    HW123234   0.810   2.386  17.567 -0.2787 -1.0966  0.3316
 3924SOL    HW223235   0.732   2.497  17.511  2.2750  0.8152  1.3029
 3925SOL     OW23236   1.448   3.590  15.980 -0.3319  0.8526  0.2063
 3925SOL    HW123237   1.397   3.509  15.969 -2.6194  2.5532 -1.9657
 3925SOL    HW223238   1.530   3.551  16.008 -0.6984 -0.2070 -0.1888
 3926SOL     OW23239   1.484   2.073   6.669 -0.0074  0.3105 -0.8581
 3926SOL    HW123240   1.464   2.151   6.618 -2.0986 -0.2549 -0.8947
 3926SOL    HW223241   1.485   2.105   6.759  1.3075 -0.7320 -0.5068
 3927SOL     OW23242   1.393   0.404   6.293 -0.1711 -0.3746  0.0837
 3927SOL    HW123243   1.476   0.438   6.259 -1.0607  1.9249  0.1510
 3927SOL    HW223244   1.406   0.312   6.270  0.7448 -0.0584 -0.6674
 3928SOL     OW23245   1.508   0.814   9.775  0.4163 -0.2985  0.3334
 3928SOL    HW123246   1.511   0.785   9.684  0.6471 -0.9579  0.5435
 3928SOL    HW223247   1.420   0.847   9.792 -0.1307 -1.6259  0.0763
 3929SOL     OW23248   3.166   3.384   8.649 -0.6289  0.4126 -0.1589
 3929SOL    HW123249   3.154   3.335   8.568 -2.6169 -0.0163  0.3945
 3929SOL    HW223250   3.261   3.371   8.654 -0.7408 -0.9540 -1.5069
 3930SOL     OW23251   3.051   1.090   5.735 -0.3496  0.2864 -0.0240
 3930SOL    HW123252   3.042   1.088   5.830  1.8971 -1.4227  0.1676
 3930SOL    HW223253   3.126   1.149   5.728 -0.0421 -0.1603 -0.5069
 3931SOL     OW23254   3.975   0.561   4.685  0.1998 -0.3179  0.2686
 3931SOL    HW123255   3.977   0.605   4.770 -2.0860 -0.0323  0.1546
 3931SOL    HW223256   3.980   0.473   4.721 -0.4751 -0.8127 -0.8564
 3932SOL     OW23257   2.786   1.833  11.902  0.1572 -0.0186  0.4704
 3932SOL    HW123258   2.813   1.833  11.994  3.3387 -2.1182 -0.4730
 3932SOL    HW223259   2.705   1.883  11.906 -0.6283 -1.3952  2.0111
 3933SOL     OW23260   3.478   1.202  14.223 -0.7117  0.2807  0.9039
 3933SOL    HW123261   3.410   1.140  14.197 -2.2911  2.1283  0.6486
 3933SOL    HW223262   3.498   1.184  14.315  2.5564 -0.6511  0.0043
 3934SOL     OW23263   3.526   2.652   9.139  0.2147  0.1119  0.4497
 3934SOL    HW123264   3.617   2.630   9.120  0.3295  0.2844  0.8009
 3934SOL    HW223265   3.547   2.736   9.181 -0.0317 -0.3459  1.5069
 3935SOL     OW23266   0.840   0.413   1.236 -0.5414  0.3937  0.0192
 3935SOL    HW123267   0.904   0.377   1.296  2.0936  2.4902 -1.5348
 3935SOL    HW223268   0.768   0.355   1.261 -0.5498  0.0302 -0.8361
 3936SOL     OW23269   2.978   1.297  14.384  0.1276  0.5133 -0.3964
 3936SOL    HW123270   3.011   1.375  14.339 -0.0085  2.2387  2.4879
 3936SOL    HW223271   2.917   1.331  14.450 -0.6926 -0.0701 -0.8538
 3937SOL     OW23272   0.231   3.357   6.650 -0.4849 -0.7880  1.4163
 3937SOL    HW123273   0.261   3.295   6.584 -0.9216  0.0084  0.4636
 3937SOL    HW223274   0.154   3.311   6.680 -0.8464 -0.0032  1.6954
 3938SOL     OW23275   2.307   0.758   5.581  0.4771 -0.2073 -0.0609
 3938SOL    HW123276   2.256   0.802   5.649  1.4951 -0.0179  0.5870
 3938SOL    HW223277   2.342   0.687   5.634  1.1178  0.8970  1.0026
 3939SOL     OW23278   0.585   1.075  13.130  0.5420  0.0940 -0.2177
 3939SOL    HW123279   0.623   1.162  13.127 -0.1194  0.4015  0.5026
 3939SOL    HW223280   0.522   1.084  13.201  0.8156  2.7302 -0.3238
 3940SOL     OW23281   1.935   1.310  11.644 -0.1335  0.5763  0.1827
 3940SOL    HW123282   1.945   1.215  11.631  1.3836  0.7058  0.3869
 3940SOL    HW223283   1.867   1.312  11.711 -2.4814  0.7309 -2.1772
 3941SOL     OW23284   2.049   4.608  14.881  0.6407 -0.3264  0.1347
 3941SOL    HW123285   2.048   4.685  14.823  5.2605 -0.0080  0.5104
 3941SOL    HW223286   2.038   4.541  14.813  1.7621  1.4802 -1.8512
 3942SOL     OW23287   3.046   4.072   5.931 -0.8821  0.5150 -0.0266
 3942SOL    HW123288   3.030   4.082   5.838 -1.6391  1.2316  0.1853
 3942SOL    HW223289   3.083   3.984   5.928 -1.4582  0.3437 -2.3372
 3943SOL     OW23290   1.719   2.221  15.854 -0.2759  0.3459  0.2162
 3943SOL    HW123291   1.676   2.198  15.772 -0.6356  0.6139  0.3310
 3943SOL    HW223292   1.807   2.242  15.822  0.0268 -1.4359 -0.0837
 3944SOL     OW23293   3.256   4.527   3.924 -0.1337  0.2898  0.0449
 3944SOL    HW123294   3.170   4.565   3.937 -1.2017 -2.0326 -0.2018
 3944SOL    HW223295   3.273   4.462   3.993  1.0124 -0.3471 -0.8346
 3945SOL     OW23296   1.820   2.757   5.157 -0.2462  0.0764 -0.4966
 3945SOL    HW123297   1.904   2.713   5.147 -0.4136 -0.6021  0.9908
 3945SOL    HW223298   1.767   2.683   5.186 -1.7768  0.6020 -1.9514
 3946SOL     OW23299   4.269   3.252   4.269 -0.7100  0.2232  0.0150
 3946SOL    HW123300   4.260   3.190   4.196 -1.3306 -1.2526  1.3430
 3946SOL    HW223301   4.364   3.255   4.278 -0.9309  1.0531  1.9492
 3947SOL     OW23302   0.659   3.251   4.495 -0.1994  0.5282 -0.2148
 3947SOL    HW123303   0.601   3.187   4.536 -1.1292  1.4103 -0.1777
 3947SOL    HW223304   0.719   3.279   4.564 -0.8647  1.1913  0.0896
 3948SOL     OW23305   2.723   3.170   2.015  0.4478 -0.1352  0.2661
 3948SOL    HW123306   2.673   3.202   2.090  2.0290  3.0569 -0.0296
 3948SOL    HW223307   2.676   3.087   2.006  2.1594 -1.0286 -0.5582
 3949SOL     OW23308   3.860   3.921   7.659 -0.1145 -0.3084  0.6928
 3949SOL    HW123309   3.916   3.865   7.606 -1.2767 -1.6670  0.8969
 3949SOL    HW223310   3.824   3.861   7.724 -0.8195 -1.5182 -0.8177
 3950SOL     OW23311   1.803   1.824  11.443  0.0801  0.1694  0.0054
 3950SOL    HW123312   1.832   1.742  11.404 -1.2013  0.2130 -1.0335
 3950SOL    HW223313   1.713   1.794  11.455 -0.4333  2.7731  2.5281
 3951SOL     OW23314   4.044   2.181   6.413 -0.2876  0.4681 -0.0101
 3951SOL    HW123315   4.049   2.255   6.474 -0.4534  1.2105 -0.9009
 3951SOL    HW223316   4.078   2.224   6.335 -0.1173  1.1968  0.4759
 3952SOL     OW23317   1.299   4.015   5.635 -0.0194 -0.4992  0.0096
 3952SOL    HW123318   1.352   3.936   5.629 -3.5623 -2.5900 -3.2279
 3952SOL    HW223319   1.209   3.983   5.631 -1.1260  2.4859  0.5521
 3953SOL     OW23320   3.020   0.073  13.042 -0.1913 -0.2326  0.0704
 3953SOL    HW123321   2.990   4.702  13.043 -0.8908  0.0191  1.1876
 3953SOL    HW223322   3.090   0.075  13.107 -0.3826 -0.3288  0.2768
 3954SOL     OW23323   4.412   2.060   7.278  0.0519 -0.2553 -0.2126
 3954SOL    HW123324   4.469   2.002   7.327 -0.9152 -1.1689 -0.1739
 3954SOL    HW223325   4.467   2.095   7.208 -0.9492 -1.7454 -1.7398
 3955SOL     OW23326   3.491   0.231   3.527  0.4995  0.5184 -0.6802
 3955SOL    HW123327   3.479   0.147   3.482  2.1173 -0.4641  0.7453
 3955SOL    HW223328   3.400   0.261   3.522 -0.0692 -1.1158 -0.1418
 3956SOL     OW23329   0.976   4.673   9.605 -0.1271 -0.5806 -0.2771
 3956SOL    HW123330   0.950   4.682   9.697  1.0364 -2.4772  0.2354
 3956SOL    HW223331   0.978   4.578   9.600 -1.1067 -0.6452  0.5652
 3957SOL     OW23332   2.047   3.847   3.203  0.0676  0.1695  0.2002
 3957SOL    HW123333   2.009   3.767   3.239 -0.5975  0.6758  0.6167
 3957SOL    HW223334   2.120   3.802   3.159 -1.5273 -2.1875 -0.0525
 3958SOL     OW23335   2.771   3.987   1.733  0.6767 -0.5222  1.0558
 3958SOL    HW123336   2.768   4.014   1.825  0.8588 -1.1767  1.2530
 3958SOL    HW223337   2.689   4.019   1.696 -0.6304 -1.6916  2.9574
 3959SOL     OW23338   4.414   3.237  10.636  0.2059  0.5927 -0.0640
 3959SOL    HW123339   4.411   3.141  10.635  0.6770  0.5923 -1.6901
 3959SOL    HW223340   4.328   3.259  10.599  0.0161  0.8767  0.5479
 3960SOL     OW23341   3.380   4.198   7.893 -0.5094 -0.5412  0.0054
 3960SOL    HW123342   3.410   4.133   7.957 -1.2869 -1.9767 -1.0927
 3960SOL    HW223343   3.349   4.137   7.827  1.3475 -0.1380 -1.2502
 3961SOL     OW23344   0.065   0.137  17.181  0.3162 -0.2014 -0.1957
 3961SOL    HW123345   0.059   0.085  17.100 -0.3199 -0.8768  0.2793
 3961SOL    HW223346   4.704   0.117  17.228  0.3430  2.9769  1.1792
 3962SOL     OW23347   0.873   1.790   3.115 -0.0745  0.3893 -0.2742
 3962SOL    HW123348   0.923   1.787   3.197  4.4121 -2.5861 -3.0960
 3962SOL    HW223349   0.894   1.699   3.094 -0.1675 -0.2549  2.4405
 3963SOL     OW23350   3.649   4.591   3.977 -0.3893  0.3499 -0.1770
 3963SOL    HW123351   3.574   4.647   3.996 -0.3605  1.2139 -2.5840
 3963SOL    HW223352   3.672   4.616   3.887 -1.8790  1.1939 -0.3201
 3964SOL     OW23353   2.769   2.082   2.451 -0.0685 -0.1981 -0.0836
 3964SOL    HW123354   2.765   2.160   2.395 -1.1935 -0.1330  0.0893
 3964SOL    HW223355   2.679   2.065   2.478 -0.6992 -1.1806 -2.9027
 3965SOL     OW23356   3.181   1.788   7.498 -0.4895  0.0729 -0.0874
 3965SOL    HW123357   3.151   1.878   7.510  1.9089  0.8646 -0.0720
 3965SOL    HW223358   3.200   1.768   7.590 -0.3824  1.2519  0.1511
 3966SOL     OW23359   3.520   4.350   2.563  0.3864  0.5278 -0.2600
 3966SOL    HW123360   3.488   4.374   2.476  1.0037 -0.5390 -0.7842
 3966SOL    HW223361   3.508   4.257   2.544 -2.3079  1.1227 -1.4504
 3967SOL     OW23362   2.824   3.002   5.878 -0.2434 -0.2920  0.4286
 3967SOL    HW123363   2.757   2.934   5.871 -0.8282  0.3682 -0.3891
 3967SOL    HW223364   2.898   2.965   5.831  0.4060  1.3538  0.1549
 3968SOL     OW23365   4.234   0.113  11.671 -0.2362  0.1853  0.3800
 3968SOL    HW123366   4.241   0.039  11.730  1.6324  0.0682 -0.0139
 3968SOL    HW223367   4.245   0.079  11.582 -0.3997  0.6037  0.1957
 3969SOL     OW23368   0.548   0.690   3.092  0.3035 -0.2070 -0.3715
 3969SOL    HW123369   0.638   0.659   3.103  0.2564  0.1197  0.8429
 3969SOL    HW223370   0.564   0.770   3.041 -2.3074  1.8658  2.0762
 3970SOL     OW23371   1.222   1.014   6.100  0.3038 -0.8402  1.0285
 3970SOL    HW123372   1.229   1.103   6.066 -0.8946 -0.4509  1.7866
 3970SOL    HW223373   1.250   0.968   6.021 -0.9760  0.1067  0.0096
 3971SOL     OW23374   2.836   2.213   0.802 -0.8459  0.0403 -0.3676
 3971SOL    HW123375   2.776   2.265   0.749  0.9692  2.2544 -0.2618
 3971SOL    HW223376   2.915   2.207   0.748 -1.5969 -1.7125 -1.2647
 3972SOL     OW23377   0.990   1.353   0.985 -0.5995 -0.1352 -0.0553
 3972SOL    HW123378   0.918   1.307   0.941 -0.2312  0.1533 -0.9481
 3972SOL    HW223379   1.041   1.278   1.016 -0.3716  0.4614  1.0094
 3973SOL     OW23380   2.708   0.264   2.812  0.3577 -0.3781 -0.4003
 3973SOL    HW123381   2.695   0.278   2.718 -0.0331 -1.9572 -0.5842
 3973SOL    HW223382   2.620   0.270   2.848  0.2795 -1.5193 -0.3980
 3974SOL     OW23383   1.188   2.584  10.584  0.0016  0.5460 -0.0358
 3974SOL    HW123384   1.237   2.542  10.654  1.1300  1.7911 -0.0733
 3974SOL    HW223385   1.146   2.656  10.632  1.5567  2.2414 -1.1880
 3975SOL     OW23386   1.457   3.157   4.658  0.2052  0.2623  0.1349
 3975SOL    HW123387   1.433   3.119   4.742  2.3841 -0.8604  0.2388
 3975SOL    HW223388   1.374   3.173   4.613  0.4107 -0.9700 -0.6789
 3976SOL     OW23389   1.135   0.447   0.443  0.0489  0.1409  0.0399
 3976SOL    HW123390   1.060   0.389   0.432 -0.0916  0.3139  0.0794
 3976SOL    HW223391   1.189   0.381   0.486  0.5177  0.0157 -0.7302
 3977SOL     OW23392   4.229   4.551   3.900 -0.5064  0.7837  0.5209
 3977SOL    HW123393   4.157   4.613   3.901  1.9852  3.6391  0.5015
 3977SOL    HW223394   4.191   4.487   3.961 -1.0438  2.0768  1.5412
 3978SOL     OW23395   3.055   0.460  16.925 -0.2108 -0.5709 -0.2023
 3978SOL    HW123396   3.065   0.517  16.849 -0.9623 -0.3893 -0.1596
 3978SOL    HW223397   3.088   0.378  16.888 -0.0146 -0.8448  0.5820
 3979SOL     OW23398   0.106   3.246   7.478  0.2978  0.2346  0.3726
 3979SOL    HW123399   0.139   3.334   7.461  0.7023 -0.0086 -0.0872
 3979SOL    HW223400   0.173   3.188   7.443  0.4921  1.3144 -0.9998
 3980SOL     OW23401   4.107   4.459   5.480 -0.3728 -0.7373 -0.8337
 3980SOL    HW123402   4.183   4.458   5.421 -0.8099 -2.6771 -1.3586
 3980SOL    HW223403   4.051   4.504   5.416 -0.0428  0.1906 -0.4723
 3981SOL     OW23404   3.716   2.468   7.480  0.0913 -0.1267 -0.3303
 3981SOL    HW123405   3.755   2.432   7.559 -0.4968  0.2239  0.1240
 3981SOL    HW223406   3.786   2.444   7.420  1.1847  0.8600  0.5378
 3982SOL     OW23407   2.886   2.146   1.342  0.5823 -0.1360  0.2621
 3982SOL    HW123408   2.910   2.178   1.255  0.9752 -1.5261 -0.1452
 3982SOL    HW223409   2.954   2.185   1.397 -0.7945  1.1715  1.0108
 3983SOL     OW23410   0.559   2.058   6.583 -0.2477 -0.0884  0.1829
 3983SOL    HW123411   0.564   2.057   6.488 -1.7880 -1.5075  0.1122
 3983SOL    HW223412   0.615   1.983   6.601  0.4069  0.4316  0.3143
 3984SOL     OW23413   3.463   0.559   5.740 -0.3223  0.0326  0.1294
 3984SOL    HW123414   3.435   0.639   5.784 -1.0317  1.7900 -3.5270
 3984SOL    HW223415   3.397   0.556   5.670 -0.5098  0.7730  0.2780
 3985SOL     OW23416   0.592   0.475  15.163  0.4021 -0.0939 -0.1279
 3985SOL    HW123417   0.667   0.456  15.106  0.1902  1.1550 -0.8108
 3985SOL    HW223418   0.533   0.520  15.103  0.2264 -1.1710 -0.7704
 3986SOL     OW23419   4.373   4.444   6.100 -0.1674 -0.4592  0.1048
 3986SOL    HW123420   4.443   4.506   6.122 -0.8000  0.0332  0.7156
 3986SOL    HW223421   4.420   4.361   6.106 -0.0017 -0.2798  1.4111
 3987SOL     OW23422   1.108   4.430   7.309  0.2900 -0.3635 -0.1129
 3987SOL    HW123423   1.019   4.460   7.325  1.2490  0.0708  4.4331
 3987SOL    HW223424   1.124   4.393   7.396 -0.9489  1.4040  0.8645
 3988SOL     OW23425   0.607   2.712  16.230  0.0713  0.2033 -0.3478
 3988SOL    HW123426   0.541   2.650  16.262  0.9272 -0.6633 -0.2739
 3988SOL    HW223427   0.636   2.669  16.150 -0.2403  0.1361 -0.4248
 3989SOL     OW23428   0.487   3.455   6.042  0.0542  0.1936  0.1669
 3989SOL    HW123429   0.493   3.550   6.031 -0.5906  0.1616 -0.4177
 3989SOL    HW223430   0.476   3.430   5.950 -1.2037 -0.1747  0.4155
 3990SOL     OW23431   0.449   1.304   8.642  0.3447 -0.1629  0.5683
 3990SOL    HW123432   0.520   1.253   8.680  0.8614  0.2648  0.1759
 3990SOL    HW223433   0.474   1.322   8.552  0.5107 -1.6350  0.3274
 3991SOL     OW23434   4.005   2.459  17.612 -0.4352  0.1085  0.2609
 3991SOL    HW123435   4.092   2.461  17.650  0.2880  0.8052 -1.4170
 3991SOL    HW223436   3.951   2.468   0.008  0.1001  0.8703  0.5330
 3992SOL     OW23437   1.777   3.981   4.465  0.0546  0.1980  0.1018
 3992SOL    HW123438   1.775   4.054   4.526  0.9338 -0.5336  1.0021
 3992SOL    HW223439   1.689   3.944   4.474  0.8581 -1.6442  0.5221
 3993SOL     OW23440   1.914   4.629  12.083  0.2382  0.0799 -0.1164
 3993SOL    HW123441   1.836   4.684  12.075  0.2755  0.3369  1.2729
 3993SOL    HW223442   1.940   4.618  11.992  0.2978  1.8827 -0.3317
 3994SOL     OW23443   4.466   0.282   9.648  0.2102 -0.9236 -0.2794
 3994SOL    HW123444   4.493   0.192   9.666 -1.3918 -1.5021 -0.7444
 3994SOL    HW223445   4.395   0.265   9.586 -1.0295  1.7957  0.3518
 3995SOL     OW23446   1.375   4.308   1.132 -0.4409  0.2523  0.3828
 3995SOL    HW123447   1.356   4.296   1.039 -0.6280  1.1579  0.3042
 3995SOL    HW223448   1.344   4.397   1.143  0.1497  0.3920  0.9243
 3996SOL     OW23449   2.535   0.141   4.491  0.6291 -0.1660 -0.0122
 3996SOL    HW123450   2.444   0.168   4.504  0.7455  0.7894 -1.1534
 3996SOL    HW223451   2.577   0.209   4.438  0.0313  0.1039 -0.1488
 3997SOL     OW23452   2.395   4.463  12.236 -0.2470 -0.3409  0.8876
 3997SOL    HW123453   2.317   4.412  12.217 -0.3473 -0.4222  1.5330
 3997SOL    HW223454   2.410   4.518  12.158 -1.0638 -0.5422  0.5923
 3998SOL     OW23455   3.108   1.768   5.439 -0.2004  0.0118  0.3493
 3998SOL    HW123456   3.191   1.769   5.486  0.3376 -0.9086 -0.5556
 3998SOL    HW223457   3.128   1.781   5.346  1.0591 -2.2872  0.3033
 3999SOL     OW23458   1.608   1.422   4.317 -0.0858  0.2589 -0.8663
 3999SOL    HW123459   1.702   1.401   4.316  0.0630  0.9199 -0.2960
 3999SOL    HW223460   1.616   1.514   4.340  0.7733 -0.6923  2.5321
 4000SOL     OW23461   4.411   0.896   0.334  0.1648 -0.4420 -0.2731
 4000SOL    HW123462   4.506   0.886   0.348  0.5544  1.4864 -1.6501
 4000SOL    HW223463   4.388   0.927   0.422 -1.0252 -1.4420 -0.2218
 4001SOL     OW23464   0.699   4.064   7.971  0.4915  0.2388  0.8130
 4001SOL    HW123465   0.776   4.072   8.027  1.1989 -2.4491  0.2247
 4001SOL    HW223466   0.685   4.158   7.958  1.0431  0.4973  2.1116
 4002SOL     OW23467   0.104   2.007   9.104  0.2337 -0.3233  0.4698
 4002SOL    HW123468   0.173   1.953   9.065 -0.6872 -0.3664 -1.0699
 4002SOL    HW223469   0.083   1.948   9.176  1.0971  1.2613  2.0226
 4003SOL     OW23470   3.925   2.859  14.198 -0.2634  0.1982 -0.0310
 4003SOL    HW123471   3.842   2.879  14.242  0.2409 -0.7872  1.3923
 4003SOL    HW223472   3.935   2.944  14.156 -1.2021  0.9486  1.2751
 4004SOL     OW23473   0.869   0.078   2.183  0.2413  0.3019  0.7422
 4004SOL    HW123474   0.915   4.720   2.153  1.7072  1.7218 -0.7347
 4004SOL    HW223475   0.791   0.061   2.132  0.5797 -1.1929  0.7304
 4005SOL     OW23476   1.607   2.402   0.481 -0.1367 -0.4692  0.1356
 4005SOL    HW123477   1.528   2.363   0.442  0.0893 -1.4201  0.6207
 4005SOL    HW223478   1.580   2.429   0.568 -0.2854  1.3994 -0.4859
 4006SOL     OW23479   2.793   3.366   4.667 -0.1172  0.2056 -0.0213
 4006SOL    HW123480   2.847   3.337   4.740  1.7391  0.9074 -1.1189
 4006SOL    HW223481   2.803   3.461   4.679 -0.2792  0.2412 -0.1598
 4007SOL     OW23482   1.488   0.449   9.781 -0.3491 -0.0458  0.0842
 4007SOL    HW123483   1.444   0.449   9.696  2.1762  3.6188 -1.2151
 4007SOL    HW223484   1.572   0.490   9.761 -0.7213  0.3161 -0.7529
 4008SOL     OW23485   2.717   2.507   2.945 -0.1125 -0.2469  0.2354
 4008SOL    HW123486   2.706   2.437   3.009 -3.8122  0.3501  0.2774
 4008SOL    HW223487   2.641   2.562   2.963  0.1337  0.1664  0.0006
 4009SOL     OW23488   1.028   2.923   3.614 -0.4452 -0.4852  0.6298
 4009SOL    HW123489   0.940   2.910   3.579  1.1438 -1.4712 -2.9637
 4009SOL    HW223490   1.029   3.015   3.641  0.0871  0.1344 -1.5278
 4010SOL     OW23491   2.581   0.904  13.883  0.1986  0.0443 -0.2024
 4010SOL    HW123492   2.619   0.934  13.800 -1.3412  0.1161 -0.8831
 4010SOL    HW223493   2.649   0.848  13.922 -0.7069 -1.4948 -0.8612
 4011SOL     OW23494   1.064   1.729   3.619  0.3055 -0.2510  0.0800
 4011SOL    HW123495   1.123   1.654   3.621 -0.3543 -0.7622  0.2068
 4011SOL    HW223496   1.056   1.740   3.524 -2.0277  1.6812  0.5003
 4012SOL     OW23497   1.594   3.834   5.824 -0.5771 -0.4823 -0.5588
 4012SOL    HW123498   1.565   3.871   5.741 -0.3023 -0.8226 -0.8033
 4012SOL    HW223499   1.662   3.771   5.799 -0.9243 -1.8232  1.8637
 4013SOL     OW23500   2.497   3.844  14.342  0.6771  0.6859 -0.0161
 4013SOL    HW123501   2.505   3.755  14.309 -0.1595  1.1018 -1.4000
 4013SOL    HW223502   2.575   3.851  14.396  0.7512 -2.6847  0.2853
 4014SOL     OW23503   4.324   1.988   5.555 -0.0097 -0.4231 -0.8912
 4014SOL    HW123504   4.410   1.969   5.518 -0.2240  0.4985 -1.8512
 4014SOL    HW223505   4.327   1.917   5.619 -1.0476  1.0344  0.7814
 4015SOL     OW23506   1.922   0.404   3.817 -0.3947  0.4405 -0.0850
 4015SOL    HW123507   1.889   0.336   3.758  0.8200  0.2787 -0.5674
 4015SOL    HW223508   1.992   0.368   3.871 -1.3100 -2.1900 -0.6725
 4016SOL     OW23509   4.711   0.916   4.030 -0.2990 -0.4704  0.4877
 4016SOL    HW123510   4.651   0.955   3.967 -1.9052  0.1753  2.4422
 4016SOL    HW223511   0.003   0.986   4.095 -1.2337  0.6661 -0.5780
 4017SOL     OW23512   0.931   3.599   1.684  0.1628  0.2176 -0.0215
 4017SOL    HW123513   1.014   3.636   1.655 -0.8719  1.1614 -1.7861
 4017SOL    HW223514   0.868   3.664   1.652  0.9068  1.0256  0.1505
 4018SOL     OW23515   2.321   3.592  12.176 -0.3451 -0.1180  0.3745
 4018SOL    HW123516   2.356   3.553  12.096  1.5176  0.9396  0.6884
 4018SOL    HW223517   2.399   3.601  12.230 -0.3381 -1.4451  0.5815
 4019SOL     OW23518   3.049   3.956  10.670 -0.5615 -0.5283  0.6628
 4019SOL    HW123519   3.056   3.965  10.575  1.4734  0.6212  0.9210
 4019SOL    HW223520   3.134   3.912  10.678  0.7948  1.6962 -1.4262
 4020SOL     OW23521   2.320   3.189  10.774 -0.4790 -0.0267  0.0870
 4020SOL    HW123522   2.410   3.204  10.747 -0.0858 -1.8453  0.3732
 4020SOL    HW223523   2.291   3.272  10.811  2.7646  1.4612 -0.7434
 4021SOL     OW23524   3.152   4.473  11.588  0.2358 -0.3591 -0.0622
 4021SOL    HW123525   3.151   4.566  11.612 -0.3495 -0.2609 -0.4628
 4021SOL    HW223526   3.057   4.467  11.596  0.2077  0.4530  0.2456
 4022SOL     OW23527   3.397   4.566   4.595 -0.0263  0.2555  0.4325
 4022SOL    HW123528   3.368   4.605   4.678 -0.4716  1.4317 -0.2719
 4022SOL    HW223529   3.435   4.649   4.565  0.0867  0.3982  0.9732
 4023SOL     OW23530   4.556   2.945   2.915 -0.3784  0.7885  0.4199
 4023SOL    HW123531   4.490   2.876   2.905 -0.9442  1.4088 -0.1319
 4023SOL    HW223532   4.538   2.953   3.009 -1.0827  0.0563  0.3443
 4024SOL     OW23533   1.543   2.992   2.613 -0.0452 -0.0605  0.1058
 4024SOL    HW123534   1.518   3.085   2.615 -1.1433 -0.3364 -0.7438
 4024SOL    HW223535   1.556   2.974   2.706  0.3694 -1.1530 -0.1645
 4025SOL     OW23536   3.823   0.758   6.998 -0.4397  0.3782 -0.1204
 4025SOL    HW123537   3.839   0.724   6.910 -3.7668 -2.5129  0.3924
 4025SOL    HW223538   3.907   0.799   7.019 -1.6942  3.0013 -0.1525
 4026SOL     OW23539   2.958   2.484   2.828  0.2816 -0.0181  0.0239
 4026SOL    HW123540   2.885   2.513   2.883 -0.0011 -0.6264 -0.0336
 4026SOL    HW223541   2.936   2.393   2.809  0.1588  0.1867 -0.8466
 4027SOL     OW23542   4.303   3.216   5.642 -0.4438 -0.2952 -0.0895
 4027SOL    HW123543   4.339   3.302   5.620 -1.7076  0.4804  0.8879
 4027SOL    HW223544   4.326   3.220   5.734  2.3721 -0.0582 -0.8187
 4028SOL     OW23545   1.470   2.848  13.930 -0.0932  0.4949  0.3504
 4028SOL    HW123546   1.507   2.771  13.973 -0.4133  0.1899  0.0786
 4028SOL    HW223547   1.382   2.850  13.968  0.9350  2.0337  2.6319
 4029SOL     OW23548   3.479   2.627  15.939 -0.3500 -0.2144  0.6269
 4029SOL    HW123549   3.392   2.588  15.932 -0.5870  0.1427  1.5699
 4029SOL    HW223550   3.506   2.611  16.029  0.8243  2.9325  0.8379
 4030SOL     OW23551   0.267   3.028   7.267 -0.4656 -0.5473  0.0893
 4030SOL    HW123552   0.178   3.029   7.232 -0.2989 -0.5427 -0.3269
 4030SOL    HW223553   0.312   3.094   7.214 -0.4452 -1.3295 -0.8700
 4031SOL     OW23554   3.693   1.252   6.558  0.3607 -0.1469  0.3756
 4031SOL    HW123555   3.603   1.221   6.549  0.3066  0.5045 -1.4241
 4031SOL    HW223556   3.732   1.172   6.592 -0.3053 -0.2694  0.8423
 4032SOL     OW23557   0.054   1.006   2.033  1.1825  0.8548 -0.5704
 4032SOL    HW123558   0.024   0.916   2.024  3.2113  0.4177 -3.1363
 4032SOL    HW223559   0.029   1.007   2.125 -1.0358 -2.0562 -1.1632
 4033SOL     OW23560   0.967   4.340   9.079 -0.0146  0.4039 -0.1534
 4033SOL    HW123561   0.924   4.259   9.107 -1.1738  0.9526 -0.3177
 4033SOL    HW223562   1.051   4.329   9.122 -0.4382 -1.4968  0.1649
 4034SOL     OW23563   2.238   2.210   4.959 -0.1919 -0.3739 -0.4254
 4034SOL    HW123564   2.168   2.155   4.926  0.3651 -0.1575 -1.9739
 4034SOL    HW223565   2.252   2.266   4.882  1.4658  1.9126  1.5101
 4035SOL     OW23566   3.571   0.070   9.024 -0.4032  0.2142  0.1826
 4035SOL    HW123567   3.529   4.707   9.047 -2.5758  0.6525 -2.1737
 4035SOL    HW223568   3.637   0.044   8.961  1.0595 -0.4840  1.9865
 4036SOL     OW23569   2.968   3.329   2.643  0.1719  0.1838  0.0406
 4036SOL    HW123570   3.037   3.354   2.704  0.8750 -1.4985 -0.0892
 4036SOL    HW223571   2.964   3.237   2.667  0.7033 -0.1989 -1.3570
 4037SOL     OW23572   1.386   0.013   4.781 -0.1599 -0.3494  0.7807
 4037SOL    HW123573   1.461   4.692   4.825  0.6317  0.7864  0.4609
 4037SOL    HW223574   1.318   4.701   4.841 -1.5320 -0.2279 -0.7080
 4038SOL     OW23575   4.460   2.428   9.025 -0.1581 -0.4989  0.3976
 4038SOL    HW123576   4.537   2.431   8.968 -0.9045 -2.8405 -0.7607
 4038SOL    HW223577   4.379   2.429   8.974  0.2733  0.0982 -0.2707
 4039SOL     OW23578   4.061   3.262   3.531 -0.7236 -0.1758  0.4195
 4039SOL    HW123579   4.003   3.240   3.458 -1.4407 -0.5443  1.1028
 4039SOL    HW223580   4.143   3.255   3.482 -1.0268  2.3689 -0.4632
 4040SOL     OW23581   3.309   0.669  12.056 -0.0583  0.0312  0.3850
 4040SOL    HW123582   3.316   0.586  12.102  0.5201  0.3447  0.8553
 4040SOL    HW223583   3.382   0.641  12.001 -1.2992 -0.7646 -0.8771
 4041SOL     OW23584   3.960   0.338   3.165  0.2374  0.1652  0.0024
 4041SOL    HW123585   3.881   0.364   3.211  0.6653 -0.6017  1.1806
 4041SOL    HW223586   3.941   0.391   3.088 -3.4150  0.3900  1.0754
 4042SOL     OW23587   0.881   0.707   1.878  0.3379 -0.4539 -0.0077
 4042SOL    HW123588   0.865   0.634   1.937  1.0098 -0.7266 -0.1567
 4042SOL    HW223589   0.945   0.666   1.820  1.6453  1.9904 -0.3007
 4043SOL     OW23590   2.249   1.330   8.739 -0.0252  0.0982 -0.3485
 4043SOL    HW123591   2.206   1.244   8.729 -0.5628  0.1836  1.1770
 4043SOL    HW223592   2.341   1.305   8.737 -0.4445 -1.5761  0.7134
 4044SOL     OW23593   1.425   1.100   2.450  0.9435  0.2392 -0.2963
 4044SOL    HW123594   1.335   1.120   2.424  1.0286 -0.3054 -1.0254
 4044SOL    HW223595   1.426   1.143   2.535 -0.0439  1.1795 -0.7613
 4045SOL     OW23596   0.687   1.882  16.058 -0.6284  0.5690  0.6578
 4045SOL    HW123597   0.672   1.859  15.966 -0.1273 -0.9439  0.9533
 4045SOL    HW223598   0.599   1.864  16.090 -0.6971  0.0824  0.2011
 4046SOL     OW23599   2.120   1.918  11.702  0.2164 -0.2109  0.1297
 4046SOL    HW123600   2.140   1.895  11.792 -1.4925  0.2146  0.6198
 4046SOL    HW223601   2.089   1.829  11.689 -0.5610 -0.0599  0.9193
 4047SOL     OW23602   2.261   1.122  11.134 -0.3180 -0.0329 -0.7155
 4047SOL    HW123603   2.317   1.052  11.101  0.5642  0.5190 -0.3761
 4047SOL    HW223604   2.191   1.138  11.071  0.0515 -0.2039 -1.1724
 4048SOL     OW23605   0.661   2.077  11.130 -0.4825  0.1476  0.7655
 4048SOL    HW123606   0.625   1.993  11.103  0.1431  0.5801 -1.3698
 4048SOL    HW223607   0.648   2.125  11.049 -0.9714 -1.5410 -0.1599
 4049SOL     OW23608   2.172   2.463   6.231 -0.2244 -0.1804 -0.6651
 4049SOL    HW123609   2.090   2.421   6.205 -0.0530 -0.4162 -0.8265
 4049SOL    HW223610   2.164   2.548   6.189 -2.8074  0.5389  1.2619
 4050SOL     OW23611   2.295   3.920   5.997 -0.3100  0.3964 -0.1012
 4050SOL    HW123612   2.333   3.987   5.941 -2.3929  2.3592  0.8428
 4050SOL    HW223613   2.328   3.939   6.085 -1.4427  0.7064  0.2560
 4051SOL     OW23614   2.767   3.648   3.934 -0.6956 -0.0904 -0.7537
 4051SOL    HW123615   2.804   3.733   3.955 -0.0931 -0.5025 -0.1319
 4051SOL    HW223616   2.675   3.642   3.958 -0.4753 -0.4229  0.0278
 4052SOL     OW23617   0.355   3.653   1.547  0.3104 -0.0418  0.4313
 4052SOL    HW123618   0.310   3.660   1.463  0.5312  0.5094  0.3568
 4052SOL    HW223619   0.442   3.664   1.508  0.3720  2.6564  1.3518
 4053SOL     OW23620   4.241   0.476  10.404  0.2296  0.3482 -0.2024
 4053SOL    HW123621   4.291   0.556  10.419  0.2289 -0.1013  2.1782
 4053SOL    HW223622   4.183   0.518  10.340  0.1013  0.4853  0.0039
 4054SOL     OW23623   1.505   2.169  13.515 -0.0255 -0.1782  0.6864
 4054SOL    HW123624   1.593   2.204  13.522  0.1714 -0.8970  1.8094
 4054SOL    HW223625   1.499   2.147  13.422 -0.5980  2.4165  0.1270
 4055SOL     OW23626   2.612   3.259  12.984  0.2237 -0.0653  0.4485
 4055SOL    HW123627   2.659   3.291  13.061 -2.5078 -0.2458  2.1960
 4055SOL    HW223628   2.540   3.321  12.977 -0.3979 -0.6743  1.3643
 4056SOL     OW23629   1.280   3.994   3.568 -0.7427  0.3898 -0.2454
 4056SOL    HW123630   1.196   3.959   3.599  0.1332 -0.5204  1.1169
 4056SOL    HW223631   1.330   3.914   3.552  2.5484  2.1625  1.1238
 4057SOL     OW23632   4.268   3.902   6.469  0.3559 -0.1633  0.2727
 4057SOL    HW123633   4.187   3.864   6.502  0.5340 -0.8472 -0.0890
 4057SOL    HW223634   4.264   3.995   6.491  0.3803 -0.0434 -0.2311
 4058SOL     OW23635   2.261   1.302  13.914 -0.1211  0.3137 -0.4160
 4058SOL    HW123636   2.308   1.374  13.957 -0.3484  0.5849 -0.6197
 4058SOL    HW223637   2.329   1.273  13.853 -1.8286  2.5157 -3.3141
 4059SOL     OW23638   0.086   2.722   3.161 -0.2209  0.3505  0.3622
 4059SOL    HW123639   0.131   2.807   3.169 -0.9905  0.6552  1.4561
 4059SOL    HW223640   0.115   2.715   3.070  2.4496 -2.7160  1.4625
 4060SOL     OW23641   3.782   3.675   7.810 -0.5214  0.5854  0.1929
 4060SOL    HW123642   3.834   3.630   7.745 -0.2759  0.3453  0.5564
 4060SOL    HW223643   3.695   3.639   7.792  0.8622 -1.3916 -2.3522
 4061SOL     OW23644   1.807   0.471   4.073  0.6222  0.3782 -0.5734
 4061SOL    HW123645   1.823   0.479   3.979 -0.0863  1.4044 -0.6153
 4061SOL    HW223646   1.816   0.376   4.086 -3.3562  0.2721  1.5606
 4062SOL     OW23647   3.568   0.350   9.968  0.1263 -0.3889 -0.6748
 4062SOL    HW123648   3.485   0.392   9.991  1.4988  2.3183 -0.6008
 4062SOL    HW223649   3.616   0.382  10.045 -1.5134 -0.1790  0.2551
 4063SOL     OW23650   0.814   0.110   0.285  0.5037 -0.0953  0.5347
 4063SOL    HW123651   0.762   0.093   0.363  1.9088 -0.9851  1.2731
 4063SOL    HW223652   0.879   0.040   0.284  2.6431  1.9132 -0.4639
 4064SOL     OW23653   3.549   2.972  14.854 -0.5615  0.0588  0.2740
 4064SOL    HW123654   3.611   3.036  14.889 -1.1821  0.2806  0.9536
 4064SOL    HW223655   3.485   2.956  14.924 -1.3949  0.5185 -0.3912
 4065SOL     OW23656   3.000   1.302   8.595 -0.6022  0.3898  0.0243
 4065SOL    HW123657   2.905   1.292   8.599 -0.7336  1.2481 -1.0332
 4065SOL    HW223658   3.022   1.268   8.682  2.2818 -0.0609 -0.8678
 4066SOL     OW23659   4.628   4.049   3.610  0.1996  0.4198  0.5077
 4066SOL    HW123660   4.693   4.064   3.679  0.2956  2.0453  0.0626
 4066SOL    HW223661   4.555   4.045   3.671 -2.4853  0.3723 -2.6638
 4067SOL     OW23662   2.342   4.354   7.133 -0.0266 -0.3691 -0.4612
 4067SOL    HW123663   2.423   4.373   7.180 -0.3526 -1.1968  0.4333
 4067SOL    HW223664   2.276   4.392   7.190 -0.5417  0.3194 -1.5261
 4068SOL     OW23665   4.480   4.609   1.728  0.5963  0.2341 -0.4408
 4068SOL    HW123666   4.455   4.651   1.811  1.5198 -1.0232  0.4646
 4068SOL    HW223667   4.396   4.581   1.691 -0.1658  0.9775  0.7256
 4069SOL     OW23668   1.666   4.623   3.658 -0.1484  0.4004 -0.2454
 4069SOL    HW123669   1.597   4.654   3.599  2.2469  1.5718 -2.4699
 4069SOL    HW223670   1.721   4.574   3.596 -0.2708  1.7658 -1.4519
 4070SOL     OW23671   1.389   1.471   4.144  0.3024  0.3885 -0.2862
 4070SOL    HW123672   1.466   1.455   4.199 -0.2866  2.0259  1.0193
 4070SOL    HW223673   1.428   1.535   4.086  3.0652 -0.3587  0.7727
 4071SOL     OW23674   3.998   2.186  17.594  0.0753  0.2984 -0.2162
 4071SOL    HW123675   4.030   2.276  17.586  2.1851 -0.4667 -0.4350
 4071SOL    HW223676   3.954   2.199  17.677  1.2863 -1.2734  0.6720
 4072SOL     OW23677   2.290   2.494   2.542 -0.3012 -0.0300  0.2495
 4072SOL    HW123678   2.251   2.529   2.462  0.3502  0.2310  0.0460
 4072SOL    HW223679   2.214   2.499   2.600  0.1324 -0.1197  0.8197
 4073SOL     OW23680   3.350   0.017   8.387 -0.0883 -0.0357  0.4357
 4073SOL    HW123681   3.384   0.081   8.325 -1.4259  1.4873  1.2828
 4073SOL    HW223682   3.407   0.029   8.463 -0.1282  0.5188  0.3785
 4074SOL     OW23683   3.006   0.648   7.998  0.4250 -0.0572 -0.2568
 4074SOL    HW123684   3.052   0.730   8.017  0.4063 -0.6526  2.3589
 4074SOL    HW223685   3.028   0.604   8.080  0.4285 -0.3893 -0.4342
 4075SOL     OW23686   1.899   3.294   3.871 -0.2013  0.2210 -0.1599
 4075SOL    HW123687   1.900   3.304   3.776  0.3067  0.3824 -0.1374
 4075SOL    HW223688   1.939   3.376   3.899 -0.0882 -0.0219  0.4027
 4076SOL     OW23689   2.479   1.261  14.612  0.0482  0.5303  0.2259
 4076SOL    HW123690   2.425   1.340  14.615 -0.7113  0.0672 -1.0681
 4076SOL    HW223691   2.459   1.221  14.696 -0.4667 -0.5066 -0.3933
 4077SOL     OW23692   2.968   0.442   7.596 -0.3517  0.1270  0.0136
 4077SOL    HW123693   3.026   0.373   7.563 -0.9602 -0.6144  0.4990
 4077SOL    HW223694   3.031   0.467   7.664 -0.8422  1.8879 -0.1738
 4078SOL     OW23695   2.292   2.089   2.452  0.2628  0.7712  0.7210
 4078SOL    HW123696   2.381   2.075   2.484  0.8714  0.6443 -0.9823
 4078SOL    HW223697   2.300   2.073   2.358  1.9879  2.7308  0.5250
 4079SOL     OW23698   3.595   4.431   8.699 -0.2955 -0.4111  0.9069
 4079SOL    HW123699   3.600   4.352   8.752  2.8819 -0.8963 -0.1124
 4079SOL    HW223700   3.608   4.504   8.760 -0.0807 -0.0726  0.4542
 4080SOL     OW23701   3.518   3.425  14.825  0.2401 -0.1517  0.0903
 4080SOL    HW123702   3.462   3.502  14.811 -0.5317 -0.5662  0.9249
 4080SOL    HW223703   3.591   3.450  14.768 -0.1361  2.8273  0.8718
 4081SOL     OW23704   1.362   0.933   3.621 -0.3643  0.1148  0.5604
 4081SOL    HW123705   1.350   0.915   3.715 -0.3672  1.7623  0.8759
 4081SOL    HW223706   1.313   0.857   3.590 -0.9991  0.4705  0.6897
 4082SOL     OW23707   1.706   2.230   3.220 -0.1104 -0.2948 -0.0067
 4082SOL    HW123708   1.676   2.316   3.189  1.8230  0.2236 -0.4174
 4082SOL    HW223709   1.637   2.182   3.174 -0.7743 -1.5640  2.3308
 4083SOL     OW23710   4.089   4.445   3.377  0.0065 -0.0817  0.5920
 4083SOL    HW123711   4.028   4.372   3.390 -1.2761  0.4661 -2.3056
 4083SOL    HW223712   4.043   4.506   3.435 -1.7665 -1.4911  0.6772
 4084SOL     OW23713   2.507   3.000   7.636  0.0601  0.0234  0.3790
 4084SOL    HW123714   2.582   2.985   7.693  0.2720 -2.8948 -0.6754
 4084SOL    HW223715   2.545   2.949   7.564  2.3838 -0.6469  2.0844
 4085SOL     OW23716   2.550   4.445   4.998 -0.1291  0.1761  0.0093
 4085SOL    HW123717   2.572   4.437   5.091 -0.1283  0.9517  0.0741
 4085SOL    HW223718   2.548   4.354   4.968  0.5899  0.3613 -0.5939
 4086SOL     OW23719   4.224   2.433   8.878 -0.0972  0.1296  0.1282
 4086SOL    HW123720   4.230   2.497   8.807  0.7315  0.4191  0.4604
 4086SOL    HW223721   4.145   2.388   8.850 -0.1768  2.3859 -3.2077
 4087SOL     OW23722   2.494   1.591   2.269  0.2719 -0.6366 -0.7449
 4087SOL    HW123723   2.569   1.557   2.220  0.7676  1.3404 -1.3490
 4087SOL    HW223724   2.463   1.507   2.303 -2.2450  0.7166  0.3164
 4088SOL     OW23725   2.806   1.609  15.066 -0.9958  0.0889 -0.1464
 4088SOL    HW123726   2.869   1.661  15.016 -0.4818 -0.2729  0.1286
 4088SOL    HW223727   2.737   1.676  15.071 -0.9113  0.2030 -0.5314
 4089SOL     OW23728   4.384   3.436   8.916  0.1140  0.2626  0.1277
 4089SOL    HW123729   4.407   3.348   8.949  0.1102 -0.5544 -2.0671
 4089SOL    HW223730   4.296   3.420   8.881 -0.3098  1.5883  0.5929
 4090SOL     OW23731   2.066   0.126   2.413  0.0588  0.2102 -0.2272
 4090SOL    HW123732   2.034   0.201   2.362  0.1323  0.6440  0.3622
 4090SOL    HW223733   2.133   0.177   2.459 -1.1971  0.0116  1.8134
 4091SOL     OW23734   4.706   3.821  16.998  0.0581 -0.2749 -0.1387
 4091SOL    HW123735   0.051   3.754  16.976  0.5802 -0.3246  1.6288
 4091SOL    HW223736   0.022   3.908  16.985  0.1572 -0.3424 -0.3173
 4092SOL     OW23737   3.604   1.886  15.862  0.3255 -0.2245 -0.4454
 4092SOL    HW123738   3.659   1.934  15.924 -3.3139  0.6675  2.1002
 4092SOL    HW223739   3.652   1.894  15.780 -0.9886  0.3317 -1.1532
 4093SOL     OW23740   0.830   1.641   3.380  0.1954 -0.7085 -0.7029
 4093SOL    HW123741   0.925   1.633   3.375  0.3552  0.9181 -0.2331
 4093SOL    HW223742   0.821   1.669   3.471 -3.1710 -0.3212 -1.1477
 4094SOL     OW23743   0.332   3.113   2.267  1.0350  0.2966 -0.0663
 4094SOL    HW123744   0.322   3.166   2.346  0.5499  2.3048 -1.4786
 4094SOL    HW223745   0.325   3.184   2.203 -1.6405  1.0407  1.0458
 4095SOL     OW23746   0.151   0.473   4.010  0.6699  0.2652 -1.1451
 4095SOL    HW123747   0.118   0.555   3.975 -0.5275  1.0425  1.8441
 4095SOL    HW223748   0.244   0.491   3.991  0.7718  0.4063 -0.4964
 4096SOL     OW23749   2.770   3.525   3.195  0.5410 -0.2535 -0.9199
 4096SOL    HW123750   2.749   3.602   3.142 -2.8390 -0.0938  0.6441
 4096SOL    HW223751   2.839   3.487   3.141  1.7508 -0.6856  0.9542
 4097SOL     OW23752   3.362   3.331   0.506  0.1632  0.6089  0.1110
 4097SOL    HW123753   3.449   3.298   0.529  0.0050  0.2044  0.1408
 4097SOL    HW223754   3.340   3.409   0.556 -2.1513 -0.4162  0.6805
 4098SOL     OW23755   2.980   1.486   5.001 -0.8394 -0.0449 -0.2705
 4098SOL    HW123756   2.969   1.446   5.087  0.9043 -0.8912 -0.4289
 4098SOL    HW223757   3.072   1.477   4.976 -0.4087  1.5040  0.6967
 4099SOL     OW23758   1.401   2.746   4.937  0.6260  0.2690 -0.1675
 4099SOL    HW123759   1.486   2.729   4.897  0.9152  1.4249 -0.0425
 4099SOL    HW223760   1.337   2.712   4.875  0.7328  1.5455 -0.9791
 4100SOL     OW23761   1.692   0.202   0.851  0.4187 -0.3320 -0.7501
 4100SOL    HW123762   1.630   0.133   0.825 -1.8350  0.8188  1.5857
 4100SOL    HW223763   1.705   0.177   0.942 -0.7730  0.5700 -0.3405
 4101SOL     OW23764   2.986   3.594   0.645 -0.0035  0.0671 -0.0404
 4101SOL    HW123765   2.928   3.519   0.644 -0.5961  0.5290 -1.2797
 4101SOL    HW223766   3.069   3.547   0.637 -2.0622 -3.5391  0.1535
 4102SOL     OW23767   0.543   3.046   4.637  0.4506 -0.3492  0.3149
 4102SOL    HW123768   0.539   3.105   4.712  0.4067 -1.5051  1.2367
 4102SOL    HW223769   0.449   3.051   4.617  0.5909  0.7899  0.0002
 4103SOL     OW23770   4.709   2.922   0.120  0.2331  0.0744  0.3928
 4103SOL    HW123771   4.685   3.014   0.133 -1.8474  0.0637 -3.3398
 4103SOL    HW223772   0.077   2.932   0.085 -0.8081  0.2378 -2.1772
 4104SOL     OW23773   2.797   3.796   5.436  0.0467  0.0548  0.1863
 4104SOL    HW123774   2.763   3.707   5.435  0.7376 -0.2020 -0.5255
 4104SOL    HW223775   2.882   3.775   5.399  1.0394  0.1669  2.4068
 4105SOL     OW23776   2.420   3.740  15.805  0.5790 -0.0764  0.6157
 4105SOL    HW123777   2.358   3.746  15.733  0.8560  1.6225  0.5172
 4105SOL    HW223778   2.480   3.808  15.776 -0.1204  0.3875  0.2579
 4106SOL     OW23779   3.132   2.442   5.107  0.1177  0.1423  0.1989
 4106SOL    HW123780   3.126   2.380   5.034  0.4689 -0.2318  0.4905
 4106SOL    HW223781   3.139   2.522   5.055  1.2806  0.0898  0.2728
 4107SOL     OW23782   1.317   0.998   4.714 -0.0869 -0.2134  0.0644
 4107SOL    HW123783   1.239   0.943   4.700  0.7944 -1.7198  0.9837
 4107SOL    HW223784   1.353   0.946   4.786  0.5490  0.1332 -0.0033
 4108SOL     OW23785   0.433   4.121   2.598  0.0107 -0.4785 -1.0151
 4108SOL    HW123786   0.417   4.202   2.551  2.3379  0.3656 -0.3395
 4108SOL    HW223787   0.451   4.156   2.685  0.3914 -0.4641 -1.1029
 4109SOL     OW23788   0.313   3.318   6.188  0.4540 -0.0723 -0.1226
 4109SOL    HW123789   0.264   3.280   6.115  0.5139  0.2417 -0.3260
 4109SOL    HW223790   0.376   3.379   6.149  0.8515 -1.7072 -2.0584
 4110SOL     OW23791   3.357   0.073  13.858  0.7064  0.3900  0.3353
 4110SOL    HW123792   3.413   0.060  13.782 -0.9180 -1.4505 -0.5428
 4110SOL    HW223793   3.418   0.083  13.930 -0.0585 -1.6041  1.2491
 4111SOL     OW23794   2.724   2.517   7.415 -1.2060  0.3375  1.2881
 4111SOL    HW123795   2.808   2.557   7.437 -0.1852 -1.6424  0.9631
 4111SOL    HW223796   2.684   2.516   7.502 -1.7701  0.4549  1.0315
 4112SOL     OW23797   4.073   2.546  16.615  0.1013 -0.1020  0.8462
 4112SOL    HW123798   3.989   2.567  16.655 -0.8585 -2.1928 -0.0610
 4112SOL    HW223799   4.136   2.611  16.648 -1.6329  1.4041  1.1886
 4113SOL     OW23800   1.887   0.993   4.069 -0.2921 -0.6476  0.7647
 4113SOL    HW123801   1.924   1.065   4.019 -0.7879 -0.8170  0.1510
 4113SOL    HW223802   1.961   0.939   4.042  1.2580  2.3231 -0.9357
 4114SOL     OW23803   2.261   1.448   4.465  0.3010 -0.4824  0.0943
 4114SOL    HW123804   2.197   1.458   4.535 -0.9154 -1.0786 -0.9162
 4114SOL    HW223805   2.231   1.364   4.430 -0.0225 -0.1204 -0.4998
 4115SOL     OW23806   2.281   2.444   3.744  0.3988 -0.5767 -0.3769
 4115SOL    HW123807   2.361   2.495   3.734  0.3931 -0.5128 -0.0963
 4115SOL    HW223808   2.254   2.427   3.654  3.7391  0.7863 -1.6554
 4116SOL     OW23809   1.450   3.121  15.027  0.0651  0.3625  0.2858
 4116SOL    HW123810   1.486   3.209  15.036 -2.3966  1.3077  1.0261
 4116SOL    HW223811   1.456   3.082  15.115 -0.7637 -2.0354 -0.7206
 4117SOL     OW23812   0.029   1.049   1.475  0.6019  0.2221  0.1404
 4117SOL    HW123813   4.684   1.018   1.411  1.4763 -3.1751  0.8834
 4117SOL    HW223814   0.114   1.038   1.431  1.6031 -0.7004  2.2910
 4118SOL     OW23815   4.308   0.320   9.037  0.5878 -0.5523 -0.2862
 4118SOL    HW123816   4.287   0.401   8.992 -0.6205 -0.0022  1.2650
 4118SOL    HW223817   4.224   0.274   9.028  1.3852 -1.8004 -1.2747
 4119SOL     OW23818   2.203   2.274   7.127  0.3411  0.6769 -0.6625
 4119SOL    HW123819   2.291   2.276   7.091 -0.1742  1.3581 -1.8886
 4119SOL    HW223820   2.207   2.353   7.182 -1.2084 -0.7928  1.5642
 4120SOL     OW23821   1.882   2.757   5.771 -0.2361 -0.1224  0.4593
 4120SOL    HW123822   1.876   2.804   5.855 -1.4424 -0.6084  0.6428
 4120SOL    HW223823   1.972   2.779   5.748 -0.4178  2.2490  1.9258
 4121SOL     OW23824   0.546   2.366   1.686  0.3877 -0.1242  0.2361
 4121SOL    HW123825   0.534   2.317   1.767  2.9395 -0.5703  0.3247
 4121SOL    HW223826   0.486   2.313   1.633  2.2455 -2.3220  0.3517
 4122SOL     OW23827   1.550   3.539  14.420  0.1596 -0.1889 -0.2840
 4122SOL    HW123828   1.511   3.609  14.369 -0.2445 -0.0892  0.1618
 4122SOL    HW223829   1.511   3.456  14.392 -0.7876 -0.1225  0.8502
 4123SOL     OW23830   3.126   3.821   6.362 -0.2263 -0.0382  0.1768
 4123SOL    HW123831   3.084   3.747   6.405  0.7349  0.1214  1.3848
 4123SOL    HW223832   3.179   3.780   6.294 -1.2306 -0.0789 -0.5940
 4124SOL     OW23833   1.266   1.103   3.215 -0.5214  0.5672  0.2159
 4124SOL    HW123834   1.270   1.189   3.256  0.5141  1.0041 -0.7960
 4124SOL    HW223835   1.202   1.130   3.149 -1.4068  1.4584  1.4468
 4125SOL     OW23836   2.557   2.139   4.556 -0.5988  0.2860 -0.2409
 4125SOL    HW123837   2.537   2.223   4.515  0.8477  0.4319 -0.6431
 4125SOL    HW223838   2.480   2.090   4.527  1.6051 -2.2423 -1.7894
 4126SOL     OW23839   2.652   4.383  11.986 -0.3262  0.1436 -0.4637
 4126SOL    HW123840   2.608   4.386  12.071 -0.8438 -1.6246 -0.6627
 4126SOL    HW223841   2.674   4.476  11.979 -0.7127  0.1603 -1.5501
 4127SOL     OW23842   4.700   3.633  14.899 -0.4212 -0.5136 -0.1138
 4127SOL    HW123843   4.689   3.729  14.902 -1.2487 -0.6112 -0.0045
 4127SOL    HW223844   0.073   3.621  14.880  0.0072  0.9903  0.9606
 4128SOL     OW23845   4.252   2.591   8.659  0.0874  0.1580  0.3345
 4128SOL    HW123846   4.201   2.655   8.609  1.3786  1.9172  1.2701
 4128SOL    HW223847   4.321   2.557   8.603 -1.8670 -3.5064  0.1812
 4129SOL     OW23848   4.576   2.590   9.275  0.1058  0.1929 -0.5418
 4129SOL    HW123849   4.515   2.573   9.346  0.5558  0.6802 -0.0275
 4129SOL    HW223850   4.534   2.536   9.208  1.3016  1.2266 -2.1470
 4130SOL     OW23851   4.703   0.910   5.733 -0.2014 -0.0162 -0.2625
 4130SOL    HW123852   0.004   0.962   5.810 -0.4952 -0.2074 -0.0535
 4130SOL    HW223853   0.006   0.824   5.768  0.5121 -0.2594 -1.3376
 4131SOL     OW23854   0.155   4.156   3.753 -0.4300 -0.2989  0.0298
 4131SOL    HW123855   0.147   4.241   3.709  1.1385 -0.1826 -0.0456
 4131SOL    HW223856   0.175   4.186   3.842 -1.5738 -0.8903  0.4792
 4132SOL     OW23857   0.890   2.335   2.862 -0.2746  0.3731  0.0035
 4132SOL    HW123858   0.904   2.254   2.912  0.3794 -0.1929 -1.0826
 4132SOL    HW223859   0.804   2.358   2.896  0.0743  1.9540 -0.2084
 4133SOL     OW23860   0.318   0.355  13.154  0.2324  0.1116 -0.2426
 4133SOL    HW123861   0.341   0.398  13.072 -1.7742 -1.2698 -1.5218
 4133SOL    HW223862   0.325   0.261  13.135  0.4205  0.1395 -0.3052
 4134SOL     OW23863   1.311   0.144  17.448 -0.4103  0.4262 -0.0733
 4134SOL    HW123864   1.378   0.213  17.446 -0.4400  0.4807  0.8230
 4134SOL    HW223865   1.350   0.084  17.385 -3.3433 -2.2627  0.6425
 4135SOL     OW23866   4.423   0.766  11.166 -0.2074 -0.1088 -0.5262
 4135SOL    HW123867   4.354   0.726  11.114  0.4725 -1.2184 -0.5771
 4135SOL    HW223868   4.408   0.709  11.241  1.9239  3.0560  2.3329
 4136SOL     OW23869   3.704   1.281   4.801 -0.0350  0.0418 -0.0517
 4136SOL    HW123870   3.797   1.285   4.780 -0.0275 -1.1738 -0.2422
 4136SOL    HW223871   3.684   1.371   4.827 -1.8384 -0.2647 -0.3903
 4137SOL     OW23872   1.248   3.512   6.776 -0.7392  0.4664  0.1946
 4137SOL    HW123873   1.203   3.446   6.828 -0.3253 -0.0123 -0.0570
 4137SOL    HW223874   1.219   3.498   6.686  1.5352 -0.9156 -0.3260
 4138SOL     OW23875   4.592   3.194   8.757 -0.0003 -0.5156  0.4229
 4138SOL    HW123876   4.655   3.124   8.771  0.2247 -0.0077  1.9867
 4138SOL    HW223877   4.538   3.175   8.834  1.6017  0.2110  1.7144
 4139SOL     OW23878   0.238   2.740  12.398  0.5481 -0.3068 -0.2250
 4139SOL    HW123879   0.230   2.706  12.308  0.4144  0.9875 -0.7061
 4139SOL    HW223880   0.317   2.700  12.434  0.7209 -0.4833 -0.7886
 4140SOL     OW23881   2.901   3.573  15.911 -0.0245 -0.1754  0.4264
 4140SOL    HW123882   2.905   3.524  15.829  0.8305  1.4381 -0.4905
 4140SOL    HW223883   2.814   3.547  15.941 -0.9407  2.5984  0.1865
 4141SOL     OW23884   4.647   0.853   7.289 -0.3775  0.1469 -0.2126
 4141SOL    HW123885   4.666   0.864   7.196 -0.3127 -1.1954 -0.3504
 4141SOL    HW223886   4.552   0.863   7.283 -0.1147  1.0991 -2.9390
 4142SOL     OW23887   0.497   4.346   2.168 -0.2330 -0.0580  0.0361
 4142SOL    HW123888   0.505   4.434   2.131 -0.7625 -0.3022 -0.6608
 4142SOL    HW223889   0.587   4.314   2.155  0.7618  2.4249  0.7822
 4143SOL     OW23890   4.208   0.610   8.925  0.1492  0.2049 -0.3455
 4143SOL    HW123891   4.121   0.572   8.915 -0.2307  0.0371  3.4229
 4143SOL    HW223892   4.223   0.627   8.832  1.4592 -0.8678 -0.3435
 4144SOL     OW23893   3.845   2.916   0.542  0.5969  0.4342  0.0487
 4144SOL    HW123894   3.867   2.991   0.598  1.8880 -0.7080  1.0602
 4144SOL    HW223895   3.758   2.887   0.571  0.7528  1.3049  1.4411
 4145SOL     OW23896   1.970   1.661  11.631  0.6994  0.0879  0.5320
 4145SOL    HW123897   1.946   1.583  11.682  1.6437  0.0241  0.8770
 4145SOL    HW223898   1.950   1.633  11.542  0.9066 -0.0528  0.5304
 4146SOL     OW23899   1.700   1.056   4.285  0.0358 -0.4030 -0.0210
 4146SOL    HW123900   1.618   1.054   4.235 -0.0262 -0.9167  0.0973
 4146SOL    HW223901   1.762   1.044   4.213 -1.5509  1.6392 -1.7188
 4147SOL     OW23902   3.246   3.390   6.732  0.6495 -0.6621 -0.1814
 4147SOL    HW123903   3.269   3.308   6.690 -2.8464 -1.0031 -1.3977
 4147SOL    HW223904   3.260   3.351   6.819 -0.4834 -0.8025 -0.0652
 4148SOL     OW23905   4.384   4.338   3.400 -0.2425 -0.0374  0.7260
 4148SOL    HW123906   4.314   4.359   3.462  1.0876  0.2787  2.1508
 4148SOL    HW223907   4.413   4.254   3.436  0.3403  0.7479  2.1188
 4149SOL     OW23908   2.736   1.578   1.009 -0.5528 -0.2575  0.4028
 4149SOL    HW123909   2.661   1.622   1.049  0.3755  1.4499  0.2635
 4149SOL    HW223910   2.696   1.502   0.967 -1.4368  0.5187 -0.1488
 4150SOL     OW23911   0.862   3.755   0.630 -0.7869 -0.3971  0.2134
 4150SOL    HW123912   0.770   3.748   0.655 -0.8640  0.1378  0.0737
 4150SOL    HW223913   0.866   3.712   0.545 -3.9573 -1.2772  0.5040
 4151SOL     OW23914   1.529   3.966  17.525  0.5267 -0.1149 -0.2766
 4151SOL    HW123915   1.477   3.891  17.555  1.0001 -1.0042 -1.6779
 4151SOL    HW223916   1.483   4.011  17.455  3.3617 -0.1983 -2.2009
 4152SOL     OW23917   1.666   3.887   7.824  0.3399 -0.5668  0.7113
 4152SOL    HW123918   1.589   3.875   7.880  0.0464  0.6266  0.5663
 4152SOL    HW223919   1.683   3.973   7.863 -1.8326  0.1943 -0.0011
 4153SOL     OW23920   1.254   1.723   8.636 -0.5505  0.0784 -0.2629
 4153SOL    HW123921   1.209   1.662   8.695 -1.7364 -0.8136 -2.0760
 4153SOL    HW223922   1.338   1.738   8.679 -0.6945  2.3502 -0.7706
 4154SOL     OW23923   3.313   3.921   8.137  0.0349  0.2703 -0.0596
 4154SOL    HW123924   3.322   3.829   8.159  1.0152  0.6196  1.0049
 4154SOL    HW223925   3.394   3.944   8.092  0.5273 -0.1508  0.6244
 4155SOL     OW23926   0.128   4.633   9.016 -0.6193 -0.3115  0.7626
 4155SOL    HW123927   0.060   4.668   9.073  0.5682  4.0176 -0.4645
 4155SOL    HW223928   0.123   4.701   8.949 -1.5185  0.6504  1.8095
 4156SOL     OW23929   3.905   3.074   5.135 -0.1528 -0.6178 -0.2354
 4156SOL    HW123930   3.846   3.085   5.061 -0.4696  1.9619  0.4052
 4156SOL    HW223931   3.921   2.979   5.129 -0.9529 -0.7804  0.1433
 4157SOL     OW23932   4.186   1.027   5.183  0.5097  0.5634  0.2635
 4157SOL    HW123933   4.156   0.974   5.257 -1.7372  1.9978  0.3807
 4157SOL    HW223934   4.201   1.108   5.231  1.6646  0.1670  0.5664
 4158SOL     OW23935   1.753   1.548   5.497 -0.4740 -0.4999 -0.4807
 4158SOL    HW123936   1.749   1.582   5.407  1.5899  0.5230 -0.1729
 4158SOL    HW223937   1.721   1.617   5.554 -0.2462 -1.7014  1.1104
 4159SOL     OW23938   3.422   4.296   7.155  0.7743 -0.2545  0.0850
 4159SOL    HW123939   3.403   4.303   7.249 -0.2474 -0.3222 -0.1149
 4159SOL    HW223940   3.340   4.329   7.117 -0.0292 -0.5729  1.5279
 4160SOL     OW23941   4.303   2.870  15.245  0.0580 -0.0028 -0.0351
 4160SOL    HW123942   4.369   2.815  15.287  1.9998  1.5480 -1.0206
 4160SOL    HW223943   4.366   2.908  15.183 -0.7231  0.7929 -0.3393
 4161SOL     OW23944   2.710   3.722   1.775 -0.4027  0.1929 -0.1829
 4161SOL    HW123945   2.730   3.816   1.781  1.1602 -0.1101 -0.6590
 4161SOL    HW223946   2.766   3.678   1.711  1.3140  2.8305 -0.4991
 4162SOL     OW23947   3.070   0.873   1.224  0.2354  0.3008 -0.1662
 4162SOL    HW123948   3.035   0.861   1.136 -0.2906  0.4261  0.0288
 4162SOL    HW223949   3.162   0.856   1.203  0.0500 -2.2568  1.1223
 4163SOL     OW23950   0.966   0.784   1.027 -0.2282  0.3971 -0.1773
 4163SOL    HW123951   1.031   0.715   1.013  0.2467  0.9463 -0.6664
 4163SOL    HW223952   0.891   0.745   0.982  2.5632 -2.0490 -2.7140
 4164SOL     OW23953   2.411   2.516   6.736 -0.3801  0.2174  0.2697
 4164SOL    HW123954   2.492   2.549   6.773  0.9433 -0.1032 -2.3810
 4164SOL    HW223955   2.349   2.581   6.770  0.5026  1.2827 -0.2051
 4165SOL     OW23956   4.311   0.431  12.846 -0.3217 -0.0924  0.3856
 4165SOL    HW123957   4.404   0.452  12.842 -0.3771  0.2626  1.0537
 4165SOL    HW223958   4.314   0.336  12.861 -0.7193 -0.1579  0.0853
 4166SOL     OW23959   2.726   2.816   8.556 -0.3005  0.1996  0.0295
 4166SOL    HW123960   2.688   2.839   8.471  0.6002 -2.6858 -1.1908
 4166SOL    HW223961   2.710   2.891   8.612 -0.5942  0.8606 -0.9431
 4167SOL     OW23962   2.125   4.281   2.796  0.0736  0.2471  0.1400
 4167SOL    HW123963   2.195   4.221   2.821  0.4712  0.2447 -0.9770
 4167SOL    HW223964   2.108   4.327   2.878 -2.0866 -0.6891  0.2179
 4168SOL     OW23965   3.093   2.164   0.959 -0.7482 -0.8046  0.6600
 4168SOL    HW123966   3.057   2.215   1.031  2.3193  2.6806 -0.2893
 4168SOL    HW223967   3.037   2.186   0.884  0.9053  0.3915 -0.2147
 4169SOL     OW23968   3.495   2.893  16.796  0.3021 -0.3053 -0.6365
 4169SOL    HW123969   3.568   2.917  16.739  0.0377 -0.1372 -0.9024
 4169SOL    HW223970   3.524   2.916  16.885 -1.6839 -1.2244  0.2479
 4170SOL     OW23971   2.461   0.591   4.632 -0.6267  0.2710  0.5730
 4170SOL    HW123972   2.406   0.653   4.584  1.8574  1.4313 -0.7484
 4170SOL    HW223973   2.396   0.522   4.631 -1.9215  1.4771  1.2791
 4171SOL     OW23974   1.107   3.031   3.221 -0.0153  0.2758  0.5613
 4171SOL    HW123975   1.147   3.114   3.249  1.2808 -0.2692  0.3410
 4171SOL    HW223976   1.017   3.039   3.252  0.4183  0.5438  1.7696
 4172SOL     OW23977   3.990   0.925  17.466  0.3312 -0.4625  0.3626
 4172SOL    HW123978   3.980   0.995  17.531  1.0897  0.4334 -0.4848
 4172SOL    HW223979   4.070   0.966  17.431 -0.3994 -1.2468 -2.1930
 4173SOL     OW23980   3.886   1.716   7.419  0.3025  0.2246 -0.0162
 4173SOL    HW123981   3.807   1.769   7.406  0.2818  0.1392 -0.2373
 4173SOL    HW223982   3.883   1.686   7.510  1.7015 -0.3672 -0.1587
 4174SOL     OW23983   2.965   0.264   7.240  0.2715 -0.3722  0.7860
 4174SOL    HW123984   2.903   0.212   7.291  0.5553 -0.5704  0.9328
 4174SOL    HW223985   2.912   0.336   7.206  1.2144  0.5439  1.2467
 4175SOL     OW23986   3.418   3.283   3.861  0.3396 -0.2560 -0.1968
 4175SOL    HW123987   3.332   3.304   3.825  0.5379 -0.4642 -0.7771
 4175SOL    HW223988   3.473   3.355   3.830 -0.2749  0.5471  0.5585
 4176SOL     OW23989   0.873   2.294   2.502  0.5768  0.4050 -0.1041
 4176SOL    HW123990   0.951   2.240   2.516 -0.6790 -1.7344 -1.5148
 4176SOL    HW223991   0.816   2.224   2.472 -3.6817  3.1766  1.5299
 4177SOL     OW23992   4.471   2.178   1.924  0.2089  0.0691 -0.1058
 4177SOL    HW123993   4.457   2.234   2.000 -1.2806  0.5471 -0.7416
 4177SOL    HW223994   4.381   2.148   1.913 -0.4198  1.7962  0.2914
 4178SOL     OW23995   0.312   3.726   5.280 -0.5390 -0.3999 -0.2618
 4178SOL    HW123996   0.335   3.652   5.224 -1.8662 -0.2590 -0.9889
 4178SOL    HW223997   0.321   3.683   5.365  0.5991  0.6673  0.1626
 4179SOL     OW23998   0.816   1.785   4.876 -0.1149  0.7619 -0.1502
 4179SOL    HW123999   0.835   1.810   4.785 -0.5904 -1.5581 -0.8979
 4179SOL    HW224000   0.783   1.865   4.917 -2.2584 -0.9877  1.4975
 4180SOL     OW24001   0.809   4.634   9.846  0.3424 -0.0974  0.0848
 4180SOL    HW124002   0.777   4.676   9.926 -3.5210 -2.5540 -0.1965
 4180SOL    HW224003   0.885   4.591   9.887  1.1620 -1.7439 -3.1709
 4181SOL     OW24004   0.616   0.782   5.853  0.2928 -0.6003  0.4344
 4181SOL    HW124005   0.704   0.792   5.890 -0.7171 -0.3271  2.7183
 4181SOL    HW224006   0.599   0.697   5.894  0.4051  0.0158  1.7306
 4182SOL     OW24007   4.514   3.578   1.321 -0.1152 -0.3471 -0.2354
 4182SOL    HW124008   4.508   3.482   1.323 -0.1102 -0.3295  0.4045
 4182SOL    HW224009   4.588   3.597   1.263 -0.8128  2.1892 -0.3005
 4183SOL     OW24010   0.805   0.501   1.568  0.1802 -0.5027 -0.5358
 4183SOL    HW124011   0.762   0.417   1.552  1.8821 -1.3991 -0.3541
 4183SOL    HW224012   0.885   0.490   1.517 -0.0380 -1.6540 -0.6367
 4184SOL     OW24013   3.682   1.586   4.865  0.1925 -0.0244 -0.0778
 4184SOL    HW124014   3.609   1.641   4.837  0.9416  0.5810 -0.8333
 4184SOL    HW224015   3.681   1.608   4.958  3.1376  1.1103 -0.3366
 4185SOL     OW24016   0.260   3.109   3.945 -0.6615 -0.3684  0.7124
 4185SOL    HW124017   0.273   3.044   3.875  1.2763  0.2884  0.4526
 4185SOL    HW224018   0.199   3.068   4.006  0.2111 -3.0019 -0.1922
 4186SOL     OW24019   3.268   2.334  12.439  0.2550  0.1272  0.6867
 4186SOL    HW124020   3.317   2.298  12.365  1.1265 -0.6751  1.6715
 4186SOL    HW224021   3.198   2.383  12.395 -0.5949 -2.5116 -0.8919
 4187SOL     OW24022   3.213   3.730  10.352 -0.4242  0.1320 -0.7809
 4187SOL    HW124023   3.303   3.718  10.383 -0.6703 -0.2699 -0.2112
 4187SOL    HW224024   3.223   3.695  10.264 -1.3053  0.8127 -1.1514
 4188SOL     OW24025   0.863   3.870   2.227 -0.0788 -0.0191 -0.3854
 4188SOL    HW124026   0.795   3.927   2.190  1.1597  1.6502 -0.1020
 4188SOL    HW224027   0.821   3.856   2.312  0.0893 -1.5601 -0.5548
 4189SOL     OW24028   4.439   0.788   5.636  0.0760 -0.8778  0.0636
 4189SOL    HW124029   4.519   0.834   5.663 -1.0078  1.3522 -0.5446
 4189SOL    HW224030   4.470   0.698   5.644  1.2533 -0.5201 -0.5158
 4190SOL     OW24031   2.443   4.099  13.615 -0.2813 -0.2509  0.3665
 4190SOL    HW124032   2.414   4.158  13.685  3.2319  1.5807  0.2584
 4190SOL    HW224033   2.536   4.109  13.634 -0.2710  3.0533 -1.3274
 4191SOL     OW24034   3.796   4.378  11.792 -0.2903 -0.2385 -0.2992
 4191SOL    HW124035   3.760   4.333  11.716 -1.9541 -0.3314  0.5431
 4191SOL    HW224036   3.836   4.304  11.839 -1.1484 -1.1704 -1.0434
 4192SOL     OW24037   0.317   3.950   6.174  0.6259 -0.5179 -0.1761
 4192SOL    HW124038   0.355   3.877   6.222  0.5898  0.7591  1.7960
 4192SOL    HW224039   0.235   3.964   6.221 -0.0685 -2.6213 -0.7533
 4193SOL     OW24040   3.128   3.629   3.761  0.8052  0.0210 -0.0113
 4193SOL    HW124041   3.147   3.535   3.753  1.2100 -0.0146  1.4163
 4193SOL    HW224042   3.159   3.650   3.848 -0.2860  5.9953 -1.0940
 4194SOL     OW24043   2.821   2.026   1.000 -0.3334  0.1875  0.2004
 4194SOL    HW124044   2.882   1.958   0.970 -0.4092  0.1323  0.1710
 4194SOL    HW224045   2.818   2.076   0.919 -1.7720 -0.1516  0.0396
 4195SOL     OW24046   0.245   3.595  14.944  0.1826 -0.3742  0.0169
 4195SOL    HW124047   0.313   3.594  14.877 -0.1370  0.3050 -0.3181
 4195SOL    HW224048   0.289   3.594  15.029 -0.8860 -0.6370  0.5684
 4196SOL     OW24049   0.123   3.004  10.848 -0.0907  0.5257  0.2197
 4196SOL    HW124050   0.119   3.054  10.767  0.7283 -3.9024 -2.5414
 4196SOL    HW224051   0.039   3.029  10.887  0.0924 -1.7177  2.0771
 4197SOL     OW24052   0.918   1.312   7.148  0.1799 -0.0396 -0.9893
 4197SOL    HW124053   0.930   1.360   7.229  2.0850 -2.0943 -0.0469
 4197SOL    HW224054   0.884   1.227   7.176  0.0446 -0.2831 -1.8861
 4198SOL     OW24055   0.499   0.891   7.112 -0.3144 -0.2803  0.2931
 4198SOL    HW124056   0.546   0.825   7.163 -1.0651 -0.4451  0.7810
 4198SOL    HW224057   0.509   0.852   7.025 -0.4376  0.8593 -0.2243
 4199SOL     OW24058   0.341   4.720   6.517 -0.1237 -0.8730 -0.5838
 4199SOL    HW124059   0.429   4.685   6.534 -0.5003 -2.5992 -2.2128
 4199SOL    HW224060   0.359   0.055   6.441  1.6705  0.2785  0.6697
 4200SOL     OW24061   0.853   1.972  10.581  0.2481 -0.0094 -0.0607
 4200SOL    HW124062   0.761   1.986  10.602  0.6739  0.3446  1.5501
 4200SOL    HW224063   0.877   1.937  10.667 -2.1588  0.1938  0.6959
 4201SOL     OW24064   2.941   2.731   2.699  0.1142  0.1214 -0.1534
 4201SOL    HW124065   2.942   2.637   2.716 -1.7514 -0.3428 -2.7889
 4201SOL    HW224066   3.031   2.750   2.728 -0.2912 -0.9745  1.8474
 4202SOL     OW24067   1.725   1.650   2.636  0.2584 -0.7450  0.3949
 4202SOL    HW124068   1.710   1.556   2.639 -2.8103 -0.1943  2.5558
 4202SOL    HW224069   1.641   1.691   2.613  0.3671 -0.7154  0.0462
 4203SOL     OW24070   4.640   3.347   6.395  0.6421 -0.0799 -0.0426
 4203SOL    HW124071   4.549   3.329   6.418  0.5376 -0.4022 -0.6992
 4203SOL    HW224072   4.625   3.365   6.302 -0.2844 -1.9026 -0.2557
 4204SOL     OW24073   3.719   4.663   7.769 -0.1272 -0.5420  0.5440
 4204SOL    HW124074   3.714   4.612   7.850  0.3305 -2.5924 -0.7075
 4204SOL    HW224075   3.698   4.591   7.709  0.3529  0.6231 -1.0258
 4205SOL     OW24076   3.091   0.048   7.109 -0.2233 -0.2844 -0.4029
 4205SOL    HW124077   3.054   4.685   7.143 -1.9848  0.5788 -0.1793
 4205SOL    HW224078   3.050   0.116   7.163 -0.1941 -2.5591  2.5204
 4206SOL     OW24079   2.066   1.850   6.572 -0.0613 -0.4354 -0.7369
 4206SOL    HW124080   2.123   1.922   6.545  1.0125 -1.2137 -0.5567
 4206SOL    HW224081   1.978   1.888   6.570  0.5640  1.0678  0.2487
 4207SOL     OW24082   3.991   0.811   5.869 -0.4671 -0.1645  0.0318
 4207SOL    HW124083   4.040   0.756   5.930 -0.4045 -1.8809 -1.5680
 4207SOL    HW224084   3.943   0.740   5.826 -0.0779 -1.0593  1.0723
 4208SOL     OW24085   1.460   4.199   2.053 -0.1025 -0.3357  0.2417
 4208SOL    HW124086   1.388   4.152   2.096  0.5229 -0.7639  0.8367
 4208SOL    HW224087   1.512   4.219   2.131  0.8862  0.1194 -0.5343
 4209SOL     OW24088   2.579   0.633   2.721 -0.6668 -0.3993  0.4015
 4209SOL    HW124089   2.668   0.631   2.687 -1.0617 -1.2367 -0.5687
 4209SOL    HW224090   2.551   0.722   2.698  0.8130  0.1097  0.6281
 4210SOL     OW24091   1.599   0.007   4.203  0.3049 -0.4734 -0.0974
 4210SOL    HW124092   1.627   4.691   4.119  0.0233  0.2759 -0.5161
 4210SOL    HW224093   1.533   4.663   4.228 -1.7111  1.5185 -0.3355
 4211SOL     OW24094   0.173   0.372   1.648  0.0410  0.1837  0.0891
 4211SOL    HW124095   0.186   0.433   1.575 -1.4303 -0.9375 -1.1248
 4211SOL    HW224096   0.242   0.306   1.638 -0.4605 -0.1838 -1.0416
 4212SOL     OW24097   3.451   4.272  14.148 -0.1045  0.1195  0.1779
 4212SOL    HW124098   3.441   4.322  14.067 -0.5742 -0.0032  0.1579
 4212SOL    HW224099   3.526   4.310  14.195 -1.3700  1.3820  1.1955
 4213SOL     OW24100   1.278   3.214   1.692  0.7305  0.4508  0.3043
 4213SOL    HW124101   1.197   3.173   1.660  0.3541  1.2260  0.2495
 4213SOL    HW224102   1.317   3.226   1.606  0.5222 -0.3149  0.0997
 4214SOL     OW24103   1.680   4.185  16.359 -0.0166  0.3156 -0.7379
 4214SOL    HW124104   1.741   4.116  16.334 -0.2040 -0.5202  1.1296
 4214SOL    HW224105   1.736   4.251  16.401  1.4210 -0.9436 -0.6639
 4215SOL     OW24106   3.996   0.020   2.641  0.4772  0.4222 -0.2362
 4215SOL    HW124107   3.909   4.716   2.673  0.2242 -0.3253 -1.4623
 4215SOL    HW224108   4.003   4.668   2.578  1.7352  0.3738 -0.0489
 4216SOL     OW24109   4.171   2.558   7.425  0.4312 -1.0392  0.3242
 4216SOL    HW124110   4.129   2.603   7.498  0.2295 -1.0638  0.2250
 4216SOL    HW224111   4.148   2.468   7.447 -1.2395 -0.4848  0.8500
 4217SOL     OW24112   2.703   3.488  12.687 -1.0341  0.6604 -0.0248
 4217SOL    HW124113   2.712   3.477  12.592  0.1742  0.2536  0.1451
 4217SOL    HW224114   2.739   3.576  12.694 -1.4615  0.9859 -1.8592
 4218SOL     OW24115   0.260   2.360  11.706  0.2485 -0.0116  0.1299
 4218SOL    HW124116   0.190   2.295  11.703  0.4309 -0.2219  0.5171
 4218SOL    HW224117   0.297   2.352  11.618 -0.7018  1.4209 -0.4076
 4219SOL     OW24118   2.776   3.260   2.337  0.0059  0.5639 -0.7111
 4219SOL    HW124119   2.835   3.263   2.261 -0.9439  0.2755 -1.4647
 4219SOL    HW224120   2.804   3.175   2.369 -0.3995  1.8068  2.9774
 4220SOL     OW24121   3.164   1.440   5.438 -0.1891  0.3098  0.3524
 4220SOL    HW124122   3.239   1.481   5.395  0.5376 -0.2439  1.0869
 4220SOL    HW224123   3.208   1.411   5.519 -4.1287 -2.6428  1.4523
 4221SOL     OW24124   0.675   3.914   7.509  0.0574  1.0100  0.0041
 4221SOL    HW124125   0.613   3.879   7.445  0.6536 -0.7643  0.3988
 4221SOL    HW224126   0.689   4.005   7.482  0.7618  0.9009  0.0105
 4222SOL     OW24127   4.697   0.367   0.190 -0.1265 -0.8049 -0.0702
 4222SOL    HW124128   0.024   0.437   0.145  0.0370 -0.7134  0.2484
 4222SOL    HW224129   4.638   0.422   0.242  0.8232 -0.7711  0.9634
 4223SOL     OW24130   2.136   3.732  13.889  0.4318  0.0624  0.2492
 4223SOL    HW124131   2.216   3.709  13.841 -1.0180 -0.6005 -1.8602
 4223SOL    HW224132   2.143   3.686  13.972 -1.1796  2.0689  1.4961
 4224SOL     OW24133   3.189   4.094   3.828  0.2497  0.2385 -0.1779
 4224SOL    HW124134   3.220   4.014   3.785  0.2279 -0.2773  0.7656
 4224SOL    HW224135   3.272   4.137   3.850  0.1793 -0.9619  2.4541
 4225SOL     OW24136   4.375   1.629   3.303 -0.5453 -0.2626  0.1596
 4225SOL    HW124137   4.401   1.595   3.218  0.1942  0.2018  0.2001
 4225SOL    HW224138   4.292   1.586   3.320  0.2997 -2.0442 -0.2183
 4226SOL     OW24139   2.757   4.417   0.973  0.2073 -0.0333 -0.2482
 4226SOL    HW124140   2.825   4.396   1.037  0.2727  0.4017 -0.1729
 4226SOL    HW224141   2.732   4.505   1.001 -0.7814 -0.1775 -0.6473
 4227SOL     OW24142   2.638   4.141   6.890  0.4091  0.5051 -0.3425
 4227SOL    HW124143   2.732   4.122   6.892  0.3508  0.1360 -1.1831
 4227SOL    HW224144   2.646   4.236   6.889  1.1918  0.4481  0.2309
 4228SOL     OW24145   2.079   1.956   9.394 -0.4377 -0.1477 -0.5656
 4228SOL    HW124146   2.050   2.002   9.315 -4.3647  0.4830  1.2046
 4228SOL    HW224147   2.168   1.930   9.372 -0.4103  0.0559 -0.6889
 4229SOL     OW24148   2.682   2.115  15.316  0.2610 -0.0893 -0.5642
 4229SOL    HW124149   2.725   2.064  15.248  1.5848  1.2637 -0.7570
 4229SOL    HW224150   2.682   2.203  15.277  0.4060 -0.2641 -0.9573
 4230SOL     OW24151   1.730   3.214   3.165  0.0511  0.3113  0.4014
 4230SOL    HW124152   1.743   3.287   3.106 -1.8210  1.7336  1.7347
 4230SOL    HW224153   1.796   3.233   3.232  0.7276 -1.1697  0.1583
 4231SOL     OW24154   3.371   1.829   5.088 -0.1682 -0.5169 -0.2636
 4231SOL    HW124155   3.322   1.892   5.037  2.2593  0.2148 -1.6754
 4231SOL    HW224156   3.441   1.793   5.034  1.2536 -0.2289  1.3610
 4232SOL     OW24157   3.043   0.665  14.777  0.0642 -0.0211  0.4319
 4232SOL    HW124158   3.094   0.734  14.735 -1.2174  1.1872  0.8420
 4232SOL    HW224159   2.964   0.679  14.726  0.1077  1.4351  0.7642
 4233SOL     OW24160   1.202   3.936   7.559 -0.3995  0.3315  0.6492
 4233SOL    HW124161   1.112   3.904   7.558 -0.4865  0.5516  1.4353
 4233SOL    HW224162   1.209   3.993   7.482 -0.0552 -0.9528 -0.2818
 4234SOL     OW24163   4.179   0.940   3.529 -0.0172  0.5984  0.2794
 4234SOL    HW124164   4.137   0.911   3.609 -0.4750  1.5234  0.3710
 4234SOL    HW224165   4.273   0.928   3.544  0.1881  1.1872 -0.5063
 4235SOL     OW24166   4.002   2.980   8.744 -0.4213 -0.1510 -0.1099
 4235SOL    HW124167   4.031   2.933   8.822 -0.3467 -0.8807 -0.5760
 4235SOL    HW224168   3.970   2.906   8.692 -1.1542 -0.1212  0.2928
 4236SOL     OW24169   2.967   1.421   4.617 -0.0316 -0.1356  0.5754
 4236SOL    HW124170   2.953   1.515   4.608  3.8726  0.3144 -0.4995
 4236SOL    HW224171   2.901   1.395   4.682  0.5040  0.7618  1.4840
 4237SOL     OW24172   1.374   4.308  14.204 -0.5258  0.0960 -0.2914
 4237SOL    HW124173   1.342   4.254  14.132  0.7966 -0.6308 -0.3457
 4237SOL    HW224174   1.466   4.283  14.214 -0.7807 -0.3674  0.9344
 4238SOL     OW24175   3.703   2.863   6.212 -0.0036 -0.4425 -0.1482
 4238SOL    HW124176   3.631   2.868   6.274  0.6650  1.2485  0.5234
 4238SOL    HW224177   3.780   2.855   6.269 -0.9582 -0.0878  1.1780
 4239SOL     OW24178   4.287   0.239   5.790 -0.2199  0.5164 -0.3101
 4239SOL    HW124179   4.360   0.177   5.783 -0.5285 -0.0110  1.2240
 4239SOL    HW224180   4.329   0.294   5.856 -2.7041  1.6173  0.3436
 4240SOL     OW24181   3.026   3.338   6.512 -0.4828  0.0224 -0.1717
 4240SOL    HW124182   2.984   3.286   6.444  1.0989 -2.2917  0.6504
 4240SOL    HW224183   3.091   3.281   6.553  0.2259  1.3549  0.5620
 4241SOL     OW24184   0.701   1.734  14.366  0.0898  0.1227 -0.3800
 4241SOL    HW124185   0.708   1.688  14.283  2.5724  2.3549 -1.4092
 4241SOL    HW224186   0.628   1.688  14.407 -0.3154  1.4751  0.4151
 4242SOL     OW24187   2.452   1.702   2.511  0.0716 -0.1113  0.7076
 4242SOL    HW124188   2.530   1.752   2.535  0.7760 -1.1684  0.6140
 4242SOL    HW224189   2.476   1.664   2.427  1.4640  1.2416  0.4918
 4243SOL     OW24190   1.117   0.621   4.811  0.4021  0.4197 -0.1010
 4243SOL    HW124191   1.054   0.552   4.830  1.0521  0.2623  1.4934
 4243SOL    HW224192   1.110   0.675   4.889  0.5794 -1.6312  1.3146
 4244SOL     OW24193   0.629   2.664  17.574  0.0167  0.6621  0.0459
 4244SOL    HW124194   0.535   2.679  17.572  0.0506  0.9940  0.8382
 4244SOL    HW224195   0.651   2.707  17.657 -0.1854  1.2358 -0.1967
 4245SOL     OW24196   3.683   4.403   7.634  0.4190 -0.2446 -0.3174
 4245SOL    HW124197   3.675   4.380   7.726  1.2654 -0.8886 -0.4009
 4245SOL    HW224198   3.742   4.329   7.618  0.0424 -0.4472 -0.7966
 4246SOL     OW24199   1.573   1.560  10.839  0.1574 -0.6931  0.0077
 4246SOL    HW124200   1.664   1.532  10.828 -0.5001 -2.6837 -0.3652
 4246SOL    HW224201   1.552   1.600  10.755 -1.5660 -0.8584  0.3678
 4247SOL     OW24202   4.076   3.703   1.039 -0.1463  0.0968 -0.0541
 4247SOL    HW124203   4.034   3.789   1.050 -0.5121 -0.1200  0.2369
 4247SOL    HW224204   4.035   3.682   0.955 -0.4650  0.3950  0.0263
 4248SOL     OW24205   3.132   4.309   7.019  0.6576 -0.1238  0.1991
 4248SOL    HW124206   3.058   4.345   7.067  0.5781  0.0121 -0.0260
 4248SOL    HW224207   3.147   4.379   6.955 -1.5076 -0.9869 -1.2319
 4249SOL     OW24208   3.689   4.330  12.196  0.0488  0.0947  0.0475
 4249SOL    HW124209   3.759   4.287  12.147  0.4288  0.1611  0.5398
 4249SOL    HW224210   3.743   4.359  12.269 -1.5248 -0.0078  1.2634
 4250SOL     OW24211   2.950   0.040   8.538 -0.1887 -0.2171 -0.0151
 4250SOL    HW124212   2.883   4.720   8.483  0.6721  0.3967 -1.5156
 4250SOL    HW224213   2.971   0.112   8.478 -1.1963 -1.0578 -1.3718
 4251SOL     OW24214   1.914   2.572  12.797  0.5795 -0.1837  0.2174
 4251SOL    HW124215   1.838   2.629  12.787 -0.7288 -1.6386  1.8344
 4251SOL    HW224216   1.980   2.633  12.830  0.0351  0.2978  0.4151
 4252SOL     OW24217   2.974   2.322  10.228 -0.0216  0.0388  0.1764
 4252SOL    HW124218   2.969   2.410  10.266  0.3116  1.2488 -2.6094
 4252SOL    HW224219   2.926   2.317  10.145  1.3926 -1.4236 -0.5661
 4253SOL     OW24220   0.006   3.519   4.574  0.7539  0.0365  0.1096
 4253SOL    HW124221   0.003   3.608   4.540 -1.0633  0.3327  1.0853
 4253SOL    HW224222   4.651   3.491   4.521 -1.4176 -0.4430  3.4588
 4254SOL     OW24223   2.203   0.375  14.585  0.7181 -0.8063 -0.0418
 4254SOL    HW124224   2.129   0.396  14.528  0.8534 -1.3059 -0.3998
 4254SOL    HW224225   2.217   0.288  14.547  1.0524 -1.7381  2.2555
 4255SOL     OW24226   2.144   3.385  12.199  0.4944 -0.3763 -0.2858
 4255SOL    HW124227   2.138   3.354  12.290  1.1589 -0.2278 -0.1888
 4255SOL    HW224228   2.202   3.461  12.201 -0.0132  0.0261 -0.9061
 4256SOL     OW24229   3.946   4.422   6.140 -0.4269 -0.1065 -0.1035
 4256SOL    HW124230   3.858   4.385   6.131  0.2231 -1.9729  1.3944
 4256SOL    HW224231   3.999   4.358   6.091  0.7112 -0.6554  1.8463
 4257SOL     OW24232   2.388   1.763   8.462  0.0016 -0.1904 -0.0703
 4257SOL    HW124233   2.310   1.765   8.517  0.6143  1.0811  0.7344
 4257SOL    HW224234   2.359   1.711   8.387 -0.7411 -0.0165  0.0944
 4258SOL     OW24235   1.236   1.881   9.403  0.0088  0.1350  0.1964
 4258SOL    HW124236   1.279   1.924   9.477  1.2273 -1.3842  0.3814
 4258SOL    HW224237   1.237   1.946   9.332  1.6349  0.9303  0.9510
 4259SOL     OW24238   2.078   2.943   6.786 -0.2128  0.3030 -0.9406
 4259SOL    HW124239   2.064   2.885   6.712 -0.0060 -2.1949  0.9950
 4259SOL    HW224240   2.052   3.028   6.750 -1.3217  0.6798  0.7472
 4260SOL     OW24241   4.356   2.255  16.167  0.5764 -0.1179  0.0407
 4260SOL    HW124242   4.355   2.250  16.262 -3.4634 -3.0485 -0.1875
 4260SOL    HW224243   4.348   2.349  16.151  0.0279 -0.4008 -1.4265
 4261SOL     OW24244   0.326   1.365   4.602 -0.8165 -0.1280  0.0627
 4261SOL    HW124245   0.369   1.307   4.665 -3.1315 -0.4793  1.3296
 4261SOL    HW224246   0.240   1.323   4.595 -1.5617  1.1157  1.7972
 4262SOL     OW24247   4.373   4.041  15.065  0.1453 -0.1510 -0.0287
 4262SOL    HW124248   4.338   4.114  15.012 -0.0746 -1.0615 -1.1373
 4262SOL    HW224249   4.408   3.986  14.995 -1.5283  0.7460 -1.5904
 4263SOL     OW24250   2.536   2.015  14.454 -0.1071 -0.1782  0.5122
 4263SOL    HW124251   2.619   2.031  14.500 -0.6583  1.0568  1.0485
 4263SOL    HW224252   2.562   2.049  14.368 -2.2142 -0.9514 -0.4212
 4264SOL     OW24253   2.085   1.078   2.327 -0.4411  0.1812 -0.3383
 4264SOL    HW124254   2.094   1.165   2.367 -2.9163  0.2788  0.0062
 4264SOL    HW224255   2.079   1.101   2.234  1.9429 -1.0247 -0.7787
 4265SOL     OW24256   0.593   3.023  11.999  0.0025 -0.5188  0.6030
 4265SOL    HW124257   0.601   3.080  12.076 -1.5680  0.3959  0.0879
 4265SOL    HW224258   0.686   3.029  11.978 -0.1882  1.5198  0.2829
 4266SOL     OW24259   2.592   0.867   7.064 -0.4080  0.2482  0.0435
 4266SOL    HW124260   2.548   0.854   6.980  0.8657 -1.8331 -0.2943
 4266SOL    HW224261   2.662   0.926   7.038 -1.5596  1.0045 -1.3237
 4267SOL     OW24262   4.679   1.710   2.059  0.1410  0.3431  0.7293
 4267SOL    HW124263   0.037   1.710   2.004 -0.7855 -0.5969 -0.5922
 4267SOL    HW224264   4.688   1.621   2.093 -1.0800 -1.6337 -4.1860
 4268SOL     OW24265   3.420   3.690   2.241  0.1294 -0.7041 -0.1481
 4268SOL    HW124266   3.510   3.696   2.210  0.0837 -0.6393 -0.2682
 4268SOL    HW224267   3.421   3.597   2.262 -0.6072 -1.3146 -2.8659
 4269SOL     OW24268   3.755   4.204   5.651  0.4454 -0.4839  0.2524
 4269SOL    HW124269   3.711   4.127   5.614 -1.8577 -0.0112  2.0042
 4269SOL    HW224270   3.792   4.236   5.569  0.4437  2.5287  1.4486
 4270SOL     OW24271   0.876   4.162  17.627 -0.1459  0.4522  0.6621
 4270SOL    HW124272   0.904   4.138   0.033  4.4864  0.9527 -0.6548
 4270SOL    HW224273   0.862   4.255  17.640 -0.6042  0.4830 -0.0931
 4271SOL     OW24274   3.905   3.311  10.854  0.2525  0.0048  0.0355
 4271SOL    HW124275   3.956   3.233  10.876 -0.9063 -0.8294 -0.2475
 4271SOL    HW224276   3.926   3.312  10.760 -2.0694 -1.5217 -0.4857
 4272SOL     OW24277   2.664   4.033   8.905  0.0462  0.1428 -0.5509
 4272SOL    HW124278   2.572   4.007   8.900 -0.1454  0.7081  0.0443
 4272SOL    HW224279   2.698   3.964   8.848  1.0132  0.0413  0.1510
 4273SOL     OW24280   0.411   3.033  17.334 -0.0811  0.0274 -0.3411
 4273SOL    HW124281   0.433   2.968  17.268 -1.2635  0.4102 -1.0989
 4273SOL    HW224282   0.378   2.970  17.398  1.1584 -1.3972 -1.1086
 4274SOL     OW24283   2.135   1.870  10.102 -0.5511  0.0860  0.4197
 4274SOL    HW124284   2.178   1.818  10.171 -0.2082 -2.3235 -1.6269
 4274SOL    HW224285   2.134   1.958  10.141 -0.9610 -0.3317  1.3432
 4275SOL     OW24286   4.593   0.798   8.980  0.0731  0.4122  0.1568
 4275SOL    HW124287   4.574   0.882   9.023 -0.2118 -0.2169  1.2684
 4275SOL    HW224288   4.556   0.817   8.894 -1.2202 -3.0664 -0.0695
 4276SOL     OW24289   1.474   0.678   9.533 -0.4044 -0.7052 -0.3577
 4276SOL    HW124290   1.514   0.651   9.450 -0.6624  0.5466 -0.9020
 4276SOL    HW224291   1.420   0.600   9.536 -0.8657 -0.5021 -2.8099
 4277SOL     OW24292   2.615   1.034   5.658  0.0439  0.1309 -0.7193
 4277SOL    HW124293   2.575   1.045   5.744  2.5450 -1.3316  0.6383
 4277SOL    HW224294   2.550   1.036   5.588 -0.7506 -0.4447  0.0015
 4278SOL     OW24295   2.798   0.986   8.899  0.1480 -0.7301 -0.3861
 4278SOL    HW124296   2.729   0.931   8.937  1.0410 -0.3118  1.8046
 4278SOL    HW224297   2.847   1.002   8.980  1.3066 -1.8435 -0.8727
 4279SOL     OW24298   3.179   1.873   7.219 -0.2315 -0.4290 -0.5616
 4279SOL    HW124299   3.165   1.946   7.279  1.0904  0.2221 -1.0557
 4279SOL    HW224300   3.203   1.814   7.290 -1.6009  0.7661  0.8988
 4280SOL     OW24301   4.389   3.417   1.609 -0.4063  0.1228 -0.1739
 4280SOL    HW124302   4.434   3.373   1.536 -1.5196  0.4029 -1.0188
 4280SOL    HW224303   4.355   3.499   1.574  0.2188  1.0600  1.4388
 4281SOL     OW24304   2.292   0.442  11.274 -0.2069 -0.3792 -0.7030
 4281SOL    HW124305   2.346   0.461  11.198 -0.3422 -0.1455 -0.7411
 4281SOL    HW224306   2.222   0.508  11.268  0.4667  0.7175  3.7891
 4282SOL     OW24307   3.096   2.605   9.563  0.0860 -0.2783  0.0214
 4282SOL    HW124308   3.068   2.567   9.646 -1.1688  3.0441  1.0942
 4282SOL    HW224309   3.061   2.692   9.582 -0.2768 -0.4052 -0.0746
 4283SOL     OW24310   2.721   3.888   0.098 -0.0784 -0.1885 -0.1911
 4283SOL    HW124311   2.632   3.891   0.132 -0.2306 -1.6951 -0.4704
 4283SOL    HW224312   2.755   3.968   0.140  0.8151 -0.7524  0.1729
 4284SOL     OW24313   3.196   3.197   7.930 -0.6279 -0.1926 -0.0085
 4284SOL    HW124314   3.193   3.282   7.974 -0.5083 -0.5495  0.6884
 4284SOL    HW224315   3.165   3.152   8.008 -0.4903 -2.1367 -1.0699
 4285SOL     OW24316   1.477   3.220  12.249  0.3366  0.3725 -0.3683
 4285SOL    HW124317   1.520   3.143  12.286 -1.4614 -0.4527 -0.0368
 4285SOL    HW224318   1.524   3.291  12.294  1.8318  0.5449 -2.2076
 4286SOL     OW24319   2.399   4.616   8.873 -0.5397 -0.7767  0.1878
 4286SOL    HW124320   2.448   4.661   8.942  0.2308 -0.3990 -0.6256
 4286SOL    HW224321   2.364   4.539   8.919  1.3060 -1.6490  0.1051
 4287SOL     OW24322   4.078   1.639   3.867 -0.0189  0.0022 -0.2488
 4287SOL    HW124323   4.020   1.569   3.837 -0.9134  1.1113 -1.1464
 4287SOL    HW224324   4.111   1.671   3.783  0.8084  0.3559  0.2181
 4288SOL     OW24325   2.637   0.949   5.348 -0.6659 -0.0701  0.2238
 4288SOL    HW124326   2.565   1.011   5.338  0.9683  1.5787 -1.5187
 4288SOL    HW224327   2.658   0.945   5.441  0.3946  0.8297  0.0251
 4289SOL     OW24328   2.482   0.830  15.353 -0.3585  0.4769 -0.2766
 4289SOL    HW124329   2.486   0.791  15.440 -0.0810 -0.4869 -0.7230
 4289SOL    HW224330   2.387   0.835  15.342 -0.5518  0.3761  1.3666
 4290SOL     OW24331   4.234   4.444   3.128 -0.0042  0.3077 -0.0931
 4290SOL    HW124332   4.294   4.419   3.198  0.6205 -1.7043 -1.3500
 4290SOL    HW224333   4.160   4.444   3.190 -1.3691  1.4170 -1.7220
 4291SOL     OW24334   3.242   1.747   7.763  0.2489 -0.1104  0.2122
 4291SOL    HW124335   3.264   1.812   7.829 -1.3765 -0.4496  1.0824
 4291SOL    HW224336   3.175   1.694   7.807 -0.5392 -0.6333 -1.5908
 4292SOL     OW24337   1.574   0.492   3.313  0.2082 -0.0857 -0.3745
 4292SOL    HW124338   1.546   0.482   3.222  0.8999  0.4411 -0.6447
 4292SOL    HW224339   1.560   0.585   3.325  2.8281  0.6187 -2.6303
 4293SOL     OW24340   3.364   2.993   0.200 -0.1733 -0.6042 -0.5626
 4293SOL    HW124341   3.343   3.077   0.160  1.3019 -0.2481 -0.5861
 4293SOL    HW224342   3.443   3.024   0.245  0.4597 -0.7258 -1.5670
 4294SOL     OW24343   0.953   3.130  17.227  0.1444 -0.2714 -0.2389
 4294SOL    HW124344   0.971   3.064  17.160  1.8016 -1.8756  1.7712
 4294SOL    HW224345   1.027   3.191  17.223 -1.4242  1.5674 -1.2265
 4295SOL     OW24346   4.390   2.177   4.875  0.3489  0.1054  0.5229
 4295SOL    HW124347   4.379   2.271   4.858  1.7616 -0.0228 -1.0512
 4295SOL    HW224348   4.483   2.159   4.868  0.5430  1.4993 -0.4985
 4296SOL     OW24349   1.859   1.863   7.031 -0.7912 -0.4530  0.0377
 4296SOL    HW124350   1.839   1.782   6.985  2.0395 -1.4273  0.5072
 4296SOL    HW224351   1.932   1.895   6.978 -0.7793  1.7695  1.3827
 4297SOL     OW24352   0.328   0.182   1.511 -0.0772  0.1685  0.3374
 4297SOL    HW124353   0.270   0.106   1.515 -1.7559  1.5989  4.0910
 4297SOL    HW224354   0.350   0.187   1.418 -1.3095 -2.2502 -0.0718
 4298SOL     OW24355   1.254   3.940   9.620  0.0394  0.5725 -0.4768
 4298SOL    HW124356   1.281   3.849   9.608 -1.2948  0.4788 -2.6900
 4298SOL    HW224357   1.252   3.953   9.715 -0.7516  1.1530 -0.5763
 4299SOL     OW24358   4.099   0.712   4.882 -0.4045 -0.3950  0.0779
 4299SOL    HW124359   4.077   0.781   4.945 -2.2661 -1.5083  0.6417
 4299SOL    HW224360   4.191   0.739   4.871 -0.0841 -1.6739 -0.4080
 4300SOL     OW24361   2.031   2.211  17.592  0.1727 -0.1584 -0.4731
 4300SOL    HW124362   1.949   2.258  17.573 -0.6627 -1.0189  0.9668
 4300SOL    HW224363   2.004   2.120  17.601 -0.9770  0.0115 -2.2509
 4301SOL     OW24364   2.879   0.206   2.561  0.3437  0.1376  0.0310
 4301SOL    HW124365   2.930   0.178   2.485  0.9171 -2.0212  1.1799
 4301SOL    HW224366   2.933   0.179   2.636 -0.3198 -0.2584  0.3598
 4302SOL     OW24367   0.824   2.673  17.085  0.1126 -0.0329  0.0425
 4302SOL    HW124368   0.826   2.705  17.175  0.4564 -0.6560  0.2571
 4302SOL    HW224369   0.740   2.628  17.089 -0.5257  0.9851 -1.8331
 4303SOL     OW24370   2.798   1.378  10.272 -0.3928 -0.1589 -0.2197
 4303SOL    HW124371   2.794   1.311  10.204 -3.3818  2.0332 -2.1815
 4303SOL    HW224372   2.746   1.330  10.336 -1.2172  2.0422  0.7647
 4304SOL     OW24373   1.207   2.886  15.179  0.0151  0.4405 -0.1826
 4304SOL    HW124374   1.166   2.802  15.200  0.1788 -0.1669 -2.2803
 4304SOL    HW224375   1.211   2.892  15.083  0.0530 -0.4891 -0.2343
 4305SOL     OW24376   2.897   1.713   0.432 -0.3807  0.5110 -0.5630
 4305SOL    HW124377   2.897   1.687   0.340 -1.3279  0.6381 -0.6046
 4305SOL    HW224378   2.818   1.669   0.464  0.2836 -0.6374 -0.5129
 4306SOL     OW24379   1.264   1.621   6.351 -0.7097  0.1143 -0.2032
 4306SOL    HW124380   1.201   1.668   6.296  1.2514  2.5100 -0.3875
 4306SOL    HW224381   1.206   1.581   6.416 -1.0490 -3.3277 -2.5984
 4307SOL     OW24382   0.319   1.319   1.432 -0.0526 -0.1622  0.5618
 4307SOL    HW124383   0.226   1.322   1.408  0.1978  1.2090 -0.2296
 4307SOL    HW224384   0.339   1.413   1.436 -0.9673  0.1103 -1.1234
 4308SOL     OW24385   2.289   0.967   3.507  0.3131 -0.1117 -0.2440
 4308SOL    HW124386   2.227   0.945   3.577 -1.4164  0.6681 -1.5211
 4308SOL    HW224387   2.223   0.992   3.442 -1.8263 -0.2033  1.8924
 4309SOL     OW24388   0.908   3.891   4.934  0.0832 -0.0750  0.0341
 4309SOL    HW124389   0.860   3.958   4.982  1.6180 -0.1162  1.6213
 4309SOL    HW224390   0.871   3.806   4.957  1.0024 -0.6298 -0.5420
 4310SOL     OW24391   0.487   3.013   0.459 -0.6199 -0.9100  0.4032
 4310SOL    HW124392   0.473   2.948   0.390  0.6889 -0.1973 -0.5329
 4310SOL    HW224393   0.525   2.959   0.528  2.2675 -0.5618 -0.8906
 4311SOL     OW24394   2.530   0.497   7.588 -0.2285 -0.1737 -0.2372
 4311SOL    HW124395   2.607   0.550   7.611 -2.1525  3.2585 -1.6243
 4311SOL    HW224396   2.474   0.565   7.550  2.0298  1.9499  0.1634
 4312SOL     OW24397   3.606   1.608   4.213  0.5818  0.5079 -0.0989
 4312SOL    HW124398   3.664   1.586   4.141  1.2939  0.0142  0.6212
 4312SOL    HW224399   3.581   1.521   4.246  0.0727  0.1696 -1.3781
 4313SOL     OW24400   2.095   2.095   3.231 -0.1782  0.5948 -0.5393
 4313SOL    HW124401   2.023   2.039   3.262  0.3222  0.4709  0.4248
 4313SOL    HW224402   2.049   2.175   3.207 -0.6617 -0.3324 -2.7005
 4314SOL     OW24403   0.514   2.207   2.847  0.2059 -0.4960  0.9958
 4314SOL    HW124404   0.579   2.274   2.869 -0.4410  0.5851 -0.3375
 4314SOL    HW224405   0.522   2.211   2.751  0.6086  1.3844  1.0939
 4315SOL     OW24406   1.072   3.923   4.708 -0.1599  0.5757 -0.1322
 4315SOL    HW124407   1.069   4.018   4.694 -1.1614  0.7306  1.1601
 4315SOL    HW224408   1.016   3.919   4.785  1.5542  0.2134  1.1064
 4316SOL     OW24409   0.438   0.862   5.175  0.5367 -0.5731  0.1595
 4316SOL    HW124410   0.430   0.788   5.115 -1.7551  0.4294 -0.7711
 4316SOL    HW224411   0.508   0.916   5.137  0.7356 -2.7904 -2.6020
 4317SOL     OW24412   0.810   2.576  16.704 -0.7571  0.0955 -0.4012
 4317SOL    HW124413   0.756   2.656  16.706 -0.2514  0.4718 -1.6337
 4317SOL    HW224414   0.794   2.546  16.793 -1.4817  0.9966 -0.2174
 4318SOL     OW24415   4.658   2.244   3.919 -0.1559 -0.8002 -0.5703
 4318SOL    HW124416   4.691   2.306   3.983 -1.7100 -2.1430  1.5425
 4318SOL    HW224417   4.650   2.167   3.976  1.8206  0.7352  1.7695
 4319SOL     OW24418   3.999   0.688  12.817 -0.3167 -0.3795 -0.3398
 4319SOL    HW124419   4.051   0.711  12.741 -1.1813 -1.1334 -1.1628
 4319SOL    HW224420   3.907   0.709  12.798  0.3334  2.4917 -0.3245
 4320SOL     OW24421   2.416   4.513   8.587  0.4233 -0.7353 -0.0952
 4320SOL    HW124422   2.386   4.562   8.663  0.3191  1.0162 -1.2484
 4320SOL    HW224423   2.360   4.437   8.599  0.0154 -0.9717 -3.5321
 4321SOL     OW24424   2.965   4.492   2.769 -0.0963 -0.5594 -0.8867
 4321SOL    HW124425   2.930   4.580   2.780  1.8628  0.1618 -0.3394
 4321SOL    HW224426   3.030   4.498   2.839 -2.5191 -1.3956  1.4124
 4322SOL     OW24427   3.798   0.024   3.727 -0.7377  0.2563 -0.1935
 4322SOL    HW124428   3.723   4.706   3.681 -0.6212  0.1716 -0.3135
 4322SOL    HW224429   3.768   0.114   3.716 -0.6578  0.3649  0.4975
 4323SOL     OW24430   1.699   4.331  10.882 -0.2657  0.4776  0.3700
 4323SOL    HW124431   1.725   4.357  10.794  3.9512 -0.0052  1.5109
 4323SOL    HW224432   1.700   4.236  10.869 -2.4191  0.5878 -0.5262
 4324SOL     OW24433   2.860   2.389   4.437  0.1809 -0.4903 -0.0003
 4324SOL    HW124434   2.885   2.482   4.439  2.9809 -1.1857 -2.1796
 4324SOL    HW224435   2.812   2.379   4.519  1.9197 -2.6920  0.7509
 4325SOL     OW24436   3.645   3.763   0.241  0.1083 -0.2448 -0.0137
 4325SOL    HW124437   3.724   3.808   0.208 -0.0022  0.1852  0.3079
 4325SOL    HW224438   3.573   3.804   0.194 -1.1200 -0.8032  1.3996
 4326SOL     OW24439   4.350   2.587   6.494  0.4783 -0.1052 -0.3630
 4326SOL    HW124440   4.330   2.681   6.503  0.4595 -0.0630 -0.8337
 4326SOL    HW224441   4.434   2.585   6.538  0.8848  2.2715 -1.0176
 4327SOL     OW24442   3.993   0.143   5.508  0.1357 -0.4191 -0.0799
 4327SOL    HW124443   3.899   0.155   5.509  0.2494  0.6444 -2.4755
 4327SOL    HW224444   4.020   0.131   5.599  0.5695 -1.3462 -0.3328
 4328SOL     OW24445   0.263   4.517  15.013  0.6344 -0.6941 -0.1221
 4328SOL    HW124446   0.280   4.607  15.039 -1.1203 -0.3080 -0.3326
 4328SOL    HW224447   0.298   4.525  14.924  0.9544 -1.8779 -0.1144
 4329SOL     OW24448   0.197   2.675   4.397  0.1654  0.8471 -0.2619
 4329SOL    HW124449   0.132   2.608   4.419  1.4782 -0.9345 -1.8112
 4329SOL    HW224450   0.154   2.753   4.434 -0.9715 -0.4527  1.1702
 4330SOL     OW24451   0.944   0.170  12.443  0.0728 -0.4821 -0.1577
 4330SOL    HW124452   0.994   0.243  12.405 -0.0310  0.4243  1.4280
 4330SOL    HW224453   0.904   0.225  12.511  3.3573 -1.2966  2.4236
 4331SOL     OW24454   0.524   2.964   2.379  0.6298 -0.1112 -0.2029
 4331SOL    HW124455   0.475   3.016   2.316 -1.4185 -0.4349  1.0963
 4331SOL    HW224456   0.537   2.883   2.330  2.2028 -0.2618  0.4572
 4332SOL     OW24457   4.190   1.044   8.276 -0.2746  0.7937  0.2918
 4332SOL    HW124458   4.218   1.134   8.292  1.6946  0.4231 -1.1384
 4332SOL    HW224459   4.124   1.060   8.209 -0.7460 -2.8358 -0.1307
 4333SOL     OW24460   3.410   1.761  10.012  0.4422 -0.0674 -0.4683
 4333SOL    HW124461   3.475   1.698  10.041  0.7291 -0.1929 -1.3752
 4333SOL    HW224462   3.336   1.714  10.050 -1.0875  1.5460 -1.4422
 4334SOL     OW24463   1.504   0.065   7.995  0.2550 -0.0939  0.1110
 4334SOL    HW124464   1.472   0.038   7.909  2.9180 -0.4147 -0.7650
 4334SOL    HW224465   1.484   4.705   8.045 -1.6335 -1.3020 -2.5277
 4335SOL     OW24466   2.094   3.946   7.509 -0.5326  0.8984  0.1130
 4335SOL    HW124467   2.042   4.002   7.566  2.0219  1.3712  2.0211
 4335SOL    HW224468   2.035   3.872   7.499 -0.8692  1.6249 -3.1865
 4336SOL     OW24469   4.544   3.703   6.972 -0.2731  0.5468  0.4083
 4336SOL    HW124470   4.585   3.785   6.945  1.4226 -0.6552 -0.6902
 4336SOL    HW224471   4.508   3.751   7.047 -1.8714 -2.0471  1.2770
 4337SOL     OW24472   2.734   1.182   6.691 -0.0125 -0.2784  0.2280
 4337SOL    HW124473   2.774   1.256   6.645 -1.3765  0.3242  0.0064
 4337SOL    HW224474   2.685   1.148   6.616 -0.2685  0.8780 -0.1228
 4338SOL     OW24475   0.146   2.718  10.806 -0.2466 -0.2224  0.1753
 4338SOL    HW124476   0.118   2.794  10.857  1.2112  0.0342  0.5993
 4338SOL    HW224477   0.232   2.702  10.846  0.5964  1.4607 -0.9487
 4339SOL     OW24478   0.259   3.675   7.874 -0.3099  0.4248  0.1925
 4339SOL    HW124479   0.238   3.586   7.843  3.5525 -0.9045  1.3982
 4339SOL    HW224480   0.263   3.665   7.969 -0.6934  0.2151  0.1863
 4340SOL     OW24481   2.855   3.219   4.422 -0.1260 -0.0689 -0.5574
 4340SOL    HW124482   2.814   3.260   4.498 -1.4842 -1.2732 -0.6272
 4340SOL    HW224483   2.877   3.131   4.454  0.1584  0.4002  0.5164
 4341SOL     OW24484   0.721   0.402   8.283 -0.0945  0.1730 -0.7858
 4341SOL    HW124485   0.649   0.430   8.227  0.0046 -0.2885 -1.1397
 4341SOL    HW224486   0.788   0.457   8.243 -1.8296  0.2777 -3.5454
 4342SOL     OW24487   1.454   1.738   8.249  0.0418  0.3863 -0.2362
 4342SOL    HW124488   1.498   1.781   8.322  0.2272 -2.2476  1.1888
 4342SOL    HW224489   1.501   1.655   8.237  0.6446  0.9275 -1.6158
 4343SOL     OW24490   2.701   0.333   4.389  0.2215  0.1636  0.3779
 4343SOL    HW124491   2.682   0.411   4.440 -1.5747 -0.5415  0.7976
 4343SOL    HW224492   2.759   0.296   4.456  0.8280 -0.8537 -0.7003
 4344SOL     OW24493   4.069   2.558   2.468  0.3010 -0.4991  0.2828
 4344SOL    HW124494   4.162   2.577   2.456  0.0677 -0.1209 -0.9490
 4344SOL    HW224495   4.033   2.600   2.390 -0.7284 -0.5947  0.6989
 4345SOL     OW24496   2.583   1.689  13.658 -0.2012 -0.3013  0.4304
 4345SOL    HW124497   2.575   1.740  13.577  0.3663  2.7286  2.2745
 4345SOL    HW224498   2.513   1.625  13.645  0.1073 -0.8057  1.2404
 4346SOL     OW24499   0.588   0.989   4.496  0.1579  0.0457 -0.2100
 4346SOL    HW124500   0.507   0.963   4.453 -1.0956  0.6706  1.7559
 4346SOL    HW224501   0.650   0.923   4.467  0.2302  0.1552 -0.3063
 4347SOL     OW24502   2.739   4.048   5.201  0.2675  0.3382  0.7779
 4347SOL    HW124503   2.684   4.031   5.278 -0.6356 -0.8036 -0.1109
 4347SOL    HW224504   2.707   3.977   5.146  0.2561  1.9559 -1.3149
 4348SOL     OW24505   2.998   0.182   5.674  0.4119  0.6317  0.3958
 4348SOL    HW124506   2.974   0.109   5.617 -1.4412  1.2975  0.3340
 4348SOL    HW224507   3.090   0.194   5.652  0.4276 -1.6549 -0.7734
 4349SOL     OW24508   0.739   2.326   0.976 -0.5853 -0.3840 -0.2179
 4349SOL    HW124509   0.701   2.241   0.996 -1.3039  0.0860  0.3742
 4349SOL    HW224510   0.777   2.305   0.890  1.5849 -1.5894  1.0205
 4350SOL     OW24511   0.824   3.455   4.343 -0.0399  0.1184 -0.2605
 4350SOL    HW124512   0.736   3.421   4.336 -0.7691  1.9092  0.1231
 4350SOL    HW224513   0.854   3.418   4.426 -1.1932  2.3669  1.1631
 4351SOL     OW24514   0.398   2.471   3.138 -0.3365  0.3124 -0.2806
 4351SOL    HW124515   0.410   2.376   3.147  2.0600  0.6174 -0.1191
 4351SOL    HW224516   0.319   2.475   3.085 -0.0012  2.6738 -0.5874
 4352SOL     OW24517   0.351   2.825   0.274  0.4316  0.4752  0.2138
 4352SOL    HW124518   0.334   2.741   0.231 -0.1419  1.9906 -2.4844
 4352SOL    HW224519   0.264   2.851   0.304  0.7734  2.9225 -0.9424
 4353SOL     OW24520   4.269   3.071  11.585 -0.9150  0.3117  0.5565
 4353SOL    HW124521   4.307   3.113  11.661  2.2471  1.7778 -1.8282
 4353SOL    HW224522   4.236   3.150  11.542  1.6568  0.7386 -0.6499
 4354SOL     OW24523   2.059   4.075   5.975 -0.1478  0.9452  0.1685
 4354SOL    HW124524   1.970   4.041   5.978 -0.3953  1.7895  2.0418
 4354SOL    HW224525   2.115   4.001   5.998  0.7957  0.6782 -2.9357
 4355SOL     OW24526   4.641   4.646   7.418  0.1934  0.2748 -0.0928
 4355SOL    HW124527   4.551   4.667   7.392 -2.0257 -2.5973  5.2354
 4355SOL    HW224528   4.624   4.619   7.508  1.9106 -1.0037 -0.1382
 4356SOL     OW24529   3.074   0.163   1.041 -0.1565  0.1292  0.5427
 4356SOL    HW124530   3.153   0.212   1.019 -0.1842  0.0645  0.3060
 4356SOL    HW224531   3.005   0.210   0.994 -1.1835 -1.0833  0.8246
 4357SOL     OW24532   4.210   0.378  14.278  0.5967 -0.3144 -0.4238
 4357SOL    HW124533   4.299   0.408  14.296 -0.1337  1.2845  0.4641
 4357SOL    HW224534   4.189   0.448  14.215  0.2162  0.3287  0.4288
 4358SOL     OW24535   0.341   1.789  15.235  0.1983  0.1534  0.4020
 4358SOL    HW124536   0.365   1.794  15.327 -0.4708  0.0350  0.5880
 4358SOL    HW224537   0.376   1.871  15.200  2.2302 -0.2180  1.6211
 4359SOL     OW24538   3.963   4.139  10.474 -0.0293  0.4286 -0.4458
 4359SOL    HW124539   3.969   4.198  10.549 -0.5325  0.3426 -0.3375
 4359SOL    HW224540   4.001   4.064  10.519  2.1189  1.9005  0.1783
 4360SOL     OW24541   3.759   0.756  13.294  0.1556 -0.5332 -0.1625
 4360SOL    HW124542   3.671   0.787  13.317  0.2616  1.2430 -2.1810
 4360SOL    HW224543   3.823   0.776  13.362  1.6208 -2.4783 -0.9985
 4361SOL     OW24544   2.133   1.308  13.514  0.1084  0.2825 -0.0750
 4361SOL    HW124545   2.083   1.388  13.499  0.0724  0.9951  3.9124
 4361SOL    HW224546   2.224   1.326  13.491 -0.8948  2.4581 -2.3323
 4362SOL     OW24547   0.265   0.307   5.810  0.3739  0.3684  0.1457
 4362SOL    HW124548   0.175   0.311   5.843  0.1286 -2.5035 -0.1513
 4362SOL    HW224549   0.258   0.366   5.735  0.2556 -1.4701 -1.2819
 4363SOL     OW24550   4.318   0.142   1.444  0.0146  0.1038  0.6351
 4363SOL    HW124551   4.382   0.198   1.399 -0.6776 -0.0575 -0.5456
 4363SOL    HW224552   4.239   0.192   1.427 -0.7837 -0.9067  1.3860
 4364SOL     OW24553   3.666   2.610   3.987  0.0480  0.0152 -0.5693
 4364SOL    HW124554   3.631   2.602   4.075 -2.2933  0.0526 -1.4923
 4364SOL    HW224555   3.595   2.656   3.941 -1.4162 -1.2289  0.4800
 4365SOL     OW24556   4.275   0.503   8.474  0.2284 -0.1558  0.4892
 4365SOL    HW124557   4.230   0.418   8.472  0.2162 -0.1315 -0.2222
 4365SOL    HW224558   4.322   0.497   8.558  1.2174 -1.3208 -0.1360
 4366SOL     OW24559   4.391   4.460   6.835  0.3391 -0.7349  0.4215
 4366SOL    HW124560   4.330   4.493   6.901  0.4903 -1.5299  0.9650
 4366SOL    HW224561   4.368   4.527   6.771 -0.6908  2.5439  4.2392
 4367SOL     OW24562   2.006   2.000   2.393 -0.1101 -0.1164  0.3746
 4367SOL    HW124563   2.005   1.992   2.298 -2.7374 -1.7989  0.5496
 4367SOL    HW224564   1.914   1.996   2.421  0.1644  0.4571  1.3746
 4368SOL     OW24565   3.471   1.303  16.590 -0.3551  0.0259  0.4796
 4368SOL    HW124566   3.561   1.336  16.587 -0.0533 -0.6223  2.9969
 4368SOL    HW224567   3.480   1.208  16.576 -2.3345  0.1895 -2.0570
 4369SOL     OW24568   4.271   0.221   1.988  0.0796 -0.1958  0.3106
 4369SOL    HW124569   4.289   0.288   2.053  2.9433 -0.9091  0.2508
 4369SOL    HW224570   4.175   0.213   1.993  0.0208 -0.4417 -1.0684
 4370SOL     OW24571   1.599   1.912   8.464  0.3357  0.0139 -0.2949
 4370SOL    HW124572   1.665   1.964   8.510 -0.0219  0.0558  0.1710
 4370SOL    HW224573   1.524   1.972   8.459  1.5419  1.5408 -0.0680
 4371SOL     OW24574   2.837   2.608   8.659  0.2967  0.5699  0.0867
 4371SOL    HW124575   2.918   2.644   8.696  0.6232  0.9408 -0.9995
 4371SOL    HW224576   2.794   2.684   8.619 -1.1750 -1.1834 -1.6555
 4372SOL     OW24577   0.811   3.397   4.914 -0.1534  0.0728  0.0605
 4372SOL    HW124578   0.887   3.400   4.972  1.1968  0.2229 -1.7390
 4372SOL    HW224579   0.748   3.348   4.968 -0.5702 -0.1111 -0.5890
 4373SOL     OW24580   3.603   0.394   1.643 -0.3704 -0.1077  0.0945
 4373SOL    HW124581   3.598   0.463   1.576  0.2393 -2.3470 -2.2640
 4373SOL    HW224582   3.548   0.328   1.602 -0.8762  1.3567 -1.6331
 4374SOL     OW24583   4.682   2.448   8.867 -0.0798 -0.0217 -0.0185
 4374SOL    HW124584   0.014   2.382   8.913 -1.0438  0.6360  2.0061
 4374SOL    HW224585   4.709   2.529   8.910  2.5271 -1.1417  0.4358
 4375SOL     OW24586   3.296   4.289   5.060  0.5603 -0.0518 -0.2838
 4375SOL    HW124587   3.284   4.195   5.068 -1.7230  0.3046  0.3884
 4375SOL    HW224588   3.204   4.307   5.042 -0.0857 -2.9611  0.2193
 4376SOL     OW24589   1.529   3.889   4.479  0.1576  0.4958 -0.3620
 4376SOL    HW124590   1.435   3.878   4.465  0.2751 -1.8950  0.6117
 4376SOL    HW224591   1.527   3.884   4.575 -2.9692  0.1706 -0.4442
 4377SOL     OW24592   2.355   0.632   2.432  0.3979 -0.0117  0.2287
 4377SOL    HW124593   2.301   0.679   2.496 -1.4294 -0.0305 -1.2870
 4377SOL    HW224594   2.374   0.557   2.489 -1.2299 -1.6003 -1.3285
 4378SOL     OW24595   2.660   2.992   6.252 -0.8231  0.2820 -0.1247
 4378SOL    HW124596   2.619   2.927   6.196 -0.2226  1.2868 -1.7474
 4378SOL    HW224597   2.583   3.041   6.280  0.0102  1.7540 -0.3970
 4379SOL     OW24598   2.754   1.251   2.747 -0.1951  0.4474 -0.2031
 4379SOL    HW124599   2.680   1.293   2.703 -0.2053  0.6888  0.0483
 4379SOL    HW224600   2.797   1.329   2.781  0.0052  0.3675 -0.2738
 4380SOL     OW24601   4.648   2.755   8.225  0.0143 -0.3465  0.1199
 4380SOL    HW124602   4.690   2.837   8.200 -0.2172 -0.0281  0.7873
 4380SOL    HW224603   4.577   2.779   8.284  0.6655 -2.3012  1.7143
 4381SOL     OW24604   3.253   0.009   2.738  0.0930  0.3586  0.0898
 4381SOL    HW124605   3.204   0.089   2.753 -1.2977 -0.7409  1.4903
 4381SOL    HW224606   3.208   4.663   2.792 -1.3458  0.2743 -1.1943
 4382SOL     OW24607   2.192   0.512   6.907 -0.2762 -0.4821 -0.2386
 4382SOL    HW124608   2.236   0.581   6.858  0.8349 -1.0432 -0.0532
 4382SOL    HW224609   2.106   0.509   6.866 -0.4072 -2.9530  0.2053
 4383SOL     OW24610   0.586   0.316   8.522 -0.2776 -0.0655  0.3205
 4383SOL    HW124611   0.557   0.368   8.447  0.5593  0.1625  0.1509
 4383SOL    HW224612   0.500   0.313   8.565 -0.0599  0.6838  0.8221
 4384SOL     OW24613   0.586   0.951   6.253 -0.3031  0.1879  0.1037
 4384SOL    HW124614   0.675   0.957   6.220  0.3590 -3.5369  1.2228
 4384SOL    HW224615   0.575   0.859   6.279  0.0694 -0.5205 -2.2795
 4385SOL     OW24616   4.338   2.402  12.157 -0.5312  0.3912  0.1937
 4385SOL    HW124617   4.318   2.487  12.197 -2.2324  0.4242 -0.7155
 4385SOL    HW224618   4.427   2.411  12.121 -1.0415  0.7504 -0.9771
 4386SOL     OW24619   4.171   2.773   8.451 -0.1008  0.1860  0.1546
 4386SOL    HW124620   4.210   2.848   8.496 -3.2305  1.8356  0.1983
 4386SOL    HW224621   4.110   2.816   8.391  1.5321  0.6474 -1.1819
 4387SOL     OW24622   0.807   2.366  14.032  0.4575 -0.0552  0.4696
 4387SOL    HW124623   0.809   2.281  14.075 -1.5089 -0.1290  0.3852
 4387SOL    HW224624   0.836   2.426  14.100  0.5482  0.3422  0.0812
 4388SOL     OW24625   2.563   0.655  16.943  0.0234  0.1382 -0.1142
 4388SOL    HW124626   2.533   0.627  17.029 -0.9817  1.5565 -0.0201
 4388SOL    HW224627   2.503   0.722  16.913 -0.0107 -0.1090 -0.6051
 4389SOL     OW24628   2.699   1.369   6.917  0.1125 -0.2751  0.2372
 4389SOL    HW124629   2.728   1.314   6.844  2.2930  0.4051  0.5814
 4389SOL    HW224630   2.726   1.456   6.887 -0.6680 -0.6840 -1.6610
 4390SOL     OW24631   2.486   0.029   4.739 -0.1529  0.1214  0.1411
 4390SOL    HW124632   2.547   4.682   4.710  0.7520  1.0204 -0.0189
 4390SOL    HW224633   2.511   0.089   4.669 -2.2401  0.2708 -0.4759
 4391SOL     OW24634   2.666   0.164   6.466  0.6617 -0.7446  0.3026
 4391SOL    HW124635   2.725   0.108   6.416 -1.0142  0.0735 -2.5692
 4391SOL    HW224636   2.594   0.141   6.408 -0.6868  2.8852  0.5042
 4392SOL     OW24637   2.336   2.430   8.152  0.2657  0.6354 -0.4178
 4392SOL    HW124638   2.290   2.407   8.233 -0.2314  2.1937 -0.2399
 4392SOL    HW224639   2.297   2.385   8.078  1.0216 -0.6050 -0.0541
 4393SOL     OW24640   3.626   4.101  16.996  0.2005 -0.2423 -0.4914
 4393SOL    HW124641   3.714   4.111  17.033 -0.4439  1.1213  0.6210
 4393SOL    HW224642   3.598   4.192  16.994  1.0251  0.0351  0.7338
 4394SOL     OW24643   2.290   0.921   9.020  0.3602  0.0788 -0.0873
 4394SOL    HW124644   2.350   0.913   9.094  0.9441  0.4341 -0.5231
 4394SOL    HW224645   2.241   1.000   9.040  1.8330  0.6970  1.0444
 4395SOL     OW24646   2.524   1.401   2.658  0.2910 -0.2238 -0.8375
 4395SOL    HW124647   2.438   1.444   2.659 -0.1560 -1.1305 -0.0168
 4395SOL    HW224648   2.521   1.362   2.571  1.3466  0.4089 -1.1636
 4396SOL     OW24649   2.905   2.363   8.074 -0.1994 -0.8197 -0.0318
 4396SOL    HW124650   2.950   2.279   8.082  1.2898 -0.1651 -1.5342
 4396SOL    HW224651   2.825   2.338   8.120 -1.4071 -0.9137 -2.1783
 4397SOL     OW24652   3.263   3.860   3.662 -0.1734  0.0124  0.2492
 4397SOL    HW124653   3.209   3.855   3.584 -0.7268  2.3595  0.4832
 4397SOL    HW224654   3.235   3.782   3.710 -0.9884 -0.1311 -0.4794
 4398SOL     OW24655   1.040   0.083   1.164 -0.1108 -0.0795  0.0432
 4398SOL    HW124656   1.077   0.006   1.119  0.8643  0.8881 -0.8042
 4398SOL    HW224657   0.964   0.096   1.108 -0.0765 -0.4078 -0.0840
 4399SOL     OW24658   2.788   3.359   8.351 -0.6786 -0.4592 -0.6806
 4399SOL    HW124659   2.706   3.377   8.303 -0.0913  1.9554 -0.7990
 4399SOL    HW224660   2.749   3.368   8.438 -0.1213 -2.1150 -0.2606
 4400SOL     OW24661   2.894   3.341   4.935  0.0495 -0.7030 -0.3667
 4400SOL    HW124662   2.986   3.352   4.960 -0.0619  1.1046 -0.7659
 4400SOL    HW224663   2.850   3.374   5.014  0.9480 -2.8593  1.0372
 4401SOL     OW24664   4.403   2.490   5.120  0.0137  0.1581 -0.4050
 4401SOL    HW124665   4.400   2.481   5.215  0.8266  0.8325 -0.3095
 4401SOL    HW224666   4.309   2.484   5.103 -0.3251 -0.4790  1.8146
 4402SOL     OW24667   2.317   3.532   5.296 -0.1109  0.2485  0.2220
 4402SOL    HW124668   2.386   3.502   5.356  0.7104  2.9740  0.6389
 4402SOL    HW224669   2.298   3.621   5.326 -0.3259  1.1317 -2.5039
 4403SOL     OW24670   3.366   3.379   4.550 -0.2043  0.1375  0.5170
 4403SOL    HW124671   3.297   3.438   4.580 -1.3101  0.2420 -2.1735
 4403SOL    HW224672   3.325   3.345   4.470  3.1414 -1.5734 -0.4551
 4404SOL     OW24673   4.351   2.311   5.449 -0.3531  0.3616  0.0194
 4404SOL    HW124674   4.406   2.324   5.526  0.3419 -1.4917 -0.1667
 4404SOL    HW224675   4.397   2.235   5.413  0.1927  0.9640 -0.5464
 4405SOL     OW24676   3.034   3.564   4.376 -0.3771  0.1212 -0.3460
 4405SOL    HW124677   2.964   3.585   4.314 -1.4075 -2.9368 -0.2112
 4405SOL    HW224678   3.091   3.515   4.317 -0.3666 -1.5402  1.0585
 4406SOL     OW24679   2.047   1.946  17.507 -0.5845 -0.0113  0.1975
 4406SOL    HW124680   1.995   1.866  17.512 -1.4999  0.5081 -1.2426
 4406SOL    HW224681   2.102   1.927  17.431 -2.2019 -3.5325 -0.0743
 4407SOL     OW24682   0.342   4.228   5.468 -0.4880  0.0995  0.8041
 4407SOL    HW124683   0.367   4.188   5.551  0.2712 -2.0944 -0.4705
 4407SOL    HW224684   0.283   4.162   5.432 -0.8205  0.7327  0.1763
 4408SOL     OW24685   0.553   1.142   0.700  0.8293 -0.1988 -0.2649
 4408SOL    HW124686   0.594   1.059   0.674  0.5931 -0.2127 -0.5994
 4408SOL    HW224687   0.564   1.192   0.620 -0.3982 -1.4528 -1.2243
 4409SOL     OW24688   3.381   0.434   2.612 -0.2910  0.1441  0.2896
 4409SOL    HW124689   3.333   0.356   2.587  0.6153 -0.2382 -0.2697
 4409SOL    HW224690   3.435   0.445   2.534 -0.6628 -1.0158 -0.1225
 4410SOL     OW24691   0.099   3.018  17.463 -0.1732  0.0949 -0.0827
 4410SOL    HW124692   0.075   2.952  17.398 -0.3566 -1.2294  1.3364
 4410SOL    HW224693   0.159   2.967  17.517  2.0349 -0.0289 -2.6459
 4411SOL     OW24694   1.264   2.373   8.816 -0.0034  0.2393 -0.4370
 4411SOL    HW124695   1.328   2.308   8.848  0.2589  0.3718 -0.6885
 4411SOL    HW224696   1.260   2.428   8.894  0.7479  1.2484 -1.1068
 4412SOL     OW24697   2.554   1.975   2.211  0.5470  0.2597 -0.2440
 4412SOL    HW124698   2.626   1.913   2.221  0.7091 -0.0085 -2.8250
 4412SOL    HW224699   2.595   2.061   2.214 -1.0431  0.9420  1.1911
 4413SOL     OW24700   4.000   2.620   2.165  0.4238  0.6114 -0.0290
 4413SOL    HW124701   4.064   2.550   2.153  0.2311  0.0686  2.0499
 4413SOL    HW224702   3.931   2.592   2.104  0.2415 -3.4575  2.0714
 4414SOL     OW24703   0.578   1.914   3.284  0.5572 -0.0129  0.0379
 4414SOL    HW124704   0.658   1.939   3.239  0.7869  0.8419  0.9288
 4414SOL    HW224705   0.604   1.906   3.376 -0.1299  0.4808  0.2705
 4415SOL     OW24706   2.105   0.704   0.926  0.0215  0.3241 -0.0631
 4415SOL    HW124707   2.101   0.798   0.944 -1.1997  0.7598 -2.5859
 4415SOL    HW224708   2.178   0.692   0.865 -1.7787 -1.5792 -1.8526
 4416SOL     OW24709   2.333   1.674   2.792  0.0447  0.0112 -0.0738
 4416SOL    HW124710   2.285   1.595   2.817  1.0339 -0.1600  1.2890
 4416SOL    HW224711   2.325   1.658   2.698  0.6694 -0.0969 -0.1056
 4417SOL     OW24712   2.719   0.631   7.963  0.3239  0.5046  0.0435
 4417SOL    HW124713   2.727   0.560   7.898 -2.2659  0.2499  0.0146
 4417SOL    HW224714   2.810   0.617   7.990  0.6841 -0.2164 -1.5253
 4418SOL     OW24715   2.310   3.263   7.666  0.4623 -0.1889  0.3003
 4418SOL    HW124716   2.303   3.241   7.573  1.3781 -0.6030  0.3253
 4418SOL    HW224717   2.346   3.178   7.694  0.5359  0.5199  2.3752
 4419SOL     OW24718   4.159   1.253   9.722 -0.0488  0.4628  0.0083
 4419SOL    HW124719   4.152   1.341   9.759 -1.4112 -0.5290  2.1410
 4419SOL    HW224720   4.206   1.275   9.642  1.9330  1.0189  1.3037
 4420SOL     OW24721   4.054   3.344   8.136 -0.1507 -0.0831  0.0357
 4420SOL    HW124722   4.149   3.357   8.134 -0.2341  0.5747  0.5786
 4420SOL    HW224723   4.012   3.417   8.090 -0.2342 -0.1770 -0.0358
 4421SOL     OW24724   2.187   4.166   8.882  0.1514  0.1761  0.4866
 4421SOL    HW124725   2.247   4.092   8.883  0.5034  0.4467 -0.8718
 4421SOL    HW224726   2.106   4.116   8.890 -0.6690  1.1164 -1.8472
 4422SOL     OW24727   3.853   0.111   9.174  0.1288  0.3114  0.1850
 4422SOL    HW124728   3.825   0.192   9.216 -0.0549  0.4614 -0.2330
 4422SOL    HW224729   3.772   0.060   9.180 -0.4579  1.1471 -0.5549
 4423SOL     OW24730   3.598   3.108   8.488 -0.3205 -0.7221 -0.3763
 4423SOL    HW124731   3.575   3.096   8.580  1.6030 -0.2152  0.1579
 4423SOL    HW224732   3.658   3.037   8.465  0.2635  0.1508 -1.5371
 4424SOL     OW24733   2.312   3.064   0.700 -0.8682  0.2039 -0.1513
 4424SOL    HW124734   2.361   3.141   0.729  0.0807 -0.3564 -0.2601
 4424SOL    HW224735   2.281   3.037   0.787 -0.6215 -1.8769 -0.7154
 4425SOL     OW24736   3.583   1.448  12.577 -0.6704  0.5391  0.0522
 4425SOL    HW124737   3.526   1.449  12.500 -2.4125  2.1684  1.3379
 4425SOL    HW224738   3.614   1.539  12.576  0.5773  0.0871 -1.1864
 4426SOL     OW24739   2.131   0.622   5.945 -0.0180  0.0046 -0.0108
 4426SOL    HW124740   2.106   0.567   6.019 -0.9150  1.6914  0.9391
 4426SOL    HW224741   2.048   0.647   5.903  0.8349  1.5559 -0.7662
 4427SOL     OW24742   4.578   3.286   3.075 -0.7174 -0.3455 -0.0436
 4427SOL    HW124743   4.630   3.217   3.116 -0.3332 -0.0371 -0.0122
 4427SOL    HW224744   4.582   3.360   3.136 -2.7560  0.3804 -0.7815
 4428SOL     OW24745   2.284   2.829   2.566 -0.0870  0.6390 -0.6063
 4428SOL    HW124746   2.369   2.789   2.588 -0.1762  0.7067 -0.1359
 4428SOL    HW224747   2.288   2.839   2.471  3.4425  0.9164 -0.4485
 4429SOL     OW24748   0.700   1.437   3.277  0.8131 -0.3739  0.6358
 4429SOL    HW124749   0.677   1.420   3.368  2.0081  0.7311  1.1380
 4429SOL    HW224750   0.740   1.523   3.291  2.4639 -1.0110 -0.0323
 4430SOL     OW24751   2.253   2.309   3.282  0.3131  0.6596 -0.1159
 4430SOL    HW124752   2.252   2.345   3.193 -2.3152  0.9878  0.0513
 4430SOL    HW224753   2.204   2.228   3.273  0.8949  0.1900  0.9661
 4431SOL     OW24754   1.267   1.804  15.892  0.3562 -0.2951  0.1938
 4431SOL    HW124755   1.302   1.739  15.830  1.1410 -0.8281  1.1924
 4431SOL    HW224756   1.211   1.750  15.949  0.9563  0.0331  1.0850
 4432SOL     OW24757   1.646   0.862   8.155 -0.5558 -0.2499  0.1725
 4432SOL    HW124758   1.573   0.874   8.095 -1.2382  0.5709  1.1644
 4432SOL    HW224759   1.706   0.931   8.126 -1.3853 -0.5170 -2.1927
 4433SOL     OW24760   2.370   0.471  16.871  0.3235 -0.0937 -0.2689
 4433SOL    HW124761   2.357   0.456  16.965 -2.4495 -0.7390 -0.7520
 4433SOL    HW224762   2.422   0.552  16.872  1.2073 -0.6555 -0.2008
 4434SOL     OW24763   2.005   2.656   6.682 -0.5847  0.6620  0.1200
 4434SOL    HW124764   2.014   2.584   6.745 -0.9867 -0.0212 -0.5895
 4434SOL    HW224765   2.095   2.668   6.652  0.1223 -0.5390  1.7636
 4435SOL     OW24766   1.109   1.969   8.611 -0.1280  0.2125  0.4519
 4435SOL    HW124767   1.140   1.993   8.524 -1.8265 -1.7717 -0.6900
 4435SOL    HW224768   1.165   1.900   8.646 -0.4913 -0.3765 -0.1208
 4436SOL     OW24769   0.069   0.593  10.199 -0.3535 -0.8702  0.2564
 4436SOL    HW124770   4.698   0.619  10.216  0.2277  1.6897 -0.5211
 4436SOL    HW224771   0.062   0.596  10.103 -0.3117 -0.0692  0.2763
 4437SOL     OW24772   0.877   0.875   6.958 -0.1753  0.5078 -0.0428
 4437SOL    HW124773   0.805   0.935   6.942 -0.1970  0.6009  0.4111
 4437SOL    HW224774   0.944   0.940   6.975 -0.9083  2.0450 -3.0255
 4438SOL     OW24775   3.856   0.869   7.821  0.1308 -0.4142 -0.9251
 4438SOL    HW124776   3.852   0.963   7.836 -1.2727 -0.1877 -2.8068
 4438SOL    HW224777   3.764   0.842   7.832  0.1082 -0.6647 -1.7969
 4439SOL     OW24778   2.241   0.936   5.821  0.2140  0.3074  0.5093
 4439SOL    HW124779   2.304   0.903   5.885  2.5519 -0.5192 -2.2413
 4439SOL    HW224780   2.225   1.027   5.849 -1.9980  0.3410 -0.8340
 4440SOL     OW24781   4.109   0.840   3.028  0.3192 -0.0055  0.1617
 4440SOL    HW124782   4.125   0.928   3.061  2.8915  0.2917 -1.8589
 4440SOL    HW224783   4.091   0.793   3.109  0.5770 -0.6906 -0.1696
 4441SOL     OW24784   2.719   1.615   6.120  0.3890 -0.4041  0.0931
 4441SOL    HW124785   2.658   1.637   6.190  0.2117  1.1600 -0.5460
 4441SOL    HW224786   2.708   1.520   6.120  0.0381 -0.3743 -1.3126
 4442SOL     OW24787   2.102   2.874   5.530  0.2795  0.0014  0.8117
 4442SOL    HW124788   2.161   2.823   5.475 -1.2923 -0.4823 -0.4330
 4442SOL    HW224789   2.041   2.897   5.459  0.9133  1.4383  0.7313
 4443SOL     OW24790   2.856   1.387   3.007  0.1069  0.7776  0.0533
 4443SOL    HW124791   2.878   1.386   3.100  2.6416 -2.5311 -0.6055
 4443SOL    HW224792   2.761   1.381   3.013  0.0470  1.1902 -0.4601
 4444SOL     OW24793   4.251   1.922  16.262  0.3092  0.1833  0.3580
 4444SOL    HW124794   4.343   1.939  16.243  0.7066 -2.5382 -0.0169
 4444SOL    HW224795   4.244   1.993  16.326  2.1708  0.8030 -0.1481
 4445SOL     OW24796   2.596   3.036   1.652 -0.5601  0.5208 -0.6734
 4445SOL    HW124797   2.537   3.033   1.576  1.0821 -0.2464 -1.9262
 4445SOL    HW224798   2.541   3.021   1.729 -3.2934  3.1572 -2.0836
 4446SOL     OW24799   4.364   2.555   5.833  0.4096  0.6400 -0.6948
 4446SOL    HW124800   4.298   2.585   5.770 -1.1970  0.3920  0.8703
 4446SOL    HW224801   4.316   2.499   5.894  0.5393  0.8862 -0.3721
 4447SOL     OW24802   3.469   0.663  13.076 -0.1611 -0.2250 -0.3367
 4447SOL    HW124803   3.496   0.574  13.054 -2.5167 -0.8392 -0.7481
 4447SOL    HW224804   3.523   0.685  13.152  0.1957 -1.1996 -0.3014
 4448SOL     OW24805   0.216   4.657   1.888  0.0269 -0.2675  0.0825
 4448SOL    HW124806   0.300   4.694   1.859  0.1414  0.7306  1.6990
 4448SOL    HW224807   0.219   4.679   1.981  1.0947 -0.0358  0.0038
 4449SOL     OW24808   3.415   0.807   3.718  0.2421 -0.0282  0.1085
 4449SOL    HW124809   3.415   0.861   3.797 -0.2157 -2.4932  1.8001
 4449SOL    HW224810   3.438   0.862   3.643 -0.2726 -0.4851 -0.3895
 4450SOL     OW24811   1.308   2.337   9.275 -0.1470  0.3128  0.4187
 4450SOL    HW124812   1.402   2.319   9.282 -0.0765  0.3463 -0.4332
 4450SOL    HW224813   1.273   2.306   9.359 -0.3747  0.2638  0.3044
 4451SOL     OW24814   3.259   1.990   6.062 -0.2734  0.0351 -0.4798
 4451SOL    HW124815   3.224   1.941   5.988  0.3926 -0.7538 -0.2778
 4451SOL    HW224816   3.349   1.993   6.031 -0.2998  0.2525 -0.5284
 4452SOL     OW24817   3.233   0.705   2.894 -0.4711 -0.0736 -0.2832
 4452SOL    HW124818   3.249   0.789   2.937  1.2021 -0.5024 -0.0809
 4452SOL    HW224819   3.145   0.683   2.925  0.5395 -1.4540  1.5671
 4453SOL     OW24820   3.308   1.932  17.456  0.0678  0.3966  0.4843
 4453SOL    HW124821   3.311   1.839  17.478  1.0093  0.2577 -0.2306
 4453SOL    HW224822   3.276   1.969  17.539 -2.2157  1.7786 -1.0233
 4454SOL     OW24823   0.555   2.655   1.998  0.8769 -0.2718 -0.5780
 4454SOL    HW124824   0.524   2.566   2.014  0.1763  0.2434  0.9082
 4454SOL    HW224825   0.600   2.643   1.914  1.4601  0.8058 -0.4131
 4455SOL     OW24826   0.728   2.843   5.253  0.2737  0.0363 -0.1681
 4455SOL    HW124827   0.768   2.833   5.166  0.9783  1.5446 -0.0145
 4455SOL    HW224828   0.727   2.938   5.265 -0.1081  0.0352 -0.2106
 4456SOL     OW24829   0.464   1.623   1.689  0.3670 -0.3926 -0.1461
 4456SOL    HW124830   0.491   1.665   1.607  0.9439 -0.2280  0.1331
 4456SOL    HW224831   0.374   1.604   1.660  0.0923 -0.7689  0.9658
 4457SOL     OW24832   2.692   3.559   0.614  0.0051 -0.0458  0.1023
 4457SOL    HW124833   2.735   3.605   0.687  0.9833  0.4279 -0.7639
 4457SOL    HW224834   2.616   3.531   0.665  0.8168 -0.2371  1.2229
 4458SOL     OW24835   4.139   0.922  15.565 -0.0287 -0.0917 -0.2096
 4458SOL    HW124836   4.134   1.012  15.534 -1.0448  0.2801  1.0204
 4458SOL    HW224837   4.191   0.884  15.494 -1.3954  0.5285 -1.5407
 4459SOL     OW24838   3.247   1.129   6.146  0.7441 -0.1896  0.1193
 4459SOL    HW124839   3.296   1.188   6.204 -0.9863  1.9739 -0.6199
 4459SOL    HW224840   3.277   1.042   6.174  2.4432  0.9070  1.7163
 4460SOL     OW24841   0.924   3.049  16.334  0.0949 -0.2080  0.0216
 4460SOL    HW124842   1.005   3.046  16.284  1.8874 -2.5141  3.0834
 4460SOL    HW224843   0.891   2.961  16.317 -2.1042  0.6718 -0.2719
 4461SOL     OW24844   0.877   0.978   7.866  0.1555  0.6414  0.4856
 4461SOL    HW124845   0.863   1.023   7.949  1.4651  0.3844  0.8510
 4461SOL    HW224846   0.871   1.054   7.809  1.1564 -0.2993 -0.8814
 4462SOL     OW24847   1.202   0.601   6.932  0.5388  0.2438  0.1388
 4462SOL    HW124848   1.140   0.577   6.863 -0.4849  2.6685  0.2346
 4462SOL    HW224849   1.157   0.571   7.011 -0.9517  1.3606 -0.2869
 4463SOL     OW24850   1.918   2.616   2.201 -0.5929 -0.1512 -0.1070
 4463SOL    HW124851   1.825   2.631   2.222 -0.3437 -0.0575  0.9154
 4463SOL    HW224852   1.930   2.677   2.128 -0.9679  1.1523  0.9154
 4464SOL     OW24853   2.914   4.053   6.960  0.0997 -0.0704  0.7464
 4464SOL    HW124854   2.961   3.975   6.988  0.0128 -0.6796 -0.7827
 4464SOL    HW224855   2.922   4.113   7.034 -1.6783  1.4045 -0.2662
 4465SOL     OW24856   3.808   3.287   5.277 -0.4007  0.1008 -0.2208
 4465SOL    HW124857   3.795   3.288   5.372  0.1170 -3.3604 -0.1321
 4465SOL    HW224858   3.860   3.210   5.256 -0.8943 -0.2020 -0.3427
 4466SOL     OW24859   4.432   1.052   4.824 -0.2197  0.5179 -0.0494
 4466SOL    HW124860   4.375   1.027   4.750 -0.9173 -1.9535  1.3128
 4466SOL    HW224861   4.379   1.002   4.887 -0.2987  0.4643 -0.1573
 4467SOL     OW24862   4.429   2.574  13.049 -0.0458 -0.2462 -0.2627
 4467SOL    HW124863   4.363   2.628  13.006 -1.5326 -0.4514  1.7572
 4467SOL    HW224864   4.453   2.617  13.131 -2.6092 -0.6169  0.6840
 4468SOL     OW24865   1.833   4.347   2.992  0.0661  0.7978  0.2193
 4468SOL    HW124866   1.778   4.285   2.944  2.0219 -0.2830 -0.6118
 4468SOL    HW224867   1.778   4.423   2.971  1.0701  1.6413  0.6843
 4469SOL     OW24868   4.245   1.302  11.613 -0.1525  0.3125 -0.1757
 4469SOL    HW124869   4.229   1.390  11.649 -0.0618 -0.7619  2.4726
 4469SOL    HW224870   4.213   1.256  11.691  1.2381 -0.7975 -0.2626
 4470SOL     OW24871   4.446   0.820   8.443  0.1179 -0.2626  0.2674
 4470SOL    HW124872   4.398   0.862   8.515  2.5253  0.9795  1.1393
 4470SOL    HW224873   4.493   0.890   8.398  0.8884 -1.3702 -0.6333
 4471SOL     OW24874   3.165   1.499   8.863  0.8282 -0.3750 -0.1149
 4471SOL    HW124875   3.115   1.422   8.889  0.6276 -0.4244 -0.6439
 4471SOL    HW224876   3.178   1.548   8.944 -1.7781 -0.5842  0.4469
 4472SOL     OW24877   2.877   0.641   5.185  0.2182  0.2113  0.0426
 4472SOL    HW124878   2.851   0.701   5.115  0.6628  2.0924  1.5106
 4472SOL    HW224879   2.809   0.574   5.177 -1.1293  1.2747  2.6242
 4473SOL     OW24880   2.458   2.083  17.580  0.0298 -0.2232  0.1562
 4473SOL    HW124881   2.474   1.988  17.582  0.7960 -0.0885  0.6480
 4473SOL    HW224882   2.473   2.105  17.672  3.3117  1.7153 -0.8238
 4474SOL     OW24883   3.613   2.781   9.631  0.8427 -0.0036 -0.2996
 4474SOL    HW124884   3.536   2.809   9.681  1.0001 -2.1342  1.1436
 4474SOL    HW224885   3.665   2.861   9.644 -1.9162  1.8503 -0.5598
 4475SOL     OW24886   4.245   1.127   5.633  0.0040  0.0599  0.0157
 4475SOL    HW124887   4.231   1.214   5.596 -1.8411 -0.2619 -0.0171
 4475SOL    HW224888   4.252   1.075   5.553  0.3772 -0.4345  0.3630
 4476SOL     OW24889   3.553   0.763   6.922  0.2259 -0.5965 -0.1339
 4476SOL    HW124890   3.569   0.707   6.846 -0.2090 -0.7557 -0.1064
 4476SOL    HW224891   3.635   0.742   6.969  1.1170 -0.3733 -1.5926
 4477SOL     OW24892   3.685   3.805  16.705 -0.3136 -0.1909 -0.2857
 4477SOL    HW124893   3.615   3.791  16.768  0.2320  1.7674  0.7642
 4477SOL    HW224894   3.708   3.712  16.706  3.0695  0.6141 -0.2099
 4478SOL     OW24895   0.306   3.801  11.209  0.3030 -0.2476  0.3535
 4478SOL    HW124896   0.369   3.872  11.208 -0.6596  0.6034  0.4665
 4478SOL    HW224897   0.221   3.841  11.193  0.7416  1.2311  1.7587
 4479SOL     OW24898   3.566   3.857   5.209 -0.1272  0.2688 -0.1579
 4479SOL    HW124899   3.650   3.904   5.206  0.6721 -0.9810  2.2361
 4479SOL    HW224900   3.534   3.895   5.290  0.3812  0.7515 -0.1851
 4480SOL     OW24901   2.436   0.477  17.302 -0.2885  0.4763  0.1399
 4480SOL    HW124902   2.491   0.416  17.352 -1.3593  0.9512  1.8961
 4480SOL    HW224903   2.497   0.552  17.305 -0.7776  0.8481  0.7736
 4481SOL     OW24904   0.146   4.123  16.631 -0.5463  0.5499 -0.7096
 4481SOL    HW124905   0.129   4.033  16.604 -0.2460 -0.0881  1.2878
 4481SOL    HW224906   0.077   4.166  16.580  1.0442  2.2613 -1.4312
 4482SOL     OW24907   0.443   2.380  10.807 -0.3880 -0.1317  0.2308
 4482SOL    HW124908   0.424   2.466  10.844  0.2666 -0.1290  0.5646
 4482SOL    HW224909   0.503   2.406  10.737  1.1521  0.4220  1.7373
 4483SOL     OW24910   2.756   2.686  11.904  0.0131 -0.4015 -0.4829
 4483SOL    HW124911   2.813   2.764  11.905  1.3588 -1.3442 -2.7339
 4483SOL    HW224912   2.671   2.728  11.914  0.2112  0.4909 -2.5395
 4484SOL     OW24913   4.149   2.166  10.441  0.9094 -0.7451 -0.0740
 4484SOL    HW124914   4.166   2.073  10.428  0.0571 -0.9039 -0.0837
 4484SOL    HW224915   4.232   2.201  10.475  1.0573 -0.1645 -1.0101
 4485SOL     OW24916   2.211   3.513   1.005  0.4016 -0.3078 -0.1665
 4485SOL    HW124917   2.170   3.492   0.921 -0.6234  1.1969 -0.0407
 4485SOL    HW224918   2.300   3.543   0.988  0.1212  0.1120 -0.9047
 4486SOL     OW24919   2.600   0.823   0.019 -0.1828  0.2276  1.2174
 4486SOL    HW124920   2.645   0.840   0.102  0.5511  1.6067  0.5294
 4486SOL    HW224921   2.677   0.824  17.645 -2.4352  0.4745 -1.8534
 4487SOL     OW24922   4.274   1.616   7.782 -0.5839 -0.1515 -0.2711
 4487SOL    HW124923   4.309   1.655   7.701 -1.2283  0.8732 -0.0569
 4487SOL    HW224924   4.210   1.556   7.743 -0.9065  0.0019  0.0203
 4488SOL     OW24925   3.130   4.079   3.200  0.1802 -0.2265 -0.3146
 4488SOL    HW124926   3.038   4.104   3.213  0.7449  0.4080  2.6058
 4488SOL    HW224927   3.125   4.002   3.144  0.3181  0.0659 -0.7294
 4489SOL     OW24928   0.453   1.222   6.822 -0.3419 -0.4731 -0.3328
 4489SOL    HW124929   0.366   1.196   6.851 -0.8246  0.8785 -0.5979
 4489SOL    HW224930   0.475   1.287   6.888  1.3251 -1.1070 -0.2632
 4490SOL     OW24931   1.709   2.830   2.084  0.2273 -0.4305  0.1758
 4490SOL    HW124932   1.625   2.866   2.113  0.0811 -2.3571  2.1543
 4490SOL    HW224933   1.760   2.911   2.077  0.0624 -0.6927 -4.0761
 4491SOL     OW24934   0.544   2.159   8.657  0.6041  0.1413 -0.0320
 4491SOL    HW124935   0.635   2.177   8.682  0.5563 -0.2326  0.3924
 4491SOL    HW224936   0.559   2.100   8.583  0.5525 -0.4991  0.4647
 4492SOL     OW24937   2.494   3.164   6.364  0.5528 -0.3262  0.1275
 4492SOL    HW124938   2.551   3.212   6.423  0.8829  0.1674 -0.6066
 4492SOL    HW224939   2.429   3.121   6.420  0.3567 -0.3645 -0.1260
 4493SOL     OW24940   1.197   2.900   6.856 -0.6668  0.4619  0.1272
 4493SOL    HW124941   1.200   2.828   6.793  0.8710  0.1849  0.5097
 4493SOL    HW224942   1.291   2.918   6.854 -0.5997  0.1864  0.6258
 4494SOL     OW24943   3.583   4.111  12.322  0.5900  0.4767  0.0712
 4494SOL    HW124944   3.592   4.190  12.269 -2.2863 -0.0574 -1.2173
 4494SOL    HW224945   3.495   4.120  12.360  0.2196  1.5046 -1.0510
 4495SOL     OW24946   3.122   0.545   4.402 -0.2602  0.1842  0.8376
 4495SOL    HW124947   3.052   0.540   4.468  0.0957 -1.6361  1.0947
 4495SOL    HW224948   3.165   0.460   4.416 -0.1723  0.1941  0.6223
 4496SOL     OW24949   2.324   0.839  11.144  0.3559 -0.2133  0.5298
 4496SOL    HW124950   2.328   0.782  11.221  0.1167  0.0560  0.7407
 4496SOL    HW224951   2.411   0.876  11.159  0.7585 -0.0405 -2.2980
 4497SOL     OW24952   3.778   1.326   1.306 -0.7291  0.0202  0.1396
 4497SOL    HW124953   3.730   1.325   1.223  0.3252 -1.5594 -0.4643
 4497SOL    HW224954   3.709   1.331   1.371  0.4813  1.0034  1.3322
 4498SOL     OW24955   1.783   2.708   6.544 -0.0917  0.1789 -0.0194
 4498SOL    HW124956   1.764   2.801   6.555 -1.8111 -0.2621  0.6280
 4498SOL    HW224957   1.861   2.686   6.596 -1.0096  0.4422  1.4593
 4499SOL     OW24958   4.108   4.231   2.259 -0.1177 -0.2789 -0.3320
 4499SOL    HW124959   4.023   4.188   2.262 -1.1747  1.8731  0.4779
 4499SOL    HW224960   4.107   4.280   2.177  1.1495  0.9410  0.3789
 4500SOL     OW24961   3.718   0.907   2.720  0.2260 -0.6478 -0.0161
 4500SOL    HW124962   3.781   0.974   2.695 -1.6329  0.3240 -2.1014
 4500SOL    HW224963   3.688   0.872   2.637 -2.0925  1.1976  0.0446
 4501SOL     OW24964   4.349   0.784   7.257  0.3881 -0.7788  0.1789
 4501SOL    HW124965   4.261   0.806   7.286  0.2389  0.8273 -1.4512
 4501SOL    HW224966   4.322   0.706   7.210  0.7871 -0.7742 -0.0580
 4502SOL     OW24967   3.059   1.675   3.883  0.0259 -0.6392  0.5012
 4502SOL    HW124968   3.128   1.709   3.939 -1.2083  1.2409  0.8664
 4502SOL    HW224969   3.006   1.750   3.856  2.0931  0.8519  0.5979
 4503SOL     OW24970   2.248   3.976   7.790 -0.3933  0.0870 -0.3590
 4503SOL    HW124971   2.231   3.882   7.793  1.9481 -0.3043  1.7220
 4503SOL    HW224972   2.171   4.010   7.835  0.2785  1.9723 -0.6321
 4504SOL     OW24973   2.735   1.511   3.818 -0.0592 -0.1281 -0.3813
 4504SOL    HW124974   2.700   1.593   3.855 -2.2667 -1.5471  0.6895
 4504SOL    HW224975   2.648   1.474   3.800 -0.1710 -0.1252  0.1489
 4505SOL     OW24976   1.304   1.518  11.689 -0.3217  0.0091 -0.3247
 4505SOL    HW124977   1.295   1.501  11.783  0.1134  0.4213 -0.2069
 4505SOL    HW224978   1.394   1.498  11.663 -0.5305  1.2264 -1.9705
 4506SOL     OW24979   4.252   4.055   4.667 -0.0351  0.1420 -0.6445
 4506SOL    HW124980   4.317   4.119   4.638 -0.2375  0.3475 -0.6366
 4506SOL    HW224981   4.180   4.115   4.682  0.0782 -0.0994  0.8309
 4507SOL     OW24982   1.612   1.146  15.010  0.3235 -0.0248 -0.1561
 4507SOL    HW124983   1.684   1.207  14.998  1.7626 -1.2275  2.3437
 4507SOL    HW224984   1.567   1.157  14.927  2.5857  2.0843 -1.0720
 4508SOL     OW24985   1.956   1.230   7.986  0.0784 -0.1433 -0.4276
 4508SOL    HW124986   1.982   1.243   7.895  2.7070 -2.7619 -0.0494
 4508SOL    HW224987   2.004   1.151   8.012  0.6950  0.2265 -0.4404
 4509SOL     OW24988   0.076   0.586   3.527 -0.2087 -0.2016  0.4952
 4509SOL    HW124989   0.012   0.551   3.465  2.6225 -1.5888 -1.6193
 4509SOL    HW224990   0.157   0.580   3.477 -1.9041 -0.9134 -2.1477
 4510SOL     OW24991   0.400   1.580   2.795 -0.2863 -0.4540 -0.8062
 4510SOL    HW124992   0.459   1.505   2.802  1.3775  1.0424  0.9790
 4510SOL    HW224993   0.412   1.603   2.703  4.0781 -1.0123 -0.3879
 4511SOL     OW24994   3.199   1.158   5.162  0.0257  0.3041 -0.5613
 4511SOL    HW124995   3.118   1.208   5.172  1.0536  1.6843  0.7610
 4511SOL    HW224996   3.196   1.091   5.231  1.4242  1.2660  0.4375
 4512SOL     OW24997   3.727   0.900   1.524 -0.3329  0.2350  0.0534
 4512SOL    HW124998   3.685   0.816   1.510 -0.6738  0.5686 -0.9851
 4512SOL    HW224999   3.649   0.949   1.501 -0.2842  0.3336  0.0991
 4513SOL     OW25000   2.966   4.667   1.936 -0.2201 -0.2746 -0.1409
 4513SOL    HW125001   3.015   4.604   1.884 -1.5979 -0.1190 -1.6245
 4513SOL    HW225002   2.963   0.022   1.876 -1.6128  0.0123  0.2901
 4514SOL     OW25003   3.910   1.806   8.489 -0.4770  0.3117 -0.0407
 4514SOL    HW125004   3.994   1.841   8.461 -1.2030  0.0561 -2.5509
 4514SOL    HW225005   3.904   1.859   8.569 -1.4891  0.7598 -0.4175
 4515SOL     OW25006   1.018   0.350  13.231  0.4051 -0.5654  0.2758
 4515SOL    HW125007   1.008   0.383  13.320  3.5266  0.5926  0.2014
 4515SOL    HW225008   0.951   0.283  13.243 -0.1307  0.1868  1.4840
 4516SOL     OW25009   2.076   2.762  12.880  0.6181 -0.5851 -0.3899
 4516SOL    HW125010   2.154   2.731  12.925  1.2501 -1.0631 -1.8181
 4516SOL    HW225011   2.094   2.854  12.863  0.7845  0.0094  2.9339
 4517SOL     OW25012   1.320   0.052   3.811 -0.4345 -0.5297 -0.6394
 4517SOL    HW125013   1.279   0.009   3.886  1.7409 -4.5747 -1.7706
 4517SOL    HW225014   1.389   0.110   3.842 -1.9827  1.5613 -1.0855
 4518SOL     OW25015   3.627   3.429   4.444  0.3468 -0.3152  0.3779
 4518SOL    HW125016   3.614   3.485   4.368 -1.0568 -0.0329  0.8236
 4518SOL    HW225017   3.537   3.415   4.472  0.0922  0.4127 -0.0872
 4519SOL     OW25018   1.023   1.071  12.972  0.5439 -0.1682 -0.4564
 4519SOL    HW125019   1.083   1.145  12.980 -0.2664  0.5351 -0.8866
 4519SOL    HW225020   0.994   1.070  13.063  1.2192  0.8351 -0.2387
 4520SOL     OW25021   3.398   3.545   7.192  0.1409 -0.2742  0.2692
 4520SOL    HW125022   3.386   3.637   7.168 -0.4176 -0.2031  0.8170
 4520SOL    HW225023   3.429   3.548   7.283 -2.2887 -0.6662  1.0854
 4521SOL     OW25024   2.668   1.975   4.900 -0.0774  0.2251 -0.0122
 4521SOL    HW125025   2.685   1.888   4.934  1.5827 -0.3426 -2.2432
 4521SOL    HW225026   2.579   1.955   4.873  0.7932 -1.1189 -1.8943
 4522SOL     OW25027   3.747   3.403   2.073 -0.6378  0.1039 -0.2443
 4522SOL    HW125028   3.677   3.340   2.092 -0.0048  0.0937  2.1207
 4522SOL    HW225029   3.719   3.479   2.124  0.0855  1.6054 -2.0746
 4523SOL     OW25030   0.117   0.915   8.184 -0.2399 -0.1390  0.1437
 4523SOL    HW125031   0.112   0.917   8.279 -2.6168 -1.6176  0.0722
 4523SOL    HW225032   0.076   1.000   8.167  1.5411  0.8986  1.1454
 4524SOL     OW25033   0.673   3.987   4.746  0.9070  0.5169  0.1270
 4524SOL    HW125034   0.653   3.906   4.794 -0.5180 -0.0119 -1.3642
 4524SOL    HW225035   0.592   4.008   4.700  1.6459  0.5405 -1.1483
 4525SOL     OW25036   3.581   2.343   1.608 -0.0508  0.2958 -0.0731
 4525SOL    HW125037   3.566   2.248   1.604  0.4809  0.2432 -0.7704
 4525SOL    HW225038   3.673   2.345   1.635 -0.5977  0.5126  1.8182
 4526SOL     OW25039   2.480   2.201   6.166 -0.0624 -0.2772 -0.4990
 4526SOL    HW125040   2.455   2.129   6.108  3.2461 -0.7137 -1.3586
 4526SOL    HW225041   2.540   2.155   6.224 -0.5806 -1.8624 -1.2223
 4527SOL     OW25042   3.768   4.086   4.490 -0.2013  0.1062 -0.0499
 4527SOL    HW125043   3.681   4.055   4.516 -0.3746  1.2134  0.7140
 4527SOL    HW225044   3.810   4.080   4.576 -1.6271 -0.2621  0.6349
 4528SOL     OW25045   1.333   4.651   5.310 -0.1346  0.2608 -0.0673
 4528SOL    HW125046   1.247   4.608   5.306 -0.6283  1.1351  1.0631
 4528SOL    HW225047   1.383   4.606   5.242  0.0879  0.6108 -0.1360
 4529SOL     OW25048   1.195   0.165   6.792  0.1524  0.1014  0.4980
 4529SOL    HW125049   1.242   0.094   6.835 -0.2427 -0.7325 -0.4313
 4529SOL    HW225050   1.108   0.128   6.805 -0.6959  1.0804 -2.1889
 4530SOL     OW25051   1.422   1.129   5.076 -0.7678  0.2211 -0.0222
 4530SOL    HW125052   1.469   1.208   5.104 -0.1920  0.8712 -2.8215
 4530SOL    HW225053   1.407   1.085   5.160  1.2174 -1.7477 -0.7026
 4531SOL     OW25054   1.770   3.649   7.792 -0.3911 -0.0582 -0.2882
 4531SOL    HW125055   1.724   3.732   7.802 -1.7284 -1.0453  1.7632
 4531SOL    HW225056   1.762   3.624   7.700  2.0221  0.3535 -0.6203
 4532SOL     OW25057   3.964   2.714   6.121 -0.2245  0.8633  0.9143
 4532SOL    HW125058   3.972   2.751   6.208  1.1287  1.6664  0.4379
 4532SOL    HW225059   3.952   2.620   6.138 -0.7097  0.6259 -0.6704
 4533SOL     OW25060   3.809   1.771   4.307 -0.3711  0.5079  0.7189
 4533SOL    HW125061   3.741   1.704   4.300  0.5567 -0.2953 -0.6920
 4533SOL    HW225062   3.763   1.850   4.279 -0.3379  1.2008  2.6120
 4534SOL     OW25063   1.697   4.442  12.300 -0.3231 -0.1297 -0.3168
 4534SOL    HW125064   1.788   4.424  12.325  0.5209  2.4571 -1.5764
 4534SOL    HW225065   1.706   4.437  12.205 -0.4531 -0.6486 -0.3041
 4535SOL     OW25066   3.424   4.185   0.282 -0.2713 -0.3160  0.1668
 4535SOL    HW125067   3.445   4.201   0.373  1.5867 -1.1074 -0.1118
 4535SOL    HW225068   3.461   4.262   0.239 -1.2622  0.3418  0.5110
 4536SOL     OW25069   4.629   4.167   9.708 -0.2413  0.7124 -0.1544
 4536SOL    HW125070   4.535   4.152   9.696 -0.5980  2.3739  0.5795
 4536SOL    HW225071   4.643   4.152   9.801  0.1842  3.2712  0.1854
 4537SOL     OW25072   0.591   2.085  10.508  0.2670  0.1090 -0.6989
 4537SOL    HW125073   0.578   2.135  10.428 -0.3580 -2.7170 -2.3499
 4537SOL    HW225074   0.499   2.060  10.522  0.5847 -0.5736  0.1438
 4538SOL     OW25075   3.592   4.146  12.601 -0.1092 -0.2780  0.4044
 4538SOL    HW125076   3.595   4.110  12.512  2.4458 -1.6541  1.0546
 4538SOL    HW225077   3.685   4.166  12.602  0.4923 -3.0659 -0.0100
 4539SOL     OW25078   2.800   2.057  14.564 -0.1329 -0.2768  0.8012
 4539SOL    HW125079   2.782   2.124  14.631  1.2981 -0.5239  1.4438
 4539SOL    HW225080   2.815   2.119  14.493  0.4951 -0.3812  0.8405
 4540SOL     OW25081   0.328   1.796  11.060  0.6510  0.4093  0.3110
 4540SOL    HW125082   0.351   1.706  11.083  2.1269  0.9083  0.7624
 4540SOL    HW225083   0.413   1.835  11.078  0.6139  1.5548 -1.9530
 4541SOL     OW25084   1.109   3.373   3.933 -0.0276 -0.2940 -0.1398
 4541SOL    HW125085   1.031   3.398   3.982 -0.6543 -2.3120 -0.1237
 4541SOL    HW225086   1.174   3.371   4.004 -1.8959  0.7964  1.5761
 4542SOL     OW25087   1.371   0.617   7.288  0.1229 -0.6888  0.2937
 4542SOL    HW125088   1.311   0.581   7.223  1.5973  0.4784 -1.7225
 4542SOL    HW225089   1.379   0.544   7.348 -1.1471 -0.9175  0.1744
 4543SOL     OW25090   3.999   4.307   7.830 -0.2417 -0.2821 -0.3036
 4543SOL    HW125091   4.034   4.363   7.761  1.8617  1.0396  1.8418
 4543SOL    HW225092   3.937   4.255   7.779 -0.7437 -1.1533  1.2102
 4544SOL     OW25093   1.156   2.074   2.256 -0.4435  0.5726 -0.0139
 4544SOL    HW125094   1.179   2.128   2.180  4.1342 -0.2777  0.7642
 4544SOL    HW225095   1.174   2.133   2.328  1.7856  1.5077 -1.3333
 4545SOL     OW25096   4.470   1.848   8.224 -0.0149  0.2670  0.1785
 4545SOL    HW125097   4.555   1.860   8.267 -0.2856 -2.1082  1.3501
 4545SOL    HW225098   4.499   1.826   8.135  0.7622  0.5176  0.3691
 4546SOL     OW25099   4.463   1.999   3.466 -0.1902 -0.5166  0.2304
 4546SOL    HW125100   4.452   2.010   3.371 -1.6947  2.5804  0.7679
 4546SOL    HW225101   4.420   2.069   3.515 -2.9302 -0.7215 -1.9308
 4547SOL     OW25102   2.392   3.963   3.841 -0.3128 -0.2782  0.4707
 4547SOL    HW125103   2.487   3.949   3.841 -0.0898  1.1974  0.9744
 4547SOL    HW225104   2.388   4.016   3.761  1.2062  0.8920  1.1589
 4548SOL     OW25105   3.110   3.158   4.649 -0.2101  0.2042  0.2645
 4548SOL    HW125106   3.110   3.250   4.672  0.3045  0.1393  0.5144
 4548SOL    HW225107   3.184   3.147   4.589 -0.9092  2.7958 -1.0577
 4549SOL     OW25108   0.282   3.702   1.238 -0.5595  0.4487 -0.5245
 4549SOL    HW125109   0.254   3.620   1.199  0.2382 -1.7735  3.5514
 4549SOL    HW225110   0.351   3.736   1.180  1.8477 -0.6117  1.6886
 4550SOL     OW25111   2.621   1.177   4.260  0.0810  0.1134  0.3806
 4550SOL    HW125112   2.629   1.193   4.354 -0.4858 -1.7490  0.7446
 4550SOL    HW225113   2.630   1.266   4.225  2.2974 -0.4896 -0.5745
 4551SOL     OW25114   3.868   2.494   8.559 -0.6490  0.4263  0.0338
 4551SOL    HW125115   3.804   2.436   8.600 -0.6059 -0.7266 -1.5289
 4551SOL    HW225116   3.941   2.432   8.568 -0.8299  0.2233  0.1070
 4552SOL     OW25117   4.485   4.029   2.377 -0.3408  0.5479 -0.2378
 4552SOL    HW125118   4.517   4.120   2.374 -2.1053  1.2066  0.9687
 4552SOL    HW225119   4.440   4.015   2.294  1.2138 -1.4012 -0.7403
 4553SOL     OW25120   1.632   2.578   5.307  0.1360  0.7070  0.1826
 4553SOL    HW125121   1.559   2.556   5.249 -0.2659  1.4686  0.3906
 4553SOL    HW225122   1.638   2.501   5.363  2.6136  0.6817 -0.1241
 4554SOL     OW25123   3.995   1.124   8.086 -0.4478  0.2662  0.1988
 4554SOL    HW125124   3.938   1.189   8.128  1.2176 -0.2046  3.2188
 4554SOL    HW225125   3.945   1.093   8.011 -0.5845 -0.0472  0.4217
 4555SOL     OW25126   1.262   4.474  14.604  0.4099 -0.0003  0.7946
 4555SOL    HW125127   1.254   4.542  14.671  0.7113 -0.4967  1.3415
 4555SOL    HW225128   1.278   4.532  14.529 -2.5926  0.4871  0.5403
 4556SOL     OW25129   0.588   1.391   7.966  0.5526 -0.0754  0.2320
 4556SOL    HW125130   0.595   1.349   8.051 -1.1913  0.3484  0.5886
 4556SOL    HW225131   0.495   1.416   7.965  0.4525 -0.4697 -0.3684
 4557SOL     OW25132   2.422   3.954  14.848  0.4857  0.5545 -0.6485
 4557SOL    HW125133   2.437   4.032  14.901  0.1245  1.0315 -1.2474
 4557SOL    HW225134   2.339   3.934  14.892  0.5632  3.5412  0.8807
 4558SOL     OW25135   3.742   3.240   4.257  0.2020 -0.0766  0.0240
 4558SOL    HW125136   3.713   3.330   4.270  1.7045  0.0393  2.6148
 4558SOL    HW225137   3.712   3.214   4.170  0.4621  0.9990 -0.3913
 4559SOL     OW25138   1.616   3.131   6.075 -0.0398  0.3655 -0.1127
 4559SOL    HW125139   1.564   3.052   6.090  0.1346  0.4740  1.1272
 4559SOL    HW225140   1.592   3.191   6.147 -0.9177  0.3267 -0.3705
 4560SOL     OW25141   3.184   3.332   3.760 -0.0419 -0.0044 -0.6448
 4560SOL    HW125142   3.112   3.279   3.793  1.6194 -1.9044 -0.0799
 4560SOL    HW225143   3.186   3.293   3.672 -1.9734 -1.0902 -0.1982
 4561SOL     OW25144   0.193   3.653  10.117 -0.0175 -0.4278 -0.1266
 4561SOL    HW125145   0.255   3.699  10.174  0.5924 -0.9184 -0.4007
 4561SOL    HW225146   0.232   3.569  10.095 -1.8666 -1.1823 -0.4223
 4562SOL     OW25147   2.934   4.281   7.879  0.2220 -0.1802  0.1728
 4562SOL    HW125148   2.859   4.233   7.914 -0.2018  1.0473  0.9497
 4562SOL    HW225149   2.902   4.371   7.878 -1.1716 -0.6765 -3.2432
 4563SOL     OW25150   3.075   2.536  15.501  0.2974 -0.0166  0.0840
 4563SOL    HW125151   3.040   2.552  15.588 -0.7705  0.7660 -0.4823
 4563SOL    HW225152   2.991   2.550  15.457 -0.9570  0.9512  2.8246
 4564SOL     OW25153   2.803   1.468   0.233 -0.3116  0.7984 -0.3263
 4564SOL    HW125154   2.869   1.461   0.302 -0.0956 -0.2344 -0.6346
 4564SOL    HW225155   2.733   1.412   0.267  0.3401  1.3383  1.9284
 4565SOL     OW25156   3.915   2.099   0.779 -0.3085  0.0939  0.1833
 4565SOL    HW125157   3.883   2.047   0.853  1.5455 -1.6500 -0.2239
 4565SOL    HW225158   3.834   2.132   0.742 -1.3592 -0.3599  2.0955
 4566SOL     OW25159   1.406   0.133  14.485 -1.1022 -0.4642  0.0252
 4566SOL    HW125160   1.400   0.108  14.393 -1.0367  0.2843 -0.1792
 4566SOL    HW225161   1.386   0.046  14.520 -0.3849 -0.0509  1.4699
 4567SOL     OW25162   2.847   3.549   1.604 -0.4497 -0.4554  0.1801
 4567SOL    HW125163   2.933   3.524   1.570 -0.9288 -0.1311 -1.2778
 4567SOL    HW225164   2.839   3.480   1.669 -1.5295 -0.7961 -0.3039
 4568SOL     OW25165   1.083   4.073   6.211  0.2406 -0.0882 -0.4667
 4568SOL    HW125166   1.082   4.111   6.299 -2.3208  0.5279 -0.7610
 4568SOL    HW225167   0.989   4.061   6.196  0.9484 -3.6815 -2.0137
 4569SOL     OW25168   1.159   2.840  11.074  0.4419  0.6277  0.1031
 4569SOL    HW125169   1.162   2.792  11.156 -0.1838  1.4942  0.6277
 4569SOL    HW225170   1.175   2.930  11.105 -0.6453  0.3361  1.5044
 4570SOL     OW25171   0.469   2.528   7.157  0.2770  0.5189 -0.0827
 4570SOL    HW125172   0.401   2.471   7.192  0.4838 -0.5366 -1.3877
 4570SOL    HW225173   0.483   2.479   7.076  1.7259  0.8667 -0.0440
 4571SOL     OW25174   3.963   4.267   6.979  0.1354 -0.7536  0.0282
 4571SOL    HW125175   3.875   4.275   7.015  0.3553  1.4376  0.0623
 4571SOL    HW225176   3.959   4.336   6.913  1.5338 -0.8977 -0.2108
 4572SOL     OW25177   4.513   1.383   2.568 -0.5592 -0.6739 -0.0184
 4572SOL    HW125178   4.597   1.351   2.535 -1.7387 -3.4173 -0.3524
 4572SOL    HW225179   4.467   1.300   2.580  0.7265 -1.5328 -0.9065
 4573SOL     OW25180   4.513   1.190  16.505 -0.2087 -0.3460 -0.0717
 4573SOL    HW125181   4.447   1.244  16.548  2.5048  0.1396  3.4939
 4573SOL    HW225182   4.453   1.132  16.459 -0.8991  2.0900 -2.2446
 4574SOL     OW25183   4.242   2.754   5.224 -0.1385 -0.2447  0.2730
 4574SOL    HW125184   4.302   2.699   5.275 -0.0190 -0.0704  0.3205
 4574SOL    HW225185   4.183   2.690   5.184  0.2549 -1.7320  2.0796
 4575SOL     OW25186   0.138   2.030   3.713 -0.4428 -0.0586 -0.1542
 4575SOL    HW125187   0.223   2.047   3.672 -0.5319  0.6981 -0.0217
 4575SOL    HW225188   0.087   2.097   3.667  1.0853  1.6754  0.7005
 4576SOL     OW25189   2.625   2.935   0.346  0.2074 -0.0775  0.6227
 4576SOL    HW125190   2.607   2.842   0.355  2.0668 -0.4954  0.0019
 4576SOL    HW225191   2.707   2.939   0.394 -0.5912 -0.7995  2.0426
 4577SOL     OW25192   1.096   1.232   6.640  0.3101  0.0708 -0.0343
 4577SOL    HW125193   1.171   1.290   6.647 -0.8636  1.5616  0.0814
 4577SOL    HW225194   1.125   1.153   6.687  0.0697 -0.9649 -1.6209
 4578SOL     OW25195   2.197   1.091   2.876 -0.0491 -0.3051  0.0300
 4578SOL    HW125196   2.139   1.156   2.914 -0.9229 -0.8422 -0.3696
 4578SOL    HW225197   2.162   1.079   2.787  3.0140  3.0494 -1.5857
 4579SOL     OW25198   0.829   1.416   4.232  0.3289  0.3380  0.2828
 4579SOL    HW125199   0.921   1.412   4.205  0.3400  0.3891  0.3141
 4579SOL    HW225200   0.810   1.327   4.200  1.3215  1.4357 -3.3576
 4580SOL     OW25201   1.544   2.117  13.245  0.4048 -0.0205 -0.4605
 4580SOL    HW125202   1.506   2.040  13.203 -2.6902  2.2967 -1.9014
 4580SOL    HW225203   1.628   2.117  13.198  1.2168  1.6999  0.9961
 4581SOL     OW25204   4.544   0.612   8.059 -0.5301 -0.1078  0.2413
 4581SOL    HW125205   4.583   0.601   8.145 -0.0111 -0.1373 -0.0012
 4581SOL    HW225206   4.457   0.644   8.085  0.7173  2.2730  1.4160
 4582SOL     OW25207   3.392   2.678   9.461 -0.3246 -0.3986 -0.1114
 4582SOL    HW125208   3.471   2.732   9.456  0.1622 -1.1898 -0.9182
 4582SOL    HW225209   3.328   2.747   9.481  0.5526  0.1564  0.8064
 4583SOL     OW25210   3.494   0.808  10.495  0.0385  0.2985  0.2937
 4583SOL    HW125211   3.409   0.813  10.537 -0.0728  0.9902 -0.0049
 4583SOL    HW225212   3.478   0.728  10.445 -1.1693  1.6479 -1.4830
 4584SOL     OW25213   0.214   0.009  16.887  0.1899 -0.3722 -0.0588
 4584SOL    HW125214   0.138   4.685  16.925  0.0966 -1.8510 -1.9517
 4584SOL    HW225215   0.267   0.025  16.965  0.3737  0.8626 -0.4315
 4585SOL     OW25216   2.692   4.165   7.989  0.0336 -0.0090 -0.2771
 4585SOL    HW125217   2.635   4.226   7.942  0.5882 -0.4955 -1.5804
 4585SOL    HW225218   2.677   4.088   7.934  1.1054  1.0207 -2.0124
 4586SOL     OW25219   3.780   2.470  11.348  0.3637 -0.0778 -0.3372
 4586SOL    HW125220   3.694   2.467  11.307  0.0174 -0.7798  0.4556
 4586SOL    HW225221   3.792   2.555  11.391 -0.8780  0.7489 -1.6259
 4587SOL     OW25222   2.742   3.322  15.552 -0.6341 -0.4645  0.3344
 4587SOL    HW125223   2.671   3.383  15.571  0.2944  0.1309  1.8282
 4587SOL    HW225224   2.694   3.249  15.512  1.3471 -1.3262 -0.4469
 4588SOL     OW25225   2.348   3.677  13.449 -0.0993  0.0650  0.9007
 4588SOL    HW125226   2.348   3.623  13.528  0.6633 -1.3830 -0.1030
 4588SOL    HW225227   2.327   3.767  13.474  0.1452  0.1739  0.7197
 4589SOL     OW25228   0.631   2.213  10.215  0.1713  0.4733 -0.4555
 4589SOL    HW125229   0.620   2.300  10.178 -0.7774 -0.2973 -2.0263
 4589SOL    HW225230   0.542   2.181  10.197 -0.3480  1.9319 -0.4961
 4590SOL     OW25231   4.138   2.611   0.327 -0.0190  0.7886  0.0824
 4590SOL    HW125232   4.132   2.570   0.241 -1.7147  0.3975  0.3903
 4590SOL    HW225233   4.089   2.540   0.368  0.2351  0.3600 -0.3557
 4591SOL     OW25234   3.173   1.880   9.046  0.2022  0.4488  0.1276
 4591SOL    HW125235   3.083   1.846   9.051 -0.8385  2.7362 -2.9457
 4591SOL    HW225236   3.210   1.794   9.024  0.5504  0.5703  0.2532
 4592SOL     OW25237   3.474   1.612  13.309  0.1522  0.1865  0.1728
 4592SOL    HW125238   3.557   1.568  13.323 -0.1756 -0.5871 -0.2996
 4592SOL    HW225239   3.461   1.662  13.389 -0.3512 -2.0163  1.4691
 4593SOL     OW25240   1.287   3.666   2.244 -0.5122 -0.0886 -0.0458
 4593SOL    HW125241   1.379   3.647   2.225 -0.4262  1.1720 -0.8615
 4593SOL    HW225242   1.278   3.629   2.332  0.6794  0.4518  0.3017
 4594SOL     OW25243   3.715   1.662   0.939  0.5292 -0.0945 -0.0499
 4594SOL    HW125244   3.762   1.745   0.949 -0.4175  0.2314  1.8953
 4594SOL    HW225245   3.745   1.639   0.852  0.3240 -0.1521 -0.1046
 4595SOL     OW25246   3.910   1.151   1.864  0.6596  0.3515 -0.1342
 4595SOL    HW125247   3.821   1.148   1.828  0.0346 -0.8492  1.5056
 4595SOL    HW225248   3.914   1.246   1.876  0.8109  0.3022  0.1896
 4596SOL     OW25249   0.666   0.100   0.816 -0.5483 -0.0897  0.2816
 4596SOL    HW125250   0.713   0.044   0.755  0.2183  1.8223 -0.8860
 4596SOL    HW225251   0.653   0.179   0.763 -0.0372  0.4300  0.9235
 4597SOL     OW25252   0.418   0.300   0.990  0.2489  0.5344  0.5623
 4597SOL    HW125253   0.486   0.248   1.031  1.2585  0.8227 -0.7617
 4597SOL    HW225254   0.361   0.323   1.064 -0.3576  1.1431 -0.0867
 4598SOL     OW25255   1.557   0.699   4.425 -0.5329  0.6718 -0.2550
 4598SOL    HW125256   1.555   0.783   4.472  1.3177  1.2392 -1.1952
 4598SOL    HW225257   1.540   0.733   4.337  1.2073  0.3039 -0.7291
 4599SOL     OW25258   4.447   0.968   2.070 -0.0116 -0.0365  0.1130
 4599SOL    HW125259   4.355   0.949   2.052  0.3240 -0.8974 -0.7439
 4599SOL    HW225260   4.495   0.893   2.035 -0.8606 -1.5581  2.2315
 4600SOL     OW25261   1.634   1.462   3.817  0.2842 -0.1347  0.4064
 4600SOL    HW125262   1.564   1.398   3.832  1.9060 -1.3523  2.8367
 4600SOL    HW225263   1.622   1.499   3.904  2.9553  1.2711  0.1692
 4601SOL     OW25264   4.533   2.143   1.648 -0.5583  0.0156  0.1708
 4601SOL    HW125265   4.516   2.208   1.715  0.9278  1.3900 -0.8038
 4601SOL    HW225266   4.461   2.080   1.655 -1.2820  0.7796 -0.3787
 4602SOL     OW25267   4.186   0.100   7.605  0.5686  0.4043  0.1640
 4602SOL    HW125268   4.115   0.037   7.618  0.1313  1.0993  1.1200
 4602SOL    HW225269   4.229   0.108   7.690 -0.9463  0.0223  0.9822
 4603SOL     OW25270   2.369   4.483   7.790  0.0785  0.0655 -0.2014
 4603SOL    HW125271   2.308   4.501   7.719 -1.2705  2.4369  1.5662
 4603SOL    HW225272   2.388   4.569   7.829  1.0911  0.1541 -0.8924
 4604SOL     OW25273   4.578   0.036  13.391 -0.1865 -0.0380  0.2156
 4604SOL    HW125274   4.598   4.664  13.372 -0.6232 -0.1021  0.0730
 4604SOL    HW225275   4.568   0.033  13.486 -1.1472  0.7768  0.1315
 4605SOL     OW25276   1.642   1.702   4.300  0.0197  0.8090 -0.7767
 4605SOL    HW125277   1.565   1.753   4.324  0.2766  1.7484 -1.9411
 4605SOL    HW225278   1.714   1.745   4.346 -0.7078  1.1293  0.0572
 4606SOL     OW25279   0.542   1.480   3.744  0.3280 -0.2045 -0.2068
 4606SOL    HW125280   0.560   1.487   3.838 -0.0487  3.1934 -0.3860
 4606SOL    HW225281   0.449   1.502   3.735  0.6333  1.9770  1.7928
 4607SOL     OW25282   3.510   4.031   5.682 -0.3834 -0.2205  0.5859
 4607SOL    HW125283   3.433   4.080   5.711  0.3515  3.1198 -3.0573
 4607SOL    HW225284   3.555   4.006   5.763 -1.0323 -0.8421  0.7462
 4608SOL     OW25285   3.124   4.291   7.330  0.7412  0.2434  0.2175
 4608SOL    HW125286   3.097   4.216   7.276  0.3264  0.4390  0.1508
 4608SOL    HW225287   3.207   4.266   7.370 -0.0945  0.7493  2.2561
 4609SOL     OW25288   2.594   1.555  10.310  0.0818  0.0293 -0.0469
 4609SOL    HW125289   2.668   1.498  10.289  0.2835 -0.0701  0.9006
 4609SOL    HW225290   2.642   1.638  10.319 -2.3775  1.3643  0.6815
 4610SOL     OW25291   3.689   1.165   4.422  0.5117 -0.0641  0.0136
 4610SOL    HW125292   3.643   1.249   4.418  1.4605  0.3979 -1.3791
 4610SOL    HW225293   3.773   1.193   4.387 -0.1550  1.7935 -0.1326
 4611SOL     OW25294   4.130   4.422  13.112 -0.1381 -0.0001 -0.0767
 4611SOL    HW125295   4.196   4.410  13.044  0.4691  0.5610  0.4089
 4611SOL    HW225296   4.091   4.335  13.124 -1.5338  0.4684 -1.1777
 4612SOL     OW25297   4.631   3.994  16.764  0.5425  0.4202 -0.0258
 4612SOL    HW125298   4.653   3.950  16.682  4.9626  1.0577  0.8175
 4612SOL    HW225299   4.631   3.920  16.824  0.4026 -0.1543 -0.7382
 4613SOL     OW25300   1.377   2.478   1.766  0.4099  0.4348  0.1176
 4613SOL    HW125301   1.324   2.404   1.738  0.2181  0.5523  0.1738
 4613SOL    HW225302   1.322   2.556   1.776  0.7140  0.6270  0.2888
 4614SOL     OW25303   0.417   1.689   3.189  0.6837 -0.2520 -0.0931
 4614SOL    HW125304   0.480   1.756   3.217  0.2602  0.5756 -1.1418
 4614SOL    HW225305   0.454   1.619   3.243 -1.5707 -1.9540 -0.7787
 4615SOL     OW25306   1.433   3.807   7.986 -0.5853 -0.4942  0.0998
 4615SOL    HW125307   1.348   3.809   7.942 -0.2500 -1.2278 -0.5893
 4615SOL    HW225308   1.409   3.790   8.077 -2.4758 -1.3746 -0.5678
 4616SOL     OW25309   0.285   0.335   0.726 -0.3716  0.4469  0.2399
 4616SOL    HW125310   0.211   0.287   0.762  0.6174 -2.1427 -1.1508
 4616SOL    HW225311   0.341   0.341   0.803 -0.5598 -0.7937  0.4813
 4617SOL     OW25312   1.427   1.519  14.881  0.5788 -0.0703 -0.1448
 4617SOL    HW125313   1.332   1.510  14.873  0.5655  0.7325 -0.8624
 4617SOL    HW225314   1.445   1.592  14.822  1.9324 -2.2556 -2.4130
 4618SOL     OW25315   2.258   2.551   5.888 -0.0401 -1.0310  0.3103
 4618SOL    HW125316   2.195   2.581   5.953 -0.2555 -1.1883  0.1740
 4618SOL    HW225317   2.263   2.628   5.831 -0.2551  0.5331  2.4169
 4619SOL     OW25318   4.238   3.925   7.519 -0.0441 -0.1065  0.1274
 4619SOL    HW125319   4.145   3.912   7.502 -0.5011  2.6987  0.5295
 4619SOL    HW225320   4.264   3.849   7.570  0.3842 -0.3842 -0.5020
 4620SOL     OW25321   1.102   1.751  15.061  0.1640 -0.0583  0.2336
 4620SOL    HW125322   1.141   1.681  15.009  2.1244  1.0679  0.2201
 4620SOL    HW225323   1.015   1.716  15.041  0.0196  0.6802 -0.4558
 4621SOL     OW25324   1.933   0.328   1.617 -0.2910  0.5086  0.2880
 4621SOL    HW125325   1.854   0.363   1.575 -0.6435 -0.2006  0.3561
 4621SOL    HW225326   1.923   0.234   1.605  1.2838  0.6107 -1.7789
 4622SOL     OW25327   2.965   3.198   5.982 -0.2608 -0.0952  0.4799
 4622SOL    HW125328   2.918   3.123   5.946 -1.3644  2.1903 -2.9297
 4622SOL    HW225329   3.054   3.169   5.965 -0.9178 -1.0535 -1.3016
 4623SOL     OW25330   1.990   2.162   6.999 -0.3030  0.0940 -0.0336
 4623SOL    HW125331   2.056   2.208   7.052 -0.8328  0.2449  0.4842
 4623SOL    HW225332   2.046   2.116   6.936 -1.1825 -0.9734 -0.0336
 4624SOL     OW25333   2.122   3.773  12.231 -0.2511  0.1333 -0.1284
 4624SOL    HW125334   2.169   3.698  12.193  1.5618  0.9702  0.4638
 4624SOL    HW225335   2.169   3.786  12.313 -1.3184 -0.7981  0.6268
 4625SOL     OW25336   3.415   3.966   1.358 -0.2803 -0.5180  0.5269
 4625SOL    HW125337   3.367   3.908   1.417 -1.9032 -1.2366 -1.5336
 4625SOL    HW225338   3.491   4.001   1.405 -0.1653  1.8021 -1.4278
 4626SOL     OW25339   2.016   3.480   4.656  0.1802 -0.2646  0.5934
 4626SOL    HW125340   1.982   3.391   4.652 -0.2383  0.0154 -2.1172
 4626SOL    HW225341   2.018   3.505   4.563  1.5275  0.9020  0.9496
 4627SOL     OW25342   3.546   4.431   4.334  0.5704  0.2926  0.5608
 4627SOL    HW125343   3.600   4.468   4.403 -1.0610 -0.0975  2.0256
 4627SOL    HW225344   3.613   4.441   4.265  2.7796 -1.1850  2.4695
 4628SOL     OW25345   1.957   3.877   2.283  0.3369 -0.2476  0.5455
 4628SOL    HW125346   1.933   3.813   2.350  1.0022  0.7383  1.7319
 4628SOL    HW225347   1.984   3.961   2.322  0.3389 -0.8380  1.8072
 4629SOL     OW25348   1.343   1.843   2.034 -0.1498  0.3312  0.4264
 4629SOL    HW125349   1.414   1.786   2.006 -1.5454 -0.3182 -1.8339
 4629SOL    HW225350   1.370   1.934   2.026  0.0073  0.2583  0.1354
 4630SOL     OW25351   3.104   1.812   2.135 -0.0502  0.6951 -0.2740
 4630SOL    HW125352   3.047   1.802   2.211 -1.9821 -3.4703 -2.2967
 4630SOL    HW225353   3.125   1.722   2.113 -3.8559  0.3118 -2.3642
 4631SOL     OW25354   0.480   4.188   3.762 -0.0088  0.1820  0.7059
 4631SOL    HW125355   0.457   4.164   3.852 -0.1231 -2.4886 -0.0126
 4631SOL    HW225356   0.563   4.141   3.764  1.2968  2.4282 -1.6686
 4632SOL     OW25357   0.018   0.658   8.528 -0.5456 -0.5330 -0.5903
 4632SOL    HW125358   0.012   0.566   8.552 -0.6628 -0.4900 -0.4566
 4632SOL    HW225359   4.664   0.672   8.469 -0.8061 -1.9556 -0.5934
 4633SOL     OW25360   3.211   0.363   7.222  0.2470  0.5963 -0.3196
 4633SOL    HW125361   3.212   0.390   7.130 -2.0214 -3.0493 -1.4027
 4633SOL    HW225362   3.125   0.322   7.226 -0.6828  2.5168 -0.7074
 4634SOL     OW25363   2.065   2.437   0.080  0.1663 -0.1110 -0.0425
 4634SOL    HW125364   2.028   2.419   0.166  0.0524 -0.8519 -0.2443
 4634SOL    HW225365   2.075   2.349   0.042  0.5076 -0.5886  1.1698
 4635SOL     OW25366   2.993   2.219   7.671 -0.0031 -0.4683  0.1259
 4635SOL    HW125367   2.910   2.181   7.700 -0.8017  0.9027 -0.3530
 4635SOL    HW225368   2.989   2.307   7.709  2.6781 -1.5827  3.0068
 4636SOL     OW25369   1.436   4.032   3.299 -0.2356 -0.7395  0.1114
 4636SOL    HW125370   1.488   4.020   3.220  1.3044 -0.4281  1.0901
 4636SOL    HW225371   1.494   4.098   3.338  1.8123 -1.3040 -2.0614
 4637SOL     OW25372   3.299   1.895  12.727 -0.0647 -0.0616  0.0889
 4637SOL    HW125373   3.391   1.897  12.755  0.5038 -1.0698 -1.6888
 4637SOL    HW225374   3.309   1.956  12.653  0.7102 -0.9928 -0.5853
 4638SOL     OW25375   1.861   3.086   2.953 -0.0973  0.1518 -0.7760
 4638SOL    HW125376   1.887   3.010   3.005 -0.8979 -0.2455 -0.9641
 4638SOL    HW225377   1.776   3.114   2.986 -0.2186 -1.2610  0.0711
 4639SOL     OW25378   2.899   1.516   2.771  1.0419 -0.3671 -0.2296
 4639SOL    HW125379   2.905   1.501   2.865 -0.1212  1.0380  0.0797
 4639SOL    HW225380   2.943   1.600   2.757  1.6373 -0.3531  1.7691
 4640SOL     OW25381   3.438   1.245   6.294  0.2051  0.3399 -0.6455
 4640SOL    HW125382   3.421   1.240   6.388  4.7874  1.6332  0.2494
 4640SOL    HW225383   3.485   1.162   6.290 -0.9554 -0.2732 -1.4187
 4641SOL     OW25384   2.682   0.757   6.449  0.2424  0.2753  0.3681
 4641SOL    HW125385   2.597   0.732   6.412  0.0790 -1.0297  1.6185
 4641SOL    HW225386   2.707   0.681   6.502 -1.4825 -0.7382 -0.2527
 4642SOL     OW25387   4.349   0.592   4.772  0.0361 -0.1580 -0.3369
 4642SOL    HW125388   4.331   0.498   4.779 -1.2309  0.0135 -1.3522
 4642SOL    HW225389   4.291   0.624   4.703 -0.9280  2.7406  1.8384
 4643SOL     OW25390   3.171   0.279   4.730 -0.3895  0.5225 -0.0582
 4643SOL    HW125391   3.153   0.368   4.762 -3.0683 -0.2210  0.5173
 4643SOL    HW225392   3.261   0.272   4.760 -0.7096  1.2692  1.0878
 4644SOL     OW25393   0.993   0.818   5.018 -0.3059 -0.2206  0.0182
 4644SOL    HW125394   0.950   0.887   4.967  0.5386 -0.9232 -1.6616
 4644SOL    HW225395   0.994   0.844   5.110  1.6563  1.0352 -0.3685
 4645SOL     OW25396   1.994   1.593   2.651  0.3896  0.4338 -0.3724
 4645SOL    HW125397   2.031   1.674   2.616  2.3944 -0.2819  0.0445
 4645SOL    HW225398   1.904   1.624   2.644  0.1552 -0.2938 -0.4908
 4646SOL     OW25399   0.016   0.296  14.788  0.3379 -0.0337 -0.1033
 4646SOL    HW125400   4.665   0.258  14.840 -0.7794  1.8128 -0.2647
 4646SOL    HW225401   4.698   0.350  14.718 -0.0425  0.8203  0.7589
 4647SOL     OW25402   1.818   0.229  11.147 -0.0071  0.0569  0.4197
 4647SOL    HW125403   1.771   0.232  11.063 -0.5164 -1.6098  0.6586
 4647SOL    HW225404   1.783   0.306  11.192  0.6411  0.2958  0.5054
 4648SOL     OW25405   0.834   1.492   6.349  0.0715 -0.0962 -0.1909
 4648SOL    HW125406   0.886   1.412   6.344  1.5023  0.5466  4.5586
 4648SOL    HW225407   0.755   1.471   6.300  0.6370 -2.7792  0.0519
 4649SOL     OW25408   3.990   0.986   2.053  0.5005  0.2146 -0.3618
 4649SOL    HW125409   3.945   1.031   1.981  0.8552  2.7118  0.9665
 4649SOL    HW225410   4.013   1.061   2.108 -1.1163 -0.6024  1.4416
 4650SOL     OW25411   3.469   2.934   2.486 -0.0025  0.3928 -0.4498
 4650SOL    HW125412   3.519   2.912   2.407  0.7455  0.1725  0.0867
 4650SOL    HW225413   3.531   3.000   2.515  1.7704 -0.7311 -1.6475
 4651SOL     OW25414   1.430   0.117   7.129  0.3202  0.4814  0.6204
 4651SOL    HW125415   1.406   0.207   7.106  2.9697  1.2310  0.8232
 4651SOL    HW225416   1.353   0.098   7.184  0.1358  0.7039  0.4402
 4652SOL     OW25417   2.233   1.694   8.710  0.3907 -0.0220 -0.6202
 4652SOL    HW125418   2.246   1.601   8.690  1.9195  0.1931 -0.6537
 4652SOL    HW225419   2.177   1.686   8.786 -0.4781  0.2776 -1.2344
 4653SOL     OW25420   0.801   0.629   3.323 -0.1598 -0.1815  0.1874
 4653SOL    HW125421   0.861   0.575   3.374 -1.0973  2.3158  3.9642
 4653SOL    HW225422   0.859   0.698   3.289 -0.3240 -0.5413 -0.8334
 4654SOL     OW25423   0.086   0.751   5.259 -0.5335 -0.6272 -0.0949
 4654SOL    HW125424   0.095   0.724   5.168  0.3055  1.4986 -0.6400
 4654SOL    HW225425   0.175   0.787   5.267 -1.1355  0.9994 -0.9043
 4655SOL     OW25426   0.807   1.486   3.674  0.2620 -0.0237 -0.2337
 4655SOL    HW125427   0.803   1.411   3.615 -0.7170 -0.6240  0.5969
 4655SOL    HW225428   0.714   1.502   3.690  0.8164  0.3337  2.6659
 4656SOL     OW25429   0.481   1.042   6.605 -0.3533  0.3290 -0.0944
 4656SOL    HW125430   0.427   0.983   6.658  0.3414  0.3656  0.6631
 4656SOL    HW225431   0.477   1.119   6.662  1.2344  2.0197 -2.2906
 4657SOL     OW25432   0.216   3.276   2.457  0.0362  0.1319  0.0844
 4657SOL    HW125433   0.217   3.368   2.484  0.8647  0.2017 -0.1931
 4657SOL    HW225434   0.175   3.232   2.531 -0.6451  0.1821 -0.2658
 4658SOL     OW25435   4.447   2.335   0.072 -0.2616  0.0004  0.0588
 4658SOL    HW125436   4.393   2.262   0.041 -0.2003  0.1145 -0.3216
 4658SOL    HW225437   4.426   2.340   0.165 -1.1190  0.4896 -0.1618
 4659SOL     OW25438   0.547   0.682   0.618  0.3569 -0.0917 -0.4171
 4659SOL    HW125439   0.590   0.649   0.539 -0.0141  1.3868 -1.2238
 4659SOL    HW225440   0.557   0.609   0.679 -0.3479  0.9860  0.9864
 4660SOL     OW25441   1.171   0.378   3.731  0.1508  0.3331 -0.1573
 4660SOL    HW125442   1.079   0.366   3.756  0.1388 -0.2666 -0.4839
 4660SOL    HW225443   1.209   0.317   3.794 -2.1800 -0.7237  0.2245
 4661SOL     OW25444   2.457   0.593   0.201  0.3520  0.0813 -0.1458
 4661SOL    HW125445   2.533   0.536   0.192  0.6376  0.5769 -0.8710
 4661SOL    HW225446   2.468   0.648   0.123 -0.3085  1.3249  0.6300
 4662SOL     OW25447   3.763   0.029  13.340  0.2936  0.1469 -0.8137
 4662SOL    HW125448   3.855   0.054  13.329  0.4866 -0.6187 -0.9285
 4662SOL    HW225449   3.769   4.657  13.367  0.5018  0.4719  0.2472
 4663SOL     OW25450   3.347   2.005   3.327 -0.1864  0.4749 -0.2132
 4663SOL    HW125451   3.412   1.935   3.324  1.6687  2.2750 -1.9018
 4663SOL    HW225452   3.405   2.079   3.346  1.0360 -1.0310  1.9627
 4664SOL     OW25453   2.799   4.524   6.365 -0.3916  0.0461  0.3801
 4664SOL    HW125454   2.777   4.460   6.433 -2.9187 -0.0979 -0.5851
 4664SOL    HW225455   2.858   4.576   6.420  1.1893  1.2573 -2.4570
 4665SOL     OW25456   1.779   4.051   0.405 -0.4566  0.3043  0.1332
 4665SOL    HW125457   1.871   4.031   0.384  0.1816  0.3303  2.8862
 4665SOL    HW225458   1.725   4.040   0.327 -0.7721 -0.2705  0.4272
 4666SOL     OW25459   3.454   2.745   7.643 -0.3182 -0.0515  0.1385
 4666SOL    HW125460   3.491   2.698   7.718 -1.2803  0.7672  1.1267
 4666SOL    HW225461   3.482   2.836   7.651  0.0671 -0.1346 -0.3191
 4667SOL     OW25462   0.625   3.226   0.778 -0.0901  0.3450 -0.0244
 4667SOL    HW125463   0.598   3.316   0.796 -1.6687 -0.2414  0.5418
 4667SOL    HW225464   0.578   3.217   0.695 -1.2402  1.5034  0.5128
 4668SOL     OW25465   4.538   2.773  15.357  0.5051  0.2556  0.6525
 4668SOL    HW125466   4.597   2.811  15.422  0.3108  0.3099  0.7972
 4668SOL    HW225467   4.597   2.764  15.283 -0.7991  0.9181 -0.4535
 4669SOL     OW25468   0.528   4.135   6.184 -0.4007 -0.0350 -0.3351
 4669SOL    HW125469   0.535   4.131   6.089 -1.7015  0.4043 -0.4498
 4669SOL    HW225470   0.454   4.076   6.195  0.8522 -1.8867 -1.9489
 4670SOL     OW25471   3.841   4.404   4.870  0.1622 -0.1669 -0.3450
 4670SOL    HW125472   3.753   4.398   4.907  0.6784 -0.0226  0.9273
 4670SOL    HW225473   3.856   4.498   4.881  2.2521 -0.6745  1.3769
 4671SOL     OW25474   2.271   3.292   1.610 -0.6267 -0.4145  0.4328
 4671SOL    HW125475   2.258   3.218   1.551 -2.0966  1.4591 -1.5902
 4671SOL    HW225476   2.364   3.306   1.624 -0.1938 -1.5705 -1.3133
 4672SOL     OW25477   0.992   3.674  12.185  0.2904 -0.1794  0.3779
 4672SOL    HW125478   0.917   3.646  12.238  0.3505 -0.0460  0.5327
 4672SOL    HW225479   1.032   3.589  12.166 -0.3170 -0.3924  0.0400
 4673SOL     OW25480   2.691   2.016   4.345  0.2692 -0.1628  0.0960
 4673SOL    HW125481   2.677   2.061   4.428  0.2557 -1.0701  0.5744
 4673SOL    HW225482   2.786   2.022   4.336  0.2279  0.6648  0.2094
 4674SOL     OW25483   3.379   0.106   2.269  0.0000 -0.4059 -0.1042
 4674SOL    HW125484   3.430   0.134   2.193  0.6070  0.5152  0.6443
 4674SOL    HW225485   3.313   0.062   2.216  1.8501 -2.3344 -0.8641
 4675SOL     OW25486   3.022   3.612   8.203 -0.4136 -0.2853 -0.2748
 4675SOL    HW125487   2.981   3.582   8.284 -2.6390  1.5491 -0.7008
 4675SOL    HW225488   2.998   3.704   8.192  0.2986 -0.1040 -0.2948
 4676SOL     OW25489   1.092   3.100  14.081  0.3254  0.0323 -0.1164
 4676SOL    HW125490   1.111   3.157  14.006  1.0921 -2.9006 -2.1463
 4676SOL    HW225491   1.011   3.138  14.113  0.9406  2.3276 -1.2964
 4677SOL     OW25492   1.441   0.413  10.670 -0.1449 -0.2342 -0.1372
 4677SOL    HW125493   1.398   0.480  10.723 -0.0125 -0.5423  0.3607
 4677SOL    HW225494   1.436   0.332  10.720  0.5654 -0.0023  0.2945
 4678SOL     OW25495   3.207   4.636  10.513 -0.8158  0.8251 -0.4074
 4678SOL    HW125496   3.253   4.694  10.575 -0.1430 -0.0702 -0.0750
 4678SOL    HW225497   3.272   4.627  10.444 -0.2496 -1.3713  0.4052
 4679SOL     OW25498   1.628   3.939   3.110  0.0043 -0.3876  0.7826
 4679SOL    HW125499   1.706   3.994   3.111  0.5724 -1.1745 -0.5464
 4679SOL    HW225500   1.661   3.869   3.055 -1.2459 -0.3424 -0.0373
 4680SOL     OW25501   0.249   0.986   1.312 -0.3911  0.5703 -0.8114
 4680SOL    HW125502   0.188   1.020   1.247 -1.2083  2.4109  0.9365
 4680SOL    HW225503   0.303   0.936   1.251 -1.0926 -3.1680  1.6289
 4681SOL     OW25504   4.443   2.892   5.445 -0.2250  0.9387  0.9930
 4681SOL    HW125505   4.354   2.921   5.425  0.2672  1.7129 -0.0481
 4681SOL    HW225506   4.498   2.968   5.424 -0.8568  1.1290  0.0503
 4682SOL     OW25507   2.251   3.015  10.276  0.4437  0.5512  0.5496
 4682SOL    HW125508   2.250   3.064  10.357 -1.0255  1.1523  0.1751
 4682SOL    HW225509   2.298   3.072  10.216 -0.2400  0.3377 -0.2090
 4683SOL     OW25510   3.723   1.872   1.806 -0.1337 -0.4407 -0.6582
 4683SOL    HW125511   3.734   1.855   1.899  0.6252 -0.7195 -0.7962
 4683SOL    HW225512   3.667   1.950   1.800  1.1528  0.4853 -0.6246
 4684SOL     OW25513   0.896   0.724   3.985 -0.2152  0.0058  0.5501
 4684SOL    HW125514   0.898   0.809   4.029  2.1817 -0.2267  0.8791
 4684SOL    HW225515   0.860   0.660   4.047  0.4434 -0.9848 -0.0971
 4685SOL     OW25516   1.267   3.930  13.932  0.0484 -0.4095  0.1592
 4685SOL    HW125517   1.324   3.990  13.883 -0.2251 -1.2810 -1.2060
 4685SOL    HW225518   1.234   3.880  13.858 -2.4688  1.4764  0.0127
 4686SOL     OW25519   0.483   3.851  12.310  0.4692  0.2754  0.1391
 4686SOL    HW125520   0.550   3.866  12.243  1.4542 -4.1859  0.1452
 4686SOL    HW225521   0.454   3.761  12.296 -0.3041  0.4875  0.3435
 4687SOL     OW25522   1.921   1.637   6.491 -0.0437 -0.2922 -0.0570
 4687SOL    HW125523   1.998   1.691   6.507  0.6443 -1.4631  0.5475
 4687SOL    HW225524   1.892   1.672   6.407  0.6476  0.7682  0.1434
 4688SOL     OW25525   2.034   1.674   9.934 -0.4380 -0.4503  0.6392
 4688SOL    HW125526   2.019   1.614  10.008 -1.6920  0.1788  0.8886
 4688SOL    HW225527   2.054   1.757   9.977  0.9177 -0.0327 -0.7711
 4689SOL     OW25528   1.906   1.601   9.713 -0.4395  0.1168  0.2078
 4689SOL    HW125529   1.811   1.613   9.716 -0.5374 -1.1316  2.4838
 4689SOL    HW225530   1.946   1.636   9.792  1.6883 -1.1622 -0.3060
 4690SOL     OW25531   0.714   2.148  13.750  0.9488 -0.0806  0.1133
 4690SOL    HW125532   0.784   2.089  13.723  1.3270  0.8501 -0.9483
 4690SOL    HW225533   0.702   2.219  13.686  1.0747  0.7798  1.0374
 4691SOL     OW25534   0.006   2.479   0.634  0.1658 -0.4334  0.1535
 4691SOL    HW125535   0.033   2.570   0.619 -3.0018  0.4888  0.1279
 4691SOL    HW225536   4.696   2.464   0.545  0.0287  0.2119  0.0920
 4692SOL     OW25537   2.013   4.416  17.040  0.0407  0.1783  0.5021
 4692SOL    HW125538   2.047   4.435  16.953  2.0218 -0.2812  1.1738
 4692SOL    HW225539   1.959   4.342  17.013 -0.5118  0.5077  0.6869
 4693SOL     OW25540   0.947   3.729   8.690 -0.1358 -0.5424 -0.0178
 4693SOL    HW125541   0.908   3.641   8.699 -0.2787 -0.2743  2.1318
 4693SOL    HW225542   0.921   3.758   8.778  3.0889 -2.1860  1.4946
 4694SOL     OW25543   1.232   2.910   4.466 -0.1553 -0.1374 -0.1090
 4694SOL    HW125544   1.235   2.814   4.463 -1.6388 -0.1645 -0.9985
 4694SOL    HW225545   1.301   2.933   4.404  0.6899 -0.3609  0.7526
 4695SOL     OW25546   0.174   0.783   7.088 -0.3660 -0.1305  0.6632
 4695SOL    HW125547   0.238   0.848   7.115 -1.4635  0.5125  1.7502
 4695SOL    HW225548   0.094   0.834   7.072 -0.9965 -0.7366  1.8681
 4696SOL     OW25549   0.186   1.236   9.391 -0.8463 -0.1531  0.8393
 4696SOL    HW125550   0.213   1.145   9.404 -0.9360 -0.1858  0.8000
 4696SOL    HW225551   0.133   1.226   9.312  0.9395 -1.4254 -0.1974
 4697SOL     OW25552   0.889   2.013   5.510  0.2795  0.5350 -0.1347
 4697SOL    HW125553   0.878   2.109   5.510  0.6507  0.5786  1.6473
 4697SOL    HW225554   0.972   1.993   5.552 -0.3568  0.8575  1.2636
 4698SOL     OW25555   2.955   1.958  14.333 -0.1332  0.2460 -0.3989
 4698SOL    HW125556   2.897   2.003  14.271  1.8938  0.9096 -1.8134
 4698SOL    HW225557   2.934   1.991  14.421 -1.5142 -2.2399  0.2000
 4699SOL     OW25558   4.592   3.431   3.677 -0.2383 -0.2240  0.7867
 4699SOL    HW125559   4.621   3.502   3.620  0.9280 -1.7814 -0.5513
 4699SOL    HW225560   4.498   3.438   3.663  0.0716  1.0997 -0.5587
 4700SOL     OW25561   2.379   3.077   5.298 -0.6175  0.6058  0.0782
 4700SOL    HW125562   2.288   3.102   5.308 -1.2583 -2.0751  1.0873
 4700SOL    HW225563   2.405   3.094   5.389  1.5918  1.7922 -0.7773
 4701SOL     OW25564   0.738   2.998  10.771  0.1950  0.0751 -0.2651
 4701SOL    HW125565   0.776   3.086  10.767 -0.4781  0.3711 -0.1927
 4701SOL    HW225566   0.790   2.957  10.839  0.4464  0.4053 -0.2573
 4702SOL     OW25567   0.784   2.843   3.452  0.3110  0.5841  0.1030
 4702SOL    HW125568   0.787   2.771   3.388  0.3405 -0.1177  0.8862
 4702SOL    HW225569   0.732   2.801   3.520 -0.2619 -0.1448 -0.7733
 4703SOL     OW25570   3.376   0.053  10.696 -0.5991  0.0592 -0.3571
 4703SOL    HW125571   3.434   0.117  10.738 -1.2307 -0.2220  0.9582
 4703SOL    HW225572   3.289   0.085  10.721 -0.8409 -0.7828 -0.1150
 4704SOL     OW25573   0.690   0.696   6.243  0.0843  0.3700 -0.0937
 4704SOL    HW125574   0.739   0.696   6.161  1.2551  0.6867  0.6168
 4704SOL    HW225575   0.741   0.644   6.305 -0.1943 -0.2055 -0.3456
 4705SOL     OW25576   0.628   2.213   4.763  0.3103 -0.0937  0.7536
 4705SOL    HW125577   0.575   2.278   4.810 -2.8389 -2.0712 -0.1070
 4705SOL    HW225578   0.566   2.171   4.704  1.0417 -1.3420  0.8738
 4706SOL     OW25579   3.087   3.808   6.750 -0.4376 -0.2764  0.3330
 4706SOL    HW125580   3.131   3.738   6.703  1.1319  1.1661 -0.3651
 4706SOL    HW225581   2.996   3.777   6.755 -0.5451 -0.1369 -0.8002
 4707SOL     OW25582   2.243   2.352   3.014  0.6245 -0.8163  0.2213
 4707SOL    HW125583   2.148   2.361   3.024  0.8982  2.8665 -0.3268
 4707SOL    HW225584   2.257   2.305   2.933  0.7487  1.9868 -1.3928
 4708SOL     OW25585   2.106   2.432   7.735 -0.2585 -0.0050  0.5374
 4708SOL    HW125586   2.097   2.485   7.814 -1.1524 -1.5956  1.4849
 4708SOL    HW225587   2.035   2.464   7.679 -0.0799  0.7680  0.7517
 4709SOL     OW25588   2.041   3.753   3.621  0.6125  0.6488  0.5772
 4709SOL    HW125589   2.106   3.822   3.632  2.0716 -0.7138  0.4302
 4709SOL    HW225590   2.081   3.682   3.670 -0.2616 -0.7866 -0.7726
 4710SOL     OW25591   1.355   2.351   7.067  0.2955 -0.6903 -0.0176
 4710SOL    HW125592   1.362   2.432   7.118 -0.4224 -2.3680  2.7500
 4710SOL    HW225593   1.300   2.303   7.129 -0.4430  1.2514  0.8568
 4711SOL     OW25594   0.527   0.662   6.848 -0.3826 -0.4232 -0.3587
 4711SOL    HW125595   0.611   0.652   6.804  0.4653 -0.2944  1.2161
 4711SOL    HW225596   0.466   0.671   6.776 -0.0660  0.5498 -0.5003
 4712SOL     OW25597   0.583   1.868   6.947 -0.5255  0.0422  0.1383
 4712SOL    HW125598   0.510   1.811   6.972  0.0500 -1.1035 -0.7934
 4712SOL    HW225599   0.630   1.884   7.028  1.0861 -2.7913 -0.2428
 4713SOL     OW25600   2.790   1.062   2.269 -0.3710 -0.4154  0.3978
 4713SOL    HW125601   2.795   1.057   2.173 -0.6425 -1.0006  0.4159
 4713SOL    HW225602   2.772   1.155   2.283  1.3923 -0.4499  2.8688
 4714SOL     OW25603   2.070   3.313  14.072 -0.1364  0.4890  0.1072
 4714SOL    HW125604   2.142   3.313  14.010  0.2932 -2.3534  0.6158
 4714SOL    HW225605   2.085   3.227  14.112 -0.1217 -0.5881 -2.2278
 4715SOL     OW25606   4.109   3.163  16.080  0.0266  0.0582 -0.2574
 4715SOL    HW125607   4.105   3.242  16.025  0.9448  2.1156  2.6356
 4715SOL    HW225608   4.056   3.098  16.033 -0.6309  0.5707 -0.2360
 4716SOL     OW25609   1.029   0.745   8.549  0.9373  0.2803 -0.3467
 4716SOL    HW125610   0.953   0.724   8.603  1.4605  0.8801  0.6096
 4716SOL    HW225611   1.030   0.663   8.500 -2.5680  0.3756 -0.5878
 4717SOL     OW25612   4.147   3.890   3.004 -0.2369  0.4323  0.0220
 4717SOL    HW125613   4.080   3.885   2.937 -0.3787 -0.3822  0.2176
 4717SOL    HW225614   4.161   3.984   2.997 -0.1971  0.3382 -1.1978
 4718SOL     OW25615   1.505   2.723   9.915 -0.5992 -0.2470  0.1716
 4718SOL    HW125616   1.559   2.794   9.881 -0.0307 -0.0801  1.4647
 4718SOL    HW225617   1.457   2.774   9.980 -1.7608 -0.7812 -0.2515
 4719SOL     OW25618   2.645   2.291   8.161 -0.0805  0.8136 -0.2745
 4719SOL    HW125619   2.633   2.204   8.200 -2.7944  1.1098 -0.4203
 4719SOL    HW225620   2.554   2.318   8.149 -0.1899 -0.0111 -1.3469
 4720SOL     OW25621   4.313   3.009   2.449 -0.0816 -0.0424 -0.0401
 4720SOL    HW125622   4.379   2.946   2.419  1.0982  1.9848 -1.6517
 4720SOL    HW225623   4.350   3.041   2.532 -1.8107 -1.1197  1.1534
 4721SOL     OW25624   1.845   3.950   5.010 -0.0788 -0.5346  0.2429
 4721SOL    HW125625   1.822   4.005   4.935 -0.3973  0.5997  1.1789
 4721SOL    HW225626   1.902   3.885   4.968  0.5190  1.2115 -1.6386
 4722SOL     OW25627   0.863   3.054   2.493 -0.1658  0.4094 -0.2571
 4722SOL    HW125628   0.884   3.146   2.507 -0.9187  0.7696 -1.4527
 4722SOL    HW225629   0.842   3.028   2.582 -0.7471 -1.2786 -0.8875
 4723SOL     OW25630   4.559   4.105   8.836 -0.2030 -0.0514 -0.1467
 4723SOL    HW125631   4.579   4.152   8.917  0.7249 -0.3812 -0.1827
 4723SOL    HW225632   4.600   4.020   8.849 -0.4787 -0.1270  0.2155
 4724SOL     OW25633   3.264   2.089   3.998  0.1536  0.1301  0.0482
 4724SOL    HW125634   3.259   2.182   3.979 -0.5055  0.1157  0.1379
 4724SOL    HW225635   3.329   2.093   4.068  0.6863  1.8146 -0.5412
 4725SOL     OW25636   0.840   3.773  17.253  0.5795  0.9379 -0.5225
 4725SOL    HW125637   0.863   3.836  17.321  0.3333  0.8991 -0.4035
 4725SOL    HW225638   0.909   3.796  17.191  1.0437 -0.0517 -0.3801
 4726SOL     OW25639   2.199   1.779   2.498  0.2547 -0.4951 -0.7746
 4726SOL    HW125640   2.181   1.732   2.417 -0.7685 -0.5117 -0.5302
 4726SOL    HW225641   2.295   1.777   2.503  0.2255  1.0251  0.2330
 4727SOL     OW25642   4.583   1.236   5.303 -0.0188  0.6093 -0.3435
 4727SOL    HW125643   4.544   1.152   5.325  2.4231 -0.1983  0.8860
 4727SOL    HW225644   4.677   1.225   5.289 -0.2073  1.0695 -1.9668
 4728SOL     OW25645   4.040   3.755   3.200  0.0720 -0.0750 -0.1369
 4728SOL    HW125646   4.085   3.812   3.137  0.6890 -0.3423  0.0556
 4728SOL    HW225647   4.039   3.801   3.284 -1.8955 -2.0766  0.9404
 4729SOL     OW25648   0.148   0.201   6.282  0.0716  0.4703 -0.0419
 4729SOL    HW125649   0.212   0.208   6.212  0.4600  0.1832  0.2913
 4729SOL    HW225650   0.111   0.118   6.252  0.8177  0.3112 -0.5020
 4730SOL     OW25651   3.893   0.584   6.500  0.2799 -0.7717 -0.1880
 4730SOL    HW125652   3.931   0.579   6.412 -0.5999  0.8983 -0.6759
 4730SOL    HW225653   3.831   0.513   6.490 -0.5536 -0.2345  1.1604
 4731SOL     OW25654   1.999   2.298   2.045 -0.5115  0.3586  0.1731
 4731SOL    HW125655   2.001   2.393   2.047 -2.2043  0.3793  0.6857
 4731SOL    HW225656   1.934   2.288   1.976  0.7821 -1.1680 -0.8320
 4732SOL     OW25657   4.383   3.610   3.601  0.0078 -0.2072 -0.2079
 4732SOL    HW125658   4.295   3.576   3.619 -0.4721  1.5640  0.7569
 4732SOL    HW225659   4.372   3.701   3.629  1.4986 -1.0288  3.0359
 4733SOL     OW25660   1.126   4.477   2.316  0.0877 -0.2436 -0.0711
 4733SOL    HW125661   1.132   4.432   2.231 -2.3506  1.3877 -1.0986
 4733SOL    HW225662   1.152   4.565   2.288  0.7344 -0.7646 -1.1424
 4734SOL     OW25663   4.251   1.141   0.587  0.2191  0.4206  0.0899
 4734SOL    HW125664   4.345   1.148   0.600  0.2239  0.6507 -0.0573
 4734SOL    HW225665   4.236   1.213   0.526  1.8801  2.2983  1.8787
 4735SOL     OW25666   0.089   0.931   8.452  0.0078 -0.0689 -0.1086
 4735SOL    HW125667   0.074   0.838   8.470 -0.2921 -0.3116 -1.6092
 4735SOL    HW225668   0.160   0.944   8.515  0.0751 -1.1641  0.0317
 4736SOL     OW25669   4.445   0.927   5.956  1.0181  0.1549 -0.0104
 4736SOL    HW125670   4.434   0.845   5.908  0.8169  0.3237 -0.2526
 4736SOL    HW225671   4.380   0.902   6.021  1.7195 -1.6659 -0.0005
 4737SOL     OW25672   1.051   1.841   8.173  0.3283  0.2908 -0.3027
 4737SOL    HW125673   0.956   1.826   8.163  0.4583 -1.7175  1.5936
 4737SOL    HW225674   1.077   1.767   8.227 -0.0910 -0.9774 -1.8142
 4738SOL     OW25675   4.709   0.883  12.333  0.1824 -0.1738 -0.0928
 4738SOL    HW125676   0.034   0.852  12.254  0.6889 -0.3166  0.2533
 4738SOL    HW225677   0.057   0.937  12.372 -0.3778 -0.2081  0.9273
 4739SOL     OW25678   1.098   1.581   2.880  0.2319  0.0636  0.3742
 4739SOL    HW125679   1.056   1.667   2.889  0.1807  0.1405 -0.5374
 4739SOL    HW225680   1.181   1.621   2.856  0.1487 -0.8554 -1.4621
 4740SOL     OW25681   0.774   1.336   8.905 -0.2535 -0.4338  0.1843
 4740SOL    HW125682   0.824   1.402   8.953 -1.7245  0.0136  1.0875
 4740SOL    HW225683   0.702   1.397   8.886 -1.2344 -1.7167 -0.2317
 4741SOL     OW25684   4.019   3.849   6.562 -0.3514 -0.2817 -0.4299
 4741SOL    HW125685   3.989   3.902   6.488 -0.1098  0.4172 -0.0262
 4741SOL    HW225686   3.993   3.908   6.632 -1.6927 -2.1151  0.6440
 4742SOL     OW25687   0.141   4.459   3.643  1.1000 -0.5399  0.0554
 4742SOL    HW125688   0.105   4.512   3.715  0.9278  0.0449 -0.4548
 4742SOL    HW225689   0.092   4.494   3.568  0.6093  0.3292  0.7900
 4743SOL     OW25690   4.247   2.707  10.733 -0.1740 -0.0484  0.0115
 4743SOL    HW125691   4.186   2.662  10.791 -1.3747 -1.1236 -2.0690
 4743SOL    HW225692   4.295   2.633  10.697 -0.5414  1.1334 -2.9660
 4744SOL     OW25693   1.385   3.404   5.572 -0.2883 -0.6315  0.4401
 4744SOL    HW125694   1.365   3.494   5.546 -1.4856 -0.2024  2.9551
 4744SOL    HW225695   1.446   3.373   5.504  0.1048  0.7794  0.1443
 4745SOL     OW25696   1.048   2.350   4.768  0.5742  0.5249 -0.5100
 4745SOL    HW125697   0.976   2.404   4.800 -0.0136 -0.7729  0.3544
 4745SOL    HW225698   1.013   2.265   4.741  0.9468  0.2100 -0.0014
 4746SOL     OW25699   4.708   0.976   0.214  0.1578  0.6474 -0.1263
 4746SOL    HW125700   0.069   0.970   0.162 -1.4877  0.3636 -2.6313
 4746SOL    HW225701   4.716   0.895   0.264  2.3168  1.4716  0.8851
 4747SOL     OW25702   0.916   0.884  14.066 -0.2810  0.0331 -0.0548
 4747SOL    HW125703   1.005   0.861  14.092  0.3746  2.1841 -0.3501
 4747SOL    HW225704   0.932   0.967  14.021  0.1035 -0.2203 -0.3895
 4748SOL     OW25705   2.760   4.373   4.283  0.0114  0.4351  0.2760
 4748SOL    HW125706   2.750   4.468   4.285  0.5998  0.4778  1.1336
 4748SOL    HW225707   2.680   4.348   4.331  0.0072 -0.3535 -0.1339
 4749SOL     OW25708   4.389   2.044   9.256  0.2002  0.1525 -0.1153
 4749SOL    HW125709   4.442   1.967   9.277  0.7005  0.3456 -0.6764
 4749SOL    HW225710   4.454   2.112   9.243 -1.0873  1.2444 -0.8487
 4750SOL     OW25711   2.850   2.170  12.705 -0.2621 -0.5982  0.1267
 4750SOL    HW125712   2.943   2.153  12.724 -0.0996 -1.0210 -1.0990
 4750SOL    HW225713   2.854   2.250  12.654  0.5739 -0.3393  0.5914
 4751SOL     OW25714   2.961   1.307  11.971  0.0189 -0.2642 -0.3187
 4751SOL    HW125715   2.996   1.308  11.882 -2.0222 -1.3076 -1.1322
 4751SOL    HW225716   2.963   1.217  12.001 -0.6126  0.6904  2.5443
 4752SOL     OW25717   4.033   2.295   2.335 -0.4972  0.2086 -0.2116
 4752SOL    HW125718   3.938   2.284   2.335 -0.8713  3.4869  0.4462
 4752SOL    HW225719   4.044   2.370   2.394  0.2227 -1.1200  1.3513
 4753SOL     OW25720   1.063   3.583  17.254  0.3900 -0.1255  0.0484
 4753SOL    HW125721   1.123   3.625  17.315  1.0300 -0.5283 -0.3028
 4753SOL    HW225722   0.997   3.649  17.271 -0.1684  0.0587 -2.9069
 4754SOL     OW25723   0.359   2.945   6.383 -0.4840  0.3023 -0.2598
 4754SOL    HW125724   0.386   2.926   6.293 -2.5994 -1.4221 -0.5187
 4754SOL    HW225725   0.446   2.939   6.423  0.1910 -0.0687 -1.7690
 4755SOL     OW25726   4.686   1.646   3.019 -0.5044 -0.4186 -0.2302
 4755SOL    HW125727   4.694   1.732   3.062 -0.1203 -1.7029  2.2921
 4755SOL    HW225728   4.619   1.600   3.070  1.5768 -2.4992  0.5869
 4756SOL     OW25729   2.006   3.077   5.919 -0.6951  0.6517 -0.5929
 4756SOL    HW125730   2.082   3.065   5.861  0.1818 -0.1428  0.7245
 4756SOL    HW225731   1.956   3.136   5.862 -0.3743  1.9927  0.5151
 4757SOL     OW25732   3.412   0.391   6.488  0.3256 -0.0472 -0.4916
 4757SOL    HW125733   3.339   0.424   6.435  0.5516  0.5655 -0.4224
 4757SOL    HW225734   3.361   0.333   6.544  1.6439 -0.8271 -0.0944
 4758SOL     OW25735   1.183   0.532   7.948 -0.3106 -0.2590  0.0295
 4758SOL    HW125736   1.141   0.516   8.032  0.4123 -3.2238 -0.1786
 4758SOL    HW225737   1.128   0.482   7.888  0.1990 -0.2319 -0.4640
 4759SOL     OW25738   3.422   2.873  10.152 -0.2553 -0.2629 -0.0811
 4759SOL    HW125739   3.370   2.860  10.231 -0.0215  0.2583  0.1632
 4759SOL    HW225740   3.498   2.912  10.194  1.9053 -4.0218 -0.5738
 4760SOL     OW25741   3.576   1.617  15.377  0.7574 -0.1020 -0.2473
 4760SOL    HW125742   3.512   1.666  15.326  0.5723 -0.9289 -0.8047
 4760SOL    HW225743   3.591   1.544  15.317 -1.3977  0.2114 -1.1323
 4761SOL     OW25744   1.038   4.692   8.469 -0.3390 -0.1639 -0.4825
 4761SOL    HW125745   1.013   0.009   8.554 -0.7922  0.9392 -1.0839
 4761SOL    HW225746   1.120   4.649   8.490  0.5875  0.6758 -2.4125
 4762SOL     OW25747   3.688   3.468   0.975  0.1841  0.1153 -0.1899
 4762SOL    HW125748   3.727   3.526   1.041  0.1784 -0.8240  0.6404
 4762SOL    HW225749   3.682   3.385   1.023  0.6375  0.6887  0.8479
 4763SOL     OW25750   1.781   0.255   6.983 -0.9273  0.3294 -0.5180
 4763SOL    HW125751   1.869   0.251   7.019 -1.8265  0.1592  1.6520
 4763SOL    HW225752   1.749   0.166   6.994  2.0846 -1.3012 -4.7883
 4764SOL     OW25753   3.970   0.934   7.152  0.0932  0.2138 -0.5789
 4764SOL    HW125754   4.008   0.954   7.237 -0.2529 -0.5575 -0.2377
 4764SOL    HW225755   3.886   0.980   7.152  0.8441  1.5736  1.9231
 4765SOL     OW25756   3.303   2.295   2.715 -0.3206  0.3739  0.1735
 4765SOL    HW125757   3.254   2.217   2.689 -0.4013  0.8319 -1.0534
 4765SOL    HW225758   3.324   2.272   2.805 -2.4688  1.6139  0.9771
 4766SOL     OW25759   2.053   3.813  15.865 -0.3261  0.6155 -0.4907
 4766SOL    HW125760   2.017   3.770  15.788 -3.6359  0.9251  0.8809
 4766SOL    HW225761   2.020   3.770  15.944  0.4898  0.9810  0.0425
 4767SOL     OW25762   1.514   2.128   6.148 -0.4212 -0.1762  0.2752
 4767SOL    HW125763   1.436   2.122   6.204 -0.8239  0.3661 -0.2241
 4767SOL    HW225764   1.494   2.202   6.092  1.5643 -1.7751 -2.5207
 4768SOL     OW25765   1.358   2.122   0.346 -0.5050 -0.8227 -0.4122
 4768SOL    HW125766   1.314   2.177   0.411  0.2724  1.9337 -2.1886
 4768SOL    HW225767   1.388   2.200   0.299 -2.2537 -1.4864 -2.5933
 4769SOL     OW25768   2.435   3.134   5.562  0.0118  1.0199 -0.1358
 4769SOL    HW125769   2.411   3.073   5.632  4.2874 -0.9669 -0.4238
 4769SOL    HW225770   2.380   3.209   5.585 -1.8240 -0.1841 -0.5177
 4770SOL     OW25771   4.086   3.426   8.415  0.0406 -0.1666 -0.0647
 4770SOL    HW125772   4.160   3.381   8.456 -0.0752 -0.2587  0.0421
 4770SOL    HW225773   4.081   3.381   8.330 -0.0703 -2.7868  1.3171
 4771SOL     OW25774   0.250   3.202  12.567  0.0576 -0.1656  1.1704
 4771SOL    HW125775   0.310   3.177  12.637 -0.7929 -0.9243  1.6204
 4771SOL    HW225776   0.208   3.117  12.557 -2.2944  1.1987 -0.4705
 4772SOL     OW25777   3.018   0.061  17.341  0.5182 -0.1001 -0.1018
 4772SOL    HW125778   3.048   4.696  17.307  0.7752 -0.1363  0.2137
 4772SOL    HW225779   3.038   0.119  17.268  1.1866  0.1032  0.2432
 4773SOL     OW25780   4.007   1.965   2.539 -0.4888  0.4765 -0.2296
 4773SOL    HW125781   3.936   1.902   2.552  0.5387 -0.5738  0.4426
 4773SOL    HW225782   4.010   2.016   2.620 -0.3364 -0.2170  0.2061
 4774SOL     OW25783   1.282   0.024   7.681  0.2554  0.1427  0.5062
 4774SOL    HW125784   1.251   0.067   7.761 -1.0297 -0.6274  0.4305
 4774SOL    HW225785   1.368   0.066   7.677 -0.2308  0.9196 -1.3947
 4775SOL     OW25786   4.348   3.975  16.767  0.8168 -0.4758 -0.5690
 4775SOL    HW125787   4.441   3.992  16.784  1.0576  0.2933 -2.6755
 4775SOL    HW225788   4.308   4.039  16.826  1.8400  0.2718 -0.6958
 4776SOL     OW25789   3.420   0.508   8.458 -0.4058  0.2713  0.0191
 4776SOL    HW125790   3.466   0.449   8.517  0.5332  0.6694 -0.3107
 4776SOL    HW225791   3.328   0.507   8.483 -0.5003  0.9490 -0.2967
 4777SOL     OW25792   1.081   2.080   8.350  0.2061  0.8083 -0.1739
 4777SOL    HW125793   1.050   2.166   8.322 -0.2820  0.3384 -1.0753
 4777SOL    HW225794   1.024   2.020   8.301  1.0871  0.0018 -0.2040
 4778SOL     OW25795   0.136   3.128   5.520 -0.4649 -0.2789  0.1142
 4778SOL    HW125796   0.121   3.045   5.567 -0.7462 -1.2488 -1.6867
 4778SOL    HW225797   0.059   3.182   5.539 -0.4306  0.1283 -0.9390
 4779SOL     OW25798   2.508   0.231   7.381 -0.1125 -0.0670  0.4623
 4779SOL    HW125799   2.419   0.246   7.412  0.8206  0.4076  2.8986
 4779SOL    HW225800   2.540   0.315   7.414  1.0012 -0.1729 -0.3534
 4780SOL     OW25801   0.956   2.285   3.897 -0.0546 -0.0730 -0.2454
 4780SOL    HW125802   1.029   2.339   3.929 -0.0660 -0.3135  0.1839
 4780SOL    HW225803   0.893   2.306   3.966 -1.1498  0.5642 -1.4468
 4781SOL     OW25804   4.497   0.979   1.347  0.0893  0.5713  0.1640
 4781SOL    HW125805   4.416   1.003   1.392 -0.0547  0.6996 -0.1632
 4781SOL    HW225806   4.468   0.963   1.258  0.8977 -1.9382  0.3429
 4782SOL     OW25807   0.496   0.503   5.197 -0.1939 -0.5317  0.2937
 4782SOL    HW125808   0.430   0.532   5.134 -0.5104 -1.6908  0.0944
 4782SOL    HW225809   0.567   0.560   5.168 -0.7295 -0.5766 -1.1133
 4783SOL     OW25810   2.130   1.436   6.489 -0.2067  0.0808  0.0279
 4783SOL    HW125811   2.060   1.464   6.547  2.0228 -1.8054  3.6632
 4783SOL    HW225812   2.207   1.437   6.546 -0.5231 -1.1079  0.4742
 4784SOL     OW25813   2.461   3.011  13.030  0.6809 -0.0618 -0.0689
 4784SOL    HW125814   2.459   2.991  13.124  0.3783 -1.4818 -0.3809
 4784SOL    HW225815   2.523   3.084  13.027  0.9091 -0.2726 -0.5076
 4785SOL     OW25816   3.564   2.138   4.638  0.3069 -0.0105 -0.4026
 4785SOL    HW125817   3.588   2.214   4.585  2.8092 -2.7119 -3.0865
 4785SOL    HW225818   3.539   2.073   4.572  2.7326  0.8260 -2.1120
 4786SOL     OW25819   1.022   2.573  13.830  0.0410 -0.3326 -0.0950
 4786SOL    HW125820   1.050   2.631  13.900 -4.4034  1.1047  0.4581
 4786SOL    HW225821   1.108   2.567  13.787 -0.7254  2.2006 -1.9604
 4787SOL     OW25822   3.924   4.358  10.656 -0.1347  0.8672 -0.1888
 4787SOL    HW125823   3.857   4.330  10.719  0.7008  0.8818  0.7021
 4787SOL    HW225824   3.991   4.392  10.715 -0.3006  1.0504 -0.1086
 4788SOL     OW25825   1.080   0.257  14.315 -0.6485 -0.0540 -0.1335
 4788SOL    HW125826   1.047   0.298  14.235  1.9717  1.2581 -0.5319
 4788SOL    HW225827   1.172   0.284  14.318  0.0439 -2.4540  0.6850
 4789SOL     OW25828   0.782   3.145   5.278 -0.3872  0.6322  0.1560
 4789SOL    HW125829   0.810   3.145   5.369 -2.1076 -1.6859  0.7052
 4789SOL    HW225830   0.849   3.185   5.222 -0.4132 -1.0951 -1.1184
 4790SOL     OW25831   1.831   1.747  17.506  0.9056 -0.4169 -0.1632
 4790SOL    HW125832   1.847   1.653  17.501 -2.1557 -0.9900  0.9119
 4790SOL    HW225833   1.803   1.754  17.415 -0.4456  1.4929  0.4096
 4791SOL     OW25834   3.807   3.364   4.879 -0.0851  0.4781  0.2386
 4791SOL    HW125835   3.810   3.269   4.890 -0.0195  0.3958 -0.4863
 4791SOL    HW225836   3.898   3.381   4.857 -0.2548  0.5567 -0.4101
 4792SOL     OW25837   3.941   3.327   9.829  0.5288 -0.0711  0.2897
 4792SOL    HW125838   4.028   3.368   9.828 -0.0762  1.1655 -1.7776
 4792SOL    HW225839   3.977   3.239   9.839  0.5722 -0.0098  0.6625
 4793SOL     OW25840   2.289   0.694   8.109  0.2190 -0.3508  0.2681
 4793SOL    HW125841   2.353   0.753   8.070  0.4705 -0.3811  0.6261
 4793SOL    HW225842   2.287   0.728   8.199  1.8486  1.0250 -0.2184
 4794SOL     OW25843   2.680   0.696   0.673 -0.6036 -0.3160  0.1715
 4794SOL    HW125844   2.734   0.764   0.714  1.1635 -0.9634 -1.1158
 4794SOL    HW225845   2.602   0.701   0.728 -0.0703 -1.1150  0.9864
 4795SOL     OW25846   1.191   2.750  10.386 -0.1938 -0.1144  1.0996
 4795SOL    HW125847   1.203   2.696  10.463 -0.6252  1.0981  2.0288
 4795SOL    HW225848   1.282   2.771  10.363  0.1665 -1.7523  1.0367
 4796SOL     OW25849   3.188   3.967  17.189 -0.0730  0.1153 -0.0999
 4796SOL    HW125850   3.197   3.944  17.281 -0.6556 -0.0334 -0.0811
 4796SOL    HW225851   3.167   3.881  17.151  1.9978 -0.2316 -0.4783
 4797SOL     OW25852   3.005   4.064   4.023  0.2407  0.1528 -0.2623
 4797SOL    HW125853   3.014   4.153   4.057  0.0414 -0.3524  1.1100
 4797SOL    HW225854   3.053   4.071   3.941 -0.0228 -0.6609 -0.4900
 4798SOL     OW25855   0.694   1.479   8.310  0.0720  0.1009 -0.3879
 4798SOL    HW125856   0.647   1.396   8.298 -1.7042  1.1659 -0.8343
 4798SOL    HW225857   0.757   1.456   8.378 -1.3702  0.2746  0.9823
 4799SOL     OW25858   0.800   3.190  16.951 -0.3491  0.0999  0.2216
 4799SOL    HW125859   0.888   3.158  16.932  0.5022  1.1370  2.3529
 4799SOL    HW225860   0.831   3.268  16.998  0.2744  1.7037 -2.9024
 4800SOL     OW25861   2.058   0.390   6.111  0.7948  0.6339 -0.0466
 4800SOL    HW125862   2.130   0.372   6.171  0.4730 -1.5352 -0.3361
 4800SOL    HW225863   1.986   0.415   6.170 -0.8670 -0.1165 -1.7849
 4801SOL     OW25864   0.038   2.454   4.532  0.4740 -0.4877  0.5123
 4801SOL    HW125865   0.100   2.433   4.603 -0.6905 -3.7400  0.5771
 4801SOL    HW225866   0.047   2.381   4.470  0.1615 -0.8175  0.8522
 4802SOL     OW25867   1.199   0.343  11.012 -0.2085  0.0067  0.2221
 4802SOL    HW125868   1.170   0.433  11.029  1.0312  0.7496 -1.5505
 4802SOL    HW225869   1.129   0.304  10.959  0.6278  1.0869 -1.7002
 4803SOL     OW25870   3.593   1.514  11.883  0.4431 -0.0091  0.1249
 4803SOL    HW125871   3.498   1.508  11.887  0.2463  0.2952 -3.7222
 4803SOL    HW225872   3.611   1.598  11.841  1.6683  1.4951  3.6381
 4804SOL     OW25873   4.527   1.346   0.776 -0.1462  0.1288  0.2131
 4804SOL    HW125874   4.484   1.393   0.705  1.4247  0.0682 -0.7839
 4804SOL    HW225875   4.622   1.345   0.759 -0.4528  1.2023 -1.5609
 4805SOL     OW25876   4.483   0.770   6.275 -0.2591 -0.4718 -0.1751
 4805SOL    HW125877   4.549   0.831   6.243  0.0615 -1.2649 -1.0245
 4805SOL    HW225878   4.471   0.807   6.363  2.0283  0.8911 -0.4579
 4806SOL     OW25879   0.756   3.662   5.002 -0.2704 -0.1751 -0.1916
 4806SOL    HW125880   0.770   3.583   4.949  0.5655  0.1456 -0.4456
 4806SOL    HW225881   0.704   3.625   5.073 -2.4621  1.6817 -0.8493
 4807SOL     OW25882   2.747   2.387   1.038 -0.0511 -0.0675  0.2101
 4807SOL    HW125883   2.823   2.335   1.012 -1.2011 -0.8550 -1.5286
 4807SOL    HW225884   2.787   2.431   1.113 -0.3769 -0.3020  0.5225
 4808SOL     OW25885   2.737   0.843   2.599  0.7005  0.1043  0.4130
 4808SOL    HW125886   2.811   0.804   2.552  0.1725  0.8503 -1.0384
 4808SOL    HW225887   2.692   0.910   2.548  0.3611 -0.3417  0.1228
 4809SOL     OW25888   0.981   4.266   0.747 -0.1332 -0.3629 -0.0092
 4809SOL    HW125889   0.892   4.301   0.749  1.6061  3.8699  1.7341
 4809SOL    HW225890   0.986   4.200   0.816 -2.0183  0.6515  1.0844
 4810SOL     OW25891   1.699   0.557  11.009  0.1535  0.1708 -0.0275
 4810SOL    HW125892   1.606   0.532  11.002 -0.3906  2.1163  0.1981
 4810SOL    HW225893   1.698   0.528  11.100  0.4940  1.4512  0.3854
 4811SOL     OW25894   1.340   0.981  15.503 -0.2085  0.2427  0.2752
 4811SOL    HW125895   1.364   1.011  15.415  0.9277 -1.7248 -0.0943
 4811SOL    HW225896   1.245   0.979  15.503 -0.2181  0.7659  0.5856
 4812SOL     OW25897   1.519   3.283   6.275  0.2751  0.5494  0.3935
 4812SOL    HW125898   1.498   3.232   6.353 -0.5608  0.0094 -0.1864
 4812SOL    HW225899   1.430   3.317   6.260 -0.5897 -2.5273 -1.4456
 4813SOL     OW25900   4.219   1.693   2.235  0.0897 -0.1896 -0.0773
 4813SOL    HW125901   4.274   1.621   2.264 -1.6046 -2.4990 -2.7104
 4813SOL    HW225902   4.264   1.769   2.272 -0.2196  0.5928 -1.3066
 4814SOL     OW25903   0.082   1.589   7.728  0.1776 -0.3955 -0.4134
 4814SOL    HW125904   0.146   1.578   7.657  0.8668  0.7258  0.0508
 4814SOL    HW225905   0.007   1.558   7.676 -0.1606  0.0636 -0.1996
 4815SOL     OW25906   3.261   4.057   6.940  0.3513  0.0596  0.6736
 4815SOL    HW125907   3.220   3.979   6.979  0.7124  0.2486  1.4255
 4815SOL    HW225908   3.212   4.131   6.976  0.7746  0.5449  0.2374
 4816SOL     OW25909   2.215   1.521   4.211  0.2585  0.1721  0.0005
 4816SOL    HW125910   2.214   1.522   4.307 -1.1983 -1.5536  0.0123
 4816SOL    HW225911   2.245   1.604   4.175 -1.3961  0.9174  0.3425
 4817SOL     OW25912   0.732   4.066   5.605 -0.0344  0.2069  0.3259
 4817SOL    HW125913   0.696   3.977   5.607  0.5819 -0.1102 -2.2813
 4817SOL    HW225914   0.669   4.098   5.540  0.8489 -2.3302 -1.7675
 4818SOL     OW25915   0.769   1.917   8.595  0.1486  0.1458  0.2342
 4818SOL    HW125916   0.716   1.976   8.542  0.5196  1.1542  0.9851
 4818SOL    HW225917   0.704   1.855   8.629  0.8166 -2.0650 -2.4995
 4819SOL     OW25918   0.239   1.525   1.596  0.0045 -0.1536 -0.0670
 4819SOL    HW125919   0.150   1.535   1.629 -0.9114 -1.5026 -2.1412
 4819SOL    HW225920   0.253   1.431   1.605  2.3325  0.3440  1.5804
 4820SOL     OW25921   0.558   0.216   2.514 -0.1328  0.0562  0.6313
 4820SOL    HW125922   0.568   0.135   2.464  1.2460  0.0081  0.9999
 4820SOL    HW225923   0.628   0.265   2.471 -0.2325 -0.0549  0.3406
 4821SOL     OW25924   0.884   2.371   7.454 -0.1769 -0.5003  0.2084
 4821SOL    HW125925   0.894   2.326   7.370 -0.9093  0.4949 -0.4118
 4821SOL    HW225926   0.791   2.354   7.472 -0.4235  1.0442  0.3765
 4822SOL     OW25927   0.048   4.445  14.514  0.3676 -0.0998  0.7229
 4822SOL    HW125928   0.037   4.534  14.480 -0.9418 -0.6444 -0.2766
 4822SOL    HW225929   0.075   4.403  14.432  1.4616 -0.4850  1.2834
 4823SOL     OW25930   3.073   2.205  15.841  0.2801  0.0394  0.0961
 4823SOL    HW125931   3.126   2.134  15.877  1.4489  0.7228 -0.2906
 4823SOL    HW225932   3.099   2.203  15.749 -1.2164 -1.1910 -0.3028
 4824SOL     OW25933   2.036   2.043   4.800  0.2379  0.3931  0.6677
 4824SOL    HW125934   2.073   1.988   4.731  0.6011  0.2011  1.0173
 4824SOL    HW225935   2.046   1.991   4.880 -0.9942  0.5865  0.9504
 4825SOL     OW25936   3.153   0.195   3.088  0.0542  0.6873  0.1531
 4825SOL    HW125937   3.082   0.170   3.148  0.7497  0.8956  1.0623
 4825SOL    HW225938   3.201   0.113   3.079 -1.5709 -0.3297  0.6752
 4826SOL     OW25939   0.566   1.617  10.111 -0.4992  0.4764  0.2929
 4826SOL    HW125940   0.613   1.697  10.137  1.6995 -0.3796 -1.0537
 4826SOL    HW225941   0.525   1.593  10.195 -0.1385  1.3722  0.7296
 4827SOL     OW25942   1.401   2.827   1.840  0.1881 -0.2888 -0.2574
 4827SOL    HW125943   1.471   2.892   1.840 -0.2965  0.2251 -1.8023
 4827SOL    HW225944   1.414   2.790   1.752 -1.2019 -0.8105 -0.2544
 4828SOL     OW25945   0.966   1.715   6.563  0.1463  0.5327  0.4370
 4828SOL    HW125946   0.920   1.658   6.625 -0.2187 -0.0132 -0.3408
 4828SOL    HW225947   0.906   1.756   6.501 -0.0889 -0.1237  0.2357
 4829SOL     OW25948   3.788   3.552  16.719 -0.4511  0.1957 -0.2660
 4829SOL    HW125949   3.848   3.492  16.676  0.6843 -0.5023  2.2675
 4829SOL    HW225950   3.809   3.535  16.811 -3.0375 -0.6888  0.1606
 4830SOL     OW25951   0.205   3.639  16.890 -0.0805  0.1646  0.1770
 4830SOL    HW125952   0.250   3.722  16.872  0.4403 -0.1586 -0.0214
 4830SOL    HW225953   0.270   3.590  16.941  0.1191 -0.5602 -0.7555
 4831SOL     OW25954   1.504   3.444   6.670 -0.0057  0.2558 -0.1219
 4831SOL    HW125955   1.572   3.458   6.736 -0.9019  1.1409  0.6043
 4831SOL    HW225956   1.429   3.462   6.726  0.7897 -4.2854  2.4216
 4832SOL     OW25957   3.785   0.851   1.789 -0.9163 -0.2170 -0.0349
 4832SOL    HW125958   3.696   0.868   1.822 -0.8738  1.5253 -0.8012
 4832SOL    HW225959   3.769   0.851   1.694  0.2782 -0.8605 -0.2331
 4833SOL     OW25960   3.372   2.233   1.890 -0.6404 -0.4475  0.0520
 4833SOL    HW125961   3.466   2.243   1.874 -0.4663 -1.4670  0.4081
 4833SOL    HW225962   3.343   2.145   1.915 -2.8180 -0.4133 -2.3271
 4834SOL     OW25963   0.063   0.803   4.980  0.4257 -0.6244  0.3050
 4834SOL    HW125964   4.709   0.746   4.959  1.5600 -1.0337 -2.5623
 4834SOL    HW225965   0.027   0.886   5.012  1.3975 -0.6452  1.4456
 4835SOL     OW25966   3.619   0.974   7.539  0.0031 -0.1690  0.3559
 4835SOL    HW125967   3.628   0.886   7.502 -2.3144 -0.1379 -0.2756
 4835SOL    HW225968   3.701   1.007   7.501 -0.5085  1.0960  0.3469
 4836SOL     OW25969   3.370   4.691  12.508  0.1405  0.0123  0.2389
 4836SOL    HW125970   3.452   4.649  12.536 -0.1063 -0.5382  0.1371
 4836SOL    HW225971   3.348   0.034  12.576 -1.1593  0.2870 -0.4309
 4837SOL     OW25972   1.653   2.847   2.396  0.4330  0.2481  0.2868
 4837SOL    HW125973   1.596   2.878   2.326 -0.4939 -0.4298  0.7336
 4837SOL    HW225974   1.608   2.887   2.472 -0.5311 -0.8783  0.3054
 4838SOL     OW25975   4.078   4.567  11.110 -0.5059  0.0491  0.0729
 4838SOL    HW125976   4.125   4.585  11.192  3.5415 -1.1599 -1.9815
 4838SOL    HW225977   3.989   4.543  11.138 -1.1595  0.8888 -1.3070
 4839SOL     OW25978   3.743   1.928   2.779  0.1505  0.2085 -0.2174
 4839SOL    HW125979   3.755   1.834   2.796 -2.1610 -0.4866 -2.3672
 4839SOL    HW225980   3.676   1.958   2.841  2.2524  0.7385  1.7752
 4840SOL     OW25981   4.166   2.327   4.769 -0.0431 -0.2147  0.0983
 4840SOL    HW125982   4.236   2.392   4.763  0.3764 -0.7268 -0.4866
 4840SOL    HW225983   4.115   2.361   4.842 -0.0140  1.1619 -0.5159
 4841SOL     OW25984   1.068   0.848   1.588  0.2664 -0.1825 -0.5042
 4841SOL    HW125985   1.003   0.916   1.605  0.1947 -1.1498  2.9609
 4841SOL    HW225986   1.093   0.858   1.496  1.3289  0.0386 -0.1888
 4842SOL     OW25987   2.970   0.756   0.578 -0.4082  0.4937 -0.0765
 4842SOL    HW125988   2.994   0.771   0.670 -0.2218 -0.4913  0.0390
 4842SOL    HW225989   2.877   0.774   0.591 -0.2487 -0.9267  3.1346
 4843SOL     OW25990   2.977   3.506   6.957  0.4054  0.0505 -0.0807
 4843SOL    HW125991   3.068   3.476   6.948 -0.1495 -1.3560 -0.9073
 4843SOL    HW225992   2.933   3.450   6.894 -2.9024  1.7439  0.7437
 4844SOL     OW25993   2.452   0.920  17.502 -0.2827 -0.1486  0.5460
 4844SOL    HW125994   2.491   0.885  17.583 -1.4303 -4.8621 -0.9068
 4844SOL    HW225995   2.464   0.843  17.445  1.0679  0.2258  0.3134
 4845SOL     OW25996   2.199   3.315  14.401  0.4829  0.9559 -0.0358
 4845SOL    HW125997   2.238   3.228  14.390  1.2387  1.3706 -0.5866
 4845SOL    HW225998   2.107   3.294  14.419  1.4358 -1.8138  1.6267
 4846SOL     OW25999   4.029   0.588   6.279  0.1680 -0.0856  0.5445
 4846SOL    HW126000   3.982   0.593   6.196 -0.2045  0.9676  0.8126
 4846SOL    HW226001   4.099   0.649   6.257 -0.9473  0.5444 -1.1946
 4847SOL     OW26002   1.473   3.764   2.003 -0.3209  0.1497 -0.1053
 4847SOL    HW126003   1.493   3.672   2.017 -1.9279 -0.3769 -1.3059
 4847SOL    HW226004   1.558   3.796   2.033 -0.8649  1.3945  0.1181
 4848SOL     OW26005   2.339   4.589   6.616  0.1368  0.2642 -0.1597
 4848SOL    HW126006   2.266   4.526   6.621 -0.1723  0.5798 -0.7503
 4848SOL    HW226007   2.367   4.595   6.525  0.9118  0.6953  0.1104
 4849SOL     OW26008   0.874   3.386   3.326  0.3095 -0.9236 -0.9755
 4849SOL    HW126009   0.872   3.291   3.313  2.6779 -1.1169  0.2329
 4849SOL    HW226010   0.939   3.407   3.259  0.6847 -2.0701 -0.9618
 4850SOL     OW26011   2.609   3.245  12.715 -0.0988  0.3171 -0.1320
 4850SOL    HW126012   2.626   3.218  12.805  0.8274  0.2419 -0.3364
 4850SOL    HW226013   2.651   3.330  12.727 -2.5985  1.6580 -0.9532
 4851SOL     OW26014   4.192   4.025   3.839  0.0070  0.3748 -0.0360
 4851SOL    HW126015   4.271   3.986   3.800  1.1640  2.1572  0.5496
 4851SOL    HW226016   4.202   4.005   3.932 -2.7693  1.9601  0.5850
 4852SOL     OW26017   0.235   2.292   2.319 -0.4768  0.0348 -0.8042
 4852SOL    HW126018   0.237   2.266   2.411  0.5636  0.5556 -0.6742
 4852SOL    HW226019   0.324   2.273   2.288  0.1975  1.7097  0.1138
 4853SOL     OW26020   2.355   4.664   4.952 -0.5966 -0.5727 -0.4786
 4853SOL    HW126021   2.423   4.600   4.972  1.0697  1.5968  0.8545
 4853SOL    HW226022   2.396   4.708   4.877  0.6015 -1.6613 -0.4751
 4854SOL     OW26023   3.052   0.601   8.955 -0.7002 -0.0713  0.4267
 4854SOL    HW126024   3.119   0.667   8.936 -0.1329  0.1646  3.2487
 4854SOL    HW226025   3.100   0.518   8.948 -0.2753  0.1280  1.0558
 4855SOL     OW26026   2.768   3.374  10.245 -0.2046 -0.8151 -0.3354
 4855SOL    HW126027   2.695   3.436  10.239  0.6475  0.1878 -0.4027
 4855SOL    HW226028   2.709   3.299  10.253 -2.2114  0.9854  2.0403
 4856SOL     OW26029   3.573   4.041  11.346 -0.5795 -0.2169  0.7542
 4856SOL    HW126030   3.508   4.111  11.339 -0.9355 -0.7180 -0.8691
 4856SOL    HW226031   3.630   4.074  11.277  0.8543  0.1332  2.1123
 4857SOL     OW26032   1.904   2.683   4.747  0.0465 -0.2135  0.0409
 4857SOL    HW126033   1.958   2.675   4.825 -0.6354  1.5157  0.6974
 4857SOL    HW226034   1.964   2.696   4.673  0.5207  0.8670  0.6164
 4858SOL     OW26035   0.131   1.630  12.207 -0.8309 -0.5226 -0.0174
 4858SOL    HW126036   0.114   1.661  12.296  1.4148  2.3664 -0.5733
 4858SOL    HW226037   0.226   1.635  12.195 -1.2235  1.8299 -2.1819
 4859SOL     OW26038   0.860   1.119   8.090 -0.0800 -0.4488 -0.2889
 4859SOL    HW126039   0.928   1.186   8.086  0.5563 -1.0451  0.4697
 4859SOL    HW226040   0.898   1.061   8.156 -1.5925  1.0355  1.9088
 4860SOL     OW26041   0.876   1.386   8.530  0.0648 -0.0653 -0.1759
 4860SOL    HW126042   0.943   1.342   8.583  0.5201 -0.5470 -1.1461
 4860SOL    HW226043   0.904   1.477   8.543  1.3400 -0.3512 -0.9171
 4861SOL     OW26044   3.879   2.059   3.237 -0.0697  0.6394  0.0360
 4861SOL    HW126045   3.970   2.070   3.267 -0.5470 -0.7535  1.9475
 4861SOL    HW226046   3.910   2.036   3.149 -1.3401  0.7178 -0.4315
 4862SOL     OW26047   2.031   0.243   7.109  0.2294  0.1150  0.7439
 4862SOL    HW126048   1.994   0.246   7.197  1.5511 -1.9592  1.3625
 4862SOL    HW226049   2.125   0.234   7.122  0.3746  0.1140 -0.3429
 4863SOL     OW26050   1.778   0.960   1.390 -0.7658 -0.3530  0.0620
 4863SOL    HW126051   1.788   0.965   1.295  2.3594  0.2986  0.4197
 4863SOL    HW226052   1.802   1.047   1.422  0.6951 -1.4253  1.8648
 4864SOL     OW26053   1.962   2.984   1.764 -0.1044  0.2996 -0.6938
 4864SOL    HW126054   1.907   2.907   1.752 -0.2816  0.5270 -1.3134
 4864SOL    HW226055   1.946   3.037   1.686 -0.6299 -0.8460 -1.3657
 4865SOL     OW26056   4.185   1.357   2.440 -0.2205  0.0974  0.0659
 4865SOL    HW126057   4.213   1.448   2.449  2.7889 -0.8033  0.0015
 4865SOL    HW226058   4.119   1.353   2.510 -3.3402 -2.5418 -3.0477
 4866SOL     OW26059   4.356   1.049   8.679  0.4449  0.3666  0.1502
 4866SOL    HW126060   4.373   1.100   8.759 -2.6495 -0.7708  1.5437
 4866SOL    HW226061   4.437   1.060   8.630 -0.3487 -0.1957 -1.2747
 4867SOL     OW26062   3.959   1.513   8.662  0.4880 -0.2609 -0.9847
 4867SOL    HW126063   3.957   1.500   8.757 -1.7909 -1.2535 -1.1768
 4867SOL    HW226064   4.048   1.544   8.648  0.5703  0.5574  1.3795
 4868SOL     OW26065   0.723   2.067   2.580  0.3168  0.0243 -0.2957
 4868SOL    HW126066   0.647   2.125   2.570  1.3732  1.4370  0.0067
 4868SOL    HW226067   0.683   2.012   2.648  1.6381  1.1172  1.3742
 4869SOL     OW26068   3.859   3.501  11.033  0.8353 -0.3000 -0.1582
 4869SOL    HW126069   3.854   3.434  10.966 -2.8881 -0.8212  0.6523
 4869SOL    HW226070   3.947   3.494  11.070  1.8157 -1.3145 -2.6845
 4870SOL     OW26071   1.347   0.310  14.265  0.2636 -0.1545  0.4009
 4870SOL    HW126072   1.374   0.271  14.181  1.4130  0.5532  0.4440
 4870SOL    HW226073   1.430   0.326  14.308  0.9955 -2.6408 -0.0761
 4871SOL     OW26074   1.143   1.510  14.922 -0.1980 -0.0900 -0.2230
 4871SOL    HW126075   1.114   1.530  14.833 -1.8937  0.7895  0.5118
 4871SOL    HW226076   1.104   1.426  14.944  0.9558 -0.1350  1.6426
 4872SOL     OW26077   0.539   1.576   5.636  0.1863  0.5853 -0.0779
 4872SOL    HW126078   0.458   1.571   5.584  0.5059 -0.9990 -0.4318
 4872SOL    HW226079   0.597   1.532   5.574 -0.9985 -1.1501  0.0209
 4873SOL     OW26080   2.100   2.016   5.804  0.5996  0.0111  0.1036
 4873SOL    HW126081   2.150   2.097   5.795 -1.2343  1.0736 -0.4774
 4873SOL    HW226082   2.022   2.055   5.843  0.7275 -0.9492  1.3138
 4874SOL     OW26083   1.307   4.495   8.279 -0.0842  0.4378 -0.0580
 4874SOL    HW126084   1.240   4.473   8.214 -0.2524  0.4758  0.1010
 4874SOL    HW226085   1.379   4.444   8.242  1.7673  2.6679  0.4994
 4875SOL     OW26086   2.280   2.912   5.119 -0.3168 -0.2405 -0.5777
 4875SOL    HW126087   2.332   2.971   5.173 -0.4684  0.3469 -1.0773
 4875SOL    HW226088   2.254   2.966   5.045 -1.5962  0.5704  0.4527
 4876SOL     OW26089   4.176   2.048   0.147 -0.1239 -0.3820 -0.2587
 4876SOL    HW126090   4.118   2.001   0.088 -0.9467 -0.7751  0.8590
 4876SOL    HW226091   4.164   1.993   0.225  0.1367 -1.2341 -0.8247
 4877SOL     OW26092   1.692   3.581   1.518  0.2243 -0.7722 -0.0898
 4877SOL    HW126093   1.767   3.591   1.576 -1.3196 -0.2899  1.8384
 4877SOL    HW226094   1.688   3.665   1.473  2.1657 -0.2706  0.6872
 4878SOL     OW26095   0.346   2.139  13.207 -0.0184  0.5497 -0.1153
 4878SOL    HW126096   0.424   2.163  13.258 -0.8409  1.1471  0.8477
 4878SOL    HW226097   0.335   2.044  13.202  0.2586  0.5776 -1.4332
 4879SOL     OW26098   0.857   0.102   9.003  0.5394 -0.2992 -0.2398
 4879SOL    HW126099   0.937   0.134   9.044  1.6488 -4.1418  0.6060
 4879SOL    HW226100   0.809   0.185   8.996  0.8955 -0.1833 -1.3230
 4880SOL     OW26101   1.687   4.089  10.758 -0.2237 -0.7037 -0.2594
 4880SOL    HW126102   1.620   4.146  10.720 -1.6811 -0.9299  1.9146
 4880SOL    HW226103   1.719   4.044  10.680  0.7808  0.4050 -0.4969
 4881SOL     OW26104   1.849   3.807   1.456  0.2662 -0.0934  0.2830
 4881SOL    HW126105   1.771   3.862   1.464 -0.3172 -0.7184 -1.0175
 4881SOL    HW226106   1.861   3.797   1.550 -0.4780 -3.2826  0.0376
 4882SOL     OW26107   1.413   1.840   4.366 -0.2037 -0.4342  0.0664
 4882SOL    HW126108   1.342   1.900   4.341  0.7277  0.6820  0.1484
 4882SOL    HW226109   1.359   1.762   4.381 -1.1125  0.3204  0.7613
 4883SOL     OW26110   3.248   0.759  12.324 -0.2928 -0.4118  0.5823
 4883SOL    HW126111   3.205   0.682  12.286  0.7655 -0.2095 -0.9997
 4883SOL    HW226112   3.339   0.733  12.314 -0.3698 -0.2155 -0.6592
 4884SOL     OW26113   2.679   3.612  15.588  0.3521  0.0639  0.2388
 4884SOL    HW126114   2.621   3.564  15.647 -0.4435 -0.1109 -0.6864
 4884SOL    HW226115   2.633   3.696  15.592  0.8106  0.3306 -0.0681
 4885SOL     OW26116   3.708   2.943  13.737 -0.1256 -0.5133  0.0846
 4885SOL    HW126117   3.724   2.851  13.718 -0.5212 -1.1440  2.7564
 4885SOL    HW226118   3.754   3.000  13.675  0.7998  0.4820  1.6679
 4886SOL     OW26119   2.591   3.247   7.386  0.4121  0.3665  0.3418
 4886SOL    HW126120   2.653   3.220   7.454  1.3024  2.2668  0.2821
 4886SOL    HW226121   2.633   3.308   7.326  1.5377 -1.2192 -0.4713
 4887SOL     OW26122   4.238   4.226   5.238 -0.5631 -0.4421 -0.0624
 4887SOL    HW126123   4.213   4.177   5.316  1.2599  0.0658  0.8383
 4887SOL    HW226124   4.166   4.204   5.178 -0.1922  2.3286 -1.5330
 4888SOL     OW26125   4.650   0.490  13.111 -0.0521 -0.2716 -0.1292
 4888SOL    HW126126   4.634   0.441  13.031  3.5466 -1.1829 -0.2824
 4888SOL    HW226127   4.646   0.421  13.177 -5.1765 -0.9089 -1.1438
 4889SOL     OW26128   0.419   2.401  15.702  0.1940  0.3601 -0.2054
 4889SOL    HW126129   0.465   2.426  15.782 -4.0066  1.2645  1.8668
 4889SOL    HW226130   0.371   2.481  15.682  2.4149  1.8209  0.3521
 4890SOL     OW26131   1.284   3.918   1.122  0.5898 -0.5992 -0.2435
 4890SOL    HW126132   1.321   3.831   1.107  0.3744 -0.7898  0.3411
 4890SOL    HW226133   1.287   3.953   1.032 -1.0034  0.4085  0.1017
 4891SOL     OW26134   0.354   1.066   6.189  0.2005 -0.2343  0.4910
 4891SOL    HW126135   0.438   1.037   6.224  0.4755 -0.0969 -0.0667
 4891SOL    HW226136   0.296   0.990   6.191 -0.4348  0.2629  1.1227
 4892SOL     OW26137   3.126   2.897   6.915  1.7679  0.2938  0.2807
 4892SOL    HW126138   3.035   2.901   6.944  1.4096 -0.2095 -0.7888
 4892SOL    HW226139   3.119   2.820   6.859 -1.9492 -0.4456  1.7836
 4893SOL     OW26140   1.701   3.977   7.282 -0.0862  0.3384 -0.2136
 4893SOL    HW126141   1.769   4.041   7.259 -3.3708  4.0742  0.4283
 4893SOL    HW226142   1.627   4.033   7.304 -1.0674 -0.4556 -1.5592
 4894SOL     OW26143   0.376   3.735   0.804 -0.5070  1.0732 -0.5224
 4894SOL    HW126144   0.451   3.764   0.752  0.0349  0.4183 -0.1159
 4894SOL    HW226145   0.417   3.737   0.891 -0.3615 -0.8957 -0.5372
 4895SOL     OW26146   1.683   0.399   9.070 -0.1290  0.3079 -0.3378
 4895SOL    HW126147   1.655   0.308   9.073 -0.3207  0.4358  1.5118
 4895SOL    HW226148   1.621   0.455   9.116  0.8608 -0.1220  1.5236
 4896SOL     OW26149   1.968   2.886  14.718  0.6397 -0.1934 -0.2414
 4896SOL    HW126150   1.917   2.810  14.744 -1.3156  0.4794 -2.1110
 4896SOL    HW226151   1.907   2.951  14.684  2.5578  0.6424 -2.0584
 4897SOL     OW26152   3.143   3.955  14.654 -0.1376 -0.3115  0.1899
 4897SOL    HW126153   3.194   4.011  14.595 -1.5894  0.7185 -0.0679
 4897SOL    HW226154   3.056   3.987  14.631  0.2556 -0.6861 -1.8308
 4898SOL     OW26155   1.007   1.942  11.923 -0.1891  0.3506 -0.2010
 4898SOL    HW126156   0.935   1.975  11.977 -0.1525 -0.2409  0.2149
 4898SOL    HW226157   1.069   2.010  11.948 -0.2130  0.0299  0.7312
 4899SOL     OW26158   4.700   3.584   8.803  0.2003  0.1287 -0.1903
 4899SOL    HW126159   4.663   3.606   8.889 -0.4140 -1.0842 -0.1394
 4899SOL    HW226160   4.624   3.559   8.750  0.6417  0.0149 -0.7542
 4900SOL     OW26161   1.839   3.374   5.136 -0.6069  0.3352 -0.1877
 4900SOL    HW126162   1.838   3.312   5.209  1.9412 -0.7137 -1.0465
 4900SOL    HW226163   1.857   3.311   5.067  1.1801 -3.0743  3.4303
 4901SOL     OW26164   2.285   0.223   4.502  0.1928  0.4386  0.2031
 4901SOL    HW126165   2.232   0.149   4.473  0.5286  0.2546  0.0656
 4901SOL    HW226166   2.218   0.274   4.548 -0.0500 -0.0686  0.4041
 4902SOL     OW26167   3.465   2.979   5.888 -0.3676  0.1698  0.3152
 4902SOL    HW126168   3.502   3.039   5.953  2.1544 -0.6952 -0.3445
 4902SOL    HW226169   3.492   2.896   5.928 -0.8699  1.1329  2.7048
 4903SOL     OW26170   3.441   3.350  12.643  0.0112  0.2146  0.4445
 4903SOL    HW126171   3.346   3.342  12.648 -0.0529  0.3739 -0.5861
 4903SOL    HW226172   3.457   3.304  12.561  0.6403 -1.2408  1.3756
 4904SOL     OW26173   2.697   3.594   6.699 -0.1420  0.5917  0.1111
 4904SOL    HW126174   2.745   3.610   6.618 -0.9881  1.2509 -0.2685
 4904SOL    HW226175   2.656   3.510   6.675 -1.2729  0.4042  2.6698
 4905SOL     OW26176   4.591   4.227   8.604  0.0477 -0.0135  0.2194
 4905SOL    HW126177   4.515   4.275   8.573 -1.0022  1.3311  4.8737
 4905SOL    HW226178   4.565   4.187   8.687 -1.3520  1.5386  0.5136
 4906SOL     OW26179   1.752   1.162  13.896  0.4839 -0.1409  0.0710
 4906SOL    HW126180   1.777   1.153  13.804  0.9099  1.6127  0.0231
 4906SOL    HW226181   1.809   1.233  13.926 -0.3240  1.3987 -2.0980
 4907SOL     OW26182   3.937   3.686   1.354 -0.4727 -0.5058 -0.4831
 4907SOL    HW126183   3.884   3.660   1.278 -1.2392 -1.5488  0.4243
 4907SOL    HW226184   4.024   3.698   1.315 -0.4548  0.4556 -0.1384
 4908SOL     OW26185   1.634   3.766  15.768  0.4220 -0.2158  0.2930
 4908SOL    HW126186   1.676   3.834  15.822  0.0383  1.4021 -1.4111
 4908SOL    HW226187   1.650   3.684  15.814  2.7452 -0.5223 -1.0531
 4909SOL     OW26188   2.364   4.658   3.176 -0.4860 -0.0798 -0.1965
 4909SOL    HW126189   2.307   4.656   3.099 -1.6193 -1.5082  0.6691
 4909SOL    HW226190   2.436   4.602   3.148  0.4445  0.6544  0.7204
 4910SOL     OW26191   0.798   2.371   3.408  0.2294 -0.2163 -0.2623
 4910SOL    HW126192   0.743   2.449   3.396 -1.6715 -1.8231 -1.8463
 4910SOL    HW226193   0.815   2.378   3.502 -0.9183 -0.0251 -0.0719
 4911SOL     OW26194   3.427   1.687   6.393 -0.1125 -0.3141  0.3545
 4911SOL    HW126195   3.340   1.648   6.392 -0.3474  0.1666  1.5647
 4911SOL    HW226196   3.452   1.695   6.301  2.0520  0.2379  0.9959
 4912SOL     OW26197   1.243   1.054   7.983 -0.5529 -0.3695 -0.0405
 4912SOL    HW126198   1.304   0.983   7.962 -0.8916 -0.8401  0.5528
 4912SOL    HW226199   1.164   1.006   8.010 -0.4541  0.0482  1.0165
 4913SOL     OW26200   2.456   2.370   4.448 -0.2263 -0.0616 -0.5676
 4913SOL    HW126201   2.463   2.434   4.518 -2.0999 -0.3014 -0.1721
 4913SOL    HW226202   2.490   2.426   4.378 -2.8956  0.1700 -1.6608
 4914SOL     OW26203   0.788   2.955  17.367  0.0851  0.2211  0.2001
 4914SOL    HW126204   0.810   3.030  17.313 -1.6645  0.2040 -0.5607
 4914SOL    HW226205   0.797   3.000  17.451 -1.5437 -0.0426  0.5174
 4915SOL     OW26206   2.560   4.223   6.127 -0.0366 -0.1585 -0.0710
 4915SOL    HW126207   2.614   4.233   6.048  0.4718 -1.6749  0.0869
 4915SOL    HW226208   2.482   4.267   6.094 -0.1560 -0.4904 -0.2320
 4916SOL     OW26209   3.596   1.009  15.992  1.1030  0.0732 -0.1587
 4916SOL    HW126210   3.580   0.919  15.963  1.8439  0.1505 -0.7946
 4916SOL    HW226211   3.665   1.035  15.931  0.3690  0.6699 -0.7394
 4917SOL     OW26212   1.700   3.131   3.801  0.1596 -0.0384  0.0738
 4917SOL    HW126213   1.626   3.179   3.839 -0.3729 -1.3410  0.6767
 4917SOL    HW226214   1.772   3.183   3.838 -0.8358  2.4180 -1.4232
 4918SOL     OW26215   2.532   0.939  16.493 -0.4212  0.4933 -0.6176
 4918SOL    HW126216   2.601   0.998  16.463  2.4383 -2.5156  0.0716
 4918SOL    HW226217   2.591   0.871  16.525  0.6736  0.6964 -2.2036
 4919SOL     OW26218   3.674   2.199  11.409 -0.4666  0.0046 -0.5610
 4919SOL    HW126219   3.760   2.222  11.372 -0.1209  0.4736  0.5368
 4919SOL    HW226220   3.623   2.279  11.393 -1.8326 -1.0769 -1.6351
 4920SOL     OW26221   0.123   0.880   3.480 -0.0764 -0.0617 -0.2659
 4920SOL    HW126222   0.050   0.936   3.509  0.8516  1.0756 -0.1156
 4920SOL    HW226223   0.078   0.796   3.486  0.3607 -0.2665  0.0754
 4921SOL     OW26224   1.661   1.977   7.473  0.5154  0.1379  0.5630
 4921SOL    HW126225   1.707   2.018   7.546  1.0323 -0.5473  0.6276
 4921SOL    HW226226   1.671   2.047   7.409  2.2288 -1.6661 -1.1561
 4922SOL     OW26227   4.382   2.882   8.067 -0.0081 -0.1593  0.4864
 4922SOL    HW126228   4.351   2.972   8.062  2.0235  0.5260  0.2313
 4922SOL    HW226229   4.298   2.853   8.103 -0.6565  1.3472  0.1693
 4923SOL     OW26230   0.988   3.770   5.728  0.8684 -0.2788  0.0823
 4923SOL    HW126231   1.002   3.855   5.687 -0.3687  0.1578  0.5838
 4923SOL    HW226232   1.062   3.749   5.786  0.4321 -2.5123 -0.1569
 4924SOL     OW26233   4.136   3.956   2.410 -0.1178  0.2624 -0.3525
 4924SOL    HW126234   4.139   4.028   2.346  1.7728 -0.9829 -1.6787
 4924SOL    HW226235   4.206   3.977   2.472  2.0924 -0.2390 -2.6499
 4925SOL     OW26236   3.729   2.239  16.048 -0.1927  0.5811  0.6931
 4925SOL    HW126237   3.639   2.206  16.055 -0.6773  1.8836  0.5576
 4925SOL    HW226238   3.720   2.325  16.006  1.2207  0.7443  0.7298
 4926SOL     OW26239   2.020   3.356  17.422 -0.3072 -0.2414  0.5979
 4926SOL    HW126240   2.105   3.313  17.428 -0.0743 -0.0304 -1.3975
 4926SOL    HW226241   2.029   3.406  17.341  0.8197 -0.8633  0.3388
 4927SOL     OW26242   0.447   3.144  12.356 -0.2885  0.3697  0.2226
 4927SOL    HW126243   0.368   3.150  12.409  0.0505  1.4616  0.5989
 4927SOL    HW226244   0.512   3.092  12.404  1.1391  0.0872 -2.0051
 4928SOL     OW26245   3.992   2.741  10.129 -0.2671 -0.1560  0.4347
 4928SOL    HW126246   3.906   2.744  10.172  0.1786 -0.6566  1.3565
 4928SOL    HW226247   3.984   2.653  10.093 -1.3432  0.1523 -0.0893
 4929SOL     OW26248   2.327   2.896   4.788 -0.8660  0.2909  0.3092
 4929SOL    HW126249   2.343   2.968   4.849  3.0879  0.5377 -1.0051
 4929SOL    HW226250   2.401   2.848   4.823  0.6419  1.0673 -1.7945
 4930SOL     OW26251   3.160   2.007  17.680 -0.5183  0.0841 -0.0455
 4930SOL    HW126252   3.146   1.984   0.090  1.1265  0.7673  0.3671
 4930SOL    HW226253   3.072   1.987  17.648 -0.7648  0.5300  0.3446
 4931SOL     OW26254   0.855   0.345   6.246 -0.4366  0.2173  0.1456
 4931SOL    HW126255   0.934   0.380   6.287  0.4719 -1.4726 -0.1777
 4931SOL    HW226256   0.891   0.335   6.158  0.5679 -1.1246  0.7097
 4932SOL     OW26257   3.244   0.284   4.321  0.3963 -0.3140 -0.6813
 4932SOL    HW126258   3.192   0.296   4.242  1.7663  0.0839 -1.5207
 4932SOL    HW226259   3.196   0.219   4.373  0.4324  1.1032  1.1274
 4933SOL     OW26260   0.862   2.281   1.560 -0.3558  0.3287 -0.1514
 4933SOL    HW126261   0.892   2.348   1.498  0.7745  0.7336  0.8332
 4933SOL    HW226262   0.914   2.209   1.524 -3.3880 -1.4142 -1.0251
 4934SOL     OW26263   1.416   2.378   2.033  0.1007 -0.8485  0.4002
 4934SOL    HW126264   1.320   2.371   2.034  0.0490 -0.1129  0.2531
 4934SOL    HW226265   1.425   2.403   1.941  0.1339  1.5671  1.0822
 4935SOL     OW26266   0.395   3.199   3.103 -0.0752 -0.7404 -0.0821
 4935SOL    HW126267   0.394   3.265   3.173  0.4368  1.0879 -1.7937
 4935SOL    HW226268   0.361   3.250   3.029  2.3976 -3.1005 -2.8353
 4936SOL     OW26269   4.643   1.096  14.274  0.7956  0.4307 -0.2117
 4936SOL    HW126270   4.647   1.181  14.318  1.0223 -0.2242  1.0359
 4936SOL    HW226271   4.552   1.098  14.243 -0.1700 -0.5177  2.5729
 4937SOL     OW26272   3.932   2.849   3.298  0.3685 -0.0152  0.1617
 4937SOL    HW126273   4.017   2.886   3.275  1.3113 -0.9181  2.2480
 4937SOL    HW226274   3.963   2.761   3.320 -0.7296 -0.4797 -0.1259
 4938SOL     OW26275   0.170   1.734   1.879 -0.4888  0.1082  0.0790
 4938SOL    HW126276   0.123   1.673   1.822  1.4140  1.2924 -2.7638
 4938SOL    HW226277   0.202   1.791   1.809 -0.0221  1.1357  1.1294
 4939SOL     OW26278   4.001   0.243   2.091 -0.2667  0.5599  0.2358
 4939SOL    HW126279   3.927   0.298   2.066 -0.3397  0.4442  0.1985
 4939SOL    HW226280   3.959   0.178   2.147  0.7708 -0.5354 -0.2507
 4940SOL     OW26281   2.347   1.810   2.196  0.5286  0.2594  0.1289
 4940SOL    HW126282   2.413   1.874   2.219  0.6007  0.8379 -1.6424
 4940SOL    HW226283   2.402   1.732   2.199  0.3594  0.1330 -0.0076
 4941SOL     OW26284   3.596   3.462   3.762  0.1426  0.0941  0.3461
 4941SOL    HW126285   3.679   3.468   3.715  0.5446 -0.0376  1.0549
 4941SOL    HW226286   3.629   3.484   3.849  2.0020 -0.5348 -0.1967
 4942SOL     OW26287   3.999   2.787   5.861  0.1280  0.7760  0.1730
 4942SOL    HW126288   3.981   2.765   5.952 -1.2902 -1.3144 -0.6137
 4942SOL    HW226289   3.917   2.799   5.814 -0.0078 -0.0150  0.2175
 4943SOL     OW26290   1.694   1.297  17.087 -0.1352 -0.4014  0.0229
 4943SOL    HW126291   1.666   1.350  17.013  2.8135  3.3601  1.5631
 4943SOL    HW226292   1.785   1.283  17.061 -0.6892  0.2329 -2.2039
 4944SOL     OW26293   4.300   0.189   5.492  0.2746 -0.4397  0.3127
 4944SOL    HW126294   4.227   0.127   5.486 -0.2388  0.3008 -0.8947
 4944SOL    HW226295   4.309   0.207   5.586 -0.7299 -2.2687  0.7621
 4945SOL     OW26296   2.048   2.588   5.191 -0.3187  0.0586 -0.2900
 4945SOL    HW126297   2.013   2.628   5.271  1.5932  1.4024 -0.1309
 4945SOL    HW226298   2.029   2.495   5.205  0.5894 -0.6279 -3.7588
 4946SOL     OW26299   0.375   2.610  10.935 -0.0169 -0.3649 -0.3664
 4946SOL    HW126300   0.343   2.570  11.016  1.8993 -0.3945  0.3812
 4946SOL    HW226301   0.457   2.642  10.974 -1.0481 -1.4197  2.6483
 4947SOL     OW26302   0.627   2.204   7.257 -0.1716  0.3400 -0.4281
 4947SOL    HW126303   0.537   2.187   7.230 -0.3576  0.3974  0.1648
 4947SOL    HW226304   0.599   2.242   7.340  3.1717 -1.5319  1.5693
 4948SOL     OW26305   1.381   0.739   8.257  0.7395 -0.2027 -0.5352
 4948SOL    HW126306   1.394   0.832   8.238 -1.9389 -0.4604 -3.5622
 4948SOL    HW226307   1.301   0.727   8.309  0.8146 -0.1857 -0.4148
 4949SOL     OW26308   2.608   4.057  15.331 -0.3211 -0.4790 -0.1773
 4949SOL    HW126309   2.570   4.137  15.294 -0.5091 -0.4398  0.0972
 4949SOL    HW226310   2.608   3.999  15.255  3.1276  0.0738 -0.5734
 4950SOL     OW26311   0.317   0.855   4.448  0.2981  0.0458  0.5222
 4950SOL    HW126312   0.279   0.770   4.470 -2.6037  0.8679 -1.3773
 4950SOL    HW226313   0.308   0.850   4.353 -0.1038 -1.3657  0.6252
 4951SOL     OW26314   1.905   1.908  15.434 -0.0891  0.1517  0.4007
 4951SOL    HW126315   1.899   1.985  15.378  3.2847  0.4285  0.4440
 4951SOL    HW226316   1.966   1.848  15.389  2.3099  0.8985  2.7189
 4952SOL     OW26317   2.835   2.354  10.782  0.2980  0.1518  0.1143
 4952SOL    HW126318   2.771   2.323  10.717 -1.3115 -0.0861  1.8320
 4952SOL    HW226319   2.851   2.276  10.835 -1.2371 -0.3003 -0.0981
 4953SOL     OW26320   0.463   3.879   5.829  0.2020  0.3271 -0.7902
 4953SOL    HW126321   0.383   3.841   5.863 -0.8036  4.5144  1.4755
 4953SOL    HW226322   0.523   3.815   5.868 -0.2327  0.3386 -0.1150
 4954SOL     OW26323   1.825   4.128   4.682  0.0836 -0.3621 -0.0202
 4954SOL    HW126324   1.857   4.166   4.764 -0.9209 -0.2724  0.3331
 4954SOL    HW226325   1.829   4.206   4.626  0.9319  0.6994  1.5194
 4955SOL     OW26326   4.044   0.231   9.021 -0.1433  0.5592  0.0430
 4955SOL    HW126327   3.968   0.193   9.066  0.5061  0.2479  0.8858
 4955SOL    HW226328   4.017   0.322   9.010 -2.3673 -0.4642 -2.9025
 4956SOL     OW26329   3.544   3.722   1.291 -0.3685  0.3711  0.2701
 4956SOL    HW126330   3.496   3.804   1.282 -0.3751  0.1915 -1.2221
 4956SOL    HW226331   3.475   3.657   1.305 -0.4519  0.1232 -1.3204
 4957SOL     OW26332   0.135   2.655   7.433  0.4498 -0.1219  0.3181
 4957SOL    HW126333   0.128   2.688   7.344 -0.9227 -2.1465 -0.3214
 4957SOL    HW226334   0.117   2.741   7.472 -2.9007 -0.9296  0.5474
 4958SOL     OW26335   3.725   3.009  12.230 -0.5356  0.1876  0.1931
 4958SOL    HW126336   3.783   2.937  12.204  0.9779  1.0001  1.2961
 4958SOL    HW226337   3.787   3.081  12.214 -0.7059  0.0218 -1.2335
 4959SOL     OW26338   3.025   4.222  11.384  0.0788 -0.2818  0.1672
 4959SOL    HW126339   3.111   4.229  11.426 -0.2972  3.6596  0.2809
 4959SOL    HW226340   2.968   4.259  11.451 -1.2781  0.0891 -1.2124
 4960SOL     OW26341   2.299   2.743   6.819  0.1291  0.3248  0.3871
 4960SOL    HW126342   2.245   2.823   6.821  1.7035  1.5130 -2.7792
 4960SOL    HW226343   2.341   2.759   6.903  2.8172 -0.0284 -0.8837
 4961SOL     OW26344   4.384   1.083   0.147 -0.1691 -0.1960 -0.5084
 4961SOL    HW126345   4.435   1.153   0.187 -0.1394 -0.2897 -0.3816
 4961SOL    HW226346   4.409   1.008   0.201  3.3638  1.3408 -0.0296
 4962SOL     OW26347   3.494   4.180   6.817 -0.4530  0.1291  0.5996
 4962SOL    HW126348   3.407   4.156   6.850 -1.2202 -1.6474 -2.7653
 4962SOL    HW226349   3.521   4.101   6.771 -0.6191 -0.3952  1.3997
 4963SOL     OW26350   0.500   2.633   8.405  0.0534 -0.1027  0.8665
 4963SOL    HW126351   0.503   2.565   8.337  3.1657  0.1051  0.8072
 4963SOL    HW226352   0.415   2.671   8.381  0.1171 -1.1077 -0.9599
 4964SOL     OW26353   3.609   3.502   8.265  0.2923 -0.5611  0.3589
 4964SOL    HW126354   3.619   3.471   8.355 -0.7900  0.0848  0.6961
 4964SOL    HW226355   3.528   3.454   8.246  0.7798 -1.1651 -0.1766
 4965SOL     OW26356   3.087   1.382   0.735 -0.1316 -0.1650 -0.3909
 4965SOL    HW126357   2.995   1.359   0.752  0.0457  1.1417  2.4033
 4965SOL    HW226358   3.125   1.310   0.786 -1.5870 -2.2825 -2.2692
 4966SOL     OW26359   2.902   1.020   5.330 -0.5406  0.3201  0.1074
 4966SOL    HW126360   2.823   0.967   5.340 -0.1022  0.0802  2.1789
 4966SOL    HW226361   2.903   1.072   5.249  1.2773 -1.5430 -1.0494
 4967SOL     OW26362   2.290   0.124  15.295 -0.0900  0.6254 -0.1150
 4967SOL    HW126363   2.281   0.030  15.279 -2.5882  0.8764 -0.1961
 4967SOL    HW226364   2.317   0.153  15.208 -1.6733 -1.1571 -1.2065
 4968SOL     OW26365   2.399   4.098   2.392 -0.5041  0.1859 -0.7610
 4968SOL    HW126366   2.328   4.159   2.370 -0.3124  1.3925  1.8427
 4968SOL    HW226367   2.470   4.115   2.330  0.3243  0.2753  0.2050
 4969SOL     OW26368   4.237   1.853   3.036  0.5064  0.0002  0.2315
 4969SOL    HW126369   4.274   1.830   2.951  1.6755  1.8240  0.2438
 4969SOL    HW226370   4.209   1.766   3.066  1.3967 -1.2007 -2.3826
 4970SOL     OW26371   2.833   3.143  15.198 -0.3874 -0.5020 -0.1217
 4970SOL    HW126372   2.920   3.168  15.167  0.0020 -1.4234  0.2254
 4970SOL    HW226373   2.808   3.225  15.241  1.1687  0.8011 -1.7270
 4971SOL     OW26374   4.566   2.845   5.735  0.3117  0.0893 -0.6561
 4971SOL    HW126375   4.512   2.861   5.658 -1.0021  1.6351  0.5756
 4971SOL    HW226376   4.503   2.821   5.804  0.7892  0.5944 -0.0495
 4972SOL     OW26377   4.008   4.532   2.216 -0.0629  0.1974 -0.3876
 4972SOL    HW126378   3.947   4.519   2.144  0.7348  1.0814 -1.2191
 4972SOL    HW226379   4.076   4.578   2.166  0.6375  0.1725  0.5496
 4973SOL     OW26380   0.590   2.651   5.396 -0.3777  0.4980 -0.3592
 4973SOL    HW126381   0.667   2.594   5.401 -0.2783  0.9154  2.3723
 4973SOL    HW226382   0.627   2.712   5.331 -0.1422  1.1185  0.3613
 4974SOL     OW26383   0.223   4.532  10.270 -0.1802  0.1396  0.1527
 4974SOL    HW126384   0.292   4.532  10.337 -0.5106  0.8254  0.4951
 4974SOL    HW226385   0.160   4.587  10.317 -1.4856  1.0394 -2.6622
 4975SOL     OW26386   4.617   3.901  15.830 -0.1125  0.7126  0.3564
 4975SOL    HW126387   4.615   3.908  15.734  2.3620 -0.3018  0.2367
 4975SOL    HW226388   4.579   3.987  15.847 -0.1663  0.9301 -0.8149
 4976SOL     OW26389   0.445   0.993   9.515 -0.6492  0.2776 -0.5062
 4976SOL    HW126390   0.445   0.997   9.611  3.1930  0.4905 -0.5328
 4976SOL    HW226391   0.458   0.899   9.503 -1.2350  0.0354  0.7023
 4977SOL     OW26392   1.001   0.016  15.994  0.3927  0.2898  0.3717
 4977SOL    HW126393   1.002   0.108  16.020 -3.1985  1.1923 -2.6797
 4977SOL    HW226394   0.910   4.715  16.016  0.4426  1.1945  1.4136
 4978SOL     OW26395   4.381   3.641   6.420 -0.5931  0.3019  0.0198
 4978SOL    HW126396   4.447   3.629   6.488 -1.3949  1.5925  1.0350
 4978SOL    HW226397   4.356   3.733   6.426  0.5279  0.6448 -0.6839
 4979SOL     OW26398   4.163   1.983   5.318 -0.0832  0.1014  0.2645
 4979SOL    HW126399   4.200   2.026   5.396 -0.1856  2.8160 -1.2000
 4979SOL    HW226400   4.156   2.063   5.266  0.3068  0.1983  0.3559
 4980SOL     OW26401   4.355   3.451   7.347  0.0393 -0.1301 -0.2808
 4980SOL    HW126402   4.434   3.422   7.392  0.1932  0.9793  0.1588
 4980SOL    HW226403   4.365   3.543   7.368 -3.1122  0.8689 -3.1798
 4981SOL     OW26404   4.147   0.993   2.558 -0.2139 -0.0600 -0.5817
 4981SOL    HW126405   4.165   0.928   2.626 -0.8976  1.9717  1.5241
 4981SOL    HW226406   4.090   0.941   2.501  0.0089  1.4236 -2.1692
 4982SOL     OW26407   2.793   3.391  15.298  0.2491 -0.7235 -0.1444
 4982SOL    HW126408   2.717   3.446  15.279 -0.8610 -1.9056  0.9017
 4982SOL    HW226409   2.831   3.422  15.381  1.4123 -1.1094 -0.5294
 4983SOL     OW26410   3.654   2.238   6.876 -0.3175  0.3649 -0.2432
 4983SOL    HW126411   3.642   2.189   6.794 -0.8651  0.6216 -0.3173
 4983SOL    HW226412   3.737   2.203   6.908 -0.7441 -0.2894  0.1303
 4984SOL     OW26413   1.596   4.446   7.840 -0.0838  0.4158  0.4324
 4984SOL    HW126414   1.561   4.461   7.752 -0.1874 -1.7565  0.0870
 4984SOL    HW226415   1.524   4.396   7.878  0.3203 -0.5021 -0.0071
 4985SOL     OW26416   1.501   3.897   4.206  0.4106  0.0327  0.1335
 4985SOL    HW126417   1.533   3.858   4.287  0.7641  1.1211  0.5087
 4985SOL    HW226418   1.415   3.859   4.186  0.9741 -0.5362 -1.2490
 4986SOL     OW26419   4.591   2.814   2.234  0.1878 -0.0630 -0.7197
 4986SOL    HW126420   4.496   2.814   2.224  0.1655 -1.7858 -0.4712
 4986SOL    HW226421   4.609   2.744   2.296  1.5755  1.9481  1.1524
 4987SOL     OW26422   3.658   3.507   4.175 -0.8490 -0.3938  0.1103
 4987SOL    HW126423   3.571   3.521   4.137 -1.9391 -2.8301  1.7215
 4987SOL    HW226424   3.716   3.512   4.099 -0.0138  1.1324  0.8439
 4988SOL     OW26425   4.542   1.870   6.124 -0.0637  0.6531  0.2860
 4988SOL    HW126426   4.575   1.833   6.042 -2.8533 -2.3295  0.4902
 4988SOL    HW226427   4.620   1.914   6.159 -0.3295 -0.2313  1.9929
 4989SOL     OW26428   3.947   3.641   4.916  0.2646  0.0016 -0.4364
 4989SOL    HW126429   3.942   3.574   4.983 -0.3463  0.2152 -0.2678
 4989SOL    HW226430   4.042   3.642   4.905  0.1423  0.9109 -1.4800
 4990SOL     OW26431   1.713   1.345   1.880 -0.4070 -0.2581 -0.8508
 4990SOL    HW126432   1.733   1.279   1.814  2.6600  0.4339 -0.6208
 4990SOL    HW226433   1.633   1.303   1.913 -0.7809  0.3804 -0.9472
 4991SOL     OW26434   3.193   0.596   1.048 -0.1441 -0.7024 -0.2171
 4991SOL    HW126435   3.140   0.626   0.975  0.4085  0.6663 -0.0647
 4991SOL    HW226436   3.248   0.673   1.064  1.4608 -1.9890  0.4234
 4992SOL     OW26437   4.717   2.394  10.807  0.1275 -0.6452  0.6020
 4992SOL    HW126438   4.678   2.481  10.797 -0.9761 -1.0962  1.0806
 4992SOL    HW226439   4.675   2.365  10.887  0.9238 -0.8149  0.9590
 4993SOL     OW26440   3.767   1.269   3.251 -0.0319  0.2811 -0.1209
 4993SOL    HW126441   3.770   1.173   3.257 -1.4907  0.2001 -0.5649
 4993SOL    HW226442   3.713   1.270   3.172  0.2204 -0.3500 -0.3033
 4994SOL     OW26443   3.359   2.371   4.688 -0.5472  0.0764 -0.1787
 4994SOL    HW126444   3.440   2.380   4.738 -0.3802 -0.6678 -0.3100
 4994SOL    HW226445   3.392   2.326   4.610  0.4803  1.9009 -0.7861
 4995SOL     OW26446   0.427   0.142  13.943 -0.5905  0.3179  0.4086
 4995SOL    HW126447   0.341   0.137  13.902 -0.9490  0.5355  1.1280
 4995SOL    HW226448   0.412   0.090  14.023 -0.1320 -0.8176 -0.2409
 4996SOL     OW26449   4.034   2.622  16.146 -0.9150 -0.3025  0.3441
 4996SOL    HW126450   4.037   2.589  16.056  1.2773  0.0716  0.2843
 4996SOL    HW226451   3.997   2.550  16.197  0.6632  0.0070  1.9440
 4997SOL     OW26452   2.444   0.017   2.551 -0.1013  0.7306  0.2654
 4997SOL    HW126453   2.385   0.033   2.476 -1.3251 -0.2636  1.0182
 4997SOL    HW226454   2.515   0.072   2.519 -1.0911  1.3384 -0.9069
 4998SOL     OW26455   1.974   3.643   4.900 -0.6585  0.0096  0.2321
 4998SOL    HW126456   2.008   3.589   4.829 -0.3491  0.2173  0.2217
 4998SOL    HW226457   1.898   3.686   4.860 -0.4555  0.1848  0.0384
 4999SOL     OW26458   0.587   3.744   4.410  0.1105  0.5668 -0.1215
 4999SOL    HW126459   0.542   3.827   4.424 -0.3048  0.7097 -2.3205
 4999SOL    HW226460   0.513   3.706   4.363  0.0934  1.5761 -0.9230
 5000SOL     OW26461   2.178   1.441  14.645 -0.2532  0.1682  0.2580
 5000SOL    HW126462   2.164   1.465  14.553 -1.0553 -0.0239  0.3308
 5000SOL    HW226463   2.108   1.378  14.660 -1.5423  1.2343 -1.2551
 5001SOL     OW26464   1.229   2.367   6.823 -0.0099 -0.5954 -0.8951
 5001SOL    HW126465   1.260   2.288   6.778  1.1150 -0.8312  0.3188
 5001SOL    HW226466   1.260   2.349   6.912 -0.5115 -0.6429 -0.7293
 5002SOL     OW26467   3.786   0.988   6.643  0.6732  0.7067 -0.1442
 5002SOL    HW126468   3.780   0.921   6.576 -3.2982 -1.3031  2.1672
 5002SOL    HW226469   3.873   0.966   6.675  0.8909  0.1843 -1.1161
 5003SOL     OW26470   2.814   3.494   5.185  0.5434  0.4279  0.0413
 5003SOL    HW126471   2.843   3.417   5.234 -1.6344 -0.5805 -0.2445
 5003SOL    HW226472   2.719   3.492   5.202  0.7162 -0.6781  0.8786
 5004SOL     OW26473   1.276   3.850   4.554  0.1020 -0.6235 -0.1545
 5004SOL    HW126474   1.293   3.765   4.595  1.0827  0.3862  1.5000
 5004SOL    HW226475   1.192   3.871   4.595  1.7221  1.7050  1.8914
 5005SOL     OW26476   3.365   2.297   8.535  0.0948 -0.2294 -0.4137
 5005SOL    HW126477   3.284   2.347   8.531 -0.1647 -0.5295  1.0110
 5005SOL    HW226478   3.349   2.242   8.459  0.8011 -2.1872  0.8525
 5006SOL     OW26479   1.963   3.493   0.068  0.0121  0.0066  0.2914
 5006SOL    HW126480   1.922   3.499  17.664 -1.6416 -0.4624  1.0382
 5006SOL    HW226481   2.035   3.437   0.038 -2.2312 -2.4042 -0.6278
 5007SOL     OW26482   0.846   4.602   0.745  0.6803 -0.5971  0.3603
 5007SOL    HW126483   0.845   4.569   0.835  3.2635 -0.3039  0.4747
 5007SOL    HW226484   0.765   4.566   0.708 -0.0498  1.2236  0.1693
 5008SOL     OW26485   0.221   0.103   5.442 -0.3078  0.3172  0.3427
 5008SOL    HW126486   0.290   0.165   5.418 -2.3235  2.1658 -0.6811
 5008SOL    HW226487   0.279   0.035   5.477  0.0375 -0.5236 -1.8320
 5009SOL     OW26488   3.430   0.856   8.087  0.4046  0.2124  0.4269
 5009SOL    HW126489   3.439   0.837   8.180  1.4296  2.7062  0.8256
 5009SOL    HW226490   3.517   0.829   8.056 -0.3311  0.0663 -1.5357
 5010SOL     OW26491   0.214   0.012  11.744 -0.0355  0.1066  0.2778
 5010SOL    HW126492   0.149   0.040  11.809  0.1020  1.4906 -0.1845
 5010SOL    HW226493   0.166   0.042  11.667  1.0543 -2.1964 -1.2908
 5011SOL     OW26494   3.788   3.486  15.831 -0.0352 -0.0476  0.0786
 5011SOL    HW126495   3.743   3.462  15.912  0.7823  0.0334  0.5599
 5011SOL    HW226496   3.710   3.493  15.776  0.0524 -1.5044 -0.2136
 5012SOL     OW26497   1.979   4.063   7.010 -0.0438 -0.4609  0.2392
 5012SOL    HW126498   2.057   4.014   7.036  1.0008  1.8233  1.3449
 5012SOL    HW226499   1.944   4.105   7.089  3.1244 -1.0733  1.9471
 5013SOL     OW26500   0.338   4.513   5.445  0.2619 -0.3212  0.1459
 5013SOL    HW126501   0.341   4.537   5.353  1.2751  2.3409  0.8821
 5013SOL    HW226502   0.387   4.431   5.443  0.4040 -0.2085 -1.1346
 5014SOL     OW26503   0.849   3.556   7.578  0.4007 -0.2614  0.0689
 5014SOL    HW126504   0.918   3.509   7.530  0.5903  1.4763 -1.3672
 5014SOL    HW226505   0.883   3.536   7.665  2.8748  0.7654 -0.6793
 5015SOL     OW26506   0.114   3.689   8.360  0.1933  0.1870 -0.4582
 5015SOL    HW126507   0.117   3.781   8.335 -1.5950  0.9320  2.1039
 5015SOL    HW226508   0.159   3.699   8.444 -2.2825 -0.7200  0.9825
 5016SOL     OW26509   2.427   0.968   2.189 -0.1859 -0.2383 -0.4631
 5016SOL    HW126510   2.503   1.004   2.142  0.5027  0.1301  0.9480
 5016SOL    HW226511   2.402   0.884   2.151  1.1038 -1.6469  1.8385
 5017SOL     OW26512   0.212   2.716   8.104  0.2595  0.0437 -0.6002
 5017SOL    HW126513   0.129   2.706   8.152  0.3272 -0.2891 -0.5468
 5017SOL    HW226514   0.258   2.772   8.167 -1.5436 -0.3594  1.0842
 5018SOL     OW26515   0.882   1.824   7.737  0.6023 -0.1563  0.5194
 5018SOL    HW126516   0.917   1.762   7.801  0.2378  1.7779  2.5835
 5018SOL    HW226517   0.865   1.768   7.661 -0.5562 -1.3742  1.6825
 5019SOL     OW26518   1.599   4.486   8.198  0.2412 -0.1991  0.1771
 5019SOL    HW126519   1.674   4.539   8.170 -0.6667  1.5725  1.1122
 5019SOL    HW226520   1.636   4.462   8.283  2.1311 -1.3428 -0.9495
 5020SOL     OW26521   1.369   4.422  15.400  0.1747 -0.3207  0.5464
 5020SOL    HW126522   1.407   4.347  15.446  0.7019  0.0213  0.6660
 5020SOL    HW226523   1.404   4.419  15.311 -0.2225  2.0492  0.2945
 5021SOL     OW26524   1.597   1.702  12.777  0.4407 -0.0239  0.0122
 5021SOL    HW126525   1.684   1.682  12.743  1.6456 -1.9329  4.2711
 5021SOL    HW226526   1.544   1.717  12.698  1.5743 -0.6575 -0.8571
 5022SOL     OW26527   1.985   0.548  14.502 -0.3003  0.1939 -0.0613
 5022SOL    HW126528   1.957   0.638  14.483  0.6312 -0.0237 -2.5176
 5022SOL    HW226529   1.991   0.555  14.597  0.8421  1.6504 -0.2389
 5023SOL     OW26530   1.551   3.360  14.062 -0.5429  0.0362  1.0138
 5023SOL    HW126531   1.579   3.407  13.983  0.4993 -1.9919  0.1956
 5023SOL    HW226532   1.500   3.285  14.031  0.5534  0.9182 -2.9024
 5024SOL     OW26533   1.615   1.653   7.825 -0.2761 -0.1429  0.0760
 5024SOL    HW126534   1.639   1.673   7.916  0.6238  2.1402 -0.6538
 5024SOL    HW226535   1.697   1.616   7.792  0.0293  0.8933 -0.3406
 5025SOL     OW26536   2.257   4.657   5.209 -0.0933  0.7712 -0.4207
 5025SOL    HW126537   2.186   4.593   5.205  0.1690  0.3731  1.4051
 5025SOL    HW226538   2.280   4.658   5.116  2.3393  0.4497  0.1968
 5026SOL     OW26539   3.075   3.787   9.267  0.6561 -0.4372 -0.7004
 5026SOL    HW126540   2.994   3.793   9.216  0.0839  0.9482  0.3827
 5026SOL    HW226541   3.053   3.846   9.339  1.0652 -2.1425  0.8201
 5027SOL     OW26542   3.233   0.592   5.551  0.2246 -0.2456  0.0689
 5027SOL    HW126543   3.211   0.593   5.458 -0.4457 -0.9531  0.2166
 5027SOL    HW226544   3.270   0.680   5.560  1.2341 -0.9918  3.1594
 5028SOL     OW26545   3.209   2.539  15.826  0.2161 -0.6301 -0.5428
 5028SOL    HW126546   3.114   2.544  15.814  0.0732 -2.7038 -0.2748
 5028SOL    HW226547   3.214   2.445  15.811 -1.2325 -1.3222  3.3706
 5029SOL     OW26548   4.715   3.512  12.472 -0.1907 -0.5055 -0.4935
 5029SOL    HW126549   4.629   3.537  12.437 -0.1933 -0.5444 -0.5149
 5029SOL    HW226550   4.686   3.467  12.552  3.1101  1.0603  1.5636
 5030SOL     OW26551   0.890   4.646  16.367 -0.4310  0.7365 -0.0117
 5030SOL    HW126552   0.855   4.681  16.284  0.9871  1.7592 -0.1745
 5030SOL    HW226553   0.814   4.618  16.418  0.1584 -2.1358 -0.6753
 5031SOL     OW26554   2.958   0.650   3.816 -0.2394  0.3612 -0.4205
 5031SOL    HW126555   3.026   0.690   3.871  1.6694 -0.5704 -2.1056
 5031SOL    HW226556   2.935   0.733   3.773  1.3874  0.0979 -1.8087
 5032SOL     OW26557   2.469   3.139  15.710  0.1087  0.3408  0.5989
 5032SOL    HW126558   2.507   3.063  15.756  0.0967  0.3549  0.6317
 5032SOL    HW226559   2.458   3.116  15.618 -0.0561  1.6613  0.2974
 5033SOL     OW26560   3.032   3.897   8.146  0.0919 -0.0795 -0.4075
 5033SOL    HW126561   3.125   3.919   8.138 -0.6082  3.2893  0.5212
 5033SOL    HW226562   3.007   3.965   8.209 -1.5069  0.7295 -1.9183
 5034SOL     OW26563   2.152   2.326  10.656 -0.2051  0.1630  0.2195
 5034SOL    HW126564   2.142   2.417  10.627 -0.9401 -0.0677 -0.2446
 5034SOL    HW226565   2.100   2.333  10.737  1.0065 -1.8621  1.1785
 5035SOL     OW26566   2.229   3.343   8.091 -0.3379 -0.3255 -0.2612
 5035SOL    HW126567   2.299   3.386   8.042  0.7710 -0.2530  1.4004
 5035SOL    HW226568   2.150   3.371   8.045  0.6024  2.0659 -0.4064
 5036SOL     OW26569   4.202   4.589   6.946  0.2367 -0.1742  0.0397
 5036SOL    HW126570   4.157   4.518   6.991  0.0818 -1.2219 -1.7916
 5036SOL    HW226571   4.180   4.653   7.014 -0.3284 -2.5492  2.0736
 5037SOL     OW26572   3.505   1.890   5.890  0.1128  0.2800 -0.3216
 5037SOL    HW126573   3.517   1.839   5.810  0.9491  3.2486 -2.0810
 5037SOL    HW226574   3.595   1.923   5.890  0.3282 -0.3060 -0.9057
 5038SOL     OW26575   4.040   0.075   3.047 -0.2193  0.7970  0.3612
 5038SOL    HW126576   4.034   0.150   3.107 -2.2449  1.1239 -0.2447
 5038SOL    HW226577   3.976   0.096   2.979  1.1408  2.0005 -0.5260
 5039SOL     OW26578   0.173   4.339   3.210 -0.3254  0.2187  0.0888
 5039SOL    HW126579   0.107   4.335   3.141  0.7952 -2.5686 -0.8213
 5039SOL    HW226580   0.150   4.265   3.266  1.0210 -0.2698  0.0039
 5040SOL     OW26581   2.341   3.095   7.395 -0.2976  0.8262  0.2374
 5040SOL    HW126582   2.376   3.006   7.394 -0.5499  0.7217  0.8778
 5040SOL    HW226583   2.419   3.150   7.385 -0.6891  1.7887  2.5282
 5041SOL     OW26584   0.838   2.707  17.371 -0.8572 -0.1128 -0.2621
 5041SOL    HW126585   0.751   2.678  17.400 -0.5285 -0.5538  0.2725
 5041SOL    HW226586   0.821   2.800  17.390 -0.1141  0.1742 -0.9944
 5042SOL     OW26587   3.127   4.004  16.750 -0.1930  0.2525  0.2745
 5042SOL    HW126588   3.219   3.980  16.745 -0.4882 -1.1427  1.6767
 5042SOL    HW226589   3.122   4.093  16.785 -0.6888  0.2869  0.1162
 5043SOL     OW26590   0.994   4.442   3.172 -0.2966  0.4863 -0.7790
 5043SOL    HW126591   0.952   4.475   3.251  1.7287 -0.2937  0.6234
 5043SOL    HW226592   0.991   4.514   3.109  0.3865  0.3595 -0.9613
 5044SOL     OW26593   3.486   1.526   7.202  0.1878 -0.0681  0.4020
 5044SOL    HW126594   3.532   1.445   7.221 -0.1187 -0.4455 -0.4874
 5044SOL    HW226595   3.497   1.529   7.107 -0.7044  0.2775  0.3074
 5045SOL     OW26596   0.416   2.281   6.523 -0.2240 -0.0615 -0.2981
 5045SOL    HW126597   0.328   2.247   6.507  0.3778 -0.9532 -1.6705
 5045SOL    HW226598   0.475   2.206   6.527  1.8640  1.4902 -1.9078
 5046SOL     OW26599   3.278   0.915   7.371  0.2127 -0.1367 -0.0198
 5046SOL    HW126600   3.261   0.987   7.431  0.4372  0.1990 -0.3530
 5046SOL    HW226601   3.364   0.935   7.332  0.7413 -0.3724  1.0353
 5047SOL     OW26602   3.832   1.914   4.794 -0.4813  0.1391  0.0860
 5047SOL    HW126603   3.770   1.864   4.847 -0.4757  1.6973  1.5803
 5047SOL    HW226604   3.781   1.936   4.716 -0.5883 -0.4296 -0.0016
 5048SOL     OW26605   3.989   1.203  10.783 -0.3304  0.3066 -0.3271
 5048SOL    HW126606   3.976   1.115  10.749  3.1856 -0.6095  0.7315
 5048SOL    HW226607   4.001   1.264  10.709 -0.6557  1.0078  0.2049
 5049SOL     OW26608   2.373   2.263   3.934 -0.6447  0.0906 -0.2311
 5049SOL    HW126609   2.350   2.302   3.849  1.5604  0.7954 -0.5053
 5049SOL    HW226610   2.468   2.271   3.944 -0.7166 -0.8908  1.1138
 5050SOL     OW26611   0.060   0.965   7.498  0.8882 -0.6004  0.2025
 5050SOL    HW126612   0.122   0.897   7.524  2.2733  0.7356  0.3777
 5050SOL    HW226613   0.011   0.920   7.428 -1.1256  0.5196  0.8809
 5051SOL     OW26614   3.323   1.502   4.890 -0.2631  0.3482  0.4697
 5051SOL    HW126615   3.354   1.477   4.977  1.8849 -0.5595 -0.5479
 5051SOL    HW226616   3.397   1.549   4.849  0.6777 -0.5040  1.1828
 5052SOL     OW26617   1.186   4.309   5.162  0.1765  0.2256 -0.3338
 5052SOL    HW126618   1.216   4.370   5.229 -0.4870  0.4640 -0.2598
 5052SOL    HW226619   1.216   4.229   5.206 -1.5642  0.3676  1.1050
 5053SOL     OW26620   1.035   0.024   1.427 -0.2532 -0.1793 -0.3057
 5053SOL    HW126621   1.052   0.051   1.337  0.3646 -3.0286 -1.0584
 5053SOL    HW226622   1.068   4.654   1.425  0.1278 -0.0799  2.2696
 5054SOL     OW26623   3.701   3.395  12.675 -0.4503  0.5502  0.3720
 5054SOL    HW126624   3.606   3.388  12.675 -0.3460 -0.9609 -0.9453
 5054SOL    HW226625   3.715   3.431  12.763 -0.0153 -0.5176  0.7458
 5055SOL     OW26626   0.518   0.108  16.035 -0.0701  0.4550  0.5748
 5055SOL    HW126627   0.536   0.138  15.946 -0.0875 -1.8999 -0.2182
 5055SOL    HW226628   0.446   0.162  16.068  0.7667  0.9978  1.4855
 5056SOL     OW26629   0.320   2.147   3.015 -0.1480 -0.5026  0.1672
 5056SOL    HW126630   0.289   2.076   2.959 -1.3502  0.4369 -0.3511
 5056SOL    HW226631   0.401   2.174   2.971 -1.3469  0.5996 -1.3388
 5057SOL     OW26632   3.034   4.559   4.194  0.0693  0.1998 -0.2920
 5057SOL    HW126633   2.973   4.625   4.227 -0.2158  0.0899 -0.5986
 5057SOL    HW226634   3.112   4.581   4.244 -0.2289  1.4885 -0.3948
 5058SOL     OW26635   4.564   2.574   1.545 -0.2135 -0.2762  0.4071
 5058SOL    HW126636   4.488   2.608   1.499  0.5429 -0.1928 -0.8026
 5058SOL    HW226637   4.551   2.601   1.636 -1.6818  0.3160  0.0103
 5059SOL     OW26638   2.628   0.644   4.848  0.2922  1.0115  0.3721
 5059SOL    HW126639   2.558   0.608   4.795  2.1283  2.3485 -2.9909
 5059SOL    HW226640   2.619   0.594   4.929 -2.9010 -1.5636 -1.6099
 5060SOL     OW26641   0.726   3.202   0.193  0.4717 -0.3943  0.1820
 5060SOL    HW126642   0.716   3.108   0.177  0.5058 -0.1273 -1.4117
 5060SOL    HW226643   0.661   3.237   0.132 -1.5820 -2.9498  0.8606
 5061SOL     OW26644   0.942   1.219   0.338 -0.6414 -0.0061 -0.0945
 5061SOL    HW126645   0.938   1.168   0.258 -3.0963 -1.9562  1.2626
 5061SOL    HW226646   1.028   1.201   0.375 -0.6777 -0.7975 -0.4008
 5062SOL     OW26647   4.156   2.090   3.298  0.3099  0.4525  0.0037
 5062SOL    HW126648   4.170   2.184   3.289  0.4491  0.2021 -2.4366
 5062SOL    HW226649   4.234   2.043   3.269  0.4734  0.6934  0.0536
 5063SOL     OW26650   3.312   2.774   8.144 -0.3556 -0.1702 -0.0212
 5063SOL    HW126651   3.366   2.695   8.148  1.6758  1.1410 -1.0879
 5063SOL    HW226652   3.393   2.825   8.149  0.3027 -1.0646 -1.6664
 5064SOL     OW26653   4.423   1.919   2.288 -0.4360 -0.0740  0.4142
 5064SOL    HW126654   4.368   1.992   2.315  1.2837  1.4653 -0.2266
 5064SOL    HW226655   4.433   1.932   2.194 -0.5181 -0.9592  0.2774
 5065SOL     OW26656   0.172   2.040   5.602 -0.2384 -0.0635 -0.2110
 5065SOL    HW126657   0.221   2.018   5.523  1.7074  5.7232 -0.5880
 5065SOL    HW226658   0.185   2.135   5.601 -0.3664 -0.0551 -1.6523
 5066SOL     OW26659   0.055   4.671  10.613 -0.0296  0.3019 -0.4141
 5066SOL    HW126660   0.150   4.672  10.620  0.1050 -1.1798 -2.0291
 5066SOL    HW226661   0.049   4.716  10.529  1.4547  3.2156  1.0717
 5067SOL     OW26662   0.162   3.277  17.544 -0.1180 -0.0971  0.0805
 5067SOL    HW126663   0.233   3.291  17.481  0.6732 -2.6804  0.3624
 5067SOL    HW226664   0.150   3.183  17.531  1.3843 -0.2224 -0.4215
 5068SOL     OW26665   2.521   1.746   4.684  0.4401 -0.5515  0.2506
 5068SOL    HW126666   2.452   1.718   4.623  0.0073 -1.4001  1.1184
 5068SOL    HW226667   2.481   1.821   4.727 -1.1202 -0.7964 -0.7531
 5069SOL     OW26668   3.580   3.102  12.730 -1.0366 -0.1822 -0.1309
 5069SOL    HW126669   3.492   3.071  12.749 -0.7123 -0.7860  0.3839
 5069SOL    HW226670   3.574   3.179  12.674  0.5187 -0.1384 -0.2394
 5070SOL     OW26671   1.032   2.160   1.902 -0.2605 -0.4234 -0.8666
 5070SOL    HW126672   0.956   2.171   1.845  0.1398 -0.4785 -1.4203
 5070SOL    HW226673   1.052   2.067   1.886 -1.7391 -1.3275  2.5311
 5071SOL     OW26674   3.522   1.913   6.544  0.7009  0.0473  0.0013
 5071SOL    HW126675   3.604   1.872   6.518 -0.3724 -2.1157 -0.0155
 5071SOL    HW226676   3.459   1.865   6.490  0.0313  0.0415  0.7839
 5072SOL     OW26677   3.583   0.375   3.038  0.1047 -0.5328  0.3286
 5072SOL    HW126678   3.543   0.416   2.961  3.7904  0.5982 -0.9922
 5072SOL    HW226679   3.509   0.337   3.084 -1.2279  1.7690  0.1018
 5073SOL     OW26680   3.330   4.449   8.305 -0.2183 -0.3555 -0.0603
 5073SOL    HW126681   3.354   4.540   8.321  0.8130 -0.2987 -1.9400
 5073SOL    HW226682   3.411   4.405   8.330 -0.5556 -1.3479 -0.7296
 5074SOL     OW26683   2.508   1.632   3.219 -0.6220 -0.4146 -0.2226
 5074SOL    HW126684   2.569   1.587   3.277 -1.1437 -0.7452  0.0693
 5074SOL    HW226685   2.576   1.668   3.162 -0.4143 -0.7379 -0.1810
 5075SOL     OW26686   2.528   2.017   2.578 -0.0755  0.4332 -0.2356
 5075SOL    HW126687   2.571   1.936   2.604 -1.6755  0.2474  1.8766
 5075SOL    HW226688   2.493   2.049   2.661  1.8506  0.2992  0.6263
 5076SOL     OW26689   1.310   3.475   3.745 -0.6894  0.4161  0.1608
 5076SOL    HW126690   1.298   3.447   3.654  0.0099 -0.6570  0.3987
 5076SOL    HW226691   1.227   3.448   3.785  0.4143 -0.6210  1.7684
 5077SOL     OW26692   0.835   3.475  17.000  0.0096  0.4962  0.6223
 5077SOL    HW126693   0.765   3.532  17.032  0.2728  2.0841 -1.6325
 5077SOL    HW226694   0.908   3.506  17.054  0.6819  0.8216 -0.4538
 5078SOL     OW26695   3.272   4.530   2.502  0.9379  0.1398 -0.1004
 5078SOL    HW126696   3.320   4.481   2.435 -1.6498 -1.6503 -0.6706
 5078SOL    HW226697   3.334   4.570   2.563  1.2813 -1.9464  0.9387
 5079SOL     OW26698   3.013   4.325   4.975  1.0283  0.3718 -0.0965
 5079SOL    HW126699   2.958   4.337   5.052  0.6536 -1.1134 -0.1310
 5079SOL    HW226700   2.954   4.276   4.917  0.6749  0.3033  0.3253
 5080SOL     OW26701   3.516   3.141   4.725 -0.8173  0.2877  0.4012
 5080SOL    HW126702   3.558   3.186   4.799 -2.6236  1.4814  0.6992
 5080SOL    HW226703   3.498   3.055   4.762  2.5122  0.5648  2.6452
 5081SOL     OW26704   1.087   0.109   7.521 -0.1633 -0.1352  0.3899
 5081SOL    HW126705   1.161   0.109   7.582  0.7918 -2.2422 -0.7521
 5081SOL    HW226706   1.026   0.058   7.573 -0.8516  0.0334 -0.2518
 5082SOL     OW26707   0.897   0.892   5.286  0.6445 -0.5237 -0.4179
 5082SOL    HW126708   0.900   0.987   5.271 -2.8388 -0.4030 -0.3373
 5082SOL    HW226709   0.805   0.889   5.312  1.2115  1.6517  1.8347
 5083SOL     OW26710   0.329   3.011   7.528  0.0515  0.0555  0.2597
 5083SOL    HW126711   0.340   2.982   7.437 -0.7176  1.0922 -0.1691
 5083SOL    HW226712   0.251   2.965   7.556 -0.3258  0.5073 -0.0519
 5084SOL     OW26713   3.904   1.111   2.665 -0.0016 -0.6057  0.9988
 5084SOL    HW126714   3.937   1.199   2.682 -0.5655 -0.0498 -0.8723
 5084SOL    HW226715   3.985   1.066   2.641  0.7400  1.8703 -1.0335
 5085SOL     OW26716   0.339   0.243   4.736 -0.1932 -0.4720 -0.2738
 5085SOL    HW126717   0.354   0.150   4.755 -0.5934 -0.6595 -0.8621
 5085SOL    HW226718   0.421   0.276   4.771 -2.1118  3.9986 -0.0264
 5086SOL     OW26719   1.860   1.312   2.842  0.3960 -0.2381 -0.7000
 5086SOL    HW126720   1.822   1.370   2.775  2.0711  1.4335 -0.1916
 5086SOL    HW226721   1.839   1.348   2.928 -0.8896  0.7253 -1.4034
 5087SOL     OW26722   2.513   1.387   4.513  0.0710 -0.1615  0.2382
 5087SOL    HW126723   2.428   1.426   4.491 -0.7793 -2.6321 -0.8357
 5087SOL    HW226724   2.498   1.368   4.605  0.0797  2.5620  0.7999
 5088SOL     OW26725   4.306   0.117   0.566  0.2528  0.3724 -0.2380
 5088SOL    HW126726   4.278   0.056   0.635 -0.1987  1.5072  0.5964
 5088SOL    HW226727   4.396   0.088   0.562 -1.0608 -4.0714  3.0662
 5089SOL     OW26728   0.797   0.059   4.231 -0.2052 -0.1693  0.2164
 5089SOL    HW126729   0.732   4.710   4.221  1.3839 -1.9389  2.1013
 5089SOL    HW226730   0.779   0.096   4.318 -1.7371 -1.3773  0.4020
 5090SOL     OW26731   3.776   0.048  13.679  0.6742  0.5711 -0.2217
 5090SOL    HW126732   3.803   0.052  13.588 -1.9874 -1.8821 -1.1153
 5090SOL    HW226733   3.842   0.106  13.717 -0.0896  0.8918  0.6228
 5091SOL     OW26734   0.230   4.444   6.491  0.1672 -0.6759  0.2755
 5091SOL    HW126735   0.253   4.534   6.469 -1.7567 -0.3082 -0.2163
 5091SOL    HW226736   0.244   4.430   6.584 -0.0609 -2.1173  0.0987
 5092SOL     OW26737   0.570   2.982   6.836  0.0710  0.2882  0.0031
 5092SOL    HW126738   0.494   2.949   6.787  0.2042  2.3074 -1.5900
 5092SOL    HW226739   0.563   2.952   6.927  1.6647  1.0880  0.3768
 5093SOL     OW26740   4.409   4.418   7.275 -0.1879 -0.6825  1.0605
 5093SOL    HW126741   4.378   4.497   7.230 -0.5934 -2.1179 -1.2068
 5093SOL    HW226742   4.390   4.439   7.367  0.0727 -0.7014  1.1167
 5094SOL     OW26743   1.314   2.709   9.616  0.9546  0.0454 -0.3032
 5094SOL    HW126744   1.344   2.620   9.600 -0.8336 -0.6770  0.4394
 5094SOL    HW226745   1.332   2.728   9.708 -1.0007 -1.6515  0.4259
 5095SOL     OW26746   1.470   2.282  15.938 -0.5680 -0.0751 -0.5116
 5095SOL    HW126747   1.437   2.266  15.850 -0.0240  1.3589 -0.9718
 5095SOL    HW226748   1.562   2.265  15.918  0.1248  1.5222  1.4167
 5096SOL     OW26749   2.698   2.467  15.279 -0.2859  0.4003 -0.1548
 5096SOL    HW126750   2.717   2.532  15.346 -0.0532  1.9139 -1.7005
 5096SOL    HW226751   2.755   2.492  15.206  2.3576 -1.3577  1.2568
 5097SOL     OW26752   4.409   3.634   2.929  0.4375 -0.2980  0.0213
 5097SOL    HW126753   4.386   3.657   2.839 -0.1228 -1.3710 -0.1137
 5097SOL    HW226754   4.324   3.621   2.972  0.5324  0.8357  0.5463
 5098SOL     OW26755   2.110   2.111   7.506 -0.2625  0.2166 -0.3408
 5098SOL    HW126756   2.113   2.070   7.419 -2.6594 -1.6180  0.4501
 5098SOL    HW226757   2.049   2.184   7.498 -1.0963 -0.5111 -0.6534
 5099SOL     OW26758   2.198   0.773   2.277 -0.6081  0.0740 -0.5547
 5099SOL    HW126759   2.239   0.711   2.337  0.1984 -1.2472 -2.4769
 5099SOL    HW226760   2.263   0.837   2.248  0.0690  0.3669  1.5832
 5100SOL     OW26761   2.638   1.363   7.505  0.0527  0.3498  0.6604
 5100SOL    HW126762   2.669   1.451   7.481  0.2876  0.3740  1.0599
 5100SOL    HW226763   2.701   1.344   7.574  0.3258  1.1937  0.6392
 5101SOL     OW26764   0.898   1.406   2.485  0.7007 -0.0226  0.0881
 5101SOL    HW126765   0.951   1.479   2.452 -1.6186  1.2331 -0.8108
 5101SOL    HW226766   0.937   1.330   2.442 -1.7832 -0.4409 -1.4063
 5102SOL     OW26767   3.044   2.609  13.481 -0.5406 -0.2916  0.4807
 5102SOL    HW126768   3.014   2.672  13.546  1.2000  0.1582  0.8443
 5102SOL    HW226769   3.134   2.588  13.506 -1.2709 -0.5914  2.8396
 5103SOL     OW26770   4.192   4.042   8.978 -0.1660  0.0922 -0.2996
 5103SOL    HW126771   4.236   3.960   8.958  0.3878 -0.1636  1.9082
 5103SOL    HW226772   4.215   4.048   9.071  1.7013 -0.6817 -0.7222
 5104SOL     OW26773   1.117   2.369  14.120  0.1308  0.0207 -0.6669
 5104SOL    HW126774   1.059   2.444  14.127 -0.5779 -0.5921 -0.0222
 5104SOL    HW226775   1.069   2.328  14.048 -0.9265  1.2957 -0.6717
 5105SOL     OW26776   3.969   2.009   2.969 -0.5258 -0.3949  0.1500
 5105SOL    HW126777   4.047   1.953   2.973 -1.4045 -1.5758  0.6061
 5105SOL    HW226778   3.954   2.022   2.875 -1.4718  0.7286  0.4517
 5106SOL     OW26779   1.264   4.715  15.945  0.4258  0.3593  0.2510
 5106SOL    HW126780   1.174   0.002  15.975  0.3044 -2.2496  0.4643
 5106SOL    HW226781   1.254   4.643  15.883 -2.9448  1.6539 -0.7493
 5107SOL     OW26782   1.976   1.779   3.842 -0.1165  0.0710  0.1136
 5107SOL    HW126783   2.020   1.806   3.762 -0.8706 -0.3274 -0.4336
 5107SOL    HW226784   1.886   1.761   3.815  0.7070 -1.6208 -1.4908
 5108SOL     OW26785   1.322   3.019   8.998  0.4998 -0.6895  0.1986
 5108SOL    HW126786   1.287   2.947   8.944 -0.2773 -1.1178  1.2819
 5108SOL    HW226787   1.255   3.087   8.988 -0.1913 -1.4552 -0.4910
 5109SOL     OW26788   4.378   1.686   7.512  0.3721 -0.3831 -0.1496
 5109SOL    HW126789   4.296   1.678   7.463 -0.8753 -1.3494  2.1154
 5109SOL    HW226790   4.424   1.751   7.459  3.0440 -0.8527  1.5832
 5110SOL     OW26791   3.291   4.402   5.950  0.0941  0.2800  0.3355
 5110SOL    HW126792   3.197   4.411   5.965 -0.2496 -1.2796 -0.7689
 5110SOL    HW226793   3.298   4.440   5.862  0.1802 -2.0029 -0.6565
 5111SOL     OW26794   2.046   3.500   6.437 -0.2651  0.0390 -0.3470
 5111SOL    HW126795   2.098   3.536   6.365 -0.0639  0.7922  0.1744
 5111SOL    HW226796   1.963   3.489   6.391 -0.3392  0.4042 -0.3010
 5112SOL     OW26797   3.621   1.295   1.521  0.3267  0.2286  0.1037
 5112SOL    HW126798   3.634   1.238   1.597  1.1595 -0.1373 -0.3058
 5112SOL    HW226799   3.537   1.259   1.492  0.1071 -1.0443  2.2790
 5113SOL     OW26800   4.440   4.197   6.751 -0.5274 -0.0075 -0.9654
 5113SOL    HW126801   4.399   4.268   6.800 -2.1072 -1.3712 -0.2924
 5113SOL    HW226802   4.363   4.158   6.710  0.0468 -1.2093 -0.8933
 5114SOL     OW26803   3.279   0.897   8.987 -0.1706  0.1208 -0.4229
 5114SOL    HW126804   3.327   0.980   8.980 -0.9118  0.5701 -0.2198
 5114SOL    HW226805   3.190   0.926   9.007  0.4720  0.1877  2.3482
 5115SOL     OW26806   2.626   3.845   5.050 -0.0274  0.3990 -0.0456
 5115SOL    HW126807   2.552   3.854   4.989 -0.4819 -0.2789  0.4069
 5115SOL    HW226808   2.633   3.750   5.052  0.1941  0.4098 -0.2463
 5116SOL     OW26809   2.849   3.298   9.068  0.5508  0.6849 -0.6599
 5116SOL    HW126810   2.894   3.382   9.074  1.3152  0.1817  0.8545
 5116SOL    HW226811   2.766   3.321   9.026  0.0242 -0.1670 -0.0875
 5117SOL     OW26812   3.863   3.035   6.027  0.0026 -0.5971  0.0110
 5117SOL    HW126813   3.812   2.979   6.086  0.5677 -0.6877  0.4174
 5117SOL    HW226814   3.825   3.028   5.940  1.2935 -1.9401 -0.4285
 5118SOL     OW26815   4.073   1.065   5.873 -0.7827  0.2582 -0.3582
 5118SOL    HW126816   4.136   1.060   5.801  0.6900 -0.1940  0.9518
 5118SOL    HW226817   4.039   0.976   5.881 -0.4900  0.1658 -0.1286
 5119SOL     OW26818   3.247   1.205   1.903  0.1001  0.2032  0.1076
 5119SOL    HW126819   3.241   1.111   1.890  0.8373  0.3159 -1.0136
 5119SOL    HW226820   3.158   1.242   1.902 -0.3171 -0.8301 -0.3519
 5120SOL     OW26821   2.587   4.158   2.205  0.1404 -0.0986  0.2775
 5120SOL    HW126822   2.569   4.074   2.163  1.5821  0.0451 -0.6261
 5120SOL    HW226823   2.532   4.212   2.148  2.1193  0.1799 -1.3506
 5121SOL     OW26824   0.972   1.978   9.634  0.1556  0.4882 -0.3675
 5121SOL    HW126825   0.921   1.972   9.715 -1.2027 -2.9817 -1.4499
 5121SOL    HW226826   0.972   1.887   9.604  0.7169  0.6943 -0.9840
 5122SOL     OW26827   1.923   4.182   2.639  0.3157  0.2744  0.5422
 5122SOL    HW126828   1.984   4.246   2.677 -0.4125  1.3385 -0.0794
 5122SOL    HW226829   1.928   4.109   2.700 -2.7851  0.3786  0.9201
 5123SOL     OW26830   1.402   1.691   5.816 -0.3551 -0.5224  0.2707
 5123SOL    HW126831   1.438   1.726   5.897  0.4017 -1.7737  0.4572
 5123SOL    HW226832   1.331   1.755   5.809  0.5123  0.3396 -0.8682
 5124SOL     OW26833   0.740   3.643   6.918  0.4154 -0.0071 -0.0645
 5124SOL    HW126834   0.670   3.595   6.873 -0.7500  1.2274  0.4075
 5124SOL    HW226835   0.816   3.587   6.904 -0.8772 -1.2074 -2.2420
 5125SOL     OW26836   1.598   2.096   4.293 -0.0298  0.6458  0.1288
 5125SOL    HW126837   1.552   2.021   4.331  0.8934 -0.3586 -0.7123
 5125SOL    HW226838   1.538   2.169   4.308  1.0139  1.1932  1.7752
 5126SOL     OW26839   1.307   3.135   6.426 -0.0633  0.0889  0.1572
 5126SOL    HW126840   1.347   3.052   6.452 -1.4218 -0.0413  1.8231
 5126SOL    HW226841   1.252   3.150   6.502 -0.1076 -0.5836  0.2591
 5127SOL     OW26842   3.534   0.014   8.617  0.5224  0.7203 -0.8255
 5127SOL    HW126843   3.587   0.040   8.692  1.0310 -0.3593 -0.8084
 5127SOL    HW226844   3.599   4.676   8.577 -0.1976  1.1638 -2.6599
 5128SOL     OW26845   0.677   0.483   5.436 -0.0921 -0.0166  0.4280
 5128SOL    HW126846   0.710   0.564   5.475 -0.9228  1.2760 -1.5416
 5128SOL    HW226847   0.619   0.513   5.366 -0.4228  0.0309  0.7187
 5129SOL     OW26848   0.392   4.139   4.712  0.6413  0.4990  0.7320
 5129SOL    HW126849   0.335   4.149   4.788 -0.4261  0.8939 -0.1253
 5129SOL    HW226850   0.420   4.229   4.695 -1.0461  1.0817  1.0674
 5130SOL     OW26851   3.143   0.175  16.882 -0.7991  0.3856 -0.8153
 5130SOL    HW126852   3.219   0.166  16.940 -2.7469  3.1885  2.1052
 5130SOL    HW226853   3.108   0.087  16.868 -1.0782  0.7883 -2.6992
 5131SOL     OW26854   3.323   0.839   7.026  0.0032 -0.0758  0.0242
 5131SOL    HW126855   3.267   0.763   7.013  0.2465 -0.5309  1.6198
 5131SOL    HW226856   3.409   0.811   6.993  1.1124  2.0151  1.1536
 5132SOL     OW26857   2.258   0.085  11.148 -0.5833  0.3433 -0.1187
 5132SOL    HW126858   2.277   0.005  11.197  0.1778 -0.1452 -1.2227
 5132SOL    HW226859   2.164   0.086  11.132 -0.8168  0.9377  1.3074
 5133SOL     OW26860   4.695   1.154  15.605 -0.1357 -0.2202  0.8163
 5133SOL    HW126861   0.061   1.114  15.590  0.0806  0.4675  0.1792
 5133SOL    HW226862   4.674   1.200  15.523 -1.8871 -0.5598  1.0706
 5134SOL     OW26863   1.480   4.253   8.159 -0.3334  0.1148  0.3903
 5134SOL    HW126864   1.514   4.204   8.233 -1.0269 -0.3965  0.3644
 5134SOL    HW226865   1.532   4.333   8.168  1.0351 -0.6711 -0.5133
 5135SOL     OW26866   1.904   2.042   6.022 -0.4554 -0.5176 -0.4499
 5135SOL    HW126867   1.962   1.976   6.060 -0.9084 -0.1570  0.8498
 5135SOL    HW226868   1.960   2.119   6.011  1.1141 -1.5036  0.6224
 5136SOL     OW26869   1.426   0.472   9.151  0.1916  0.0448 -0.1794
 5136SOL    HW126870   1.357   0.427   9.201 -0.7812  0.2724 -1.3214
 5136SOL    HW226871   1.416   0.428   9.067  0.8217 -1.4881  0.5385
 5137SOL     OW26872   4.644   4.458   0.624 -0.6276  0.1095 -0.1090
 5137SOL    HW126873   4.611   4.463   0.534 -0.9967  0.0374  0.0231
 5137SOL    HW226874   4.652   4.364   0.637 -0.3162  0.0005 -1.0858
 5138SOL     OW26875   1.080   0.050   7.058 -0.4634  0.3050 -0.4049
 5138SOL    HW126876   1.067   0.116   7.126  2.2728  1.0270 -0.5597
 5138SOL    HW226877   0.998   0.002   7.054 -0.1786 -0.0731 -1.7607
 5139SOL     OW26878   0.898   2.894   5.036  0.1819 -0.0643 -0.5003
 5139SOL    HW126879   0.978   2.841   5.045  0.4412 -0.3254 -4.1181
 5139SOL    HW226880   0.924   2.967   5.091 -1.1669  1.0374 -1.3229
 5140SOL     OW26881   1.372   1.455  17.168 -0.6738  0.2289 -0.5343
 5140SOL    HW126882   1.414   1.526  17.119 -1.0256  0.3006 -0.7331
 5140SOL    HW226883   1.406   1.462  17.257 -0.4748 -0.2314 -0.5715
 5141SOL     OW26884   0.198   1.527  16.495  0.3653  0.2187  0.8296
 5141SOL    HW126885   0.156   1.447  16.525  0.7093 -0.7306 -1.2675
 5141SOL    HW226886   0.284   1.491  16.475 -1.0147 -0.5951 -3.6865
 5142SOL     OW26887   4.670   4.607   7.713 -0.1823 -0.5667 -0.0089
 5142SOL    HW126888   4.635   4.520   7.734  1.0690 -1.3062 -1.0378
 5142SOL    HW226889   0.046   4.603   7.709 -0.2253  0.7683 -2.0991
 5143SOL     OW26890   1.907   1.950  14.481 -0.6603 -0.3016  0.0832
 5143SOL    HW126891   1.949   2.024  14.438  1.2027 -1.1798  0.4035
 5143SOL    HW226892   1.813   1.965  14.477 -0.2655  0.6843 -4.9154
 5144SOL     OW26893   0.347   4.639   0.404 -0.3027 -0.2445  0.2612
 5144SOL    HW126894   0.271   4.581   0.398 -0.3246 -0.4786  2.8702
 5144SOL    HW226895   0.417   4.575   0.389 -0.5443 -0.4626  0.0757
 5145SOL     OW26896   4.541   1.557   7.856  0.0339 -0.1693 -0.0118
 5145SOL    HW126897   4.446   1.569   7.846 -0.0191 -0.5815 -0.0163
 5145SOL    HW226898   4.562   1.554   7.763  1.1911  1.0020  0.2104
 5146SOL     OW26899   0.361   2.665  15.634 -0.2210  0.2964  0.3854
 5146SOL    HW126900   0.318   2.704  15.559  0.8408 -1.0843 -0.9273
 5146SOL    HW226901   0.452   2.681  15.611  0.1187  0.2639  1.7124
 5147SOL     OW26902   4.204   2.411   5.991  0.0931  0.2903  0.0994
 5147SOL    HW126903   4.111   2.431   6.004  0.5899  0.9644  2.6558
 5147SOL    HW226904   4.236   2.434   6.078  1.3037  1.5242 -0.6660
 5148SOL     OW26905   2.374   4.555   2.746 -0.1842  0.3233 -0.1741
 5148SOL    HW126906   2.365   4.515   2.659 -0.7117 -4.1176  1.9300
 5148SOL    HW226907   2.390   4.647   2.725 -0.0344  0.6342  1.3485
 5149SOL     OW26908   1.893   2.747  15.744 -0.3002  0.6755  0.3982
 5149SOL    HW126909   1.826   2.760  15.677 -0.5869  1.0515  0.7612
 5149SOL    HW226910   1.856   2.794  15.818 -2.7253 -0.6627  0.0231
 5150SOL     OW26911   0.608   1.280   3.078 -0.3450  0.3795  0.7314
 5150SOL    HW126912   0.649   1.338   3.014 -1.7287  1.0250  0.4402
 5150SOL    HW226913   0.620   1.334   3.156  3.0088 -0.7738  1.0154
 5151SOL     OW26914   2.916   1.171   7.391  0.1588 -0.1872  0.1743
 5151SOL    HW126915   2.983   1.125   7.441 -0.3322 -1.3443 -0.2496
 5151SOL    HW226916   2.843   1.119   7.422  0.8171 -0.0589  1.9278
 5152SOL     OW26917   3.659   1.697   5.109  0.0472 -0.2257 -0.1642
 5152SOL    HW126918   3.713   1.771   5.139 -1.0905  1.7357 -2.9434
 5152SOL    HW226919   3.634   1.673   5.199 -0.3630  0.9057  0.0190
 5153SOL     OW26920   2.016   3.229   6.164  0.6737 -0.1180  0.3969
 5153SOL    HW126921   1.927   3.264   6.163  0.8342  0.2693 -0.2479
 5153SOL    HW226922   2.021   3.187   6.078  1.2551 -1.4114  1.0577
 5154SOL     OW26923   3.900   2.770   4.452 -0.1962 -0.9934 -0.5881
 5154SOL    HW126924   3.892   2.723   4.370  1.9045  0.6438 -1.7282
 5154SOL    HW226925   3.846   2.845   4.426 -1.4099 -1.4701  0.5718
 5155SOL     OW26926   2.288   3.164   9.927 -0.1036 -0.0025 -0.2707
 5155SOL    HW126927   2.344   3.139  10.000 -1.3327 -0.1942  0.5854
 5155SOL    HW226928   2.223   3.215   9.974  1.6502  2.2801 -0.3172
 5156SOL     OW26929   4.540   3.838   3.123  0.3194  0.0505  0.0555
 5156SOL    HW126930   4.510   3.815   3.035  0.3431 -1.3352  0.4029
 5156SOL    HW226931   4.469   3.806   3.179  0.0879 -0.7124 -0.6817
 5157SOL     OW26932   2.188   4.661  15.487  0.0909  0.1730 -0.4172
 5157SOL    HW126933   2.119   0.002  15.460  0.1733  0.6246  0.3799
 5157SOL    HW226934   2.258   0.000  15.462 -0.1384  0.2045 -0.9737
 5158SOL     OW26935   0.414   0.126   5.669  0.0295 -0.1078  0.1552
 5158SOL    HW126936   0.368   0.182   5.732  0.0157 -0.4484  0.4461
 5158SOL    HW226937   0.483   0.180   5.630 -1.1266  0.4765 -1.0676
 5159SOL     OW26938   3.539   0.343   8.952 -0.2225  0.2005 -0.6395
 5159SOL    HW126939   3.553   0.256   8.990  0.1760 -0.2996 -1.9119
 5159SOL    HW226940   3.579   0.398   9.019 -1.5215 -2.0005  1.9164
 5160SOL     OW26941   4.655   1.663   8.698 -0.2325  0.0826  0.3907
 5160SOL    HW126942   0.018   1.650   8.652 -1.3575 -2.3497 -0.9501
 5160SOL    HW226943   4.627   1.748   8.663 -0.3062 -0.5041 -0.9720
 5161SOL     OW26944   2.759   4.071   5.952  0.0548  0.1774 -0.6152
 5161SOL    HW126945   2.727   4.000   6.008 -0.1403  0.8653  0.1408
 5161SOL    HW226946   2.851   4.065   5.978  0.1931  2.3047 -0.6526
 5162SOL     OW26947   1.870   0.542   9.270  0.2064  0.2261 -0.3945
 5162SOL    HW126948   1.835   0.485   9.202 -1.6132 -1.7065  2.1630
 5162SOL    HW226949   1.799   0.550   9.333  1.2822  0.9522  0.7368
 5163SOL     OW26950   3.994   0.578   9.211  0.1197 -0.0845  0.3696
 5163SOL    HW126951   4.062   0.520   9.245  1.2773  1.3536  0.4899
 5163SOL    HW226952   3.941   0.594   9.289 -0.8815  1.2217 -0.5839
 5164SOL     OW26953   1.655   0.458   2.809  0.3349  0.0309 -0.0309
 5164SOL    HW126954   1.573   0.413   2.790  0.4711 -0.6451  0.9951
 5164SOL    HW226955   1.638   0.550   2.790  0.1977  0.2875  1.3424
 5165SOL     OW26956   1.607   4.373   3.963 -0.0747  0.9992 -0.4708
 5165SOL    HW126957   1.667   4.319   3.911  0.2340 -1.6702  2.6519
 5165SOL    HW226958   1.525   4.348   3.919 -0.2060  0.2973  0.1558
 5166SOL     OW26959   2.366   4.319   1.043 -0.5837 -0.1281 -0.1953
 5166SOL    HW126960   2.453   4.303   1.006 -0.4492 -1.8043  0.8543
 5166SOL    HW226961   2.381   4.379   1.116  0.7892 -1.2890  0.4767
 5167SOL     OW26962   0.803   2.870   1.356  0.2801 -0.2457 -0.3068
 5167SOL    HW126963   0.874   2.926   1.324 -0.1100  0.7935  0.6446
 5167SOL    HW226964   0.732   2.935   1.356  0.0770 -0.4681  3.6356
 5168SOL     OW26965   1.460   2.405  10.072  0.4168 -0.1544  0.3362
 5168SOL    HW126966   1.435   2.321  10.110  1.8986 -1.1664 -0.9114
 5168SOL    HW226967   1.389   2.459  10.107 -0.5407 -1.1523 -0.0688
 5169SOL     OW26968   1.099   4.706  11.593  0.1010 -0.3648 -0.2047
 5169SOL    HW126969   1.083   4.624  11.547  4.3207 -0.7609 -1.0175
 5169SOL    HW226970   1.178   4.685  11.644 -1.1642  1.3252  2.4440
 5170SOL     OW26971   3.077   3.327   2.381  0.4879  0.1635 -0.4953
 5170SOL    HW126972   3.014   3.332   2.452  1.4467 -1.1718  0.4479
 5170SOL    HW226973   3.101   3.235   2.391  2.9363  0.7535 -0.9277
 5171SOL     OW26974   1.211   2.672   2.697  0.1762  0.0164 -0.0941
 5171SOL    HW126975   1.178   2.709   2.779  0.4519  0.5174 -0.2122
 5171SOL    HW226976   1.137   2.638   2.647  0.0647 -0.2345  0.2401
 5172SOL     OW26977   0.962   3.937   6.657 -0.5245  0.5963 -0.0118
 5172SOL    HW126978   1.057   3.946   6.661 -0.4459 -0.1228 -0.2786
 5172SOL    HW226979   0.960   3.879   6.581  0.5218 -1.1537  1.3142
 5173SOL     OW26980   0.974   4.366   8.530  0.5224  0.2238  0.0781
 5173SOL    HW126981   0.902   4.404   8.580  0.0381  0.0267 -0.4626
 5173SOL    HW226982   1.048   4.420   8.555 -1.3148  2.3812  0.7918
 5174SOL     OW26983   2.939   3.968  14.073 -0.1157 -0.2295  0.0538
 5174SOL    HW126984   3.015   4.021  14.097 -0.8231  0.9136 -0.1946
 5174SOL    HW226985   2.913   3.925  14.154  0.7120 -1.7784 -0.4987
 5175SOL     OW26986   1.111   2.871  13.731 -0.2235 -0.0621 -0.3528
 5175SOL    HW126987   1.200   2.906  13.741 -1.3585  2.9652 -0.8996
 5175SOL    HW226988   1.140   2.781  13.715 -1.8120 -0.3321 -1.7230
 5176SOL     OW26989   0.871   3.171   5.541  0.1629  0.2057  0.0071
 5176SOL    HW126990   0.837   3.222   5.615  0.8296 -1.7183  1.6232
 5176SOL    HW226991   0.945   3.126   5.581 -1.2248 -4.2588 -2.5469
 5177SOL     OW26992   1.115   3.149  14.679  0.0133  0.4722 -0.2620
 5177SOL    HW126993   1.067   3.227  14.705  1.4597  0.9719  0.9083
 5177SOL    HW226994   1.085   3.135  14.589  0.9072 -2.2650 -0.1323
 5178SOL     OW26995   3.837   3.020   5.741 -0.4202 -0.1404 -0.3617
 5178SOL    HW126996   3.768   2.966   5.703 -0.1106 -0.8765  0.1293
 5178SOL    HW226997   3.913   3.021   5.683  1.3543 -1.3764  1.9265
 5179SOL     OW26998   2.433   0.764   3.822  0.4362 -0.0706  0.1501
 5179SOL    HW126999   2.452   0.843   3.872 -0.3773 -0.5575  1.2212
 5179SOL    HW227000   2.498   0.774   3.752 -0.3641  1.2040 -0.4192
 5180SOL     OW27001   2.685   3.837  12.430  0.0519  0.0920 -0.9824
 5180SOL    HW127002   2.745   3.785  12.377  0.1438 -1.3764  0.5419
 5180SOL    HW227003   2.635   3.885  12.365 -0.5015 -0.4973 -0.9902
 5181SOL     OW27004   3.935   2.452   7.312 -0.3067 -1.0616  0.0647
 5181SOL    HW127005   4.015   2.408   7.283  1.9671  3.3724 -0.4064
 5181SOL    HW227006   3.966   2.542   7.304  1.8477 -1.8922 -0.9976
 5182SOL     OW27007   0.775   2.302   8.983 -0.2645 -0.4068  0.5920
 5182SOL    HW127008   0.746   2.273   9.070  1.0234  0.1979  1.2152
 5182SOL    HW227009   0.769   2.219   8.935 -1.0293 -0.3999  0.6665
 5183SOL     OW27010   0.090   4.403   5.762 -0.2401  0.0997  0.9883
 5183SOL    HW127011   0.032   4.415   5.838 -0.9126  0.2275  0.4579
 5183SOL    HW227012   0.103   4.309   5.748  1.0094  0.2099  1.3940
 5184SOL     OW27013   1.683   2.432   2.900 -0.6063 -0.1819 -0.6315
 5184SOL    HW127014   1.612   2.491   2.876  2.2211  3.3062 -0.4010
 5184SOL    HW227015   1.719   2.398   2.818 -0.3012 -4.3778  1.2150
 5185SOL     OW27016   1.551   1.272   7.695  0.1522 -0.4074 -0.2680
 5185SOL    HW127017   1.643   1.299   7.694  0.2960 -0.9400 -2.0370
 5185SOL    HW227018   1.532   1.299   7.605 -2.0698 -4.0806 -0.8781
 5186SOL     OW27019   1.344   3.044   0.423  0.5032  0.2385  0.1972
 5186SOL    HW127020   1.320   3.037   0.515  3.3095  1.4263  1.0418
 5186SOL    HW227021   1.271   2.995   0.386 -0.6758  1.7722  0.4685
 5187SOL     OW27022   0.570   1.455  12.061  0.5203  0.2779  0.0296
 5187SOL    HW127023   0.653   1.452  12.109 -0.5117 -0.2917  1.7887
 5187SOL    HW227024   0.588   1.392  11.991 -0.7426  0.4017 -0.3914
 5188SOL     OW27025   3.131   0.535   6.275 -0.3451  0.8950 -0.0313
 5188SOL    HW127026   3.039   0.562   6.269 -0.1106  1.2059 -2.1130
 5188SOL    HW227027   3.119   0.442   6.258 -1.6731  0.7479  1.7090
 5189SOL     OW27028   4.101   4.169   3.630  0.4813 -0.1949 -0.6693
 5189SOL    HW127029   4.133   4.099   3.688  0.7097 -0.1447 -0.7349
 5189SOL    HW227030   4.154   4.245   3.653 -1.9402  1.2051  0.3292
 5190SOL     OW27031   1.650   0.175   5.773  0.1457 -0.2681  0.5547
 5190SOL    HW127032   1.693   0.157   5.857  0.0415 -0.4970  0.5573
 5190SOL    HW227033   1.573   0.219   5.807 -1.6016 -2.9705  0.0732
 5191SOL     OW27034   1.889   4.026  13.965  0.3298 -0.4231 -0.2300
 5191SOL    HW127035   1.912   3.985  14.048  0.6840  0.2086 -0.0164
 5191SOL    HW227036   1.855   3.949  13.919 -1.0273  0.2992 -0.4473
 5192SOL     OW27037   0.238   2.819   2.267 -0.4041  0.0626  0.5623
 5192SOL    HW127038   0.236   2.915   2.269  0.5203  0.1003 -0.1452
 5192SOL    HW227039   0.273   2.801   2.179  0.0924  1.5158  0.4682
 5193SOL     OW27040   3.754   2.862   1.077  0.0617  0.3621  0.2488
 5193SOL    HW127041   3.743   2.935   1.138 -1.2566 -0.5128  1.0733
 5193SOL    HW227042   3.706   2.891   0.999 -0.0677  1.3323  0.6811
 5194SOL     OW27043   1.128   3.279  17.505 -0.0591 -0.0667 -0.6686
 5194SOL    HW127044   1.186   3.343  17.547 -2.6966  0.9893  1.2948
 5194SOL    HW227045   1.142   3.294  17.411  0.9469 -0.9695 -0.6682
 5195SOL     OW27046   3.380   3.783   7.712 -0.2784  0.3822 -0.3911
 5195SOL    HW127047   3.365   3.736   7.630 -4.6254  0.7967  0.1736
 5195SOL    HW227048   3.462   3.824   7.684 -0.7129  1.2612 -0.3450
 5196SOL     OW27049   0.666   3.488   8.316 -0.3864  0.4525  0.3957
 5196SOL    HW127050   0.617   3.441   8.249  2.2734 -0.0357 -1.1759
 5196SOL    HW227051   0.607   3.474   8.390 -1.1048 -1.2449 -0.5024
 5197SOL     OW27052   2.842   0.692   3.442  0.1920 -0.3945  0.3414
 5197SOL    HW127053   2.863   0.599   3.437 -1.3166 -0.6497 -1.2139
 5197SOL    HW227054   2.775   0.700   3.511 -0.6239 -1.2025 -0.3596
 5198SOL     OW27055   4.348   3.553   5.258 -0.3452  0.2847 -0.0841
 5198SOL    HW127056   4.330   3.647   5.261 -1.4053  0.0488  1.2371
 5198SOL    HW227057   4.406   3.554   5.183 -2.2501  2.4577 -1.5140
 5199SOL     OW27058   4.079   2.398  16.405 -0.5240 -0.1611  0.5992
 5199SOL    HW127059   4.153   2.339  16.417 -0.2357 -0.1082 -0.8794
 5199SOL    HW227060   4.092   2.456  16.480 -0.0268 -0.0199  0.4038
 5200SOL     OW27061   1.729   1.901  13.362 -0.0063 -0.5324  0.3293
 5200SOL    HW127062   1.649   1.849  13.369 -0.1431 -0.4736 -0.8824
 5200SOL    HW227063   1.776   1.865  13.287 -2.4300 -0.9832 -0.9570
 5201SOL     OW27064   3.351   0.340  13.706 -0.2481 -0.0944 -0.3422
 5201SOL    HW127065   3.291   0.294  13.766  1.0032 -0.9728  0.2404
 5201SOL    HW227066   3.401   0.267  13.670  0.1371 -0.8833  1.7874
 5202SOL     OW27067   2.181   1.138  14.175  0.5283 -0.6267 -0.1929
 5202SOL    HW127068   2.271   1.108  14.169  0.4955 -0.3881 -2.0138
 5202SOL    HW227069   2.182   1.186  14.258 -1.5101  0.1028 -0.5807
 5203SOL     OW27070   1.737   1.231  17.557  0.2037  1.0819 -1.1795
 5203SOL    HW127071   1.784   1.149  17.573  1.7535  1.7149 -2.4404
 5203SOL    HW227072   1.673   1.233  17.628 -1.1617  0.0760 -2.3779
 5204SOL     OW27073   0.149   4.678   6.760 -0.3037 -0.3439  0.0360
 5204SOL    HW127074   0.204   4.600   6.770  0.0467 -0.1454 -0.2839
 5204SOL    HW227075   0.198   0.012   6.822  3.0643 -2.0846 -1.0659
 5205SOL     OW27076   4.644   4.385  15.959 -0.2868  0.1455 -0.0067
 5205SOL    HW127077   4.626   4.298  15.925  0.5280 -0.3806  0.9060
 5205SOL    HW227078   4.646   4.445  15.885 -2.3252  1.0727  0.6778
 5206SOL     OW27079   3.703   0.339   3.632  0.5562  0.6911  0.0397
 5206SOL    HW127080   3.645   0.401   3.676  0.4231  1.1417 -0.7600
 5206SOL    HW227081   3.637   0.273   3.615 -0.5793  2.0367 -0.7610
 5207SOL     OW27082   2.420   1.480  13.599  0.3710 -0.1438  0.3592
 5207SOL    HW127083   2.452   1.398  13.638 -2.1896 -0.9351  0.8211
 5207SOL    HW227084   2.337   1.477  13.645  1.2403  1.4578  2.0153
 5208SOL     OW27085   0.297   0.090   6.951  0.2294 -0.0088 -0.2661
 5208SOL    HW127086   0.385   0.083   6.988 -0.8187 -3.2585  1.7000
 5208SOL    HW227087   0.250   0.026   7.005  1.1256 -0.6657 -0.2663
 5209SOL     OW27088   3.283   4.576   8.615 -0.6824 -0.3396  0.0651
 5209SOL    HW127089   3.230   4.623   8.551  0.7143  2.0325  0.6463
 5209SOL    HW227090   3.364   4.626   8.623 -1.6582  1.4862 -1.5401
 5210SOL     OW27091   4.295   0.721  12.936  0.3067 -0.3749  0.2085
 5210SOL    HW127092   4.284   0.635  12.896  3.4035 -0.4609 -0.4539
 5210SOL    HW227093   4.372   0.717  12.993 -0.4003  0.2962  1.2049
 5211SOL     OW27094   4.097   0.704  10.616 -0.0101  0.8459 -0.5415
 5211SOL    HW127095   4.007   0.673  10.625  0.4387 -0.0349  0.9481
 5211SOL    HW227096   4.134   0.639  10.676 -0.1416  2.5949  1.4111
 5212SOL     OW27097   1.309   2.040   6.311 -0.6261  0.3896 -0.1788
 5212SOL    HW127098   1.305   1.989   6.392 -1.0689  0.0405 -0.4185
 5212SOL    HW227099   1.229   2.014   6.265  0.0321  0.9223 -1.6290
 5213SOL     OW27100   4.565   3.473   3.317 -0.3136 -0.1357 -0.0383
 5213SOL    HW127101   4.624   3.499   3.246 -1.1765  0.6407 -0.4672
 5213SOL    HW227102   4.507   3.549   3.326 -0.9642 -0.4896 -1.1386
 5214SOL     OW27103   0.862   3.647   2.072  0.0860 -0.7999  0.0555
 5214SOL    HW127104   0.858   3.573   2.132 -0.7567 -1.2383 -0.5560
 5214SOL    HW227105   0.857   3.714   2.140 -1.0309 -0.4439 -0.3733
 5215SOL     OW27106   0.605   0.346   6.155 -0.3534  0.1236 -0.4433
 5215SOL    HW127107   0.676   0.360   6.216 -0.5306  1.0461 -0.4530
 5215SOL    HW227108   0.633   0.261   6.120  2.5538 -0.2404  2.7998
 5216SOL     OW27109   1.642   3.000   6.499  0.5505  0.1105 -0.1002
 5216SOL    HW127110   1.570   2.983   6.559  1.4276 -0.4776  0.7823
 5216SOL    HW227111   1.654   3.095   6.509  2.4444 -0.0592 -0.7471
 5217SOL     OW27112   0.756   2.925  16.557 -0.0741 -0.2835 -0.0891
 5217SOL    HW127113   0.672   2.951  16.519  0.5919  0.5873 -0.9617
 5217SOL    HW227114   0.736   2.878  16.638 -0.0827  0.3919  0.2972
 5218SOL     OW27115   1.273   1.275   2.279  0.2331  0.0598 -0.0027
 5218SOL    HW127116   1.302   1.186   2.262 -2.9620 -1.2845  1.6928
 5218SOL    HW227117   1.353   1.317   2.311  1.8970 -2.9002 -0.2670
 5219SOL     OW27118   2.137   0.028   1.926  0.7194 -0.3300 -0.3825
 5219SOL    HW127119   2.165   4.665   1.889  2.8341  0.2687 -0.0820
 5219SOL    HW227120   2.114   0.005   2.017  0.6103 -0.3110 -0.4050
 5220SOL     OW27121   1.739   4.241   3.739 -0.4985 -0.2691  0.0977
 5220SOL    HW127122   1.685   4.196   3.674 -1.7210  1.7709 -0.3265
 5220SOL    HW227123   1.795   4.300   3.688  1.4974 -0.9190  1.5879
 5221SOL     OW27124   0.962   0.726   0.656  0.1050  0.1520 -0.2261
 5221SOL    HW127125   1.046   0.702   0.696  0.0536 -0.9305 -0.7503
 5221SOL    HW227126   0.971   0.817   0.684 -1.3600  0.0720  0.4673
 5222SOL     OW27127   3.558   4.613  12.157 -0.2217 -0.6120  0.0282
 5222SOL    HW127128   3.590   4.538  12.207  0.1310 -0.3747  0.1550
 5222SOL    HW227129   3.639   4.633  12.109  0.3992 -2.9768  0.0705
 5223SOL     OW27130   4.168   2.259   9.698 -0.7734 -0.1717  0.3658
 5223SOL    HW127131   4.214   2.310   9.631 -0.9069  0.6096  0.8691
 5223SOL    HW227132   4.215   2.273   9.781  0.6418  0.2641 -0.5101
 5224SOL     OW27133   3.734   1.427  16.587 -0.2259 -0.1009 -0.0103
 5224SOL    HW127134   3.810   1.439  16.644 -0.4521 -1.6149  0.6062
 5224SOL    HW227135   3.767   1.353  16.537  1.4909  2.0263 -2.0245
 5225SOL     OW27136   3.675   3.455   2.493 -0.2900  0.1346  0.1669
 5225SOL    HW127137   3.653   3.379   2.547  0.2840 -1.1801 -1.4720
 5225SOL    HW227138   3.599   3.484   2.443  0.1642 -0.6098 -0.9574
 5226SOL     OW27139   4.019   4.216  12.335  0.0564  0.5004  0.8303
 5226SOL    HW127140   3.995   4.125  12.354  0.8681  0.2154  0.5086
 5226SOL    HW227141   4.092   4.208  12.273  1.0563  1.0909  1.9339
 5227SOL     OW27142   4.029   0.178   7.914  0.7465  0.4960  0.3401
 5227SOL    HW127143   4.110   0.212   7.877  1.2271 -0.5663  0.3972
 5227SOL    HW227144   4.034   0.203   8.006 -2.3243 -0.8226  0.8873
 5228SOL     OW27145   4.098   0.706   1.644 -0.0225  0.2928  0.5098
 5228SOL    HW127146   4.041   0.655   1.701  0.4703 -2.3775 -1.3836
 5228SOL    HW227147   4.035   0.770   1.609 -0.9019 -1.1300 -0.5305
 5229SOL     OW27148   3.770   3.292   6.326  0.4460 -0.2523 -0.4057
 5229SOL    HW127149   3.687   3.247   6.309 -0.0910  0.8253 -0.5927
 5229SOL    HW227150   3.734   3.380   6.333  2.4846  0.5724 -0.4714
 5230SOL     OW27151   1.926   0.174   9.323 -0.0658 -0.3168 -0.3775
 5230SOL    HW127152   1.920   0.222   9.241 -2.5900  1.3739  0.7712
 5230SOL    HW227153   1.968   0.233   9.386 -0.9614  2.0068 -1.9863
 5231SOL     OW27154   1.817   1.006  13.511  0.1080 -0.1335 -0.5857
 5231SOL    HW127155   1.732   1.043  13.486  0.8161  1.6559 -0.3182
 5231SOL    HW227156   1.852   1.081  13.558 -0.4705  1.0727 -2.0781
 5232SOL     OW27157   0.789   1.928   5.802  0.1681 -0.2286 -0.3076
 5232SOL    HW127158   0.746   1.955   5.721  1.0023 -0.4835 -0.8244
 5232SOL    HW227159   0.719   1.889   5.855  0.1543 -1.3909 -1.1907
 5233SOL     OW27160   3.836   1.175   8.328  0.0963  0.2065  0.4780
 5233SOL    HW127161   3.837   1.264   8.364  3.1374 -0.8069  2.8704
 5233SOL    HW227162   3.788   1.129   8.398  0.5179  1.1391  1.3859
 5234SOL     OW27163   0.297   3.322  13.495 -0.3255  0.7040 -0.6500
 5234SOL    HW127164   0.355   3.250  13.522  0.1915  2.1131  1.9864
 5234SOL    HW227165   0.289   3.376  13.573  0.0623  2.1186 -1.6014
 5235SOL     OW27166   2.239   2.332   1.303  0.0720  0.5604  0.3097
 5235SOL    HW127167   2.333   2.317   1.307 -0.0942 -0.6524 -0.3051
 5235SOL    HW227168   2.195   2.260   1.349  0.0910  0.4068  0.0868
 5236SOL     OW27169   3.143   2.475   9.332  0.3249 -0.0901  0.2945
 5236SOL    HW127170   3.134   2.521   9.415  0.2334 -0.2723  0.3843
 5236SOL    HW227171   3.235   2.471   9.309  0.8048 -1.0124  2.4030
 5237SOL     OW27172   0.906   4.153   4.721  0.6365  0.8015 -0.6666
 5237SOL    HW127173   0.877   4.194   4.640  0.4514  0.5270 -0.7419
 5237SOL    HW227174   0.846   4.079   4.719  0.9103  0.5482  0.4957
 5238SOL     OW27175   1.641   3.180   5.793 -0.5635 -0.6339 -0.4687
 5238SOL    HW127176   1.717   3.237   5.785 -1.4424  0.5255 -0.7172
 5238SOL    HW227177   1.627   3.167   5.886  2.2693  0.4986  0.1169
 5239SOL     OW27178   0.355   3.972   3.670 -0.5552 -0.0361 -0.1201
 5239SOL    HW127179   0.400   4.037   3.725 -0.9968 -0.3625  0.6258
 5239SOL    HW227180   0.265   3.993   3.693 -0.3329  0.6819  0.1160
 5240SOL     OW27181   0.171   3.785   6.534  0.1152 -0.1722 -0.0978
 5240SOL    HW127182   0.260   3.795   6.566 -0.1312  0.5783  0.3642
 5240SOL    HW227183   0.167   3.692   6.511  0.6977 -0.3782  0.6319
 5241SOL     OW27184   4.377   2.950   6.879 -0.1811  0.0310 -0.4511
 5241SOL    HW127185   4.283   2.939   6.888 -0.3746 -0.1853 -2.8459
 5241SOL    HW227186   4.409   2.990   6.960 -1.6116  1.6550 -0.6931
 5242SOL     OW27187   0.411   3.364   4.367 -0.2487 -0.7060 -0.4565
 5242SOL    HW127188   0.388   3.275   4.394  2.0641 -1.9120 -2.4532
 5242SOL    HW227189   0.507   3.361   4.368 -0.2278 -0.2609 -1.1159
 5243SOL     OW27190   0.837   2.288   5.460  0.3834 -0.0869  0.1944
 5243SOL    HW127191   0.923   2.289   5.418  0.8490  1.5144  1.2154
 5243SOL    HW227192   0.858   2.306   5.551 -1.3354 -1.0216  0.7951
 5244SOL     OW27193   1.339   0.818   7.588  0.2688  0.1800 -0.5977
 5244SOL    HW127194   1.276   0.801   7.657 -0.9978 -0.8098 -1.9935
 5244SOL    HW227195   1.310   0.903   7.556 -0.0828  0.0872 -0.5267
 5245SOL     OW27196   1.948   0.273  12.759  0.0906  0.1993  0.2152
 5245SOL    HW127197   1.882   0.205  12.773 -2.2674  1.6724 -3.5318
 5245SOL    HW227198   1.921   0.349  12.810 -0.1343  1.0927 -1.2091
 5246SOL     OW27199   0.569   1.502   4.629  0.2630  0.6651 -0.3430
 5246SOL    HW127200   0.622   1.525   4.705  1.2147 -1.5237 -0.3178
 5246SOL    HW227201   0.616   1.432   4.583  0.2390  0.0329  0.5805
 5247SOL     OW27202   0.410   0.852  15.830  1.0482  0.2515  0.8521
 5247SOL    HW127203   0.404   0.795  15.753 -0.5741 -1.5272  2.2886
 5247SOL    HW227204   0.442   0.793  15.897  1.7254 -1.0254 -0.6054
 5248SOL     OW27205   4.462   4.681   6.404  0.4121  0.1513  0.1132
 5248SOL    HW127206   4.498   4.720   6.484  0.0176 -0.7359  0.7308
 5248SOL    HW227207   4.370   4.661   6.425  0.6307 -1.5633 -0.5278
 5249SOL     OW27208   1.371   2.982  15.551  0.4654  0.2794 -0.3525
 5249SOL    HW127209   1.453   2.977  15.600  0.2471  0.3859  0.0299
 5249SOL    HW227210   1.305   3.017  15.612  2.3138  3.2497 -0.0372
 5250SOL     OW27211   1.394   3.457   1.948 -0.3345  0.1736  0.4172
 5250SOL    HW127212   1.461   3.455   1.879 -0.9343  1.7553 -0.2201
 5250SOL    HW227213   1.397   3.369   1.985 -3.6075  0.2771  0.9189
 5251SOL     OW27214   2.031   1.671   7.986 -0.7039 -0.3470 -0.4110
 5251SOL    HW127215   2.020   1.758   7.948  0.1688  0.4442  1.1395
 5251SOL    HW227216   2.080   1.620   7.922  0.8278 -0.6345  1.0017
 5252SOL     OW27217   3.649   0.183   2.156 -0.0021 -0.5878  0.5007
 5252SOL    HW127218   3.696   0.252   2.205 -0.6570 -0.9582  1.6418
 5252SOL    HW227219   3.692   0.110   2.200 -0.7708 -0.5710  1.2628
 5253SOL     OW27220   4.492   1.708  16.536  0.4875  0.3435 -0.0830
 5253SOL    HW127221   4.446   1.728  16.617 -3.2567 -0.2321 -2.0680
 5253SOL    HW227222   4.452   1.628  16.502 -0.0860  0.0957  1.1608
 5254SOL     OW27223   4.638   4.122  10.013 -0.7076  0.1042  0.0660
 5254SOL    HW127224   4.568   4.124  10.079  0.6157  0.9813  1.4329
 5254SOL    HW227225   4.694   4.057  10.055 -1.2003  0.8985  1.9438
 5255SOL     OW27226   3.940   3.507   5.160  0.6849  0.6493  0.4132
 5255SOL    HW127227   3.846   3.526   5.167  0.2477 -1.0755 -0.5934
 5255SOL    HW227228   3.945   3.428   5.214 -0.5892  0.0827 -0.2892
 5256SOL     OW27229   1.684   0.882  17.436  0.3122  0.0184 -0.1702
 5256SOL    HW127230   1.657   0.941  17.366 -0.3296 -0.3068 -0.1957
 5256SOL    HW227231   1.717   0.822  17.370  2.9229  0.9605  0.2859
 5257SOL     OW27232   1.846   1.252   5.071  0.1759 -0.3036  0.2973
 5257SOL    HW127233   1.929   1.241   5.025 -0.6260  0.9854 -1.4521
 5257SOL    HW227234   1.792   1.286   4.999  1.1220  0.0752 -0.2279
 5258SOL     OW27235   1.824   1.266  10.420  0.0516 -0.0761 -0.0753
 5258SOL    HW127236   1.786   1.351  10.443  0.0591  0.0376 -0.4907
 5258SOL    HW227237   1.913   1.293  10.394  0.4891 -0.2923  1.2025
 5259SOL     OW27238   1.565   4.004   5.458  0.0812  0.2042 -0.3244
 5259SOL    HW127239   1.652   3.998   5.498 -0.2113 -0.6008  0.1806
 5259SOL    HW227240   1.541   4.095   5.476  1.9612  0.6940 -0.2999
 5260SOL     OW27241   4.183   3.692  11.536 -0.1815 -0.2853 -0.0800
 5260SOL    HW127242   4.190   3.774  11.487 -2.3761  0.2497  0.4998
 5260SOL    HW227243   4.233   3.630  11.483  1.5084  2.2800 -1.4976
 5261SOL     OW27244   0.339   1.297   2.667  0.9393  0.1862  0.3449
 5261SOL    HW127245   0.307   1.271   2.753  0.8841 -1.4520 -0.1723
 5261SOL    HW227246   0.259   1.319   2.619  3.0986  1.1871 -2.7728
 5262SOL     OW27247   0.161   3.211   4.914  0.2728  0.1838 -0.3586
 5262SOL    HW127248   0.191   3.276   4.851 -1.4668  0.1745 -1.1976
 5262SOL    HW227249   0.094   3.167   4.861 -0.5624 -0.3188  1.0988
 5263SOL     OW27250   2.487   0.515  16.588  0.1322 -0.2374  0.2885
 5263SOL    HW127251   2.454   0.453  16.522 -2.6987  2.7672 -1.1411
 5263SOL    HW227252   2.439   0.477  16.661 -0.3542  0.4286  0.3163
 5264SOL     OW27253   2.459   0.720  15.596 -0.0602 -0.2138  0.2833
 5264SOL    HW127254   2.520   0.647  15.605 -1.9621 -1.8393 -0.2754
 5264SOL    HW227255   2.459   0.752  15.687 -1.8352 -0.3677  0.3268
 5265SOL     OW27256   0.165   1.708   6.136 -0.1797  0.0470 -0.6664
 5265SOL    HW127257   0.128   1.796   6.144  1.4494  0.8810 -2.4973
 5265SOL    HW227258   0.163   1.701   6.041  1.3287 -0.1347 -0.6813
 5266SOL     OW27259   2.567   1.563   2.874 -1.0125 -0.2722  0.0117
 5266SOL    HW127260   2.493   1.614   2.840 -0.3835  0.4182 -0.3145
 5266SOL    HW227261   2.578   1.494   2.808 -1.3366 -1.2027  0.9356
 5267SOL     OW27262   3.655   2.517   6.892 -0.0950 -0.0021  0.0346
 5267SOL    HW127263   3.612   2.540   6.974  0.7274 -0.9074  0.7168
 5267SOL    HW227264   3.639   2.423   6.885  1.0482  0.0087 -2.9920
 5268SOL     OW27265   1.096   3.251   5.943 -0.3170 -0.3401  0.3521
 5268SOL    HW127266   1.108   3.183   6.009 -1.1103  0.3497  1.2141
 5268SOL    HW227267   1.190   3.260   5.926 -0.5896  0.1414 -0.8870
 5269SOL     OW27268   2.904   0.307   6.812  0.5584 -0.4283 -0.3921
 5269SOL    HW127269   2.826   0.252   6.817 -0.1919  0.6720  0.1094
 5269SOL    HW227270   2.898   0.338   6.721 -2.2118  0.5588  0.1191
 5270SOL     OW27271   0.559   3.881   5.012  0.4041 -0.0430 -0.0804
 5270SOL    HW127272   0.624   3.817   4.983 -1.3940 -1.7682 -0.2485
 5270SOL    HW227273   0.576   3.890   5.105 -0.9068  1.3578  0.0285
 5271SOL     OW27274   3.143   4.302  14.668  0.2362 -0.1758 -0.1584
 5271SOL    HW127275   3.158   4.345  14.752 -2.3838  1.8263 -0.7177
 5271SOL    HW227276   3.229   4.261  14.659  0.4850  0.0225  1.4045
 5272SOL     OW27277   4.651   0.621   7.468 -0.0843 -0.1397  0.0313
 5272SOL    HW127278   4.637   0.676   7.391  2.1546  0.0518 -0.2367
 5272SOL    HW227279   4.564   0.616   7.509  0.0202 -1.0041  0.1463
 5273SOL     OW27280   0.271   1.124   5.191 -0.2404 -0.1081  0.3193
 5273SOL    HW127281   0.366   1.121   5.198 -0.5225 -1.6743  3.6458
 5273SOL    HW227282   0.246   1.074   5.269 -1.2520  0.7501  0.5426
 5274SOL     OW27283   2.383   3.802   7.617 -0.5472  0.0319  0.0591
 5274SOL    HW127284   2.450   3.851   7.665 -0.8543  0.1557  0.3626
 5274SOL    HW227285   2.303   3.853   7.634 -0.3886  0.4677 -0.5089
 5275SOL     OW27286   3.209   4.310   8.582 -0.4358 -0.0154 -0.3054
 5275SOL    HW127287   3.189   4.290   8.673  1.5718 -1.1735 -0.1125
 5275SOL    HW227288   3.232   4.402   8.590  0.2028 -0.0260 -1.9670
 5276SOL     OW27289   0.543   4.217   5.917 -0.6060  0.0427  0.4113
 5276SOL    HW127290   0.615   4.245   5.973 -0.6588  0.4604  0.2674
 5276SOL    HW227291   0.568   4.270   5.842 -2.6419  0.6823  0.1820
 5277SOL     OW27292   1.756   3.292  14.236  0.4987  0.2655  0.4328
 5277SOL    HW127293   1.743   3.202  14.266  1.7263 -0.0859 -0.1042
 5277SOL    HW227294   1.676   3.320  14.191 -0.0716  1.5309  2.2148
 5278SOL     OW27295   2.214   3.987  14.093 -0.2052 -0.4332  0.3287
 5278SOL    HW127296   2.291   3.992  14.036 -1.0585 -0.6454 -0.8430
 5278SOL    HW227297   2.204   3.893  14.080  1.5641 -1.0191  3.1160
 5279SOL     OW27298   2.933   3.551   9.045 -0.2523 -1.0047 -0.3384
 5279SOL    HW127299   2.966   3.638   9.069 -1.0580 -1.4278  2.4113
 5279SOL    HW227300   2.840   3.573   9.036  0.7144  2.7825 -1.2812
 5280SOL     OW27301   0.138   3.529   6.475 -0.0760  0.1574  0.4464
 5280SOL    HW127302   0.058   3.476   6.470 -0.1927  0.2183  1.8586
 5280SOL    HW227303   0.178   3.474   6.542 -0.3920  0.4900  0.9042
 5281SOL     OW27304   1.651   1.318  14.524  0.0915 -0.1683 -0.7142
 5281SOL    HW127305   1.576   1.306  14.466 -1.1943 -0.3984  1.0239
 5281SOL    HW227306   1.684   1.401  14.490 -1.0014  1.8200  3.1850
 5282SOL     OW27307   1.764   1.767  17.253 -0.3522 -0.0381  0.4277
 5282SOL    HW127308   1.783   1.693  17.195 -1.7122 -0.7738  0.9363
 5282SOL    HW227309   1.746   1.835  17.188 -0.0588 -0.6906 -0.3402
 5283SOL     OW27310   0.657   3.277  12.135  0.1403 -0.5858 -0.0173
 5283SOL    HW127311   0.603   3.353  12.115 -1.0146 -1.1596  0.9404
 5283SOL    HW227312   0.666   3.292  12.229  0.0636  2.5601 -0.5318
 5284SOL     OW27313   3.945   3.730  11.677 -0.3589 -0.1858 -0.1942
 5284SOL    HW127314   3.889   3.685  11.614  0.4194  0.5059 -1.3764
 5284SOL    HW227315   4.023   3.699  11.632  1.4764  1.0289  2.1512
 5285SOL     OW27316   2.236   4.284   3.240 -0.8176 -0.7047  0.1312
 5285SOL    HW127317   2.299   4.223   3.203 -0.6544  0.3314 -1.3210
 5285SOL    HW227318   2.183   4.306   3.163 -0.4508  0.1977  0.1361
 5286SOL     OW27319   4.092   3.055   5.626 -0.1062 -0.0325 -0.3155
 5286SOL    HW127320   4.143   3.017   5.698  1.2284 -1.6293 -2.1230
 5286SOL    HW227321   4.151   3.129   5.611  0.1896  0.2626  2.3348
 5287SOL     OW27322   0.368   2.233   5.980 -0.3876  0.2872 -0.2224
 5287SOL    HW127323   0.415   2.258   6.060 -0.1808 -0.1937 -0.1892
 5287SOL    HW227324   0.405   2.300   5.922 -1.2882 -0.1624 -1.3038
 5288SOL     OW27325   1.355   3.260   7.033  0.0724  0.2027 -0.0045
 5288SOL    HW127326   1.429   3.265   6.972 -1.8601 -1.2871 -2.4443
 5288SOL    HW227327   1.386   3.193   7.094 -1.5974  1.7170  2.4956
 5289SOL     OW27328   0.016   4.532   4.974  0.7461 -0.0427  0.4125
 5289SOL    HW127329   0.093   4.506   4.923  1.2771  0.4528  0.9588
 5289SOL    HW227330   0.031   4.626   4.971 -2.8168  0.4938  0.6492
 5290SOL     OW27331   4.118   3.370   8.827  0.0462  0.5458 -0.4230
 5290SOL    HW127332   4.066   3.343   8.751 -1.8631 -1.1107  1.4797
 5290SOL    HW227333   4.124   3.286   8.872  0.0816  0.9054  0.2350
 5291SOL     OW27334   2.588   3.318   5.240 -0.0986  0.4361 -0.3222
 5291SOL    HW127335   2.644   3.245   5.214  0.3378  0.8731 -0.6075
 5291SOL    HW227336   2.504   3.272   5.244 -0.6185  1.2950 -1.1156
 5292SOL     OW27337   4.499   2.388   7.506  0.3064 -0.3317 -0.0976
 5292SOL    HW127338   4.491   2.300   7.543  0.8811  0.4711  1.9281
 5292SOL    HW227339   4.458   2.363   7.423 -0.7835 -0.1743  0.3881
 5293SOL     OW27340   0.035   3.125  10.633 -0.0636  0.0771  0.1378
 5293SOL    HW127341   0.100   3.104  10.566  1.6565  1.5227  1.3687
 5293SOL    HW227342   0.028   3.219  10.623  1.0725  0.6304  4.4865
 5294SOL     OW27343   4.596   3.181   9.531  0.2743 -0.1218 -0.5785
 5294SOL    HW127344   4.537   3.106   9.529  0.2887 -0.1658  1.4967
 5294SOL    HW227345   4.535   3.250   9.555 -1.7461 -1.8159 -0.8707
 5295SOL     OW27346   3.385   4.297   9.127  0.5449 -0.3606  0.4360
 5295SOL    HW127347   3.399   4.391   9.112  0.3985 -0.6190 -1.3964
 5295SOL    HW227348   3.307   4.296   9.071  1.6920 -0.9678 -1.1592
 5296SOL     OW27349   0.050   4.099   4.709  0.3157  0.0909  0.1570
 5296SOL    HW127350   0.076   4.154   4.783  1.8004  0.5915 -0.7435
 5296SOL    HW227351   4.701   4.053   4.757 -0.0322 -0.4937 -0.9064
 5297SOL     OW27352   0.902   2.379  16.152  0.4793  0.0453 -0.1633
 5297SOL    HW127353   0.882   2.389  16.245  0.6967  0.3814 -0.1551
 5297SOL    HW227354   0.992   2.410  16.144 -0.2829  2.1004 -0.6906
 5298SOL     OW27355   3.335   1.420   3.996 -0.2299 -0.6712 -0.2438
 5298SOL    HW127356   3.292   1.441   4.079  2.2723  0.4979  0.7509
 5298SOL    HW227357   3.267   1.461   3.942 -0.0744  1.0145  0.8444
 5299SOL     OW27358   3.158   0.472   0.417  0.4001  0.2660 -0.6167
 5299SOL    HW127359   3.095   0.517   0.361  0.2661 -0.8069 -1.3319
 5299SOL    HW227360   3.125   0.481   0.506 -1.3567 -2.9364 -0.9178
 5300SOL     OW27361   3.267   4.329   3.189 -0.1875 -0.0722 -0.3239
 5300SOL    HW127362   3.216   4.248   3.178  1.5460 -1.2244  0.1330
 5300SOL    HW227363   3.257   4.362   3.100  0.1835  0.3573 -0.2062
 5301SOL     OW27364   0.933   0.723  16.286 -0.2043 -0.2697  0.0990
 5301SOL    HW127365   0.977   0.675  16.356  0.5721 -2.3811 -1.7985
 5301SOL    HW227366   1.004   0.722  16.222  0.4828 -1.0551  0.8764
 5302SOL     OW27367   1.709   3.461   5.514 -0.4070  0.1238  0.0752
 5302SOL    HW127368   1.756   3.386   5.478  1.5509  1.5207 -0.2790
 5302SOL    HW227369   1.701   3.525   5.443 -0.1829 -1.6545 -1.5672
 5303SOL     OW27370   3.751   3.559  11.513 -0.3601  0.9159  0.1976
 5303SOL    HW127371   3.732   3.652  11.502 -0.8884  0.9030  1.0102
 5303SOL    HW227372   3.719   3.527  11.429  3.1684 -1.6245 -0.1775
 5304SOL     OW27373   3.710   3.645   2.186  0.0482 -0.4779 -0.3215
 5304SOL    HW127374   3.720   3.739   2.203  0.8909 -0.9473  1.8182
 5304SOL    HW227375   3.790   3.614   2.228  0.8551  1.5927 -0.3096
 5305SOL     OW27376   3.242   1.613   2.689 -0.0950  0.1748 -0.3393
 5305SOL    HW127377   3.223   1.523   2.664  0.1095 -0.4039  1.6221
 5305SOL    HW227378   3.305   1.631   2.620 -0.7208  1.1923 -0.6498
 5306SOL     OW27379   2.388   1.401   8.350 -0.4051  0.0701 -0.2141
 5306SOL    HW127380   2.314   1.454   8.321 -0.8773 -0.5736 -0.1653
 5306SOL    HW227381   2.349   1.330   8.400 -3.2888  1.9814  0.2619
 5307SOL     OW27382   2.212   3.986   3.607 -0.3662 -0.2387  0.5604
 5307SOL    HW127383   2.134   4.030   3.572 -0.1670 -1.3573 -1.2931
 5307SOL    HW227384   2.285   4.040   3.576 -1.6292  0.5303 -1.1178
 5308SOL     OW27385   2.960   4.357   7.529 -0.1222 -0.1023  0.0943
 5308SOL    HW127386   3.040   4.338   7.479  0.5265  1.9645  0.3294
 5308SOL    HW227387   2.907   4.280   7.512 -1.1267  0.7157 -0.5185
 5309SOL     OW27388   0.030   0.274   4.133  0.1015 -0.0122  0.3442
 5309SOL    HW127389   0.087   0.341   4.095  0.5948  1.3987  3.5400
 5309SOL    HW227390   4.664   0.308   4.106 -0.0515 -1.4430 -0.9733
 5310SOL     OW27391   1.205   1.273  12.924 -0.5036  0.3170 -0.0942
 5310SOL    HW127392   1.169   1.329  12.855  1.4584  3.5582  1.5455
 5310SOL    HW227393   1.277   1.217  12.896 -2.9167 -1.0748 -3.5371
 5311SOL     OW27394   0.769   0.489   7.305 -0.7401  0.4057  0.3656
 5311SOL    HW127395   0.796   0.533   7.224 -2.9575 -0.5448 -0.8696
 5311SOL    HW227396   0.726   0.564   7.347  0.6840  1.4647 -0.0548
 5312SOL     OW27397   0.559   4.645   4.155 -0.1614  0.1977  0.1312
 5312SOL    HW127398   0.553   4.549   4.160  0.5034  0.1902  0.9761
 5312SOL    HW227399   0.467   4.670   4.164 -0.6311 -1.4894  0.0667
 5313SOL     OW27400   2.849   4.010   3.210  0.4699 -0.2738 -0.6277
 5313SOL    HW127401   2.789   4.031   3.139  0.5535 -1.8411 -1.1583
 5313SOL    HW227402   2.827   3.917   3.204  0.4607 -0.3604  0.6688
 5314SOL     OW27403   1.742   1.354  12.726  0.4880 -0.6677  0.7529
 5314SOL    HW127404   1.671   1.335  12.664  0.4147 -0.0498  0.6447
 5314SOL    HW227405   1.759   1.448  12.714 -1.1414 -0.5569 -0.7373
 5315SOL     OW27406   1.824   0.400   5.716 -0.2624  0.6409 -0.0840
 5315SOL    HW127407   1.850   0.392   5.624 -1.4682  0.7366 -0.4344
 5315SOL    HW227408   1.792   0.311   5.733 -2.1774  2.0185  3.5528
 5316SOL     OW27409   4.568   1.747   3.483  0.5762 -0.0174  0.1253
 5316SOL    HW127410   4.539   1.837   3.471  0.9878  0.1836  0.6407
 5316SOL    HW227411   4.509   1.704   3.421 -0.6737 -0.4561  1.6310
 5317SOL     OW27412   0.826   1.916   3.680 -0.1189 -0.1381 -0.5200
 5317SOL    HW127413   0.854   1.977   3.612  0.3743 -0.7061 -0.8208
 5317SOL    HW227414   0.906   1.867   3.700  0.5334  0.5900 -1.3679
 5318SOL     OW27415   1.041   2.438   0.857  0.7705  0.2444  0.5659
 5318SOL    HW127416   1.101   2.397   0.919 -0.3190  1.6547  2.5323
 5318SOL    HW227417   1.033   2.525   0.895 -0.1733  0.6683 -0.5776
 5319SOL     OW27418   2.919   2.265   8.672 -0.2315 -0.5386 -0.3904
 5319SOL    HW127419   2.945   2.276   8.580  2.1332 -0.7567  0.2398
 5319SOL    HW227420   2.873   2.181   8.669 -1.8283  0.3384 -0.4326
 5320SOL     OW27421   4.279   3.214   2.672  0.1611  0.5645  0.1310
 5320SOL    HW127422   4.366   3.238   2.640 -0.7856 -0.2049 -3.0393
 5320SOL    HW227423   4.306   3.209   2.764 -1.1993  0.2734  0.5081
 5321SOL     OW27424   3.968   0.121   5.984  0.6846  0.1093 -0.8836
 5321SOL    HW127425   4.023   0.149   6.058 -1.5207 -0.6549  1.0309
 5321SOL    HW227426   3.886   0.093   6.025  0.1120  1.6653 -0.9758
 5322SOL     OW27427   0.838   1.677   8.795 -0.2712  0.2376 -0.3826
 5322SOL    HW127428   0.779   1.605   8.774 -1.5945  0.6029  2.1566
 5322SOL    HW227429   0.901   1.680   8.722  1.0900  2.1711  0.8591
 5323SOL     OW27430   0.546   1.967   9.046  0.1801 -0.9723 -0.0020
 5323SOL    HW127431   0.525   2.034   9.111  0.0282 -0.5078 -0.5390
 5323SOL    HW227432   0.457   1.937   9.027  1.0220 -3.3525 -0.2745
 5324SOL     OW27433   2.328   3.105   4.949 -0.2436  0.1868 -0.2503
 5324SOL    HW127434   2.289   3.188   4.975 -1.5248  0.3671 -2.6670
 5324SOL    HW227435   2.421   3.123   4.944 -0.2272  0.1252 -0.1725
 5325SOL     OW27436   3.013   2.709   4.737  0.8481 -0.0044 -0.3696
 5325SOL    HW127437   2.921   2.688   4.753  0.1827  1.2317 -2.6939
 5325SOL    HW227438   3.065   2.629   4.746  0.5899 -0.0625  0.7021
 5326SOL     OW27439   4.394   4.158   5.024 -0.5471  0.3093 -0.1570
 5326SOL    HW127440   4.481   4.196   5.021 -0.4055  0.3610  4.0419
 5326SOL    HW227441   4.356   4.187   5.108  0.7864 -1.5335  1.0594
 5327SOL     OW27442   3.939   3.683  15.193  0.0349 -0.3962  0.0011
 5327SOL    HW127443   3.902   3.601  15.224  0.0025 -0.4580 -0.2042
 5327SOL    HW227444   3.993   3.653  15.120  1.5709  0.1006  0.9123
 5328SOL     OW27445   4.051   0.370   4.006  0.0829 -0.1416  0.6688
 5328SOL    HW127446   4.095   0.455   4.001 -1.9786  0.8823  0.0692
 5328SOL    HW227447   3.995   0.392   3.931 -0.6591 -1.3336  0.8777
 5329SOL     OW27448   1.853   0.636   8.843  0.2021  0.0798 -0.5421
 5329SOL    HW127449   1.888   0.717   8.806 -0.7146 -0.2186 -2.0400
 5329SOL    HW227450   1.760   0.657   8.847 -0.1454 -1.6153  0.2756
 5330SOL     OW27451   1.417   4.615   8.651 -0.7547  0.3870 -0.3737
 5330SOL    HW127452   1.455   4.688   8.701 -1.2004  0.8428 -0.7018
 5330SOL    HW227453   1.454   4.534   8.688 -1.0832  0.2651 -0.3082
 5331SOL     OW27454   2.550   0.020   3.580 -0.0548 -0.4361 -0.3989
 5331SOL    HW127455   2.560   4.710   3.670  2.0283 -0.5288 -0.6594
 5331SOL    HW227456   2.478   4.681   3.557 -0.4497  0.2564 -0.9173
 5332SOL     OW27457   4.674   0.689   6.562  0.0651  0.4290  0.1142
 5332SOL    HW127458   0.007   0.682   6.483  1.4034 -0.7342  1.1226
 5332SOL    HW227459   4.718   0.626   6.618  1.5033  0.7420 -0.6674
 5333SOL     OW27460   1.485   1.045  15.236  0.2601 -0.4002  0.5022
 5333SOL    HW127461   1.520   1.070  15.151  1.1937  0.7558  1.2341
 5333SOL    HW227462   1.522   1.118  15.285  0.7748 -1.5339  1.8257
 5334SOL     OW27463   4.645   3.937   4.136  0.4939 -0.3582  0.3281
 5334SOL    HW127464   4.592   3.929   4.215  1.3623 -0.2874  0.9185
 5334SOL    HW227465   0.003   3.890   4.166  0.2384 -0.4404  0.8576
 5335SOL     OW27466   3.423   2.635  14.965 -0.4745  0.1715 -0.8692
 5335SOL    HW127467   3.338   2.629  15.008 -0.0211  0.0843  0.0062
 5335SOL    HW227468   3.483   2.596  15.028 -0.5086  1.4653 -0.0331
 5336SOL     OW27469   1.975   1.020   7.196 -0.0768  0.0081 -0.4783
 5336SOL    HW127470   2.050   1.041   7.252  1.1107 -2.0160 -1.2996
 5336SOL    HW227471   1.918   1.096   7.197  1.5170  1.1659  1.7700
 5337SOL     OW27472   0.133   4.452   2.127 -0.0054 -0.6615 -0.3009
 5337SOL    HW127473   0.198   4.523   2.126 -0.1198 -0.5355  1.0292
 5337SOL    HW227474   0.050   4.499   2.129 -0.4651 -1.4419 -1.1812
 5338SOL     OW27475   0.326   1.101   7.161 -0.1171  0.0517 -0.2124
 5338SOL    HW127476   0.390   1.169   7.181  0.4346 -0.1730 -1.1850
 5338SOL    HW227477   0.391   1.031   7.147 -0.0281  0.3825 -1.4642
 5339SOL     OW27478   3.922   1.781   3.470 -0.5659  0.0291 -0.2250
 5339SOL    HW127479   4.013   1.753   3.481 -0.2608  1.5777  1.2129
 5339SOL    HW227480   3.898   1.733   3.391 -0.2542  0.8804 -0.8425
 5340SOL     OW27481   0.953   2.551   2.561  0.3114 -0.0288  0.4340
 5340SOL    HW127482   0.922   2.460   2.563  0.4142 -0.0754 -0.2390
 5340SOL    HW227483   1.004   2.541   2.481 -0.9114  2.0928 -0.6230
 5341SOL     OW27484   1.891   1.664   2.004 -0.8302  0.1208  0.6255
 5341SOL    HW127485   1.879   1.575   2.037  3.6391  0.0740  2.1043
 5341SOL    HW227486   1.975   1.676   2.048  0.0403  0.3877 -1.1079
 5342SOL     OW27487   2.475   0.655  11.855 -0.2884 -0.5423  0.3468
 5342SOL    HW127488   2.500   0.637  11.945  1.3492  0.9681  0.2013
 5342SOL    HW227489   2.519   0.584  11.808 -0.3511  1.3674 -2.5993
 5343SOL     OW27490   0.486   4.143   5.085 -0.2072  0.1392  1.1590
 5343SOL    HW127491   0.490   4.051   5.059  4.4833  0.6837 -0.0640
 5343SOL    HW227492   0.438   4.122   5.165  1.5598 -0.7226  2.0043
 5344SOL     OW27493   3.356   1.617   5.290 -0.4904 -0.5386 -0.2341
 5344SOL    HW127494   3.437   1.638   5.336 -0.0318 -3.3987  0.2080
 5344SOL    HW227495   3.364   1.682   5.220 -1.1391  2.1041  2.1510
 5345SOL     OW27496   4.290   1.798   8.581 -0.1542 -0.8032  0.3120
 5345SOL    HW127497   4.282   1.703   8.593  0.0487 -0.5490  2.5006
 5345SOL    HW227498   4.237   1.817   8.659 -0.5100  1.6183 -0.5317
 5346SOL     OW27499   2.267   2.410   9.824  0.1842  0.0162  0.4359
 5346SOL    HW127500   2.336   2.347   9.805  0.1251  0.6183 -1.7666
 5346SOL    HW227501   2.320   2.462   9.885  1.5202  1.6048 -2.1073
 5347SOL     OW27502   1.241   2.323   1.031 -0.1222  0.3267 -0.5932
 5347SOL    HW127503   1.171   2.299   1.091 -0.4192  0.2089 -0.9840
 5347SOL    HW227504   1.243   2.247   0.972 -1.5643  0.2046 -0.4773
 5348SOL     OW27505   4.282   3.390   2.416 -0.1093 -0.0084 -0.1212
 5348SOL    HW127506   4.354   3.346   2.461  0.0584 -0.7011 -1.0575
 5348SOL    HW227507   4.241   3.326   2.358 -2.9147 -0.2307  2.1424
 5349SOL     OW27508   2.437   1.943  13.537 -0.0479 -0.3228  0.0131
 5349SOL    HW127509   2.354   1.975  13.502  0.3946  1.6215  0.7157
 5349SOL    HW227510   2.445   1.859  13.492  0.5394  0.3384 -1.1164
 5350SOL     OW27511   0.684   3.365   6.592 -1.1350  0.4766 -0.1752
 5350SOL    HW127512   0.749   3.416   6.640 -0.4329 -0.6325  0.0350
 5350SOL    HW227513   0.643   3.322   6.667  1.8384 -2.0774 -0.0214
 5351SOL     OW27514   3.601   3.121  17.296  0.1804  0.1838  0.6280
 5351SOL    HW127515   3.593   3.031  17.327  0.2355 -0.5193 -1.3661
 5351SOL    HW227516   3.612   3.113  17.201  0.1081  0.3537  0.6042
 5352SOL     OW27517   1.047   2.934  11.324 -0.8613 -0.3468 -0.4027
 5352SOL    HW127518   1.077   2.999  11.260  0.5082 -0.3855  0.2004
 5352SOL    HW227519   0.960   2.914  11.289  0.3677 -2.2327 -2.3305
 5353SOL     OW27520   0.154   0.631   6.347 -0.1992 -0.1628 -0.0391
 5353SOL    HW127521   0.103   0.553   6.367  0.6268 -0.4676  0.8955
 5353SOL    HW227522   0.244   0.598   6.338 -0.3482 -0.4034 -0.6353
 5354SOL     OW27523   0.004   0.085   5.607  0.0531 -0.0267  0.2469
 5354SOL    HW127524   0.046   4.719   5.601  1.8574  0.7690  1.5409
 5354SOL    HW227525   0.078   0.132   5.568 -0.4755  0.5889 -0.0087
 5355SOL     OW27526   0.869   3.630   0.379 -0.1052 -0.0260  0.2330
 5355SOL    HW127527   0.863   3.547   0.426 -0.8553 -0.1163 -0.0097
 5355SOL    HW227528   0.776   3.653   0.376 -0.3268 -0.9105  0.4757
 5356SOL     OW27529   3.960   4.064   6.737 -0.6143  0.5378  0.1763
 5356SOL    HW127530   3.966   4.114   6.819  3.6691 -1.5059  1.1085
 5356SOL    HW227531   3.875   4.084   6.697 -1.5099 -0.7850  1.4188
 5357SOL     OW27532   4.307   1.579   8.236 -0.0593  1.0748  0.0235
 5357SOL    HW127533   4.249   1.586   8.161 -1.2771 -3.2436  0.5802
 5357SOL    HW227534   4.328   1.673   8.241 -1.4664  1.4434 -1.2130
 5358SOL     OW27535   3.710   0.977  15.747  0.1671  0.4077  0.1883
 5358SOL    HW127536   3.779   1.027  15.704 -0.8586  1.3950 -0.3226
 5358SOL    HW227537   3.714   0.902  15.688 -1.2766  1.2625 -1.0025
 5359SOL     OW27538   2.830   1.890   6.404 -0.4829 -0.5492 -0.3842
 5359SOL    HW127539   2.762   1.955   6.388 -0.3845 -0.1394  0.9023
 5359SOL    HW227540   2.898   1.939   6.450  0.3266  0.1218 -2.3116
 5360SOL     OW27541   0.603   2.958   6.488 -0.1830  0.3236  0.1447
 5360SOL    HW127542   0.665   3.008   6.436  0.8335 -0.6453  0.4147
 5360SOL    HW227543   0.668   2.923   6.549 -1.4471 -2.5009 -0.1144
 5361SOL     OW27544   2.026   1.451   8.844 -0.4249  0.7874 -0.0309
 5361SOL    HW127545   2.094   1.411   8.791 -1.4902 -2.4769  1.0927
 5361SOL    HW227546   1.948   1.405   8.813  0.3611 -1.6683  1.6718
 5362SOL     OW27547   1.116   1.678  16.474 -0.0358  0.1565  0.4581
 5362SOL    HW127548   1.127   1.642  16.386  1.2399 -0.7973  0.9913
 5362SOL    HW227549   1.071   1.609  16.523 -0.7991  1.5288  1.6921
 5363SOL     OW27550   4.606   4.319   8.065 -0.2678 -0.2796  0.1519
 5363SOL    HW127551   4.529   4.345   8.015 -0.7829  1.9902  2.1061
 5363SOL    HW227552   4.625   4.410   8.088 -1.2731 -0.8006  3.0627
 5364SOL     OW27553   2.525   1.795   6.823  0.1129  0.8084 -0.0922
 5364SOL    HW127554   2.513   1.704   6.851  0.4079  1.5672  2.5324
 5364SOL    HW227555   2.435   1.796   6.790 -0.3697 -2.4908  1.0631
 5365SOL     OW27556   2.787   3.296  14.587 -0.5624  0.3110 -0.0681
 5365SOL    HW127557   2.860   3.305  14.650  1.1108 -0.7828 -1.8571
 5365SOL    HW227558   2.812   3.211  14.550 -1.4095 -0.4520  1.0946
 5366SOL     OW27559   1.146   2.873   5.148  0.0199 -0.2254 -0.3924
 5366SOL    HW127560   1.152   2.931   5.224 -0.2830 -1.3063  0.4623
 5366SOL    HW227561   1.240   2.867   5.134  0.1850  0.7400  0.2385
 5367SOL     OW27562   1.771   4.331  10.411  0.2194  0.3952  0.5120
 5367SOL    HW127563   1.845   4.385  10.384  1.8507 -2.2724 -0.3321
 5367SOL    HW227564   1.795   4.249  10.368  1.1116  0.6134  0.5813
 5368SOL     OW27565   4.043   4.064   5.993 -0.2001  0.0316 -0.1081
 5368SOL    HW127566   4.067   4.029   5.908 -2.2231 -1.4232 -0.0718
 5368SOL    HW227567   4.067   4.157   5.986  1.4489 -0.3527  0.3256
 5369SOL     OW27568   3.546   4.095  17.294  0.0683  0.3658  0.3449
 5369SOL    HW127569   3.562   4.103  17.200  0.6543  0.2632  0.4358
 5369SOL    HW227570   3.465   4.047  17.314  0.7425 -1.0475 -0.2999
 5370SOL     OW27571   2.161   0.832   6.943 -0.1953 -0.3881  0.4767
 5370SOL    HW127572   2.078   0.803   6.979 -0.6758  0.4829  0.0557
 5370SOL    HW227573   2.127   0.880   6.867 -1.3469 -0.5811  0.8769
 5371SOL     OW27574   2.020   3.005   0.962 -0.0681  0.1668 -0.4304
 5371SOL    HW127575   2.037   2.974   1.051 -2.6087 -1.8809 -0.6621
 5371SOL    HW227576   2.041   3.098   0.966  1.1666 -0.1708  1.1758
 5372SOL     OW27577   1.503   0.475   8.191  0.1200  0.2906  0.5146
 5372SOL    HW127578   1.461   0.410   8.246 -1.5398 -0.8723 -2.1556
 5372SOL    HW227579   1.440   0.546   8.207 -0.1457  0.6170 -1.9825
 5373SOL     OW27580   2.600   2.976  13.613  0.8505  0.0084  0.3661
 5373SOL    HW127581   2.663   2.958  13.682  1.0153  2.9117  0.9764
 5373SOL    HW227582   2.551   2.894  13.619  0.2247  0.3523 -0.0418
 5374SOL     OW27583   1.466   2.088   2.061 -0.1005 -0.1559  0.7320
 5374SOL    HW127584   1.558   2.105   2.044 -0.1572 -0.6831 -0.0909
 5374SOL    HW227585   1.428   2.174   2.047  0.3251  0.1755  1.5829
 5375SOL     OW27586   3.587   1.613  16.466 -0.3768 -0.7240  0.6916
 5375SOL    HW127587   3.655   1.551  16.490  0.5735  0.2228  0.4535
 5375SOL    HW227588   3.521   1.596  16.533 -1.2069  0.1455  0.1049
 5376SOL     OW27589   1.002   3.706  15.035 -0.2994  0.0870 -0.1884
 5376SOL    HW127590   1.079   3.659  15.067  0.1080 -0.7540 -2.4278
 5376SOL    HW227591   0.936   3.644  15.065  0.1004 -0.6988 -0.9379
 5377SOL     OW27592   4.048   3.853  13.582  0.3419  0.2163 -0.0252
 5377SOL    HW127593   3.981   3.892  13.638  1.9032 -1.5285  3.0567
 5377SOL    HW227594   4.082   3.787  13.642  1.4533  0.1440 -0.7350
 5378SOL     OW27595   1.991   4.438   1.904 -0.2332  0.0602 -0.4137
 5378SOL    HW127596   2.072   4.479   1.877  0.8653 -2.0388 -0.3211
 5378SOL    HW227597   2.031   4.367   1.955 -0.5743  0.8175  0.8911
 5379SOL     OW27598   3.208   3.858   2.331 -0.3048  0.2964  0.2412
 5379SOL    HW127599   3.269   3.793   2.299  0.4304  0.6162  1.0070
 5379SOL    HW227600   3.250   3.935   2.293 -0.1139 -0.9457 -2.0209
 5380SOL     OW27601   0.716   0.645   5.090 -0.1434  0.1694  0.3833
 5380SOL    HW127602   0.808   0.664   5.074 -0.2230 -0.5149 -0.8479
 5380SOL    HW227603   0.691   0.736   5.107  2.3175  0.7389  0.8813
 5381SOL     OW27604   4.543   4.710   9.133 -0.3121 -0.3003  0.7005
 5381SOL    HW127605   4.479   0.030   9.192 -1.5352 -0.5704 -0.4653
 5381SOL    HW227606   4.621   0.037   9.164  1.0477 -1.7615 -0.5493
 5382SOL     OW27607   3.580   2.568  15.450 -0.5564  0.0724 -0.4232
 5382SOL    HW127608   3.486   2.548  15.457 -0.5385  0.8101  2.0438
 5382SOL    HW227609   3.580   2.653  15.494  0.6586  0.4783 -1.2350
 5383SOL     OW27610   1.341   1.283   6.954 -0.1653  0.2800  0.1770
 5383SOL    HW127611   1.347   1.309   6.862 -0.9196  1.1125  0.3720
 5383SOL    HW227612   1.322   1.189   6.955 -0.1542  0.2813  0.3950
 5384SOL     OW27613   1.150   4.652   4.870  0.0263  0.5960  0.0036
 5384SOL    HW127614   1.110   4.576   4.912  1.7418 -0.8880 -1.0644
 5384SOL    HW227615   1.084   4.672   4.803  1.0479 -1.6514 -1.6783
 5385SOL     OW27616   3.291   1.881   6.706 -0.0207  0.0618 -0.7023
 5385SOL    HW127617   3.384   1.874   6.725  0.1953 -2.2391 -2.5907
 5385SOL    HW227618   3.255   1.799   6.739  1.7738 -0.1625  0.6400
 5386SOL     OW27619   0.627   0.084   2.038 -0.5992 -0.1339  0.3112
 5386SOL    HW127620   0.555   0.097   1.976 -1.3399  3.0663  1.8121
 5386SOL    HW227621   0.683   0.156   2.010  0.3858 -1.5118 -1.2081
 5387SOL     OW27622   0.940   4.646   7.682  0.0984 -0.2531 -0.3150
 5387SOL    HW127623   0.878   4.694   7.737 -0.7634 -0.5248 -1.0340
 5387SOL    HW227624   0.956   4.567   7.733 -1.4089  0.2783  0.9846
 5388SOL     OW27625   3.734   2.715   5.402 -0.6245 -0.2195  0.0747
 5388SOL    HW127626   3.745   2.709   5.497  2.2915 -1.2448 -0.3506
 5388SOL    HW227627   3.658   2.773   5.391  0.7992  1.1878 -2.3789
 5389SOL     OW27628   2.804   2.870   2.107  0.0251 -0.3825 -0.0704
 5389SOL    HW127629   2.876   2.875   2.044 -0.5705 -1.6531 -0.8429
 5389SOL    HW227630   2.746   2.809   2.061  0.7849 -1.1457 -0.0115
 5390SOL     OW27631   2.471   3.633  14.610 -0.2602 -0.0177 -0.1549
 5390SOL    HW127632   2.415   3.674  14.544  0.4462 -0.1414 -0.8293
 5390SOL    HW227633   2.409   3.585  14.664  1.2638 -0.7250  0.9769
 5391SOL     OW27634   1.382   3.391   2.802 -0.4796  0.3149  0.1766
 5391SOL    HW127635   1.293   3.429   2.800 -1.3205 -1.6475  0.6320
 5391SOL    HW227636   1.398   3.356   2.715 -0.8423  0.9331 -0.1435
 5392SOL     OW27637   0.721   4.512   5.947 -0.7197  0.2027  0.1615
 5392SOL    HW127638   0.808   4.501   5.910 -1.3984  0.6403 -1.5674
 5392SOL    HW227639   0.667   4.503   5.869 -1.2391  0.6020  0.4702
 5393SOL     OW27640   0.900   0.666   5.678 -0.4251  0.0377 -0.1481
 5393SOL    HW127641   0.824   0.683   5.622  0.2941  0.9042 -0.8643
 5393SOL    HW227642   0.903   0.747   5.730 -1.0460 -1.6932  2.5588
 5394SOL     OW27643   4.659   2.028  15.712  0.6040 -0.4657  0.2830
 5394SOL    HW127644   4.643   1.945  15.757 -0.3470 -0.5168 -0.1515
 5394SOL    HW227645   4.613   2.022  15.628 -0.3005  0.7866  0.6850
 5395SOL     OW27646   4.281   1.292   6.018 -0.2174 -0.3023  0.2664
 5395SOL    HW127647   4.336   1.368   6.037  1.1762 -1.0345 -0.8382
 5395SOL    HW227648   4.339   1.263   5.948 -0.0191  0.6708  0.0203
 5396SOL     OW27649   0.355   1.377  13.370 -0.5658  0.0877 -0.3761
 5396SOL    HW127650   0.352   1.425  13.288 -1.5863 -0.0390 -0.4128
 5396SOL    HW227651   0.374   1.288  13.339 -2.0248  0.3840 -2.1444
 5397SOL     OW27652   0.524   2.783   7.057  0.2712  0.2029  0.0507
 5397SOL    HW127653   0.607   2.771   7.010 -1.0033 -1.2036 -1.8710
 5397SOL    HW227654   0.500   2.694   7.082  0.0042  0.4190  0.5491
 5398SOL     OW27655   1.950   2.580   7.557  0.5461 -0.3469 -0.8219
 5398SOL    HW127656   1.988   2.667   7.563 -0.3322  0.0923 -1.7317
 5398SOL    HW227657   1.860   2.607   7.544  0.4304 -1.8225 -3.0706
 5399SOL     OW27658   1.753   0.529   8.395  0.1372 -0.4939  0.4348
 5399SOL    HW127659   1.674   0.504   8.442  0.3800  1.2098  1.7504
 5399SOL    HW227660   1.746   0.624   8.400 -0.5958 -0.5793  1.0920
 5400SOL     OW27661   3.554   0.621   4.120  0.3889 -0.2479  0.0169
 5400SOL    HW127662   3.488   0.635   4.053 -0.8809 -2.6071  0.7982
 5400SOL    HW227663   3.520   0.549   4.172  1.2941 -0.1307  0.7812
 5401SOL     OW27664   2.096   3.715   6.896  0.3610  0.0751  0.2146
 5401SOL    HW127665   2.161   3.733   6.828  0.0707 -1.4655 -0.4914
 5401SOL    HW227666   2.103   3.622   6.919 -2.2314 -0.3323 -0.5890
 5402SOL     OW27667   0.121   3.188  10.293  0.3380  0.1202 -0.2219
 5402SOL    HW127668   0.048   3.135  10.325  1.1141 -1.7166 -1.5310
 5402SOL    HW227669   0.133   3.163  10.201 -1.9494  0.6381 -0.6425
 5403SOL     OW27670   1.858   1.582  17.093  0.1847  0.4871 -0.3175
 5403SOL    HW127671   1.952   1.563  17.085  0.1219  0.6771 -1.6259
 5403SOL    HW227672   1.816   1.523  17.030  0.7339 -1.4307  1.1085
 5404SOL     OW27673   2.107   1.422  14.353  0.3646 -0.3809  0.1864
 5404SOL    HW127674   2.081   1.412  14.262 -0.6703  0.6379  0.3625
 5404SOL    HW227675   2.063   1.505  14.372  3.5347  1.3552 -0.0641
 5405SOL     OW27676   0.259   1.463   1.154  0.6205  0.4665  0.0996
 5405SOL    HW127677   0.331   1.518   1.185  0.4363  0.9011 -0.2365
 5405SOL    HW227678   0.296   1.432   1.071 -0.8012  2.9615 -1.4601
 5406SOL     OW27679   3.023   1.944  13.058  0.3437 -0.2410 -0.1958
 5406SOL    HW127680   3.021   2.019  13.118 -1.8627 -1.1338  0.8141
 5406SOL    HW227681   3.043   1.872  13.117 -1.8699 -0.8542 -0.2350
 5407SOL     OW27682   0.648   2.946   7.290 -0.3489 -0.0244 -0.0744
 5407SOL    HW127683   0.623   2.939   7.197 -1.2805 -1.6676  0.2966
 5407SOL    HW227684   0.688   2.863   7.316  2.6174  1.7097  0.7923
 5408SOL     OW27685   2.135   3.652  15.479  0.3036  0.0160 -0.1038
 5408SOL    HW127686   2.116   3.583  15.415 -0.4833 -0.2339  0.3932
 5408SOL    HW227687   2.188   3.595  15.534 -0.5229 -3.1813 -2.6039
 5409SOL     OW27688   0.721   4.695  15.878  0.2661  0.0298 -0.1162
 5409SOL    HW127689   0.680   0.061  15.868  1.8529  0.7297 -0.6029
 5409SOL    HW227690   0.746   4.674  15.788  1.1181 -2.2138  0.6446
 5410SOL     OW27691   0.967   3.930   9.235 -0.4666 -0.2401  0.5382
 5410SOL    HW127692   1.049   3.976   9.219 -1.1236  0.6878 -0.1457
 5410SOL    HW227693   0.988   3.848   9.190 -1.5287  1.1971 -2.5486
 5411SOL     OW27694   1.457   3.401   4.163 -0.6806  0.0404  0.0474
 5411SOL    HW127695   1.489   3.422   4.075  2.5237 -0.1424  1.1564
 5411SOL    HW227696   1.521   3.442   4.222  0.5081 -2.0671  0.1978
 5412SOL     OW27697   4.213   2.328   7.836  0.1718  0.1622  0.0269
 5412SOL    HW127698   4.168   2.261   7.887 -0.7450  0.3183 -0.5714
 5412SOL    HW227699   4.234   2.397   7.899  0.1371 -1.5087  1.8824
 5413SOL     OW27700   3.440   1.927   5.328  0.0566 -0.5587  0.0695
 5413SOL    HW127701   3.532   1.951   5.341  0.6760 -2.4610 -0.6935
 5413SOL    HW227702   3.439   1.876   5.247  1.3597 -0.1228 -0.2330
 5414SOL     OW27703   4.408   4.063   8.175 -0.0493  0.3462 -0.0485
 5414SOL    HW127704   4.485   4.049   8.229 -1.1143 -0.4508  1.2669
 5414SOL    HW227705   4.413   4.131   8.108  0.6307 -0.1162 -0.4698
 5415SOL     OW27706   1.813   1.834   5.022 -0.3717  0.5581  0.0431
 5415SOL    HW127707   1.839   1.892   5.094 -0.4423 -0.9281  1.2418
 5415SOL    HW227708   1.737   1.882   4.988 -1.3087 -0.5872  0.5397
 5416SOL     OW27709   1.627   2.548   1.655  0.4678 -0.4492  0.3981
 5416SOL    HW127710   1.543   2.505   1.673  0.9032 -2.0930 -1.5142
 5416SOL    HW227711   1.627   2.550   1.559 -0.1105  0.9072  0.4166
 5417SOL     OW27712   0.175   2.255   7.834  0.1939 -0.3685  0.0052
 5417SOL    HW127713   0.199   2.187   7.771 -1.5610 -0.7231 -0.2812
 5417SOL    HW227714   0.165   2.328   7.773 -3.1201  0.4226  1.5187
 5418SOL     OW27715   0.921   1.840  10.124 -0.6368 -0.2596  0.5246
 5418SOL    HW127716   0.943   1.915  10.179 -1.4992  0.4758 -0.1408
 5418SOL    HW227717   0.832   1.828  10.157 -0.8437  0.2283  0.1366
 5419SOL     OW27718   2.142   1.990   0.452  0.9442  0.4207 -0.5342
 5419SOL    HW127719   2.158   2.009   0.359  2.3974 -2.3195 -0.8562
 5419SOL    HW227720   2.065   1.934   0.450 -0.8966  2.9102  0.3561
 5420SOL     OW27721   1.011   4.562   5.121  0.1711  0.3794 -0.3619
 5420SOL    HW127722   1.018   4.467   5.119  0.6329  0.3775  1.4309
 5420SOL    HW227723   0.941   4.577   5.184  1.1128  1.6914  0.3874
 5421SOL     OW27724   0.483   3.281  11.365  0.3912  0.1673  0.1040
 5421SOL    HW127725   0.551   3.267  11.299 -0.2582  0.7183 -0.6790
 5421SOL    HW227726   0.460   3.196  11.403  0.4442  0.5374  0.9593
 5422SOL     OW27727   2.166   1.856   0.153 -0.0051 -0.3499 -0.2644
 5422SOL    HW127728   2.178   1.862   0.058  1.6732 -0.1492 -0.0505
 5422SOL    HW227729   2.187   1.763   0.167 -0.2558 -0.6484 -1.8814
 5423SOL     OW27730   0.595   1.167   6.403  0.1099 -0.4820  0.1790
 5423SOL    HW127731   0.604   1.108   6.329  3.1173  0.4368 -0.2029
 5423SOL    HW227732   0.563   1.108   6.471 -0.2569  1.5925  1.8250
 5424SOL     OW27733   2.814   4.133   6.498  0.1797 -0.6359 -0.2613
 5424SOL    HW127734   2.902   4.161   6.524 -0.6708  2.1415 -0.4229
 5424SOL    HW227735   2.831   4.070   6.427 -0.5335  0.4934 -1.4360
 5425SOL     OW27736   2.008   4.309   9.642 -0.1491 -0.2277 -0.0667
 5425SOL    HW127737   2.072   4.332   9.709 -0.5745 -1.8197  0.8823
 5425SOL    HW227738   2.033   4.217   9.627 -1.6698 -0.7763  0.7494
 5426SOL     OW27739   1.291   2.335   2.902 -0.1304 -0.3757 -0.1022
 5426SOL    HW127740   1.242   2.370   2.977  1.0083 -1.3340  1.1020
 5426SOL    HW227741   1.344   2.412   2.881  0.4126 -1.7045 -3.5962
 5427SOL     OW27742   0.436   1.184   4.821  0.6838 -0.1428  0.2420
 5427SOL    HW127743   0.399   1.110   4.870 -0.1633 -0.1879 -0.4732
 5427SOL    HW227744   0.426   1.252   4.888 -0.9007 -0.9875  0.8687
 5428SOL     OW27745   4.210   3.732  14.806  0.3962 -0.1813 -0.5722
 5428SOL    HW127746   4.232   3.787  14.881 -0.1007 -0.5967 -0.1233
 5428SOL    HW227747   4.284   3.671  14.809 -2.6673 -3.7687  0.2784
 5429SOL     OW27748   1.441   3.790   3.491  0.1508  0.2098 -0.6653
 5429SOL    HW127749   1.520   3.814   3.442  1.1329 -1.1804  0.2203
 5429SOL    HW227750   1.397   3.735   3.427  0.9393 -2.4511  1.1000
 5430SOL     OW27751   4.595   1.054  11.203  0.0420 -0.1550  0.4106
 5430SOL    HW127752   4.552   1.139  11.213 -1.0115 -0.4528 -1.7143
 5430SOL    HW227753   4.640   1.063  11.287 -0.0905 -0.7934  0.5533
 5431SOL     OW27754   3.518   2.457  11.242 -0.0195 -0.1576 -0.3568
 5431SOL    HW127755   3.465   2.394  11.194 -0.0623  0.6956 -1.4188
 5431SOL    HW227756   3.464   2.458  11.322 -0.9532 -0.8052 -0.9760
 5432SOL     OW27757   0.352   0.831   0.469  0.1810 -0.1186 -0.1140
 5432SOL    HW127758   0.379   0.749   0.509 -1.3290 -0.6517 -0.1839
 5432SOL    HW227759   0.323   0.875   0.549  0.7478 -1.4662  0.8381
 5433SOL     OW27760   3.588   0.945   3.512  0.2155 -0.6509  0.2126
 5433SOL    HW127761   3.660   0.883   3.527 -0.7773 -2.0534 -0.7484
 5433SOL    HW227762   3.611   0.996   3.434 -0.5325  0.6991  0.8827
 5434SOL     OW27763   0.913   2.661   4.824  0.5853  0.2201 -0.3770
 5434SOL    HW127764   0.984   2.721   4.804  0.1822  0.7008 -0.3871
 5434SOL    HW227765   0.855   2.684   4.751 -2.0310 -2.3611  0.8398
 5435SOL     OW27766   0.871   1.982   6.565 -0.0060 -0.0906 -0.3094
 5435SOL    HW127767   0.929   1.977   6.642 -1.4696 -0.0449  0.7955
 5435SOL    HW227768   0.801   1.925   6.596  0.9266 -0.2292  1.6140
 5436SOL     OW27769   3.543   2.993   3.056  0.6014 -0.2193  0.9815
 5436SOL    HW127770   3.581   2.954   3.134  0.4751 -0.8410  0.7342
 5436SOL    HW227771   3.532   2.911   3.007  2.1529  0.5710 -0.6927
 5437SOL     OW27772   2.409   0.406   1.068  0.6841 -0.0570  0.3160
 5437SOL    HW127773   2.336   0.402   1.006  0.7955  0.0682  0.1774
 5437SOL    HW227774   2.435   0.497   1.059  0.6688  0.0079  0.8864
 5438SOL     OW27775   4.586   1.092   2.286  0.2070 -0.0799 -0.1663
 5438SOL    HW127776   4.508   1.083   2.342  0.8817  2.6882  1.2417
 5438SOL    HW227777   4.556   1.028   2.222 -1.2209  0.5702 -0.1505
 5439SOL     OW27778   1.202   0.619  16.869  0.3533  0.1784  0.0890
 5439SOL    HW127779   1.158   0.594  16.950 -0.0256 -1.2647 -0.5691
 5439SOL    HW227780   1.289   0.640  16.903  0.3124  0.1032  0.2367
 5440SOL     OW27781   3.130   0.231   0.263  0.0795  0.0280 -0.0598
 5440SOL    HW127782   3.114   0.273   0.347 -1.1817 -2.9213  1.1926
 5440SOL    HW227783   3.223   0.250   0.252 -0.0348  1.9324  2.3305
 5441SOL     OW27784   4.113   1.986   6.603 -0.0463 -0.7201  0.0378
 5441SOL    HW127785   4.078   2.059   6.553  3.5116  1.7997  1.2665
 5441SOL    HW227786   4.177   1.945   6.545  0.3210  0.6817 -0.5296
 5442SOL     OW27787   3.813   3.220  12.516  0.0090 -0.0449  0.6725
 5442SOL    HW127788   3.793   3.212  12.609 -1.3931 -2.6463  0.1605
 5442SOL    HW227789   3.792   3.313  12.505  2.2040 -0.0396 -3.4365
 5443SOL     OW27790   1.295   0.724   2.146 -0.1382  0.4926  0.3076
 5443SOL    HW127791   1.280   0.701   2.055  1.4524  0.6957  0.0028
 5443SOL    HW227792   1.220   0.675   2.181 -0.5634 -0.3713 -1.8039
 5444SOL     OW27793   3.348   2.319   3.279 -0.5841  0.2904  0.1838
 5444SOL    HW127794   3.259   2.354   3.279 -1.7098 -2.5816 -1.7261
 5444SOL    HW227795   3.399   2.387   3.325 -1.2228  0.2729  0.9187
 5445SOL     OW27796   1.895   2.442   9.814  0.0091 -0.1911  0.5798
 5445SOL    HW127797   1.809   2.457   9.851 -1.1366 -1.2607 -1.6264
 5445SOL    HW227798   1.863   2.400   9.734 -2.3754  2.8259 -0.0802
 5446SOL     OW27799   0.161   0.886   6.805 -0.3324 -0.1067  0.3932
 5446SOL    HW127800   0.154   0.819   6.737 -0.4784 -0.8795  1.1662
 5446SOL    HW227801   0.178   0.833   6.883  0.4143 -1.8032 -0.9065
 5447SOL     OW27802   2.725   3.401  11.442  0.0048  0.3470 -0.9832
 5447SOL    HW127803   2.664   3.386  11.370  1.1550 -0.9392 -1.6915
 5447SOL    HW227804   2.739   3.309  11.464  1.7133  0.0190 -3.5123
 5448SOL     OW27805   4.151   3.236   6.605 -0.0349 -0.0121  0.2330
 5448SOL    HW127806   4.146   3.318   6.556  0.8037  0.5070  1.0367
 5448SOL    HW227807   4.173   3.264   6.694 -0.9069  1.8168 -0.1236
 5449SOL     OW27808   4.409   3.132  11.075 -0.3298  0.1472  0.4907
 5449SOL    HW127809   4.335   3.077  11.048  1.0936 -1.0259 -1.0115
 5449SOL    HW227810   4.394   3.146  11.168  2.2643 -1.0817  1.1068
 5450SOL     OW27811   0.448   2.799   6.702 -0.5868  0.2390  0.0503
 5450SOL    HW127812   0.542   2.778   6.705 -0.1921  1.9317 -0.8055
 5450SOL    HW227813   0.413   2.723   6.656  0.2356  1.3088 -2.3653
 5451SOL     OW27814   3.949   3.937  14.980 -0.3780  0.1236  0.3502
 5451SOL    HW127815   3.907   3.997  15.041  0.6505 -1.0958  2.2606
 5451SOL    HW227816   4.029   3.913  15.028 -0.0190  0.4558 -0.0770
 5452SOL     OW27817   4.198   4.431   9.956 -0.1562 -0.3175 -0.3183
 5452SOL    HW127818   4.116   4.457   9.999 -0.7077 -2.7804  0.0933
 5452SOL    HW227819   4.222   4.357  10.011 -3.1456  0.4940  2.1533
 5453SOL     OW27820   0.268   1.802   7.555  0.4445 -0.1528  0.2177
 5453SOL    HW127821   0.212   1.748   7.500  1.6664 -0.8101 -0.3663
 5453SOL    HW227822   0.340   1.742   7.574 -0.4560 -1.1014  0.6536
 5454SOL     OW27823   2.053   4.474  16.786 -0.0921 -0.1973 -0.0058
 5454SOL    HW127824   2.098   4.416  16.725  1.3620 -1.6946  2.5064
 5454SOL    HW227825   2.093   4.560  16.770  0.8207 -0.5246  0.5430
 5455SOL     OW27826   4.048   0.269   2.578  0.3048  0.3636 -0.3217
 5455SOL    HW127827   4.033   0.176   2.590 -0.7787  0.5604 -0.1501
 5455SOL    HW227828   4.004   0.307   2.655  1.2746  1.0048 -0.0808
 5456SOL     OW27829   3.538   3.488   7.899 -1.0124  0.3321 -0.1163
 5456SOL    HW127830   3.444   3.495   7.914 -1.5403 -4.7632 -1.0655
 5456SOL    HW227831   3.572   3.416   7.953 -0.0020 -1.1487 -2.7328
 5457SOL     OW27832   3.467   1.478   8.819 -0.2757  0.1870  0.1614
 5457SOL    HW127833   3.372   1.462   8.815 -0.1452 -0.5053 -0.1184
 5457SOL    HW227834   3.473   1.555   8.876  2.1878  1.1846 -1.5022
 5458SOL     OW27835   0.053   2.140   5.250  0.0535 -0.2452  0.5481
 5458SOL    HW127836   0.123   2.095   5.298  0.1586 -1.6109 -0.8873
 5458SOL    HW227837   0.065   2.226   5.288  0.4727  0.7408 -1.8241
 5459SOL     OW27838   1.356   2.683   5.544  0.0276  0.2041  0.4631
 5459SOL    HW127839   1.315   2.597   5.539 -1.4344  0.8778  0.8853
 5459SOL    HW227840   1.446   2.657   5.562  0.2887  0.1028 -0.9607
 5460SOL     OW27841   2.777   2.993   2.983  0.3615 -0.0579  0.1054
 5460SOL    HW127842   2.702   3.042   3.015  0.5677  0.3402 -0.0279
 5460SOL    HW227843   2.728   2.941   2.919 -0.9311  0.0588  0.9948
 5461SOL     OW27844   0.985   3.447   5.447 -0.2979  0.1047 -0.1947
 5461SOL    HW127845   1.042   3.436   5.524  1.1659 -2.3532 -1.6277
 5461SOL    HW227846   0.899   3.433   5.487 -0.2182 -0.2006 -0.1272
 5462SOL     OW27847   1.484   1.649   1.884  0.3217  0.0947  0.2614
 5462SOL    HW127848   1.476   1.586   1.956  1.6471  0.0123  0.3306
 5462SOL    HW227849   1.405   1.634   1.832  0.4813 -1.2521  0.4037
 5463SOL     OW27850   1.963   0.882   7.846 -0.4495 -0.0018  0.3300
 5463SOL    HW127851   2.058   0.870   7.839 -0.6478  0.1318 -2.6286
 5463SOL    HW227852   1.944   0.834   7.926 -4.0210 -4.7935 -3.4390
 5464SOL     OW27853   0.354   3.855  16.903  0.4184 -0.1679 -0.1192
 5464SOL    HW127854   0.298   3.931  16.890  0.6533  0.1674  0.8164
 5464SOL    HW227855   0.398   3.890  16.980 -2.8982  0.2377  1.6047
 5465SOL     OW27856   0.895   2.425   7.957 -0.2831 -0.3650  0.1792
 5465SOL    HW127857   0.928   2.395   7.873  1.8807  0.0760  0.8781
 5465SOL    HW227858   0.941   2.508   7.966 -2.6182  0.7382  1.8072
 5466SOL     OW27859   0.163   0.619   4.493  0.7164  0.1801  0.0358
 5466SOL    HW127860   0.074   0.585   4.507  0.3818  0.2296 -1.8808
 5466SOL    HW227861   0.223   0.545   4.503 -1.0642 -1.0340  1.5833
 5467SOL     OW27862   0.329   3.076  16.141  0.0282 -0.0230  0.3123
 5467SOL    HW127863   0.409   3.061  16.092  0.5238 -2.0187  1.7289
 5467SOL    HW227864   0.263   3.044  16.080  0.3088  0.1601 -0.0862
 5468SOL     OW27865   1.137   0.027   9.959 -0.0341  0.4324  0.3938
 5468SOL    HW127866   1.231   0.010   9.955 -0.6037 -2.3392 -0.8605
 5468SOL    HW227867   1.099   4.661   9.976 -1.1548  0.6466 -1.0452
 5469SOL     OW27868   3.352   1.558  12.826 -0.1335 -0.1148 -0.3029
 5469SOL    HW127869   3.400   1.639  12.813 -0.3346 -0.1490 -1.2787
 5469SOL    HW227870   3.275   1.566  12.769 -1.2430 -0.1399  1.1748
 5470SOL     OW27871   2.411   2.564   4.639 -0.7343 -0.0406 -0.3781
 5470SOL    HW127872   2.428   2.656   4.620 -0.0357  0.0839  0.8626
 5470SOL    HW227873   2.467   2.540   4.714  1.8064  1.0188 -1.9426
 5471SOL     OW27874   2.685   0.321   3.196 -0.1364 -0.1860 -0.4170
 5471SOL    HW127875   2.692   0.239   3.245 -0.4205  0.9423  1.5084
 5471SOL    HW227876   2.653   0.373   3.269 -0.1362 -0.2571 -0.3659
 5472SOL     OW27877   4.664   4.317   6.008  0.0843 -0.3944  0.1249
 5472SOL    HW127878   0.018   4.326   6.069  1.6516  1.0129 -1.9805
 5472SOL    HW227879   4.598   4.291   6.072 -1.0367  0.5658 -0.6391
 5473SOL     OW27880   3.627   4.429  10.303 -0.4421  0.1677 -0.2882
 5473SOL    HW127881   3.662   4.381  10.228  2.1632 -0.4761  1.3039
 5473SOL    HW227882   3.597   4.513  10.270 -1.4023  0.2472  0.7730
 5474SOL     OW27883   2.288   2.618  14.324 -0.0050 -0.2807 -0.4623
 5474SOL    HW127884   2.291   2.652  14.414  1.8601  0.0680 -0.6560
 5474SOL    HW227885   2.380   2.638  14.311 -0.2932  1.1430 -0.3004
 5475SOL     OW27886   0.507   2.872  11.042  0.7761  0.1590  0.1997
 5475SOL    HW127887   0.538   2.868  10.951 -0.0256 -1.9156  0.0171
 5475SOL    HW227888   0.454   2.951  11.045  0.5113  0.0873 -1.9789
 5476SOL     OW27889   0.093   3.151   7.724  0.1967  0.1219 -0.4269
 5476SOL    HW127890   0.034   3.110   7.661  0.2795  0.6349 -0.8442
 5476SOL    HW227891   0.124   3.221   7.666 -1.9850  0.6999 -0.9077
 5477SOL     OW27892   2.966   0.503   4.605  0.0521  0.4845 -0.1347
 5477SOL    HW127893   2.917   0.421   4.614  1.1032  0.1522  2.4931
 5477SOL    HW227894   2.940   0.553   4.682 -0.6082 -2.1957  1.3607
 5478SOL     OW27895   2.997   0.335  17.168 -0.1731  0.3694  0.4120
 5478SOL    HW127896   3.001   0.375  17.082 -2.6057 -2.1188 -0.8488
 5478SOL    HW227897   3.086   0.300  17.180 -1.2022 -2.3789  0.0645
 5479SOL     OW27898   1.428   1.484  11.319  0.0926 -0.0517 -0.1139
 5479SOL    HW127899   1.479   1.556  11.355  1.1887 -0.9744  0.1712
 5479SOL    HW227900   1.346   1.500  11.365 -0.2080  1.0805 -1.0661
 5480SOL     OW27901   3.723   2.498  15.930  0.2173  0.5185  0.0394
 5480SOL    HW127902   3.674   2.566  15.884 -1.2928  0.8528  2.1187
 5480SOL    HW227903   3.809   2.508  15.891 -0.2868  0.2893 -1.1511
 5481SOL     OW27904   2.803   2.054   8.311 -0.1124 -0.7370  0.6561
 5481SOL    HW127905   2.744   2.030   8.382 -2.0597 -1.2767 -1.1213
 5481SOL    HW227906   2.877   2.083   8.364  0.9028 -2.8622  0.3756
 5482SOL     OW27907   1.140   2.822   1.454 -0.1402  0.1071  0.3724
 5482SOL    HW127908   1.052   2.784   1.461 -1.2470  2.5717 -0.3632
 5482SOL    HW227909   1.131   2.883   1.380 -1.3505  0.7375  1.0539
 5483SOL     OW27910   0.379   3.791   2.302 -0.1093  0.0383  0.8331
 5483SOL    HW127911   0.430   3.871   2.287  2.2656 -1.5343  0.4848
 5483SOL    HW227912   0.292   3.825   2.283 -1.0992 -2.4712  1.0119
 5484SOL     OW27913   3.057   0.241   2.811  0.3657  0.4459  0.1591
 5484SOL    HW127914   3.073   0.255   2.904  1.0008 -1.5913  0.3605
 5484SOL    HW227915   3.062   0.329   2.775  0.6934  0.9465  1.4111
 5485SOL     OW27916   2.560   4.260   4.396 -0.3126  0.2774 -0.0425
 5485SOL    HW127917   2.494   4.204   4.355  1.6454 -2.0386 -0.0703
 5485SOL    HW227918   2.589   4.198   4.463  0.2052 -0.9749 -1.4273
 5486SOL     OW27919   2.435   3.765  13.800  0.1097 -0.1349 -0.0615
 5486SOL    HW127920   2.526   3.761  13.770  0.4242  1.6877  0.6725
 5486SOL    HW227921   2.400   3.680  13.773  0.8752  0.0621 -1.6794
 5487SOL     OW27922   2.542   3.109   3.076 -0.4082  0.2978 -0.1320
 5487SOL    HW127923   2.536   3.039   3.141  0.2208  0.4988  0.1503
 5487SOL    HW227924   2.525   3.183   3.135  1.6800  1.5652 -1.1209
 5488SOL     OW27925   1.626   1.363   2.650 -0.1213 -0.5391 -0.4451
 5488SOL    HW127926   1.667   1.297   2.594  0.4085 -0.9334  0.4131
 5488SOL    HW227927   1.541   1.318   2.655 -0.5341  0.3560  0.4872
 5489SOL     OW27928   3.418   3.569  16.389  0.5872 -0.8461 -0.2103
 5489SOL    HW127929   3.367   3.499  16.349 -0.4743  0.3690 -0.9628
 5489SOL    HW227930   3.422   3.630  16.315  0.8397  0.3660  0.7990
 5490SOL     OW27931   4.641   2.117   9.389  0.2750  0.1618  0.2265
 5490SOL    HW127932   4.618   2.153   9.303  0.5203  2.1727  1.0008
 5490SOL    HW227933   4.675   2.030   9.368  0.3794 -0.2281  2.0487
 5491SOL     OW27934   1.292   3.726  16.913  0.0049 -0.4535  0.1137
 5491SOL    HW127935   1.348   3.694  16.984  0.9032 -1.2922 -0.9663
 5491SOL    HW227936   1.342   3.794  16.869 -0.6667  1.0366  1.6714
 5492SOL     OW27937   2.991   1.112   7.131  0.2313  0.3639 -0.4671
 5492SOL    HW127938   2.974   1.148   7.218 -1.9609 -0.4221 -0.5619
 5492SOL    HW227939   3.010   1.022   7.158  1.0783  1.4090  2.4528
 5493SOL     OW27940   1.225   2.257   5.728  0.5020  0.1980  0.2667
 5493SOL    HW127941   1.262   2.323   5.670  2.6537  0.4097  1.8736
 5493SOL    HW227942   1.235   2.292   5.816 -0.9623 -0.4307  0.6895
 5494SOL     OW27943   1.187   3.680   7.746 -0.1382 -0.8562  0.0791
 5494SOL    HW127944   1.111   3.641   7.790 -0.1332 -1.5860 -0.5606
 5494SOL    HW227945   1.200   3.762   7.793  2.1504  0.0246 -2.1076
 5495SOL     OW27946   0.185   3.722   3.444 -0.5286 -0.7002  0.2782
 5495SOL    HW127947   0.248   3.691   3.378  0.0997 -2.1510  1.5505
 5495SOL    HW227948   0.125   3.778   3.396 -1.0352 -0.1678  1.5401
 5496SOL     OW27949   1.097   1.756  14.491 -0.3390  0.0867 -0.8484
 5496SOL    HW127950   1.133   1.768  14.403  2.7873  0.5933  0.5048
 5496SOL    HW227951   1.012   1.799  14.484 -0.0701  1.0870  2.0379
 5497SOL     OW27952   2.600   0.091   3.327 -0.0910 -0.2697 -0.4758
 5497SOL    HW127953   2.542   0.026   3.287  0.6436 -2.6624  2.3738
 5497SOL    HW227954   2.583   0.077   3.420 -2.7353  2.2012 -0.5959
 5498SOL     OW27955   2.732   2.082   8.650  0.6973 -0.2291 -0.0187
 5498SOL    HW127956   2.660   2.047   8.598 -0.1897 -0.8088  1.6275
 5498SOL    HW227957   2.702   2.165   8.684  1.6625 -0.3906  1.2314
 5499SOL     OW27958   2.739   1.376   5.394  0.0045  0.3823  0.1106
 5499SOL    HW127959   2.791   1.453   5.417 -0.1172  0.2162  0.9414
 5499SOL    HW227960   2.768   1.327   5.471 -1.4244  0.6949  0.8400
 5500SOL     OW27961   2.672   2.777   8.268 -0.1553  0.3085  0.0984
 5500SOL    HW127962   2.718   2.700   8.301  1.3823  0.7736 -0.9540
 5500SOL    HW227963   2.634   2.742   8.188 -0.4917  0.5027  0.1760
 5501SOL     OW27964   0.495   3.122   4.091  0.2184 -0.7865  0.5398
 5501SOL    HW127965   0.488   3.030   4.118  0.0481 -0.9327 -0.0105
 5501SOL    HW227966   0.418   3.139   4.037  0.7759 -1.9088 -0.6043
 5502SOL     OW27967   2.694   1.985   3.058  0.2874 -0.0504  0.0077
 5502SOL    HW127968   2.632   1.999   2.986  1.5383 -0.5675 -1.1770
 5502SOL    HW227969   2.685   1.891   3.067  0.4881  0.0270  1.0065
 5503SOL     OW27970   1.833   3.339   0.969 -0.9054  0.0446 -0.2150
 5503SOL    HW127971   1.928   3.323   0.976 -1.3684 -2.5479  0.3304
 5503SOL    HW227972   1.792   3.274   1.026  0.2290 -0.5021 -0.0219
 5504SOL     OW27973   4.329   3.977   2.586  0.4160  0.0775  0.2472
 5504SOL    HW127974   4.381   4.010   2.513 -0.7629  1.2574 -0.0588
 5504SOL    HW227975   4.347   4.048   2.648  1.2305  1.1514 -1.2001
 5505SOL     OW27976   0.853   2.229   5.061  0.2383  0.6177  0.2606
 5505SOL    HW127977   0.852   2.324   5.045  3.3648  0.7182  0.7493
 5505SOL    HW227978   0.905   2.226   5.141  2.1643  0.6585 -1.0003
 5506SOL     OW27979   2.360   2.227  16.658  0.5431  0.4506 -0.4547
 5506SOL    HW127980   2.384   2.222  16.750  1.2063  0.1060 -0.6418
 5506SOL    HW227981   2.265   2.215  16.663  0.8617 -0.9297  2.3766
 5507SOL     OW27982   1.610   3.561   3.111  0.5297  0.3814  0.4032
 5507SOL    HW127983   1.604   3.505   3.188  0.0783 -1.0605 -0.6778
 5507SOL    HW227984   1.684   3.524   3.063 -0.5717 -1.3353  0.0559
 5508SOL     OW27985   1.456   0.196  10.822 -0.0556  0.0016  0.3600
 5508SOL    HW127986   1.546   0.184  10.851  0.3838 -0.3195 -1.1805
 5508SOL    HW227987   1.407   0.173  10.901 -1.3955  1.5538 -0.0096
 5509SOL     OW27988   0.523   0.608   2.814  0.4632 -0.2625 -0.1160
 5509SOL    HW127989   0.510   0.523   2.855  3.1561 -0.0457  1.1643
 5509SOL    HW227990   0.584   0.650   2.875 -0.6492  1.8940 -0.4790
 5510SOL     OW27991   4.445   0.247   9.259  0.1951  0.0735 -0.0793
 5510SOL    HW127992   4.519   0.305   9.242 -0.4630  1.0053  0.2649
 5510SOL    HW227993   4.406   0.246   9.172  0.8601 -1.0157 -0.3656
 5511SOL     OW27994   1.734   0.518  15.177 -0.7889  0.2342 -0.0379
 5511SOL    HW127995   1.690   0.453  15.231  0.6263 -0.4773  0.2731
 5511SOL    HW227996   1.822   0.524  15.215 -0.4835  4.5313 -1.4169
 5512SOL     OW27997   3.889   1.691   4.553 -0.0909 -0.0710 -0.3402
 5512SOL    HW127998   3.890   1.776   4.597  2.2618  0.6247 -1.7599
 5512SOL    HW227999   3.845   1.704   4.469 -0.7895  1.5116  0.2710
 5513SOL     OW28000   0.119   2.290   9.015  0.4078  0.0013 -0.2837
 5513SOL    HW128001   0.188   2.251   8.962  0.5692  0.2622 -0.2634
 5513SOL    HW228002   0.079   2.207   9.042  0.3384  0.0865 -0.1215
 5514SOL     OW28003   0.537   0.253   3.490  0.3625 -0.0018 -0.7061
 5514SOL    HW128004   0.580   0.322   3.440  0.4038 -0.4528 -1.2814
 5514SOL    HW228005   0.556   0.175   3.438  0.7671 -0.1325 -0.3647
 5515SOL     OW28006   1.214   2.259   1.723 -0.0310  0.0139 -0.8383
 5515SOL    HW128007   1.180   2.243   1.811 -0.4053  0.2066 -0.9481
 5515SOL    HW228008   1.280   2.191   1.715 -1.8280 -1.7341 -0.7423
 5516SOL     OW28009   2.591   3.078   9.042  0.1430  0.0877  0.3343
 5516SOL    HW128010   2.585   3.170   9.066 -0.9949  0.2801 -0.7450
 5516SOL    HW228011   2.519   3.071   8.980  0.7015 -1.0658 -0.2042
 5517SOL     OW28012   4.206   2.622   7.104  0.2003  0.0304 -0.2135
 5517SOL    HW128013   4.121   2.651   7.138 -1.4999 -2.5631 -2.2384
 5517SOL    HW228014   4.215   2.540   7.151 -0.1320  1.3824  2.1948
 5518SOL     OW28015   2.828   4.558   3.683  0.2656 -0.2766  0.0299
 5518SOL    HW128016   2.733   4.549   3.696  0.3890 -1.7075 -0.1251
 5518SOL    HW228017   2.859   4.482   3.731  0.7240  0.4568  0.8985
 5519SOL     OW28018   4.697   1.825   2.303  0.0043  0.3150  0.5544
 5519SOL    HW128019   4.654   1.795   2.222 -1.0673 -0.2764  1.3407
 5519SOL    HW228020   4.640   1.788   2.370 -0.6559  0.6227  0.1659
 5520SOL     OW28021   1.633   3.480   6.927 -0.0723 -0.0617 -0.3954
 5520SOL    HW128022   1.698   3.548   6.913 -0.4785 -0.0919 -2.4041
 5520SOL    HW228023   1.567   3.531   6.974 -0.2469 -0.5536 -0.1042
 5521SOL     OW28024   2.670   3.049   8.160 -0.5098 -0.2091  0.1426
 5521SOL    HW128025   2.669   3.117   8.227  1.8984 -2.0771  2.1005
 5521SOL    HW228026   2.664   2.967   8.209  1.1291  1.5141  3.2563
 5522SOL     OW28027   1.643   0.399  12.795  0.2240 -0.1129  0.3159
 5522SOL    HW128028   1.693   0.379  12.874 -1.1384 -0.6424  1.0349
 5522SOL    HW228029   1.560   0.352  12.801 -0.6867  1.3900 -0.7270
 5523SOL     OW28030   3.402   2.148  10.710 -0.0104 -0.3504 -0.5775
 5523SOL    HW128031   3.453   2.208  10.765  0.4059 -1.0462 -0.2146
 5523SOL    HW228032   3.456   2.166  10.634 -2.1917  0.8097 -1.8637
 5524SOL     OW28033   2.503   3.587  12.361 -0.2896  0.2755 -0.1504
 5524SOL    HW128034   2.463   3.621  12.441  0.4618 -0.2199  0.4269
 5524SOL    HW228035   2.596   3.594  12.381 -0.1198 -0.6243 -0.6524
 5525SOL     OW28036   4.314   1.272   7.619 -0.4733  0.4165  0.6058
 5525SOL    HW128037   4.400   1.279   7.576 -0.9152 -0.0117 -0.3475
 5525SOL    HW228038   4.305   1.180   7.595  0.3487  0.1600  1.2545
 5526SOL     OW28039   0.637   2.345  16.543  0.5847 -0.2785 -0.7264
 5526SOL    HW128040   0.582   2.266  16.549  0.3080 -0.1125 -1.0593
 5526SOL    HW228041   0.613   2.392  16.622  0.1045 -1.8138  0.0484
 5527SOL     OW28042   1.964   2.276   5.371  0.1230 -0.4068  0.3207
 5527SOL    HW128043   1.913   2.260   5.292  1.2904 -0.5303 -0.4113
 5527SOL    HW228044   2.055   2.257   5.347 -0.2941 -0.0868 -1.5175
 5528SOL     OW28045   4.667   3.433   0.427  0.3501 -0.6460 -0.1040
 5528SOL    HW128046   4.623   3.418   0.344  0.1250  0.9756 -0.2779
 5528SOL    HW228047   0.031   3.390   0.410  0.9094 -0.7054  2.7666
 5529SOL     OW28048   0.953   3.818   0.014 -0.0285 -0.0110  0.3654
 5529SOL    HW128049   0.987   3.756  17.632 -3.1892 -1.4744  0.1116
 5529SOL    HW228050   0.860   3.797   0.020 -0.3537  1.7359  1.4512
 5530SOL     OW28051   3.445   3.269  15.921 -0.6000 -0.2627 -0.5214
 5530SOL    HW128052   3.519   3.306  15.873 -1.0207  0.8591 -0.2971
 5530SOL    HW228053   3.489   3.222  15.991  0.3227  1.0234 -0.2311
 5531SOL     OW28054   1.581   1.758  11.726 -0.0147  0.5822 -0.6281
 5531SOL    HW128055   1.657   1.813  11.746 -1.2990  1.7961  0.9335
 5531SOL    HW228056   1.556   1.720  11.811  3.5486  1.6404  0.9194
 5532SOL     OW28057   0.196   0.673   7.498  0.2085 -0.1122  0.0629
 5532SOL    HW128058   0.217   0.654   7.406  1.1496 -0.6133  0.3833
 5532SOL    HW228059   0.100   0.664   7.495  0.4860 -2.7844 -1.5648
 5533SOL     OW28060   0.371   4.711   4.838 -0.1859 -0.0863  0.0623
 5533SOL    HW128061   0.318   0.001   4.917 -0.0949 -1.0861  0.2477
 5533SOL    HW228062   0.458   4.689   4.871 -0.5935 -0.8551  0.6407
 5534SOL     OW28063   2.018   2.103   0.903 -0.0166  0.4107  0.2768
 5534SOL    HW128064   1.995   2.120   0.811  2.3774  2.1353 -0.0205
 5534SOL    HW228065   2.109   2.128   0.919 -0.6690  1.1310  2.9217
 5535SOL     OW28066   0.672   0.927   0.965  0.0450  0.2667 -0.1367
 5535SOL    HW128067   0.585   0.888   0.953  0.4912 -0.4810 -0.9762
 5535SOL    HW228068   0.725   0.870   0.910  0.7974  1.3482 -0.5318
 5536SOL     OW28069   3.434   1.463   2.859  0.3208 -0.0056 -0.1364
 5536SOL    HW128070   3.370   1.532   2.847  0.2666 -0.1325 -0.5683
 5536SOL    HW228071   3.384   1.381   2.861 -0.8945  0.7289 -0.5580
 5537SOL     OW28072   1.159   1.978  16.238  0.0470 -0.2984 -0.0992
 5537SOL    HW128073   1.243   2.023  16.235 -0.1826  0.3252  2.4969
 5537SOL    HW228074   1.120   1.984  16.150 -0.5668  2.7558  0.3817
 5538SOL     OW28075   2.961   0.641   7.416  0.0873 -0.4087  0.0655
 5538SOL    HW128076   2.975   0.569   7.478  2.0374 -0.1781 -0.0953
 5538SOL    HW228077   2.949   0.603   7.329 -1.0625  0.0111  0.0511
 5539SOL     OW28078   0.604   0.776   3.562 -0.1270  0.4254  0.2756
 5539SOL    HW128079   0.672   0.744   3.622  1.0563  0.0864 -1.2729
 5539SOL    HW228080   0.664   0.841   3.526  0.6197  0.2980  1.2771
 5540SOL     OW28081   3.598   1.467   6.961  0.1503  0.4709 -0.7601
 5540SOL    HW128082   3.680   1.425   6.986 -0.2781  0.2336  0.2261
 5540SOL    HW228083   3.633   1.533   6.901 -0.1977  0.6689 -0.7506
 5541SOL     OW28084   2.556   3.823   6.438  0.1465 -0.3770 -0.5264
 5541SOL    HW128085   2.612   3.888   6.481 -0.9328  0.2437 -0.0596
 5541SOL    HW228086   2.493   3.875   6.388 -1.1916 -1.1396  0.3764
 5542SOL     OW28087   0.552   4.699   2.339  0.0204 -0.6755 -0.3324
 5542SOL    HW128088   0.545   4.614   2.382 -0.8561 -1.7212 -2.5361
 5542SOL    HW228089   0.542   4.659   2.252  1.2341 -2.1848  0.2207
 5543SOL     OW28090   4.630   2.625  13.813 -0.3426 -0.0264 -0.1002
 5543SOL    HW128091   4.705   2.672  13.777  1.0076 -0.9681  1.5389
 5543SOL    HW228092   4.664   2.599  13.898  0.3820 -0.8705 -0.6516
 5544SOL     OW28093   3.411   4.549   7.458  0.5744  0.0778  0.0295
 5544SOL    HW128094   3.330   4.551   7.407  0.0197  4.1204  1.0405
 5544SOL    HW228095   3.419   4.629   7.510 -0.7799  0.0936  0.2043
 5545SOL     OW28096   0.655   0.549   4.812 -0.1741  0.1210 -1.0587
 5545SOL    HW128097   0.616   0.631   4.782 -0.7212  0.1551 -0.2653
 5545SOL    HW228098   0.679   0.558   4.904 -1.4969  0.3892 -0.7438
 5546SOL     OW28099   1.708   2.211   7.018  0.1150  0.2500 -0.1662
 5546SOL    HW128100   1.800   2.189   7.001 -0.4955 -2.3130 -0.1338
 5546SOL    HW228101   1.686   2.160   7.096  1.7717 -0.0489  0.1127
 5547SOL     OW28102   1.683   3.604   6.001  0.1071  0.7228 -0.5106
 5547SOL    HW128103   1.600   3.648   6.017  0.5959  0.6701  2.2179
 5547SOL    HW228104   1.657   3.546   5.930 -0.2452 -0.3963  0.5232
 5548SOL     OW28105   0.766   2.692   7.534 -0.0706 -0.1357  0.4624
 5548SOL    HW128106   0.767   2.654   7.446  1.1821 -1.1622  0.9209
 5548SOL    HW228107   0.806   2.778   7.522 -1.2815 -0.1891 -3.8095
 5549SOL     OW28108   3.058   0.624  16.718 -0.2502  0.4293 -0.2779
 5549SOL    HW128109   2.984   0.654  16.770 -1.1964 -0.2561 -1.2253
 5549SOL    HW228110   3.122   0.695  16.721  1.6959 -1.2327 -2.1166
 5550SOL     OW28111   2.751   0.735   5.962  0.0935  0.1796 -0.0374
 5550SOL    HW128112   2.707   0.748   5.879 -0.1906 -0.1842  0.0553
 5550SOL    HW228113   2.794   0.818   5.983 -1.3247  1.1140 -0.8331
 5551SOL     OW28114   3.732   4.493   2.543  0.9619  0.5413 -0.0608
 5551SOL    HW128115   3.668   4.431   2.578  1.3882 -0.4681 -1.0761
 5551SOL    HW228116   3.674   4.558   2.503 -0.3056 -1.3243 -1.2835
 5552SOL     OW28117   4.488   2.550   1.103  0.1361  0.4394  0.0008
 5552SOL    HW128118   4.542   2.554   1.023  0.7827  1.3008  0.4763
 5552SOL    HW228119   4.521   2.470   1.142 -0.1625 -0.5062 -1.6771
 5553SOL     OW28120   2.486   3.933  12.249  0.1644  0.9203 -0.0121
 5553SOL    HW128121   2.409   3.917  12.302 -0.6244  0.7083 -1.2105
 5553SOL    HW228122   2.480   4.026  12.227 -0.9193 -0.0386 -3.7779
 5554SOL     OW28123   0.324   3.113  11.025 -0.1787 -0.1246 -0.6204
 5554SOL    HW128124   0.259   3.060  10.979 -0.4811 -0.5890  0.3514
 5554SOL    HW228125   0.284   3.200  11.026 -1.3223 -0.6550 -0.5976
 5555SOL     OW28126   2.482   0.098   9.817 -0.2051 -1.0015  0.3145
 5555SOL    HW128127   2.400   0.102   9.767  0.3392  0.2038 -0.4771
 5555SOL    HW228128   2.516   0.187   9.810 -1.6091 -0.3825  1.2993
 5556SOL     OW28129   2.739   2.679   7.849 -0.2070 -0.0281 -0.1840
 5556SOL    HW128130   2.698   2.765   7.857  2.0293  1.0181  0.2752
 5556SOL    HW228131   2.778   2.682   7.937  0.1556  0.2941 -0.3497
 5557SOL     OW28132   3.470   1.192  14.523  0.5337 -0.0923 -0.0463
 5557SOL    HW128133   3.483   1.126  14.591  0.2891 -2.2851 -2.1302
 5557SOL    HW228134   3.496   1.270  14.573  2.0538 -0.6923  0.1159
 5558SOL     OW28135   2.045   2.571  11.343 -0.0766  0.4766 -0.0775
 5558SOL    HW128136   2.035   2.642  11.407  0.6079 -0.4272  1.0177
 5558SOL    HW228137   2.034   2.499  11.404  2.5017 -0.1915 -0.4036
 5559SOL     OW28138   3.472   3.550  10.640  0.4458 -0.1365  0.1968
 5559SOL    HW128139   3.415   3.477  10.663 -0.4747  0.7319  0.6712
 5559SOL    HW228140   3.549   3.517  10.686 -1.2586 -2.5186  1.3512
 5560SOL     OW28141   1.470   3.279  13.093 -0.2077  0.6307 -0.1954
 5560SOL    HW128142   1.518   3.353  13.130 -0.1744 -0.2836  1.6067
 5560SOL    HW228143   1.521   3.201  13.113 -1.4187 -0.2460 -0.5033
 5561SOL     OW28144   0.778   1.143   2.193 -0.2366 -0.2357  0.6292
 5561SOL    HW128145   0.757   1.124   2.102 -1.0283  0.9603  0.5673
 5561SOL    HW228146   0.853   1.203   2.185 -0.5029  0.0764  0.4795
 5562SOL     OW28147   0.503   0.998   0.305 -0.5995 -0.4792 -0.2616
 5562SOL    HW128148   0.579   0.941   0.319 -1.2647 -0.9444  1.4102
 5562SOL    HW228149   0.437   0.954   0.359 -0.6282 -0.5950 -0.3929
 5563SOL     OW28150   0.433   4.484  13.263  0.0676  0.3411  0.1319
 5563SOL    HW128151   0.347   4.446  13.250 -0.2388  0.7078  1.0631
 5563SOL    HW228152   0.462   4.433  13.339 -0.2300 -1.1831 -0.7923
 5564SOL     OW28153   2.589   2.030   6.339  0.4940  0.1293 -0.5156
 5564SOL    HW128154   2.573   2.087   6.414 -0.0748 -0.1390 -0.4406
 5564SOL    HW228155   2.527   1.958   6.344  1.2622 -0.5234 -0.3476
 5565SOL     OW28156   4.381   2.830   0.942 -0.2916 -0.1765 -0.1850
 5565SOL    HW128157   4.413   2.907   0.989 -1.6186 -0.3361  0.9603
 5565SOL    HW228158   4.317   2.875   0.887 -1.2569  0.7053  1.6595
 5566SOL     OW28159   1.837   0.926   4.471  0.2230  0.1070 -0.3741
 5566SOL    HW128160   1.796   0.840   4.462 -0.6207  0.3531  1.1313
 5566SOL    HW228161   1.775   0.969   4.413 -0.1218 -0.1448 -0.1935
 5567SOL     OW28162   2.596   3.422  16.531  0.2043 -0.2002 -0.4286
 5567SOL    HW128163   2.638   3.417  16.445  1.2726 -0.4375  0.1055
 5567SOL    HW228164   2.624   3.511  16.553  1.7183 -1.1557  1.5417
 5568SOL     OW28165   2.007   1.528   5.033 -0.4464  0.5454 -0.2747
 5568SOL    HW128166   1.915   1.505   5.044 -0.1039 -0.6214  0.1434
 5568SOL    HW228167   2.035   1.530   5.124 -2.3422 -1.9736  0.3561
 5569SOL     OW28168   3.809   2.479  11.693  0.0112  0.4241  0.4032
 5569SOL    HW128169   3.865   2.533  11.637  2.3122 -2.2163  0.1236
 5569SOL    HW228170   3.722   2.510  11.667 -0.2098  0.5223  1.2498
 5570SOL     OW28171   4.053   1.731   4.213 -0.2462  0.4780 -0.4057
 5570SOL    HW128172   3.977   1.760   4.264  1.7078  0.2547  2.5955
 5570SOL    HW228173   4.119   1.784   4.257 -0.6988 -0.7980  1.8293
 5571SOL     OW28174   2.732   2.041   7.820 -0.0077  0.3410 -0.2022
 5571SOL    HW128175   2.757   2.007   7.906 -0.3799 -2.3211 -1.1578
 5571SOL    HW228176   2.775   1.977   7.764  0.4489  1.1146 -0.7459
 5572SOL     OW28177   0.558   2.815   2.781  0.2108 -0.2165  0.3498
 5572SOL    HW128178   0.470   2.807   2.742 -0.1915 -0.4836  1.3029
 5572SOL    HW228179   0.611   2.821   2.702 -1.0850  1.3485 -0.3882
 5573SOL     OW28180   0.135   2.758   3.485 -0.5022 -0.5878  0.0899
 5573SOL    HW128181   0.095   2.705   3.416  1.4533  0.6662 -1.9942
 5573SOL    HW228182   0.229   2.761   3.469 -0.7961  0.9687 -1.4200
 5574SOL     OW28183   4.650   0.048   5.952  0.1592  0.1869 -0.5961
 5574SOL    HW128184   4.626   4.698   6.013  1.3079  1.1097  0.9142
 5574SOL    HW228185   4.589   0.040   5.879  1.1679 -3.1528 -1.0692
 5575SOL     OW28186   0.515   0.528   0.872 -0.5812 -0.0916  0.2805
 5575SOL    HW128187   0.587   0.550   0.931  0.8217 -0.4718 -1.2835
 5575SOL    HW228188   0.487   0.452   0.923 -0.7776 -0.1072  0.1519
 5576SOL     OW28189   1.628   2.981   4.497  0.4947 -0.4394  0.4261
 5576SOL    HW128190   1.580   3.054   4.537 -0.1398  0.5978 -2.1702
 5576SOL    HW228191   1.719   3.011   4.494  0.0450  0.8408 -0.5275
 5577SOL     OW28192   1.702   0.957  11.660 -0.0566  0.5181  0.3840
 5577SOL    HW128193   1.798   0.967  11.663 -0.1400  0.9220  1.8526
 5577SOL    HW228194   1.681   1.043  11.624  2.3734  1.0495  0.2028
 5578SOL     OW28195   0.025   3.677  10.866 -0.0780 -0.1455 -0.0894
 5578SOL    HW128196   0.020   3.612  10.936  1.9860  1.2063  1.3467
 5578SOL    HW228197   4.678   3.645  10.807  1.8977  0.1217 -2.4620
 5579SOL     OW28198   3.267   3.175   3.531 -0.6957  0.4501  0.0718
 5579SOL    HW128199   3.218   3.158   3.451  1.6344 -0.0350 -1.2497
 5579SOL    HW228200   3.293   3.090   3.567 -0.6146 -0.0517 -1.1593
 5580SOL     OW28201   0.620   1.782   6.365  0.3939  1.2182 -0.2490
 5580SOL    HW128202   0.614   1.873   6.335 -1.6916  1.1090 -0.1747
 5580SOL    HW228203   0.666   1.738   6.294  0.0534  0.4518  0.0117
 5581SOL     OW28204   1.258   1.552   7.505 -0.0492 -0.2377 -0.5316
 5581SOL    HW128205   1.292   1.559   7.594 -0.3542  1.0323 -0.5040
 5581SOL    HW228206   1.207   1.633   7.497 -1.5557 -1.1723 -0.4872
 5582SOL     OW28207   0.333   0.145   3.177  0.1178  0.2897 -0.1454
 5582SOL    HW128208   0.396   0.074   3.194 -1.5695 -1.4896 -1.3589
 5582SOL    HW228209   0.328   0.137   3.081  0.4484 -0.5387 -0.0966
 5583SOL     OW28210   0.273   4.163  13.478  0.2888  0.8485  0.0492
 5583SOL    HW128211   0.356   4.198  13.447  1.1141 -0.6398  0.5558
 5583SOL    HW228212   0.271   4.079  13.432  1.3717  0.6771  0.3162
 5584SOL     OW28213   2.630   0.057   7.998  0.1187  0.4143  0.3471
 5584SOL    HW128214   2.690   0.065   7.923  1.0728  0.1335  1.0892
 5584SOL    HW228215   2.698   0.059   8.066 -0.4869 -2.9401  1.0353
 5585SOL     OW28216   3.300   2.847   5.483 -0.1405  0.4016 -0.0026
 5585SOL    HW128217   3.369   2.897   5.439 -0.7506  1.1590 -0.0909
 5585SOL    HW228218   3.218   2.896   5.482  0.1697  0.8938 -0.8600
 5586SOL     OW28219   3.859   4.291   5.425 -0.2023  0.8115 -0.1185
 5586SOL    HW128220   3.826   4.370   5.382  2.4089  0.4489 -2.7992
 5586SOL    HW228221   3.943   4.322   5.458  0.5051 -4.0526  2.6371
 5587SOL     OW28222   1.140   2.442   6.308  0.2858 -0.1518 -0.3804
 5587SOL    HW128223   1.095   2.495   6.374  0.9636  1.7711 -1.4496
 5587SOL    HW228224   1.151   2.356   6.349 -1.1238  0.1203  0.5922
 5588SOL     OW28225   4.715   3.340   5.086  0.3680  0.2453 -0.4290
 5588SOL    HW128226   0.039   3.270   5.038  0.8489 -0.9476  1.7715
 5588SOL    HW228227   0.018   3.410   5.024  1.7831 -0.7367 -1.0089
 5589SOL     OW28228   1.335   4.279   2.617 -0.2098 -0.5631  0.0618
 5589SOL    HW128229   1.245   4.258   2.594 -0.6578  0.4727  0.8176
 5589SOL    HW228230   1.314   4.289   2.710  0.0689 -0.3069  0.0976
 5590SOL     OW28231   2.061   3.070   6.379 -0.9251  0.1099 -0.4861
 5590SOL    HW128232   2.129   3.120   6.425 -0.5682 -0.9250  0.1130
 5590SOL    HW228233   2.045   3.121   6.300 -1.4288 -0.2514 -0.6193
 5591SOL     OW28234   0.094   1.601   4.135 -0.0507  0.0731 -0.2519
 5591SOL    HW128235   0.024   1.578   4.074  0.0362  1.9613 -1.0475
 5591SOL    HW228236   0.048   1.625   4.216  1.0553 -0.7206  0.6176
 5592SOL     OW28237   2.486   0.131   6.899  0.3701 -0.7065 -0.5325
 5592SOL    HW128238   2.505   0.221   6.924  0.8417 -1.2470  1.0507
 5592SOL    HW228239   2.557   0.118   6.835 -0.4259 -0.4844 -1.4565
 5593SOL     OW28240   1.278   3.663  15.187 -0.1670 -0.2001 -0.1615
 5593SOL    HW128241   1.277   3.593  15.252 -1.5486  0.1593  0.2152
 5593SOL    HW228242   1.350   3.718  15.215  1.3673 -1.3042 -1.9895
 5594SOL     OW28243   0.494   1.384  17.524 -0.2109 -0.0035  0.4391
 5594SOL    HW128244   0.581   1.347  17.511 -0.3175 -0.2246  0.3563
 5594SOL    HW228245   0.476   1.351  17.612  1.4443  2.7038  1.7953
 5595SOL     OW28246   0.807   0.294   4.061  0.0843 -0.1814  0.2873
 5595SOL    HW128247   0.796   0.222   4.122  1.1619 -0.1109  0.5593
 5595SOL    HW228248   0.796   0.372   4.116  2.1560  2.1224 -2.5030
 5596SOL     OW28249   2.448   3.687   4.492  0.4092  0.0620 -0.3303
 5596SOL    HW128250   2.475   3.708   4.582 -0.7248 -1.0664  0.2569
 5596SOL    HW228251   2.504   3.616   4.459  1.8203  1.2768 -0.5756
 5597SOL     OW28252   3.865   3.524   5.879  0.1254 -0.1845 -0.0682
 5597SOL    HW128253   3.944   3.544   5.829  1.5400 -2.4854  1.2805
 5597SOL    HW228254   3.891   3.437   5.909 -1.1311 -0.8356 -0.8952
 5598SOL     OW28255   0.055   2.306   6.988 -0.3260  0.1661 -0.1668
 5598SOL    HW128256   0.115   2.365   7.034 -3.2449  2.3904  0.7765
 5598SOL    HW228257   0.047   2.349   6.903 -1.4947 -0.6870 -0.4949
 5599SOL     OW28258   1.895   1.626   3.333 -0.0759 -0.0602 -0.3680
 5599SOL    HW128259   1.946   1.697   3.295  0.7482 -0.8958 -0.8476
 5599SOL    HW228260   1.821   1.684   3.347 -0.4019 -0.0543 -2.0862
 5600SOL     OW28261   2.965   2.738   3.405 -0.5569 -0.4095  0.3765
 5600SOL    HW128262   2.991   2.828   3.425 -0.8809 -0.8572  2.7881
 5600SOL    HW228263   2.946   2.746   3.312 -0.8235 -3.4838  0.1470
 5601SOL     OW28264   0.558   1.921   3.568  0.4557  0.3269  0.0996
 5601SOL    HW128265   0.501   1.846   3.587 -0.2304  1.0814  1.0240
 5601SOL    HW228266   0.637   1.909   3.622  0.5414 -0.8151 -0.2883
 5602SOL     OW28267   4.410   4.622   2.506  0.0538  0.5919  0.2850
 5602SOL    HW128268   4.471   4.636   2.579  0.4010 -1.7386  0.4704
 5602SOL    HW228269   4.333   4.589   2.552 -0.3861 -2.1152 -2.3672
 5603SOL     OW28270   1.979   3.584   3.323 -0.9086  0.0949 -0.1543
 5603SOL    HW128271   1.919   3.587   3.398 -2.5736 -0.7415 -1.4404
 5603SOL    HW228272   2.054   3.536   3.358 -1.3574 -0.3909  0.1562
 5604SOL     OW28273   1.589   3.514   4.429 -0.9165  0.4205  0.6697
 5604SOL    HW128274   1.630   3.428   4.434  2.0007  1.8959  1.8173
 5604SOL    HW228275   1.644   3.543   4.356 -1.0460 -1.2195 -0.0886
 5605SOL     OW28276   1.153   0.928   5.447  0.2602 -0.7262  0.3204
 5605SOL    HW128277   1.078   0.882   5.409 -1.5205  1.8087  0.7859
 5605SOL    HW228278   1.111   0.985   5.511  0.3696 -0.2449 -0.0303
 5606SOL     OW28279   3.675   3.058   3.480 -0.0959  0.5968  0.1474
 5606SOL    HW128280   3.719   3.124   3.428 -1.7876  2.8135  1.4989
 5606SOL    HW228281   3.606   3.111   3.521 -1.3741 -0.0736 -1.1563
 5607SOL     OW28282   3.965   0.498   8.952 -0.0783  0.1868  0.1958
 5607SOL    HW128283   3.871   0.498   8.932  0.1631 -1.4356 -0.9698
 5607SOL    HW228284   3.969   0.535   9.040  2.2687  1.1102 -0.3153
 5608SOL     OW28285   0.892   0.865  13.255 -0.0650  0.2425 -0.1331
 5608SOL    HW128286   0.797   0.859  13.269 -0.5220  1.9040 -2.4661
 5608SOL    HW228287   0.915   0.788  13.204 -0.4994 -0.3103  0.5123
 5609SOL     OW28288   1.951   2.089   0.624 -0.8605 -0.2477 -0.3519
 5609SOL    HW128289   2.033   2.078   0.575  0.7416 -0.9750  2.5526
 5609SOL    HW228290   1.901   2.016   0.587  1.6650 -2.0159 -0.2560
 5610SOL     OW28291   2.319   1.690   5.174 -0.4435  0.1744  0.3627
 5610SOL    HW128292   2.259   1.655   5.239 -0.8798 -1.4504 -0.9104
 5610SOL    HW228293   2.309   1.778   5.211  1.9392  1.1542 -1.3083
 5611SOL     OW28294   1.514   0.101   8.833 -0.6376 -0.2769  0.0087
 5611SOL    HW128295   1.543   0.165   8.768 -1.1399 -2.1773 -2.0592
 5611SOL    HW228296   1.575   0.123   8.903  0.0153 -0.5932 -0.4655
 5612SOL     OW28297   2.465   0.705   9.501  0.4752 -0.3402 -0.0505
 5612SOL    HW128298   2.546   0.704   9.451 -0.2214 -0.3072 -1.1912
 5612SOL    HW228299   2.487   0.744   9.585  2.2199 -1.8275  0.1812
 5613SOL     OW28300   0.891   4.094   7.719  0.1172 -0.3484 -0.0841
 5613SOL    HW128301   0.846   4.126   7.797  1.7191  0.8404  0.3663
 5613SOL    HW228302   0.883   3.998   7.723  0.7485 -0.4191 -0.5923
 5614SOL     OW28303   1.284   4.234  12.293 -0.3834  0.6461 -0.1828
 5614SOL    HW128304   1.292   4.311  12.349  1.0957 -1.1350  2.0707
 5614SOL    HW228305   1.326   4.170  12.351 -2.1088 -0.6283 -0.3220
 5615SOL     OW28306   4.480   2.804   4.533  0.8172  0.0818 -0.1566
 5615SOL    HW128307   4.446   2.886   4.498 -1.5796 -1.0191 -0.3672
 5615SOL    HW228308   4.490   2.815   4.628  0.6930 -0.2800 -0.1036
 5616SOL     OW28309   2.913   1.787   0.930  0.1193 -0.0840 -0.3516
 5616SOL    HW128310   2.852   1.721   0.963  0.7153 -0.3971  0.1292
 5616SOL    HW228311   2.998   1.743   0.929  1.2384  2.0862 -0.4250
 5617SOL     OW28312   3.659   2.626   7.168 -0.5346 -0.3592 -0.2207
 5617SOL    HW128313   3.687   2.629   7.259 -0.5490 -3.5231 -0.1312
 5617SOL    HW228314   3.635   2.717   7.148 -0.8557 -0.4124 -0.0818
 5618SOL     OW28315   1.899   3.053  17.323  0.2738 -0.1181 -0.3440
 5618SOL    HW128316   1.877   3.126  17.382  0.3995 -1.1427  0.9682
 5618SOL    HW228317   1.871   2.976  17.371  0.3263 -0.3466 -0.6830
 5619SOL     OW28318   3.534   0.916   1.834 -0.2587  0.3759  0.3538
 5619SOL    HW128319   3.527   0.823   1.811 -1.4377  0.6216 -0.2373
 5619SOL    HW228320   3.476   0.911   1.911  0.1871  0.0783  0.6733
 5620SOL     OW28321   1.949   4.318   4.290 -0.0291  0.0227 -0.8241
 5620SOL    HW128322   1.866   4.319   4.337  0.3672  0.3872 -0.1393
 5620SOL    HW228323   1.991   4.237   4.318  0.1649  0.5258  0.3304
 5621SOL     OW28324   2.694   2.175   7.104  0.0051 -0.1268  0.5585
 5621SOL    HW128325   2.640   2.105   7.140 -1.8106  1.9720  1.9564
 5621SOL    HW228326   2.739   2.197   7.185 -1.8844  1.7895  1.1047
 5622SOL     OW28327   0.840   1.627   7.068  0.1906 -0.2050  0.2818
 5622SOL    HW128328   0.904   1.658   7.004 -2.1782 -2.2842 -3.0990
 5622SOL    HW228329   0.835   1.536   7.040  2.4845  0.2328 -1.5246
 5623SOL     OW28330   3.269   2.646  16.184  0.4867  0.1017 -0.2595
 5623SOL    HW128331   3.255   2.642  16.278  1.3459 -0.7555 -0.1604
 5623SOL    HW228332   3.350   2.594  16.187  0.8857  0.7046 -0.6177
 5624SOL     OW28333   0.706   1.434   2.021  0.4329  0.2778 -0.2233
 5624SOL    HW128334   0.611   1.428   2.014  0.3401 -0.5336  1.5629
 5624SOL    HW228335   0.734   1.343   2.013 -0.9406 -0.1836  0.2755
 5625SOL     OW28336   3.192   3.975  17.540  0.1081 -0.1962  0.2460
 5625SOL    HW128337   3.206   3.900  17.482  2.5039  0.9115 -0.5906
 5625SOL    HW228338   3.097   3.988  17.538  0.2959  0.8411 -2.2584
 5626SOL     OW28339   3.466   0.050   5.482 -0.0684  0.3591  0.0268
 5626SOL    HW128340   3.553   0.086   5.498  0.4316  0.4624 -2.7999
 5626SOL    HW228341   3.474   0.006   5.397  0.5673  0.1458  0.2025
 5627SOL     OW28342   1.943   1.833   7.528  0.1501 -0.7924  0.0954
 5627SOL    HW128343   1.945   1.778   7.450 -3.2006 -1.2672  0.3780
 5627SOL    HW228344   1.861   1.880   7.515  0.2584 -1.0173 -1.4294
 5628SOL     OW28345   2.550   3.393   7.731  0.1320 -0.2975  0.2795
 5628SOL    HW128346   2.476   3.333   7.721 -0.6302  0.9933 -1.9161
 5628SOL    HW228347   2.624   3.342   7.700  0.3225  1.1802 -1.7365
 5629SOL     OW28348   4.470   2.275   8.071  0.1947 -0.1245  0.3404
 5629SOL    HW128349   4.449   2.242   8.158  0.6368 -2.5897 -0.4837
 5629SOL    HW228350   4.462   2.369   8.085 -1.7615 -0.0814 -0.9954
 5630SOL     OW28351   1.376   3.594   4.619  0.2214 -0.5611  0.0297
 5630SOL    HW128352   1.437   3.563   4.552 -1.3936  1.8282 -2.5000
 5630SOL    HW228353   1.301   3.533   4.619  1.1222 -1.6674 -2.5344
 5631SOL     OW28354   3.422   1.942   4.477  0.2048  0.0796  0.0575
 5631SOL    HW128355   3.445   1.916   4.387  2.1900  0.2896  0.5184
 5631SOL    HW228356   3.390   1.857   4.508 -1.7909  0.2543 -1.4959
 5632SOL     OW28357   4.048   4.458  12.055 -0.3591  0.0232 -0.1423
 5632SOL    HW128358   4.003   4.373  12.056 -0.3935  0.0170 -2.4600
 5632SOL    HW228359   4.123   4.430  12.108 -0.5550  0.6521  0.4546
 5633SOL     OW28360   0.559   3.577   4.020  0.3290 -0.0666 -0.0011
 5633SOL    HW128361   0.518   3.613   3.942 -1.6390 -0.9115  0.6418
 5633SOL    HW228362   0.647   3.613   4.011 -0.0000  0.8233  0.3120
 5634SOL     OW28363   1.448   3.184  16.937  0.6233  0.1358  0.6766
 5634SOL    HW128364   1.436   3.095  16.903  0.2694  0.0213  1.1063
 5634SOL    HW228365   1.521   3.215  16.884  0.5673  0.7614  0.9731
 5635SOL     OW28366   4.022   0.880   4.262  0.4347 -0.0431  0.3238
 5635SOL    HW128367   4.035   0.876   4.356  0.7218 -0.8327  0.2505
 5635SOL    HW228368   3.935   0.840   4.263  0.8057 -0.7922  1.6412
 5636SOL     OW28369   1.942   1.218   4.549 -0.1801  0.2873 -0.3682
 5636SOL    HW128370   1.906   1.140   4.590  0.3286 -0.3387 -1.1001
 5636SOL    HW228371   2.005   1.168   4.497  0.2912  0.5847 -0.0865
 5637SOL     OW28372   3.149   0.493  16.465  0.0885 -0.4689  0.1086
 5637SOL    HW128373   3.184   0.404  16.466  1.2251 -0.0187 -0.2227
 5637SOL    HW228374   3.099   0.497  16.546 -1.0062  0.8395 -0.6292
 5638SOL     OW28375   1.385   2.289  15.148 -0.0407  0.0929 -0.4764
 5638SOL    HW128376   1.354   2.242  15.226 -1.7436  0.1334 -1.1364
 5638SOL    HW228377   1.421   2.214  15.100 -0.3309 -0.6648  0.4732
 5639SOL     OW28378   3.668   3.977   9.412  0.2322  0.1005  0.4286
 5639SOL    HW128379   3.598   3.934   9.362  0.9811 -1.0269  0.3611
 5639SOL    HW228380   3.660   4.070   9.389  2.1390  0.0934 -0.2006
 5640SOL     OW28381   1.265   2.785   8.108 -0.3169  0.8150 -0.8416
 5640SOL    HW128382   1.239   2.815   8.195 -1.8652 -0.7197 -0.7921
 5640SOL    HW228383   1.327   2.852   8.079  1.0634  0.5322  1.4438
 5641SOL     OW28384   1.172   4.393   3.635  0.1077  0.9929 -0.1374
 5641SOL    HW128385   1.230   4.402   3.711 -1.2992 -0.2829  1.0688
 5641SOL    HW228386   1.238   4.379   3.567 -0.9698  0.2230 -1.0171
 5642SOL     OW28387   0.418   1.979   5.893  0.4175  0.1748  0.7438
 5642SOL    HW128388   0.450   1.997   5.805 -1.1243  0.8923  0.3184
 5642SOL    HW228389   0.400   2.068   5.926  2.9206  0.5555  1.0615
 5643SOL     OW28390   3.843   3.195  14.156 -0.0282 -0.0868  0.0842
 5643SOL    HW128391   3.783   3.214  14.228  0.4401 -0.8397  0.6686
 5643SOL    HW228392   3.925   3.228  14.192 -0.7795 -1.5674  3.1691
 5644SOL     OW28393   3.053   0.930  13.024  0.2705  0.2862 -0.4286
 5644SOL    HW128394   3.120   0.921  12.956  1.1385 -2.5334  0.7764
 5644SOL    HW228395   3.083   0.880  13.100 -0.1388 -0.6577 -0.8871
 5645SOL     OW28396   2.770   1.338  12.956  0.3753  0.0846 -0.4950
 5645SOL    HW128397   2.730   1.299  13.034  1.8127 -2.6089 -1.1118
 5645SOL    HW228398   2.770   1.257  12.906  0.1089  0.4774 -1.1335
 5646SOL     OW28399   1.822   1.716  16.787  0.5612 -0.8745  0.3839
 5646SOL    HW128400   1.805   1.660  16.863 -0.7059 -0.8876  0.0971
 5646SOL    HW228401   1.888   1.659  16.746  2.2671  0.3005  1.4974
 5647SOL     OW28402   1.286   2.955  14.496  0.0439 -0.2636 -0.5581
 5647SOL    HW128403   1.308   2.905  14.417  2.4588  0.8498 -0.5850
 5647SOL    HW228404   1.236   3.023  14.450  0.1784 -0.3530 -0.8354
 5648SOL     OW28405   3.301   3.342   2.540 -0.2966  0.0253 -0.2267
 5648SOL    HW128406   3.230   3.357   2.477 -1.3974  0.5866  1.1447
 5648SOL    HW228407   3.362   3.297   2.482 -1.6619 -0.8396 -0.9986
 5649SOL     OW28408   0.079   4.535   8.406  0.4883  0.2463  0.2126
 5649SOL    HW128409   0.043   4.534   8.318 -0.5113 -0.4014  0.6274
 5649SOL    HW228410   0.086   4.440   8.421 -1.1683  0.4052  1.9678
 5650SOL     OW28411   3.188   0.592   6.535  0.4025  0.5785 -0.2415
 5650SOL    HW128412   3.232   0.677   6.540  0.0654  0.6300  1.8536
 5650SOL    HW228413   3.150   0.594   6.447  0.8721  0.1236 -0.4626
 5651SOL     OW28414   3.123   0.324   5.086  1.0176 -0.2071  0.5451
 5651SOL    HW128415   3.072   0.248   5.055  0.5333  0.3047  0.0773
 5651SOL    HW228416   3.119   0.383   5.011 -1.4263 -2.7570 -1.3523
 5652SOL     OW28417   1.184   3.291   3.283  0.4375  0.6222  0.0704
 5652SOL    HW128418   1.267   3.245   3.298  1.0637  1.6372 -0.3275
 5652SOL    HW228419   1.186   3.362   3.347 -0.3148  0.3718  0.3736
 5653SOL     OW28420   2.010   3.123   7.154 -0.1228 -0.2329  0.0506
 5653SOL    HW128421   2.013   3.210   7.114 -0.2889 -0.6958 -0.9579
 5653SOL    HW228422   2.003   3.146   7.247 -0.3407 -0.5293  0.1069
 5654SOL     OW28423   0.938   4.080  10.000 -0.3322  0.4128  0.3083
 5654SOL    HW128424   0.973   4.064  10.088 -1.4801  0.5434  0.7800
 5654SOL    HW228425   0.871   4.143  10.025 -2.1509 -0.7703 -1.6700
 5655SOL     OW28426   4.269   2.148   5.869  0.8496  0.3788  0.2263
 5655SOL    HW128427   4.284   2.136   5.963  0.1894  0.9006  0.3987
 5655SOL    HW228428   4.228   2.234   5.862  1.9472  1.0514  2.0750
 5656SOL     OW28429   3.227   3.215   1.198  0.1540 -0.0766  0.2859
 5656SOL    HW128430   3.318   3.188   1.206  0.4796  0.4799 -1.4777
 5656SOL    HW228431   3.199   3.149   1.135 -0.5519  2.5429 -2.1131
 5657SOL     OW28432   2.759   1.642   2.369  0.0155  0.1270 -0.6518
 5657SOL    HW128433   2.803   1.573   2.320 -1.8042 -1.0836 -0.5775
 5657SOL    HW228434   2.740   1.710   2.304 -1.8723  0.6284  0.4330
 5658SOL     OW28435   0.587   1.227   2.579 -0.2233 -0.0692  0.4007
 5658SOL    HW128436   0.497   1.251   2.600  0.0200 -0.7913  2.3171
 5658SOL    HW228437   0.616   1.312   2.548  0.1635 -0.6360 -0.7670
 5659SOL     OW28438   2.944   2.035   4.303  0.6989 -0.0519 -0.2980
 5659SOL    HW128439   2.972   2.097   4.235 -1.0753 -0.1377 -1.0991
 5659SOL    HW228440   3.037   2.019   4.322  0.7728  0.9265  0.1714
 5660SOL     OW28441   4.052   0.028  13.599  0.2811  0.1963 -0.1623
 5660SOL    HW128442   4.035   4.654  13.593  1.5442  0.1116 -2.4901
 5660SOL    HW228443   4.071   0.047  13.507 -0.7994 -0.2286 -0.4791
 5661SOL     OW28444   3.764   1.385   9.044  0.3456 -0.3560 -0.3597
 5661SOL    HW128445   3.800   1.300   9.069 -1.3418 -1.2332 -0.8868
 5661SOL    HW228446   3.672   1.369   9.066 -0.3470  0.4944 -2.5981
 5662SOL     OW28447   2.700   3.247   3.633  0.4114 -0.4892  0.8590
 5662SOL    HW128448   2.640   3.293   3.575  2.2999  0.5664 -0.2636
 5662SOL    HW228449   2.738   3.185   3.571 -0.6562  0.4487 -0.7184
 5663SOL     OW28450   1.554   0.730   4.172 -0.7397  0.5029 -0.5394
 5663SOL    HW128451   1.483   0.696   4.118 -1.8666  0.5982  0.9087
 5663SOL    HW228452   1.600   0.780   4.103 -2.7422 -0.7187 -2.7586
 5664SOL     OW28453   2.051   1.625   5.993  0.4063 -0.5397  0.2285
 5664SOL    HW128454   2.069   1.617   6.086 -0.6549 -2.2990  0.2667
 5664SOL    HW228455   1.967   1.671   5.993  0.7343  0.0735 -0.5801
 5665SOL     OW28456   4.342   3.659  10.869  0.1659  0.3247  0.1890
 5665SOL    HW128457   4.284   3.730  10.840  1.4960  1.1740 -0.3683
 5665SOL    HW228458   4.338   3.683  10.962  1.6200 -1.8337  0.8059
 5666SOL     OW28459   1.768   3.649   1.076 -0.4242 -0.0702  0.9297
 5666SOL    HW128460   1.757   3.742   1.096  2.6232  0.3640  0.6322
 5666SOL    HW228461   1.815   3.657   0.993  1.4315  0.5974  2.0424
 5667SOL     OW28462   1.962   1.271   6.105  0.4117  0.1535 -0.3023
 5667SOL    HW128463   2.011   1.343   6.144  0.9667  1.1670 -2.8709
 5667SOL    HW228464   1.878   1.315   6.087 -0.5695 -1.0498  1.3641
 5668SOL     OW28465   0.712   4.567  14.734  0.3953 -0.9698  0.0230
 5668SOL    HW128466   0.758   4.560  14.650  1.5433 -0.8915  0.6544
 5668SOL    HW228467   0.624   4.550  14.700  0.1866  2.0200 -0.9358
 5669SOL     OW28468   4.031   1.868   5.011  0.6437  0.3172 -0.0314
 5669SOL    HW128469   3.962   1.888   4.947  0.2153  1.7922  0.8888
 5669SOL    HW228470   4.098   1.905   4.954  0.1670  2.7010  0.9683
 5670SOL     OW28471   2.058   4.167  17.248 -0.6613  0.1591 -0.8774
 5670SOL    HW128472   2.139   4.206  17.214 -0.8659  1.0017 -0.4138
 5670SOL    HW228473   2.096   4.102  17.306  1.3608 -1.3738 -3.9087
 5671SOL     OW28474   3.296   1.459   3.499 -0.9069 -0.2261  0.4465
 5671SOL    HW128475   3.230   1.526   3.482 -0.8024 -0.3344 -0.3939
 5671SOL    HW228476   3.296   1.418   3.413 -1.8420  0.7680 -0.0279
 5672SOL     OW28477   0.663   4.414   2.728  0.3588  0.2768  0.2754
 5672SOL    HW128478   0.676   4.364   2.809  2.1284  0.5947  0.1875
 5672SOL    HW228479   0.723   4.485   2.751 -1.1509  1.1331  1.5342
 5673SOL     OW28480   1.224   1.357   3.339  0.2579  0.2074 -0.1123
 5673SOL    HW128481   1.250   1.404   3.418  0.9505 -2.8660  1.5152
 5673SOL    HW228482   1.139   1.322   3.365 -1.2798  1.2936 -3.6606
 5674SOL     OW28483   0.665   3.113   3.121  0.2846  0.3723  0.1961
 5674SOL    HW128484   0.572   3.131   3.116  0.4831  0.6679 -2.2906
 5674SOL    HW228485   0.682   3.094   3.029 -1.3761 -1.4768  0.2798
 5675SOL     OW28486   2.066   2.294  13.288 -0.0406  0.1294  0.0984
 5675SOL    HW128487   2.063   2.384  13.254 -0.1858 -0.8296 -2.3909
 5675SOL    HW228488   2.147   2.306  13.339  0.0461 -1.8293  0.4279
 5676SOL     OW28489   3.435   1.769   7.311  0.5353 -0.6152  0.1816
 5676SOL    HW128490   3.468   1.693   7.262  1.1067  0.8278 -1.6885
 5676SOL    HW228491   3.372   1.724   7.367  0.3566  1.2203  1.4176
 5677SOL     OW28492   0.602   0.514   7.811 -0.3668  0.0300 -0.7487
 5677SOL    HW128493   0.683   0.564   7.824  1.2578 -2.4591 -1.2941
 5677SOL    HW228494   0.544   0.574   7.764 -0.4217  0.8998  0.4270
 5678SOL     OW28495   3.222   2.861   8.439  0.1041 -0.2854 -0.2951
 5678SOL    HW128496   3.127   2.862   8.456  0.2677 -0.1655  0.6504
 5678SOL    HW228497   3.218   2.850   8.344 -2.2834  1.0300 -0.3399
 5679SOL     OW28498   1.414   0.383   3.106  0.5432  0.5404  0.0677
 5679SOL    HW128499   1.351   0.315   3.083 -1.5096  1.7076  2.3024
 5679SOL    HW228500   1.368   0.454   3.060  0.2005  0.0222 -0.3888
 5680SOL     OW28501   0.570   0.886  15.418  0.3613  0.8953 -0.0898
 5680SOL    HW128502   0.529   0.800  15.414 -0.7373  1.4055  0.1314
 5680SOL    HW228503   0.501   0.927  15.365 -1.4758  0.1711  1.7562
 5681SOL     OW28504   0.368   2.555   9.646 -0.3608 -0.0498 -0.3008
 5681SOL    HW128505   0.310   2.515   9.581  1.2316  0.2537 -1.9128
 5681SOL    HW228506   0.335   2.645   9.643 -1.3168 -0.4016 -0.1212
 5682SOL     OW28507   3.649   4.145   3.836 -0.9334 -0.2354 -0.2976
 5682SOL    HW128508   3.711   4.078   3.810  1.3186  1.9097 -0.4386
 5682SOL    HW228509   3.571   4.119   3.786 -0.9149 -1.0493  0.0896
 5683SOL     OW28510   4.344   1.667  13.118  0.0857 -0.8926  0.7934
 5683SOL    HW128511   4.280   1.737  13.106  1.1017 -0.1607 -0.2967
 5683SOL    HW228512   4.324   1.604  13.049 -0.0988  0.1659 -0.1198
 5684SOL     OW28513   0.089   1.544   2.532 -0.3506 -0.0899 -0.8186
 5684SOL    HW128514   0.002   1.531   2.493 -0.9606 -0.8248  0.8244
 5684SOL    HW228515   0.064   1.603   2.603  1.3497 -0.0520 -0.2666
 5685SOL     OW28516   0.736   1.424  17.352 -0.2716 -0.2667  0.2404
 5685SOL    HW128517   0.792   1.501  17.352 -0.4480 -0.1440 -0.8822
 5685SOL    HW228518   0.657   1.472  17.377  1.3170  1.5609  1.7885
 5686SOL     OW28519   0.101   4.414   1.838 -0.0270  0.2006  0.1098
 5686SOL    HW128520   0.153   4.494   1.840  0.6768 -0.1972 -2.1893
 5686SOL    HW228521   0.113   4.391   1.930  0.2351  0.6060  0.1750
 5687SOL     OW28522   3.163   1.730   0.474  0.1343  0.1732 -0.1709
 5687SOL    HW128523   3.068   1.730   0.458  0.1076 -0.5153 -0.0386
 5687SOL    HW228524   3.187   1.811   0.518  0.6454 -0.0669 -0.0103
 5688SOL     OW28525   4.019   2.428   3.983 -0.0785 -0.6216  0.1823
 5688SOL    HW128526   3.939   2.414   4.034 -0.4871  1.0343  0.0145
 5688SOL    HW228527   4.003   2.381   3.901 -0.1448  2.7815 -1.7793
 5689SOL     OW28528   0.982   3.191  10.115  0.3161  0.2361  0.2743
 5689SOL    HW128529   0.919   3.176  10.044  0.3894 -0.2440  0.3146
 5689SOL    HW228530   1.001   3.100  10.136  0.8683  0.6065  1.3678
 5690SOL     OW28531   2.799   2.225  15.955 -0.0544 -1.0063 -0.0855
 5690SOL    HW128532   2.864   2.247  15.889  1.6359  0.7510  2.1677
 5690SOL    HW228533   2.757   2.155  15.905  0.2837 -0.8491 -0.5868
 5691SOL     OW28534   0.367   2.101   3.576  1.0447 -0.4242  0.0386
 5691SOL    HW128535   0.440   2.039   3.570  2.7041  1.6995 -1.5280
 5691SOL    HW228536   0.352   2.123   3.484  1.2931 -1.7726 -0.3139
 5692SOL     OW28537   2.344   2.890   8.195 -0.0345 -0.3695  0.0798
 5692SOL    HW128538   2.258   2.849   8.184  0.4752 -1.3731 -0.2575
 5692SOL    HW228539   2.403   2.819   8.168  1.8746  0.4640  2.0561
 5693SOL     OW28540   4.484   2.182   2.459  0.1840  0.2263 -0.1162
 5693SOL    HW128541   4.393   2.158   2.440 -0.4384  0.8518  2.1021
 5693SOL    HW228542   4.540   2.149   2.389  2.8218 -1.9463  3.0209
 5694SOL     OW28543   1.566   3.487   5.774 -0.1210 -0.6121 -0.7723
 5694SOL    HW128544   1.505   3.442   5.716 -1.2093 -1.2728  0.8808
 5694SOL    HW228545   1.638   3.496   5.711 -0.8182 -1.7942 -1.7346
 5695SOL     OW28546   3.921   1.254  11.849  0.4635  0.5121 -0.1844
 5695SOL    HW128547   3.893   1.321  11.911  0.2798  0.0340  0.2396
 5695SOL    HW228548   3.880   1.286  11.769 -1.8099  0.5088  0.9952
 5696SOL     OW28549   1.154   1.888   7.918  0.9323  0.4489  0.3618
 5696SOL    HW128550   1.127   1.905   8.008 -0.6576 -0.6404  0.0960
 5696SOL    HW228551   1.093   1.818   7.893  0.8545  0.4285  0.6163
 5697SOL     OW28552   0.040   0.444  10.886 -0.1243  0.0763 -0.4115
 5697SOL    HW128553   0.129   0.443  10.851  0.1674 -2.4080  0.3621
 5697SOL    HW228554   0.049   0.423  10.979 -1.3716 -0.0245 -0.3029
 5698SOL     OW28555   4.120   1.155   0.183 -0.1292 -0.3705 -0.0346
 5698SOL    HW128556   4.211   1.144   0.154  0.1214 -0.9621  0.9634
 5698SOL    HW228557   4.089   1.065   0.197 -1.1557 -0.6281 -4.0170
 5699SOL     OW28558   1.258   4.627   1.957  0.6132 -0.4760 -0.3285
 5699SOL    HW128559   1.247   4.656   2.048 -1.1854  1.0368 -1.0228
 5699SOL    HW228560   1.334   4.569   1.968  0.9161  0.4785  2.8048
 5700SOL     OW28561   1.060   0.138   8.244  0.0480 -0.2152  0.0870
 5700SOL    HW128562   1.041   0.082   8.319  2.0324 -0.0358  0.7201
 5700SOL    HW228563   1.045   0.092   8.161 -0.7000 -1.4673  0.9296
 5701SOL     OW28564   3.420   4.043  12.782  0.0210  0.1521 -0.1058
 5701SOL    HW128565   3.497   4.067  12.732  1.6612  1.9817  3.3502
 5701SOL    HW228566   3.465   4.060  12.864 -1.1998  0.5253  0.4802
 5702SOL     OW28567   2.206   1.703   6.732  0.2068 -0.1124 -0.8453
 5702SOL    HW128568   2.141   1.661   6.789  1.0840 -1.0415 -0.5319
 5702SOL    HW228569   2.157   1.762   6.675  1.1399  0.1879 -1.3251
 5703SOL     OW28570   0.265   0.027   2.184  0.4821  0.1256  0.1677
 5703SOL    HW128571   0.261   0.018   2.279  1.1161  2.0167  0.3640
 5703SOL    HW228572   0.348   0.074   2.179  0.4554  0.2763  1.0860
 5704SOL     OW28573   2.586   3.997   4.580  0.3368 -0.4447 -0.0256
 5704SOL    HW128574   2.491   4.005   4.587  0.4668  1.0767  0.0282
 5704SOL    HW228575   2.611   4.065   4.644 -0.3094 -1.7459  1.6037
 5705SOL     OW28576   1.890   3.266  16.919  0.5228  0.2698 -0.5683
 5705SOL    HW128577   1.933   3.200  16.864 -3.4402 -4.0951  1.5025
 5705SOL    HW228578   1.815   3.218  16.955 -0.8270  2.7561 -0.0637
 5706SOL     OW28579   1.257   0.979   2.271  0.5323 -0.5794 -0.3386
 5706SOL    HW128580   1.241   0.888   2.297  1.4017 -0.9371 -1.0388
 5706SOL    HW228581   1.347   0.984   2.302  0.5613  0.3830 -0.5881
 5707SOL     OW28582   0.416   4.368   3.288 -0.1815 -0.2588  0.0981
 5707SOL    HW128583   0.415   4.378   3.383  0.1641  1.1501 -0.0400
 5707SOL    HW228584   0.328   4.346   3.259  0.3134  0.2376 -1.7894
 5708SOL     OW28585   2.431   3.990   6.242  0.5369 -0.7774 -0.4818
 5708SOL    HW128586   2.505   4.050   6.241 -0.2616  0.1900 -1.3119
 5708SOL    HW228587   2.363   4.050   6.213  3.2576  1.4951 -2.1054
 5709SOL     OW28588   2.078   4.020   6.590  0.4500  0.0305 -0.6045
 5709SOL    HW128589   2.152   4.073   6.620 -1.1010  1.6687  0.3270
 5709SOL    HW228590   2.130   3.964   6.533 -0.7817 -0.6955 -1.0044
 5710SOL     OW28591   3.100   3.136   5.685 -0.2926  0.9972  0.0723
 5710SOL    HW128592   3.153   3.135   5.765  1.0507  2.6629 -0.7956
 5710SOL    HW228593   3.172   3.129   5.622  0.9633  0.8667  1.5199
 5711SOL     OW28594   2.820   0.866   2.857 -0.5958 -0.5801 -0.2577
 5711SOL    HW128595   2.728   0.868   2.882  0.1528 -0.5550  2.4672
 5711SOL    HW228596   2.806   0.862   2.763  1.3125 -1.6222 -0.5142
 5712SOL     OW28597   0.370   2.085  16.928  0.0134  0.5049  0.0054
 5712SOL    HW128598   0.443   2.082  16.990  0.0393  1.4161  0.0114
 5712SOL    HW228599   0.310   2.030  16.978 -0.4400  2.8135  1.9998
 5713SOL     OW28600   1.770   3.329   4.277 -0.3663  0.1045 -0.1552
 5713SOL    HW128601   1.838   3.354   4.340  1.2710  0.5477 -2.0844
 5713SOL    HW228602   1.785   3.388   4.203 -1.0577  2.9495  1.9445
 5714SOL     OW28603   1.725   3.552   2.754 -0.1775  0.2878  0.5667
 5714SOL    HW128604   1.633   3.559   2.727 -0.4362 -1.5852  0.9495
 5714SOL    HW228605   1.743   3.468   2.711 -0.6097  0.5905 -0.2180
 5715SOL     OW28606   1.269   1.911   6.570  0.0433 -0.1115  0.1620
 5715SOL    HW128607   1.188   1.920   6.621 -0.9663  0.8609 -1.6068
 5715SOL    HW228608   1.339   1.943   6.627  0.1840 -2.5819  1.3670
 5716SOL     OW28609   3.553   3.538  10.271  0.3519 -0.0879 -0.0005
 5716SOL    HW128610   3.527   3.605  10.334 -2.1893 -1.0270 -0.0407
 5716SOL    HW228611   3.592   3.586  10.198 -2.5447  2.8426  0.3727
 5717SOL     OW28612   2.788   1.491  15.310  0.0311  0.0144 -0.2061
 5717SOL    HW128613   2.876   1.462  15.335 -0.2659 -0.4707  0.2747
 5717SOL    HW228614   2.801   1.526  15.222  0.7066 -1.7326 -0.8079
 5718SOL     OW28615   4.596   3.691   6.598 -0.1562 -0.0818  0.2326
 5718SOL    HW128616   4.689   3.710   6.585 -0.5068  2.6849  1.6804
 5718SOL    HW228617   4.575   3.758   6.663  1.1103  0.8304 -0.3195
 5719SOL     OW28618   0.377   1.841  15.510 -0.1159  0.0038  0.3161
 5719SOL    HW128619   0.445   1.908  15.505  1.2325 -1.4379 -0.7197
 5719SOL    HW228620   0.363   1.832  15.604 -1.7757  0.2151  0.0826
 5720SOL     OW28621   1.339   1.213  16.991 -0.2679 -0.2219  0.0252
 5720SOL    HW128622   1.420   1.204  16.941 -0.1067  1.7214 -0.0618
 5720SOL    HW228623   1.354   1.286  17.050 -0.4959 -0.9313  0.9696
 5721SOL     OW28624   3.601   2.378   6.352 -0.0206 -0.3101 -0.3590
 5721SOL    HW128625   3.625   2.289   6.380 -0.7548 -0.5227 -0.4221
 5721SOL    HW228626   3.567   2.360   6.265  2.6633  2.0585 -1.9038
 5722SOL     OW28627   4.466   2.660   7.578  0.2039 -0.2584 -0.0179
 5722SOL    HW128628   4.376   2.655   7.612  0.5402 -1.1214  0.7461
 5722SOL    HW228629   4.480   2.569   7.550  2.1845 -0.8287  2.9089
 5723SOL     OW28630   4.123   1.212  16.522 -0.1949  0.2616 -0.5621
 5723SOL    HW128631   4.149   1.127  16.558  0.6029 -0.3430 -2.5718
 5723SOL    HW228632   4.191   1.270  16.555  2.0043 -1.6487 -1.7332
 5724SOL     OW28633   0.755   1.170   5.950 -0.5172  0.2620 -0.2517
 5724SOL    HW128634   0.672   1.141   5.912 -0.0067 -0.4532 -0.8299
 5724SOL    HW228635   0.762   1.102   6.017  1.1934 -0.3071 -1.0175
 5725SOL     OW28636   3.874   4.523  16.316  0.2392  0.2749  0.3288
 5725SOL    HW128637   3.842   4.464  16.384  2.1318 -1.7400 -0.5268
 5725SOL    HW228638   3.965   4.537  16.342 -0.4294  1.0514  2.2353
 5726SOL     OW28639   4.184   0.629   2.134  0.3368 -0.5361 -0.1847
 5726SOL    HW128640   4.225   0.568   2.195 -1.5416 -1.2108  0.4030
 5726SOL    HW228641   4.189   0.570   2.059 -1.7463 -0.7906 -0.1316
 5727SOL     OW28642   1.395   2.743   1.580  0.0449  0.0757 -0.1231
 5727SOL    HW128643   1.307   2.767   1.549 -1.0066 -1.7063  1.5040
 5727SOL    HW228644   1.412   2.667   1.525 -0.0546 -1.2871  1.7194
 5728SOL     OW28645   4.254   0.562   4.487  0.1988  0.0061  0.6709
 5728SOL    HW128646   4.316   0.622   4.446  1.4233  0.2071  2.8019
 5728SOL    HW228647   4.304   0.480   4.492 -0.3778 -0.1714  3.8233
 5729SOL     OW28648   3.381   4.649   6.237 -0.1145 -0.4816 -0.8908
 5729SOL    HW128649   3.349   4.563   6.263 -0.9399  0.0516 -0.1799
 5729SOL    HW228650   3.391   4.649   6.142 -0.2601  2.7568 -0.8980
 5730SOL     OW28651   1.903   0.448   3.259 -0.2017  0.3097 -0.4143
 5730SOL    HW128652   1.999   0.453   3.263 -0.2153  0.8078 -0.6870
 5730SOL    HW228653   1.888   0.423   3.168  0.4062 -1.3253 -0.0602
 5731SOL     OW28654   1.846   2.259   5.110  0.4359  0.0271 -0.4468
 5731SOL    HW128655   1.885   2.298   5.032  0.1256  0.8411 -0.2016
 5731SOL    HW228656   1.753   2.256   5.087  0.0893  0.9602  0.8286
 5732SOL     OW28657   0.646   1.806  12.054  0.4853  0.7181  0.6277
 5732SOL    HW128658   0.713   1.774  11.994 -0.9833 -0.1818 -0.5472
 5732SOL    HW228659   0.678   1.895  12.069 -0.5934  1.1728  0.2003
 5733SOL     OW28660   1.602   3.149   7.624 -0.0697 -0.4055  0.3678
 5733SOL    HW128661   1.644   3.091   7.687  0.9365 -0.7314 -0.6043
 5733SOL    HW228662   1.641   3.122   7.541 -3.7491  1.3084 -1.9557
 5734SOL     OW28663   0.070   4.334  14.784 -0.6879  0.2478 -0.0757
 5734SOL    HW128664   0.068   4.392  14.708  0.3014  0.5708  0.1559
 5734SOL    HW228665   0.049   4.247  14.749 -1.5537  1.1979 -1.8955
 5735SOL     OW28666   1.515   2.892   7.998 -0.4169 -0.1852  0.1034
 5735SOL    HW128667   1.522   2.976   8.044 -2.5773 -0.2125  0.5242
 5735SOL    HW228668   1.595   2.842   8.014 -0.0822  0.0378 -0.8795
 5736SOL     OW28669   0.363   0.901  16.553 -0.1626  0.1565  0.0286
 5736SOL    HW128670   0.274   0.869  16.559 -0.6950  1.3277 -1.7463
 5736SOL    HW228671   0.347   0.996  16.555  3.0849  0.6787  1.3399
 5737SOL     OW28672   0.628   2.749   3.025  0.1430  0.0211 -0.3521
 5737SOL    HW128673   0.588   2.777   2.943  3.6109 -0.4582 -2.1947
 5737SOL    HW228674   0.568   2.797   3.083  1.0118 -0.3274  0.8175
 5738SOL     OW28675   4.397   0.770   4.427 -0.2946  0.3614  0.3177
 5738SOL    HW128676   4.348   0.816   4.495 -1.4376 -0.1258 -0.1818
 5738SOL    HW228677   4.485   0.803   4.444 -1.2548  1.9818  2.0680
 5739SOL     OW28678   4.145   4.046   7.270  0.4256 -0.5681 -0.3868
 5739SOL    HW128679   4.068   4.094   7.301  0.7917 -0.2953  0.1088
 5739SOL    HW228680   4.195   4.027   7.350  0.4320 -1.2384 -0.5499
 5740SOL     OW28681   3.941   0.027   4.166  0.3048 -0.6834  0.1608
 5740SOL    HW128682   3.903   0.110   4.193  1.4499  1.0831 -3.5796
 5740SOL    HW228683   4.003   4.716   4.232 -1.3675  1.0516  2.5235
 5741SOL     OW28684   0.249   1.870  15.744 -0.3232  0.5832 -0.0063
 5741SOL    HW128685   0.165   1.852  15.788 -0.0077  0.7864  0.6721
 5741SOL    HW228686   0.256   1.962  15.767 -1.4028  0.0902  2.2586
 5742SOL     OW28687   0.293   3.313   7.951  0.4564  0.3080  0.4291
 5742SOL    HW128688   0.249   3.352   7.875  1.4876  2.7460  1.0806
 5742SOL    HW228689   0.384   3.335   7.931  1.5598 -1.2419  3.7550
 5743SOL     OW28690   4.147   2.866   4.517  0.6107 -0.3535  0.4249
 5743SOL    HW128691   4.123   2.950   4.480  1.7520 -1.1914 -2.1880
 5743SOL    HW228692   4.071   2.815   4.488  0.7864  0.1533 -0.8929
 5744SOL     OW28693   3.641   4.461   5.278  0.4583  0.2397  0.2405
 5744SOL    HW128694   3.582   4.535   5.262  1.4019  0.2644 -3.1478
 5744SOL    HW228695   3.621   4.403   5.204  0.2851  0.6521 -0.0371
 5745SOL     OW28696   1.311   3.109   5.586 -0.0014  0.5823 -0.2345
 5745SOL    HW128697   1.341   3.196   5.561  1.0399  0.0798 -0.7595
 5745SOL    HW228698   1.394   3.070   5.612 -0.1827  2.0772  2.5202
 5746SOL     OW28699   1.740   3.757   0.505  0.5729  0.5249 -0.9689
 5746SOL    HW128700   1.688   3.743   0.426 -0.1216 -0.1418 -0.3998
 5746SOL    HW228701   1.827   3.783   0.476 -0.1668  0.0321 -3.5846
 5747SOL     OW28702   3.672   2.773  15.625  0.0831  0.2512 -0.3088
 5747SOL    HW128703   3.628   2.822  15.695  2.1575  1.5780  0.0571
 5747SOL    HW228704   3.729   2.838  15.585 -0.7145  0.5760 -0.9285
 5748SOL     OW28705   2.998   4.104   8.328 -0.7467 -0.1430  0.2678
 5748SOL    HW128706   2.909   4.107   8.295 -1.0246  0.8656  1.1195
 5748SOL    HW228707   2.992   4.087   8.422  0.9517 -0.9150  0.2493
 5749SOL     OW28708   2.256   0.220   6.641  0.1652 -0.2935  0.2538
 5749SOL    HW128709   2.304   0.185   6.716  2.3802 -1.2826 -1.6430
 5749SOL    HW228710   2.165   0.191   6.654  0.2140 -0.4600  0.2275
 5750SOL     OW28711   3.582   4.106  12.982 -0.2530 -0.7206  0.6105
 5750SOL    HW128712   3.611   4.196  12.996  0.3857 -0.9494  0.7449
 5750SOL    HW228713   3.539   4.086  13.065 -1.7031 -0.8055 -0.1638
 5751SOL     OW28714   0.643   3.925   4.155 -0.2960  0.3527 -0.3917
 5751SOL    HW128715   0.697   3.854   4.189 -2.7403 -0.9816  0.7837
 5751SOL    HW228716   0.690   4.005   4.178 -0.3549  0.5659 -1.0227
 5752SOL     OW28717   0.063   3.991  12.287 -0.0600 -0.0704  0.4233
 5752SOL    HW128718   0.092   3.900  12.281  1.1102  0.3229  0.1686
 5752SOL    HW228719   0.150   4.029  12.297  0.2138 -0.2606 -1.2546
 5753SOL     OW28720   2.266   4.159   5.521  0.1919 -0.1624 -0.0303
 5753SOL    HW128721   2.201   4.168   5.591 -1.6423 -2.6341 -1.4506
 5753SOL    HW228722   2.283   4.065   5.521  0.7126 -0.0721 -0.8309
 5754SOL     OW28723   0.128   4.476   7.440 -0.8565  0.2631  0.3247
 5754SOL    HW128724   0.079   4.556   7.422  1.7876  2.2417  1.8356
 5754SOL    HW228725   0.071   4.404   7.413  2.1029 -1.1152 -2.1866
 5755SOL     OW28726   4.454   3.974   3.819 -0.3007  0.1248 -0.3830
 5755SOL    HW128727   4.417   3.895   3.858 -2.6581  0.8233 -1.2244
 5755SOL    HW228728   4.512   4.008   3.887 -0.5795 -1.0000  0.4114
 5756SOL     OW28729   2.421   3.036  12.684 -0.8058  0.5357  0.1306
 5756SOL    HW128730   2.466   3.121  12.678  0.8970 -0.4984 -1.5755
 5756SOL    HW228731   2.496   2.976  12.678 -0.5835  0.5973  2.1577
 5757SOL     OW28732   3.899   2.503  10.259 -0.1796 -0.3490 -0.4775
 5757SOL    HW128733   3.837   2.575  10.265 -0.2121 -0.2427 -2.0673
 5757SOL    HW228734   3.963   2.522  10.327  2.1609  0.4107 -2.8674
 5758SOL     OW28735   2.387   4.456  17.618  0.6945  0.4414 -0.0318
 5758SOL    HW128736   2.441   4.496   0.004  1.3720  1.2219 -1.0305
 5758SOL    HW228737   2.445   4.390  17.580  0.3061 -1.2056  2.2426
 5759SOL     OW28738   4.472   4.504   9.966  0.8775  0.2847 -0.1562
 5759SOL    HW128739   4.397   4.459  10.004  2.0173 -0.5563  1.0985
 5759SOL    HW228740   4.542   4.475  10.025  0.9081  0.3269 -0.1717
 5760SOL     OW28741   0.581   0.985   2.722  0.4166 -0.1891  0.4025
 5760SOL    HW128742   0.532   0.941   2.652  0.7591  1.7501 -1.0721
 5760SOL    HW228743   0.588   1.076   2.692 -1.7139 -0.3642 -0.5983
 5761SOL     OW28744   2.018   0.073  14.697 -0.1938 -0.1077  0.0457
 5761SOL    HW128745   2.082   0.127  14.651  1.1167 -0.6076  1.2910
 5761SOL    HW228746   1.948   0.071  14.632 -2.1460 -1.3776  2.1786
 5762SOL     OW28747   1.022   3.400   2.120  0.1806  0.2113  0.7029
 5762SOL    HW128748   1.047   3.315   2.086  0.9482 -0.3175  2.5831
 5762SOL    HW228749   1.106   3.420   2.161  0.1515 -1.0499  1.3999
 5763SOL     OW28750   4.201   4.262   2.002  0.0692 -0.5868  0.0410
 5763SOL    HW128751   4.116   4.266   1.958 -0.4964  2.6363  1.4072
 5763SOL    HW228752   4.257   4.250   1.925  0.1027  0.6279 -0.1337
 5764SOL     OW28753   1.222   4.691   7.341  0.2520  0.2210  0.1766
 5764SOL    HW128754   1.151   0.006   7.395  1.5943  1.3072  1.2498
 5764SOL    HW228755   1.193   4.600   7.339 -0.1042  0.4013 -2.5422
 5765SOL     OW28756   4.658   2.607  14.077  0.7602  0.2258  0.7013
 5765SOL    HW128757   0.018   2.635  14.122  1.8303 -1.8608  0.0724
 5765SOL    HW228758   4.600   2.585  14.150  0.3821  0.5857  0.5127
 5766SOL     OW28759   1.639   0.238   5.374 -0.4355  0.3983  0.2310
 5766SOL    HW128760   1.552   0.279   5.379 -0.7739  0.0370 -2.3226
 5766SOL    HW228761   1.656   0.244   5.280  1.9956  0.2913  0.6795
 5767SOL     OW28762   3.373   2.503  11.449  0.0675 -0.8617  0.3664
 5767SOL    HW128763   3.306   2.570  11.432  1.0236  0.2769  1.1028
 5767SOL    HW228764   3.348   2.462  11.531  0.8422  0.1576  1.1111
 5768SOL     OW28765   4.081   3.757  10.414  0.0865  0.2413  0.5680
 5768SOL    HW128766   4.030   3.803  10.481  1.1362  0.0916  1.4805
 5768SOL    HW228767   4.028   3.765  10.335 -0.6125 -1.2892  0.8706
 5769SOL     OW28768   2.018   1.091   3.490  0.8721 -0.2191  0.7085
 5769SOL    HW128769   1.929   1.116   3.466  1.5676  0.3033 -1.3618
 5769SOL    HW228770   1.993   1.073   3.580  1.2091  0.7173  0.9920
 5770SOL     OW28771   3.012   4.400   5.912  0.5222 -0.3804  0.1683
 5770SOL    HW128772   2.977   4.398   5.823 -0.4846  1.5225  0.5079
 5770SOL    HW228773   2.987   4.491   5.931 -2.8448 -1.1448 -0.6066
 5771SOL     OW28774   0.445   2.695   7.774 -0.2980 -0.4836  0.2394
 5771SOL    HW128775   0.523   2.641   7.761  0.7491  0.5754  2.1083
 5771SOL    HW228776   0.481   2.784   7.781  1.0688 -0.9595 -0.7201
 5772SOL     OW28777   4.131   3.043   6.121  0.2504  0.3965  0.0615
 5772SOL    HW128778   4.054   3.018   6.070  0.2194  3.0708 -1.1713
 5772SOL    HW228779   4.167   2.955   6.132  0.5532  0.5084 -0.0358
 5773SOL     OW28780   1.653   4.095  15.692 -0.5667 -0.0746 -0.0158
 5773SOL    HW128781   1.701   4.176  15.708  0.6506 -0.6271 -0.9214
 5773SOL    HW228782   1.648   4.064  15.783  1.3655 -0.5825 -0.0898
 5774SOL     OW28783   3.512   0.307   7.758 -0.0979 -1.2381 -0.3975
 5774SOL    HW128784   3.528   0.394   7.722  0.1303 -1.1257 -0.0218
 5774SOL    HW228785   3.583   0.295   7.821 -0.7677 -0.4288  0.5101
 5775SOL     OW28786   1.700   3.088  14.555  0.8369  0.1359 -0.1824
 5775SOL    HW128787   1.642   3.159  14.581  2.2334  0.5498  1.7306
 5775SOL    HW228788   1.702   3.039  14.637  0.7735  3.2668  1.6574
 5776SOL     OW28789   1.898   1.632   7.696 -0.5250  0.0799  0.4726
 5776SOL    HW128790   1.978   1.617   7.745 -1.4426 -1.3019  1.5515
 5776SOL    HW228791   1.929   1.707   7.646  1.7883 -1.4597 -0.3873
 5777SOL     OW28792   1.570   4.020   8.968  0.7867  0.1830 -0.8943
 5777SOL    HW128793   1.609   4.085   8.910  3.1076 -1.2139 -0.8556
 5777SOL    HW228794   1.580   4.060   9.055 -0.5212  0.1281 -0.7181
 5778SOL     OW28795   0.582   3.164  15.101  0.3857  0.0539 -0.6860
 5778SOL    HW128796   0.639   3.192  15.172  0.4575 -0.8034 -0.4027
 5778SOL    HW228797   0.499   3.194  15.138  0.4164  0.1240 -0.6747
 5779SOL     OW28798   1.686   0.896  13.758  0.5053 -0.1873 -0.2603
 5779SOL    HW128799   1.605   0.846  13.743  0.0885  0.9988 -1.9923
 5779SOL    HW228800   1.718   0.905  13.668 -0.7706  0.2279 -0.6818
 5780SOL     OW28801   3.607   2.921   5.283  0.4617 -0.6702  0.3361
 5780SOL    HW128802   3.676   2.935   5.218  0.5310  0.6130  0.6825
 5780SOL    HW228803   3.624   2.996   5.340 -0.0728 -0.5496  0.3372
 5781SOL     OW28804   0.183   3.973   9.284  0.5090 -0.6029  0.0095
 5781SOL    HW128805   0.219   4.047   9.237 -0.8689 -1.1854 -1.9339
 5781SOL    HW228806   0.197   4.009   9.372  2.8614 -1.2936 -0.0948
 5782SOL     OW28807   1.210   1.675   8.384 -0.2858  0.2142  0.0696
 5782SOL    HW128808   1.298   1.671   8.346  0.2150 -1.5999  1.4567
 5782SOL    HW228809   1.230   1.682   8.477  1.3964 -1.9201 -0.1437
 5783SOL     OW28810   2.565   4.239   0.842  0.1693  0.2431  0.5227
 5783SOL    HW128811   2.639   4.295   0.865  0.0133  0.7454 -0.1979
 5783SOL    HW228812   2.585   4.160   0.893 -1.6957 -0.4371  0.2117
 5784SOL     OW28813   0.064   2.045   6.666 -0.4361 -0.2932 -0.0361
 5784SOL    HW128814   0.069   2.002   6.581 -0.9246 -1.5481  0.5717
 5784SOL    HW228815   4.708   1.993   6.694 -1.5772  1.0444 -0.5961
 5785SOL     OW28816   0.701   4.299   2.968  0.3949  0.3928 -0.4694
 5785SOL    HW128817   0.691   4.322   3.060  0.6369 -0.4536 -0.2262
 5785SOL    HW228818   0.676   4.206   2.975 -1.1763  0.8280 -0.3320
 5786SOL     OW28819   3.693   3.968  12.000 -0.4336  0.5586  0.7156
 5786SOL    HW128820   3.631   3.938  11.934  1.4858  0.2619 -0.9668
 5786SOL    HW228821   3.637   3.978  12.076 -0.4941  3.2725  0.2965
 5787SOL     OW28822   3.617   2.466  14.332 -0.3621 -0.3268  0.6769
 5787SOL    HW128823   3.643   2.493  14.420  0.4058 -0.5415  0.5199
 5787SOL    HW228824   3.564   2.538  14.300  1.4849  0.2666 -1.0544
 5788SOL     OW28825   0.541   1.902  13.016 -0.2148  0.2993  0.5473
 5788SOL    HW128826   0.548   1.988  12.974  1.2949  0.7284  1.6883
 5788SOL    HW228827   0.449   1.876  13.018 -0.3171  0.8596  3.3403
 5789SOL     OW28828   0.688   4.326   7.729 -0.0757 -0.8281 -0.1077
 5789SOL    HW128829   0.595   4.317   7.751 -0.3651  3.0325  0.2252
 5789SOL    HW228830   0.688   4.340   7.635  1.4446 -0.4348 -0.0577
 5790SOL     OW28831   3.843   2.631   6.712 -0.4820 -0.2357  0.1615
 5790SOL    HW128832   3.789   2.626   6.791 -0.7149 -0.9731 -0.0449
 5790SOL    HW228833   3.859   2.538   6.697 -1.9267  0.0469 -3.0558
 5791SOL     OW28834   3.123   1.096   1.024  0.2459  0.6374 -0.2038
 5791SOL    HW128835   3.106   1.109   1.117  2.4323  0.6541  0.1966
 5791SOL    HW228836   3.064   1.023   1.005  0.2363  0.3413  0.9484
 5792SOL     OW28837   2.930   3.544  10.095 -0.4516 -0.0703 -0.6232
 5792SOL    HW128838   2.875   3.563  10.019  0.1739 -0.3343 -1.1383
 5792SOL    HW228839   2.856   3.504  10.142 -0.8844  0.0815 -1.1793
 5793SOL     OW28840   3.707   2.636   8.071 -0.4051  0.0325  0.2616
 5793SOL    HW128841   3.667   2.604   8.152  0.7786  1.2826  1.3260
 5793SOL    HW228842   3.796   2.603   8.083  0.1583  1.5645  0.3081
 5794SOL     OW28843   3.998   2.320   8.804 -0.0237 -0.1802  0.0134
 5794SOL    HW128844   3.950   2.264   8.865  1.7125  0.4890  1.9964
 5794SOL    HW228845   4.000   2.269   8.723 -0.0003  0.1212 -0.1768
 5795SOL     OW28846   1.251   0.078  12.141 -0.0881  0.0693  0.1381
 5795SOL    HW128847   1.181   0.073  12.075 -2.1426  1.8176  2.1796
 5795SOL    HW228848   1.217   0.023  12.211  0.4689  0.4157  0.6735
 5796SOL     OW28849   2.150   2.424  17.354 -0.3563  0.0903 -0.4917
 5796SOL    HW128850   2.167   2.334  17.384 -0.4027 -0.9306 -3.5217
 5796SOL    HW228851   2.068   2.415  17.306 -0.6197 -0.7650  0.1277
 5797SOL     OW28852   4.037   1.382   1.454  0.2235 -0.6651  0.3001
 5797SOL    HW128853   3.966   1.333   1.414  0.2783 -1.0972  0.7328
 5797SOL    HW228854   4.110   1.348   1.402  0.6021 -0.7217  0.8615
 5798SOL     OW28855   4.335   2.622   2.403  0.5556  0.3609 -0.5645
 5798SOL    HW128856   4.330   2.686   2.333  0.5834 -2.5449 -3.2504
 5798SOL    HW228857   4.428   2.601   2.408  0.4162 -0.5087 -1.5175
 5799SOL     OW28858   3.739   0.129   5.137  0.1311 -0.2356  0.4532
 5799SOL    HW128859   3.701   0.199   5.190  1.3099 -0.2176  1.2806
 5799SOL    HW228860   3.716   0.050   5.184 -1.7244  1.3034  2.1343
 5800SOL     OW28861   0.641   0.656   1.707  0.5671 -0.0963 -0.4224
 5800SOL    HW128862   0.711   0.703   1.751  0.3891 -1.5511  1.4267
 5800SOL    HW228863   0.689   0.592   1.654  3.9381  1.9111  0.2803
 5801SOL     OW28864   3.997   3.388   6.169 -0.0062 -0.0253  0.5221
 5801SOL    HW128865   4.000   3.344   6.254  0.4739  1.0234  1.0453
 5801SOL    HW228866   3.955   3.322   6.113 -1.2091  1.7210 -0.6200
 5802SOL     OW28867   3.555   0.536   6.749  0.0836 -0.9195  0.1248
 5802SOL    HW128868   3.462   0.524   6.764  0.3511 -1.7280  1.1263
 5802SOL    HW228869   3.556   0.537   6.653 -1.7595 -0.9184  0.1172
 5803SOL     OW28870   3.909   3.278   8.593  0.3657 -0.7532 -0.3090
 5803SOL    HW128871   3.953   3.294   8.509  1.4673 -0.2537  0.3694
 5803SOL    HW228872   3.953   3.195   8.608  0.4970 -0.1971  2.3856
 5804SOL     OW28873   4.624   2.847   7.286  0.6103  0.1613  0.0835
 5804SOL    HW128874   4.687   2.909   7.250 -0.4775  1.2107 -0.0163
 5804SOL    HW228875   4.577   2.826   7.206  2.1487  1.6452 -1.1995
 5805SOL     OW28876   2.566   0.353   2.200  0.1508 -0.3059 -0.0956
 5805SOL    HW128877   2.494   0.326   2.143  0.8354 -1.0503 -0.6216
 5805SOL    HW228878   2.631   0.353   2.130  1.0824  0.6299  0.7661
 5806SOL     OW28879   3.560   3.274  16.850 -0.2716  0.0003  0.3167
 5806SOL    HW128880   3.537   3.279  16.757  0.4403  0.6971  0.1780
 5806SOL    HW228881   3.599   3.361  16.857  2.5482 -1.3774  1.6012
 5807SOL     OW28882   3.018   1.180  12.754 -0.0377  0.2884 -0.2254
 5807SOL    HW128883   3.108   1.211  12.758 -0.7215  2.4651 -1.5298
 5807SOL    HW228884   3.026   1.106  12.694 -3.5161  0.0808 -0.4592
 5808SOL     OW28885   1.762   4.556   6.685  0.1613 -0.3458 -0.1038
 5808SOL    HW128886   1.687   4.517   6.729 -1.5681  3.5366  0.3653
 5808SOL    HW228887   1.737   4.647   6.672  1.3869 -0.0425 -0.3181
 5809SOL     OW28888   2.150   4.322  13.459  0.3438  0.4109  0.4287
 5809SOL    HW128889   2.130   4.386  13.527  2.4834  0.2592  1.1836
 5809SOL    HW228890   2.196   4.372  13.392 -1.1486  1.7581  0.4189
 5810SOL     OW28891   3.532   2.244   6.075 -0.1340 -0.0536 -0.1120
 5810SOL    HW128892   3.494   2.299   6.006 -2.1132 -1.1269  0.1296
 5810SOL    HW228893   3.612   2.206   6.038  0.8404  0.9864  0.9364
 5811SOL     OW28894   2.787   1.696   4.939 -0.2084  0.0618  0.0604
 5811SOL    HW128895   2.710   1.638   4.932  0.6829 -1.1977  0.6997
 5811SOL    HW228896   2.854   1.638   4.974 -0.2335 -0.5155 -0.8174
 5812SOL     OW28897   1.224   3.340   0.815 -0.0857 -0.1632  0.1305
 5812SOL    HW128898   1.264   3.387   0.741 -0.8455  2.4735  1.3846
 5812SOL    HW228899   1.156   3.294   0.766  0.4520  0.8696 -1.6221
 5813SOL     OW28900   2.152   0.519   1.634  0.3702 -0.0669 -0.3542
 5813SOL    HW128901   2.157   0.537   1.540  1.2938 -1.7703 -0.6191
 5813SOL    HW228902   2.093   0.444   1.642  1.4701 -1.1583 -2.4716
 5814SOL     OW28903   1.193   2.237   7.238 -0.5936  0.2001  0.3264
 5814SOL    HW128904   1.178   2.209   7.328 -2.3238  0.3710  0.1012
 5814SOL    HW228905   1.104   2.252   7.204  0.0628  0.1801 -1.3782
 5815SOL     OW28906   2.218   2.872   4.236  0.2012  0.0170  0.5390
 5815SOL    HW128907   2.153   2.802   4.239  1.5837 -1.2545  0.9440
 5815SOL    HW228908   2.185   2.924   4.163  0.1916  3.4763  2.9924
 5816SOL     OW28909   0.460   1.672   7.741 -0.1036 -0.2051 -0.0887
 5816SOL    HW128910   0.532   1.732   7.756 -1.7117  1.0514  2.6988
 5816SOL    HW228911   0.484   1.641   7.654 -1.0517  0.4521 -0.5809
 5817SOL     OW28912   2.968   2.138   6.210 -0.2011 -0.4730 -0.0885
 5817SOL    HW128913   2.892   2.084   6.190 -0.4310 -0.2309  0.1240
 5817SOL    HW228914   3.045   2.083   6.195 -1.1752 -1.2627 -2.2506
 5818SOL     OW28915   0.836   3.575   2.940 -0.6105 -0.2662 -0.0811
 5818SOL    HW128916   0.883   3.526   3.007 -1.5206 -1.6730 -0.4651
 5818SOL    HW228917   0.786   3.635   2.995  1.4410  1.4260 -0.0614
 5819SOL     OW28918   0.808   3.485   8.633  0.0511  0.0229  0.1876
 5819SOL    HW128919   0.729   3.539   8.631 -1.6519 -2.4957 -1.2059
 5819SOL    HW228920   0.783   3.411   8.688 -0.9669  0.3121  0.1022
 5820SOL     OW28921   1.902   2.642  14.997  0.5040 -0.0179 -0.6383
 5820SOL    HW128922   1.889   2.714  15.059 -2.0420 -0.6064 -0.4631
 5820SOL    HW228923   1.864   2.684  14.919 -0.3613  2.1005  0.9196
 5821SOL     OW28924   3.059   1.643  12.573 -0.1573 -0.7802 -0.2629
 5821SOL    HW128925   2.998   1.570  12.563  0.4548 -1.1151 -1.5529
 5821SOL    HW228926   3.001   1.700  12.623  0.4935  0.6491 -1.1183
 5822SOL     OW28927   0.956   0.075   6.161 -0.1365 -0.6345 -0.1229
 5822SOL    HW128928   0.877   0.033   6.194  0.3959 -1.9109 -0.5011
 5822SOL    HW228929   0.953   0.056   6.067  3.2610 -0.1046 -0.3321
 5823SOL     OW28930   2.160   3.970   3.994 -0.1112  0.0022  0.1135
 5823SOL    HW128931   2.124   4.049   3.953 -1.4230 -1.1086 -0.8781
 5823SOL    HW228932   2.248   3.961   3.957 -0.0731 -0.1491  0.2393
 5824SOL     OW28933   4.703   3.726   2.323  0.6428  0.0975 -0.8380
 5824SOL    HW128934   4.681   3.796   2.260 -1.0577 -0.2571 -0.6470
 5824SOL    HW228935   4.700   3.653   2.261 -0.9970 -0.1830 -0.4399
 5825SOL     OW28936   2.206   4.643   8.379 -0.4206 -0.1355  0.2632
 5825SOL    HW128937   2.249   4.706   8.320  1.8555 -0.5385  1.4667
 5825SOL    HW228938   2.263   4.650   8.456 -1.5376 -0.6220  1.1265
 5826SOL     OW28939   0.669   2.500  10.665 -0.3590  0.2571  0.2769
 5826SOL    HW128940   0.660   2.535  10.576 -1.8787  1.0427  0.7396
 5826SOL    HW228941   0.669   2.578  10.720 -2.4750 -1.4494  2.7078
 5827SOL     OW28942   3.093   1.048   8.295 -0.6490 -0.3492 -0.0962
 5827SOL    HW128943   3.126   1.065   8.383 -0.2316 -1.5357 -0.0243
 5827SOL    HW228944   3.074   1.139   8.276  2.0753  0.1392 -0.4806
 5828SOL     OW28945   3.411   3.082  13.565  0.1052 -0.7030  0.4367
 5828SOL    HW128946   3.334   3.139  13.554  0.0524 -0.9470 -0.5113
 5828SOL    HW228947   3.466   3.110  13.491  1.0742 -0.1884  1.3546
 5829SOL     OW28948   0.697   3.825   3.635 -0.2754  0.1144 -0.1434
 5829SOL    HW128949   0.653   3.843   3.718 -1.4543  0.4820 -0.8568
 5829SOL    HW228950   0.663   3.895   3.579  0.2303  0.8776  0.5014
 5830SOL     OW28951   3.620   1.916   3.304 -0.4135 -0.1420  0.2445
 5830SOL    HW128952   3.696   1.970   3.283 -0.6242 -0.3908 -1.1243
 5830SOL    HW228953   3.646   1.832   3.267 -0.8213 -0.0797 -0.1803
 5831SOL     OW28954   4.237   2.591   1.115  0.3325  0.0274 -0.2850
 5831SOL    HW128955   4.331   2.587   1.133  0.8283 -1.6382 -3.4036
 5831SOL    HW228956   4.235   2.647   1.038  2.8400  0.0714 -0.3159
 5832SOL     OW28957   4.156   2.952   3.184  0.1813 -0.0037  0.2232
 5832SOL    HW128958   4.211   3.008   3.239  0.6975 -0.6756  0.3898
 5832SOL    HW228959   4.164   2.992   3.097 -2.3778  0.2103  0.0977
 5833SOL     OW28960   2.763   3.470   7.196 -0.1098 -0.5198 -0.0383
 5833SOL    HW128961   2.685   3.452   7.142 -0.2641 -0.6711  0.2351
 5833SOL    HW228962   2.833   3.469   7.130  1.6405  0.3774  1.8234
 5834SOL     OW28963   1.664   1.579   2.897  0.0124  0.4192 -0.0544
 5834SOL    HW128964   1.754   1.585   2.928 -0.7957  0.4576  2.2373
 5834SOL    HW228965   1.665   1.608   2.806 -0.9300  0.7243  0.0391
 5835SOL     OW28966   4.084   0.043   5.757 -0.0265  0.4682 -0.1094
 5835SOL    HW128967   4.011   0.052   5.817  0.8869  2.4095  0.7137
 5835SOL    HW228968   4.144   0.114   5.781  0.5774  0.2284 -0.8751
 5836SOL     OW28969   4.271   1.894   4.288  0.1208  0.0638 -0.2371
 5836SOL    HW128970   4.346   1.875   4.230 -1.4825 -0.6504 -2.0780
 5836SOL    HW228971   4.323   1.892   4.368 -0.7973 -0.2871  0.3487
 5837SOL     OW28972   1.373   3.046   3.582  0.1978 -0.1187  0.3412
 5837SOL    HW128973   1.426   3.108   3.633 -1.6416  0.5134  1.5087
 5837SOL    HW228974   1.285   3.055   3.619 -0.1077  0.3303 -0.5081
 5838SOL     OW28975   2.897   3.071   4.844 -0.2943  0.0829 -0.1939
 5838SOL    HW128976   2.957   3.101   4.776 -1.6067 -0.9551 -1.7778
 5838SOL    HW228977   2.898   3.151   4.897 -1.6988  0.7205 -1.1660
 5839SOL     OW28978   2.732   1.570   4.384  0.2834  0.1953 -0.1935
 5839SOL    HW128979   2.756   1.512   4.312  0.4604  1.8650 -1.4951
 5839SOL    HW228980   2.657   1.522   4.419  2.0460  0.5609  4.0408
 5840SOL     OW28981   0.701   1.533   4.867 -0.1162 -0.6492  0.1906
 5840SOL    HW128982   0.769   1.468   4.849 -0.5375 -0.7880 -0.9026
 5840SOL    HW228983   0.760   1.608   4.875  0.3575 -1.2919  2.6348
 5841SOL     OW28984   2.309   1.860   7.337 -0.2297 -0.0760 -0.4453
 5841SOL    HW128985   2.276   1.787   7.284 -1.4015  0.5794 -0.6142
 5841SOL    HW228986   2.233   1.916   7.325 -0.0091  0.1234 -0.9034
 5842SOL     OW28987   0.032   1.298  16.568  0.2490  0.4118 -0.7555
 5842SOL    HW128988   4.716   1.296  16.657  0.5712 -0.5280 -0.6467
 5842SOL    HW228989   4.676   1.257  16.528 -0.5918 -1.2355  2.5026
 5843SOL     OW28990   2.142   3.848  14.601 -0.5114  0.1011 -0.2954
 5843SOL    HW128991   2.201   3.876  14.671 -1.6649 -2.5964  1.7757
 5843SOL    HW228992   2.195   3.895  14.536  3.0854 -2.6859  0.5639
 5844SOL     OW28993   0.447   2.333   4.912 -0.2969  0.1740 -0.2641
 5844SOL    HW128994   0.358   2.350   4.945  0.9236  1.3512  2.4554
 5844SOL    HW228995   0.489   2.411   4.949 -0.2265  0.3948 -0.8069
 5845SOL     OW28996   3.698   3.815  11.481 -0.0985  0.3116  0.0615
 5845SOL    HW128997   3.774   3.873  11.472  0.3940 -0.4198 -0.5017
 5845SOL    HW228998   3.631   3.860  11.429  0.7801 -0.8794 -2.1101
 5846SOL     OW28999   1.925   2.327   7.439 -0.3776 -0.3279 -0.2884
 5846SOL    HW129000   1.921   2.341   7.345  0.4254  1.5307 -0.0508
 5846SOL    HW229001   1.938   2.420   7.462  1.2222 -0.0417 -2.3789
 5847SOL     OW29002   1.350   2.088   8.393  0.3455 -0.2075 -0.2787
 5847SOL    HW129003   1.261   2.095   8.357  0.7417  0.8033 -1.0569
 5847SOL    HW229004   1.348   2.112   8.485  2.6814 -3.9745  0.7555
 5848SOL     OW29005   1.259   0.254   2.222 -0.0550 -0.5555  0.7109
 5848SOL    HW129006   1.291   0.314   2.155  0.6255 -2.4708 -0.6988
 5848SOL    HW229007   1.313   0.268   2.299  3.2545 -0.1994 -1.6848
 5849SOL     OW29008   0.210   1.308   2.273  0.1243  0.1833  0.1013
 5849SOL    HW129009   0.204   1.266   2.187 -0.5305  0.3139  0.0859
 5849SOL    HW229010   0.248   1.244   2.333 -1.3760 -0.2243  0.5959
 5850SOL     OW29011   3.331   1.711   4.573  0.6700 -0.1922 -0.0308
 5850SOL    HW129012   3.286   1.669   4.500  0.9252  0.0125 -0.3031
 5850SOL    HW229013   3.264   1.684   4.637  0.7741 -1.3038 -0.3783
 5851SOL     OW29014   0.544   2.878   1.171  0.3733 -0.1610  0.8226
 5851SOL    HW129015   0.574   2.958   1.215 -2.9691  1.8898 -0.6118
 5851SOL    HW229016   0.514   2.833   1.250 -2.5718  3.7713  1.9559
 5852SOL     OW29017   3.490   2.030   9.001 -0.4336 -0.2897 -0.4267
 5852SOL    HW129018   3.454   2.119   9.006  1.5362  0.3981  1.5652
 5852SOL    HW229019   3.524   2.031   9.091  0.6180  2.1117 -0.8494
 5853SOL     OW29020   2.392   1.704  13.424 -0.7944 -0.0516 -0.3567
 5853SOL    HW129021   2.402   1.623  13.473  1.4918  1.1599  1.1921
 5853SOL    HW229022   2.301   1.728  13.440 -0.2547  0.7197  1.5570
 5854SOL     OW29023   0.777   0.442   5.796  0.2208 -0.0196  0.1796
 5854SOL    HW129024   0.808   0.505   5.731  1.2276 -0.9947 -0.2948
 5854SOL    HW229025   0.780   0.359   5.749  0.8035  0.6727 -0.9914
 5855SOL     OW29026   1.701   4.333   6.933  0.3412  0.4743 -0.3452
 5855SOL    HW129027   1.632   4.325   6.867 -0.8338 -2.7535  1.3250
 5855SOL    HW229028   1.691   4.253   6.984  2.0477 -0.3445 -1.3176
 5856SOL     OW29029   0.950   4.393   9.501 -0.3677  0.6239 -0.2193
 5856SOL    HW129030   0.958   4.298   9.499  0.5496  0.7269 -1.5527
 5856SOL    HW229031   0.868   4.393   9.550 -1.4518 -2.2886 -2.0109
 5857SOL     OW29032   1.472   0.260   4.381  0.0814 -0.3486 -0.6589
 5857SOL    HW129033   1.524   0.339   4.369 -0.7394  0.2611 -0.1683
 5857SOL    HW229034   1.474   0.211   4.299 -3.3419 -0.9860 -0.3535
 5858SOL     OW29035   1.755   0.484   4.856  0.1578 -0.4486 -0.1226
 5858SOL    HW129036   1.723   0.527   4.777 -0.7885 -0.2948  0.3478
 5858SOL    HW229037   1.791   0.405   4.815 -0.3784 -0.9719  0.4091
 5859SOL     OW29038   0.123   2.647   6.697 -0.4187  0.2844 -0.8080
 5859SOL    HW129039   0.199   2.643   6.639 -1.4843  0.7554 -2.2592
 5859SOL    HW229040   0.089   2.732   6.667 -1.1236  0.4430  0.4742
 5860SOL     OW29041   0.911   4.330   2.466  0.4170  0.0101 -0.5441
 5860SOL    HW129042   0.982   4.368   2.414  1.5932 -0.9209  0.3885
 5860SOL    HW229043   0.960   4.252   2.491 -0.6840 -0.6444 -0.4264
 5861SOL     OW29044   4.104   3.189   7.106  0.1993  0.2593  0.0681
 5861SOL    HW129045   4.045   3.116   7.090 -1.4313  1.3849  1.0021
 5861SOL    HW229046   4.191   3.150   7.118 -0.2376 -0.7730 -0.0627
 5862SOL     OW29047   4.718   3.244  13.457  0.1986 -0.6036 -0.0157
 5862SOL    HW129048   4.709   3.217  13.548 -4.3813  0.1615 -0.2698
 5862SOL    HW229049   0.093   3.257  13.448  0.3240 -0.2562  1.9918
 5863SOL     OW29050   3.703   0.904  12.882  0.4355  0.5579  0.5227
 5863SOL    HW129051   3.774   0.929  12.823 -0.0962 -0.7728 -0.6805
 5863SOL    HW229052   3.644   0.979  12.875 -0.8040 -0.6840 -2.4488
 5864SOL     OW29053   1.587   4.534   5.868  0.6790 -0.0330 -0.4707
 5864SOL    HW129054   1.539   4.617   5.872 -1.4575 -1.3007  0.7229
 5864SOL    HW229055   1.519   4.479   5.907 -0.3160 -0.0044 -2.1545
 5865SOL     OW29056   3.051   4.358   5.430  0.0206  0.4334 -0.4051
 5865SOL    HW129057   3.081   4.448   5.421 -1.2921  0.9239  0.1513
 5865SOL    HW229058   2.979   4.357   5.367  0.0897  0.2409 -0.4817
 5866SOL     OW29059   1.476   2.483   8.196 -0.4493 -0.0716  0.4504
 5866SOL    HW129060   1.399   2.455   8.246 -0.8231  0.5149  0.2131
 5866SOL    HW229061   1.481   2.571   8.234  0.4268  0.0853 -0.0406
 5867SOL     OW29062   3.129   2.467   4.659 -0.1966  0.7794 -0.0559
 5867SOL    HW129063   3.213   2.439   4.695 -0.7358 -1.0136 -0.1969
 5867SOL    HW229064   3.101   2.384   4.621  3.1885 -0.2846 -0.2474
 5868SOL     OW29065   4.537   3.309  10.904  0.1889 -0.0993  0.2116
 5868SOL    HW129066   4.490   3.254  10.966  2.0347 -1.0563  0.7534
 5868SOL    HW229067   4.495   3.292  10.820  0.5745 -0.4507  0.0937
 5869SOL     OW29068   1.558   3.912   4.766  0.1942 -0.5500 -0.1471
 5869SOL    HW129069   1.492   3.858   4.809 -1.6595  2.2928  0.5667
 5869SOL    HW229070   1.558   3.994   4.815 -0.5509  0.0703 -1.1660
 5870SOL     OW29071   3.382   2.029  12.515 -0.3387  0.2260 -0.5624
 5870SOL    HW129072   3.337   2.107  12.481 -0.4366 -0.0242 -1.0083
 5870SOL    HW229073   3.465   2.045  12.471  0.1489 -1.2313 -0.1669
 5871SOL     OW29074   4.694   2.523   3.307  0.0907 -0.6421 -0.2844
 5871SOL    HW129075   0.002   2.602   3.261 -1.0018  0.7089  1.3569
 5871SOL    HW229076   4.615   2.494   3.261 -0.2026  0.4811 -0.4993
 5872SOL     OW29077   2.752   2.615   4.757  0.8921  0.3479 -0.5078
 5872SOL    HW129078   2.725   2.700   4.723 -0.2163 -0.3603 -1.4078
 5872SOL    HW229079   2.728   2.619   4.850  0.3181  0.4610 -0.6579
 5873SOL     OW29080   4.440   1.149   3.677  0.3300  0.0644  0.1252
 5873SOL    HW129081   4.439   1.054   3.686  1.4966 -0.1682 -2.3403
 5873SOL    HW229082   4.361   1.183   3.721  0.1791  0.9760 -0.8521
 5874SOL     OW29083   4.155   0.801  17.649 -0.4634  0.4227  0.6244
 5874SOL    HW129084   4.105   0.825  17.571  0.2806  1.0285  0.3355
 5874SOL    HW229085   4.106   0.846   0.036  0.0955 -1.0306  1.9914
 5875SOL     OW29086   1.505   2.833   0.640  0.0383 -0.4423 -0.4449
 5875SOL    HW129087   1.525   2.805   0.551  1.6858  0.0806 -0.2448
 5875SOL    HW229088   1.449   2.763   0.673 -0.3482 -0.3647 -0.9420
 5876SOL     OW29089   4.167   0.553   3.362  0.2387  0.4247 -0.2338
 5876SOL    HW129090   4.202   0.491   3.298 -2.4562 -2.0779  0.7125
 5876SOL    HW229091   4.167   0.498   3.440  2.0525  1.5114  0.5342
 5877SOL     OW29092   3.780   2.149   2.415 -0.0641 -0.0131 -0.0370
 5877SOL    HW129093   3.841   2.076   2.421  4.0877  3.3643 -0.4458
 5877SOL    HW229094   3.721   2.120   2.484  0.4219 -1.0435 -0.0531
 5878SOL     OW29095   1.601   0.327  15.324  0.2872 -0.0133 -0.6285
 5878SOL    HW129096   1.554   0.274  15.260 -1.5714  2.9359 -1.6784
 5878SOL    HW229097   1.670   0.275  15.365 -1.3580  0.9823  3.4091
 5879SOL     OW29098   0.460   1.536  16.816  0.5863 -0.2431 -0.1570
 5879SOL    HW129099   0.474   1.547  16.910 -0.1512 -0.2518 -0.0485
 5879SOL    HW229100   0.496   1.616  16.778  2.0575 -0.5338  0.6409
 5880SOL     OW29101   1.750   2.674   0.561 -0.2015 -0.3845  0.1306
 5880SOL    HW129102   1.703   2.606   0.611 -0.0856 -1.0340 -0.6352
 5880SOL    HW229103   1.775   2.741   0.624  0.0721  1.0462 -1.5098
 5881SOL     OW29104   3.788   4.504  16.025  0.7754 -0.1749 -0.8220
 5881SOL    HW129105   3.693   4.495  16.034  0.8726  0.1165  0.5397
 5881SOL    HW229106   3.815   4.542  16.109 -1.4726  1.0242 -0.6469
 5882SOL     OW29107   2.523   0.058   9.073 -0.0966 -0.1766 -0.3843
 5882SOL    HW129108   2.500   0.150   9.062  4.0430  0.7166 -1.4222
 5882SOL    HW229109   2.605   0.050   9.025  1.5689  1.7437  2.1160
 5883SOL     OW29110   1.374   0.632  10.847  0.2586 -0.0935  0.6969
 5883SOL    HW129111   1.302   0.693  10.829 -0.4687 -1.7242 -1.8199
 5883SOL    HW229112   1.387   0.618  10.941 -0.3531 -0.4801  0.7237
 5884SOL     OW29113   1.213   3.249  12.295  0.1648  0.6309 -0.4213
 5884SOL    HW129114   1.228   3.342  12.312  2.2355  0.7231 -2.6705
 5884SOL    HW229115   1.303   3.231  12.268 -1.0431  0.6706 -4.6075
 5885SOL     OW29116   0.648   0.923   0.576  0.0680 -0.6310  0.2891
 5885SOL    HW129117   0.632   0.831   0.599  0.0614 -0.8759 -0.7076
 5885SOL    HW229118   0.694   0.909   0.494  0.7217  1.2764  0.3334
 5886SOL     OW29119   3.152   4.514   6.579  0.2052 -0.1835 -0.0082
 5886SOL    HW129120   3.142   4.514   6.484  1.0781  0.0808 -0.0988
 5886SOL    HW229121   3.225   4.453   6.583 -0.5692 -1.2340 -1.7095
 5887SOL     OW29122   3.858   2.056   5.445 -0.4410 -0.1859 -0.0324
 5887SOL    HW129123   3.896   1.981   5.490  0.3805 -0.3214 -0.9264
 5887SOL    HW229124   3.875   2.124   5.510  2.0231  1.2032 -2.1184
 5888SOL     OW29125   4.478   3.349   6.728  0.6814  0.3532  0.2564
 5888SOL    HW129126   4.423   3.412   6.775 -0.0195 -0.5955  0.7229
 5888SOL    HW229127   4.454   3.358   6.636  0.5362  2.2359  0.4794
 5889SOL     OW29128   2.319   0.332   6.226  0.6024  0.0917 -0.0100
 5889SOL    HW129129   2.357   0.263   6.280 -3.7480 -0.9248  1.7298
 5889SOL    HW229130   2.363   0.311   6.144 -0.4208 -1.4441 -0.1503
 5890SOL     OW29131   0.727   4.194   4.181 -0.2035 -0.2010 -0.1746
 5890SOL    HW129132   0.738   4.220   4.090  2.1724 -1.5216 -0.2559
 5890SOL    HW229133   0.646   4.230   4.216  0.6796  1.7528 -0.1675
 5891SOL     OW29134   1.343   1.433  15.989 -0.3162  0.1002  0.2920
 5891SOL    HW129135   1.267   1.399  15.943  0.0853  0.1465 -0.4070
 5891SOL    HW229136   1.416   1.439  15.927 -1.4425 -2.5286 -1.2523
 5892SOL     OW29137   2.231   0.490  17.139  0.4954 -0.0566  0.0780
 5892SOL    HW129138   2.309   0.503  17.194  0.1845  0.8134  0.3202
 5892SOL    HW229139   2.171   0.437  17.191 -0.3379 -0.7239 -1.5477
 5893SOL     OW29140   3.523   1.599   6.653  1.0522 -0.2427  0.2150
 5893SOL    HW129141   3.515   1.628   6.562 -3.5669  0.0329  0.7014
 5893SOL    HW229142   3.437   1.569   6.681  0.5627  1.5942  0.7010
 5894SOL     OW29143   4.682   4.289   7.337  0.4743  1.0301  0.1865
 5894SOL    HW129144   4.690   4.244   7.421  0.4578  1.8388  0.6260
 5894SOL    HW229145   4.588   4.306   7.337  0.4345  0.8011  1.9049
 5895SOL     OW29146   2.726   1.123   9.157  0.3101 -0.2756 -0.7178
 5895SOL    HW129147   2.659   1.091   9.096 -1.8850  1.6982  0.6550
 5895SOL    HW229148   2.780   1.046   9.175  1.2387  0.8625  1.3561
 5896SOL     OW29149   1.977   4.563   6.404  0.2502  0.3472 -0.1617
 5896SOL    HW129150   1.921   4.599   6.472 -0.6080  0.6728 -1.0513
 5896SOL    HW229151   2.037   4.513   6.460 -0.5386  0.1511  0.5135
 5897SOL     OW29152   0.431   0.550   6.258 -0.1188 -0.1865  0.5507
 5897SOL    HW129153   0.465   0.464   6.236 -1.1097  0.1180 -2.1865
 5897SOL    HW229154   0.505   0.611   6.255 -1.2447  1.1734  0.1960
 5898SOL     OW29155   3.914   3.795   6.967  0.2127 -0.1771  0.0789
 5898SOL    HW129156   3.863   3.731   6.918  1.0854 -1.0599  0.3431
 5898SOL    HW229157   3.859   3.873   6.963  0.3269 -0.0365  1.3516
 5899SOL     OW29158   1.003   0.301   1.443  0.0657  0.3715 -1.0439
 5899SOL    HW129159   0.989   0.207   1.443 -0.3385  0.4286  1.4154
 5899SOL    HW229160   1.090   0.309   1.483  0.1842 -2.3872 -0.7670
 5900SOL     OW29161   4.251   2.927  10.913  0.3248 -0.4904 -0.7641
 5900SOL    HW129162   4.279   2.871  10.840  1.4044 -0.0712 -0.6719
 5900SOL    HW229163   4.185   2.978  10.867  0.5915 -1.3658 -2.1087
 5901SOL     OW29164   4.645   2.563   7.217 -0.1324  0.3659 -0.0593
 5901SOL    HW129165   4.598   2.621   7.157  0.0531 -3.1565 -3.6244
 5901SOL    HW229166   4.657   2.618   7.294  1.5454  0.4528 -0.3851
 5902SOL     OW29167   4.237   0.046  15.182  0.1303  0.1540  0.3568
 5902SOL    HW129168   4.229   4.704  15.254  2.1000 -0.5834 -0.0473
 5902SOL    HW229169   4.259   4.697  15.119 -0.2315  0.1411  0.2416
 5903SOL     OW29170   0.938   3.821   7.959  0.2019  0.4731  0.8648
 5903SOL    HW129171   0.859   3.795   7.910  0.3941  2.5411 -0.5316
 5903SOL    HW229172   0.942   3.735   8.002  0.2052 -0.2301 -0.5307
 5904SOL     OW29173   1.380   1.268   2.662  0.3722  0.2078  0.2434
 5904SOL    HW129174   1.352   1.267   2.754 -1.2262  1.5922 -0.2415
 5904SOL    HW229175   1.346   1.355   2.642  1.9454  0.4306 -1.3609
 5905SOL     OW29176   0.339   1.609   4.746  0.0418  0.2413  0.1423
 5905SOL    HW129177   0.400   1.543   4.712  1.1051  0.1796  2.2386
 5905SOL    HW229178   0.260   1.556   4.760  1.3452 -1.4361  1.1090
 5906SOL     OW29179   4.106   1.629   3.023 -0.3863  0.1685  0.5831
 5906SOL    HW129180   4.012   1.608   3.022 -0.3572  0.1081 -1.7046
 5906SOL    HW229181   4.138   1.547   2.985  1.5592  0.8806  0.6955
 5907SOL     OW29182   3.227   2.523   7.680  0.0682  0.2214 -0.4417
 5907SOL    HW129183   3.206   2.580   7.754  1.3954 -0.2738  0.3336
 5907SOL    HW229184   3.289   2.468   7.728 -0.6354 -1.2896 -1.2617
 5908SOL     OW29185   2.231   3.007  12.876  0.2681  0.4268 -0.6285
 5908SOL    HW129186   2.306   3.006  12.936 -0.3878 -0.3337  0.1865
 5908SOL    HW229187   2.286   3.027  12.800 -0.0546 -0.8868 -1.2082
 5909SOL     OW29188   3.757   3.166  16.028  0.2391 -0.3312  0.1002
 5909SOL    HW129189   3.825   3.229  16.053 -2.0006  3.4459 -3.2403
 5909SOL    HW229190   3.701   3.174  16.106 -0.2566 -0.4201 -0.2438
 5910SOL     OW29191   0.126   1.350   4.324  0.1533  0.3037  0.5692
 5910SOL    HW129192   0.101   1.306   4.406  2.3599  1.5614  1.9016
 5910SOL    HW229193   0.194   1.411   4.354 -0.6957  1.6934 -0.3187
 5911SOL     OW29194   3.970   4.177   8.702 -0.7414  0.1497 -0.2799
 5911SOL    HW129195   3.929   4.202   8.620 -3.3611  1.1027  1.3091
 5911SOL    HW229196   3.949   4.255   8.753  1.1803  0.6396 -0.2382
 5912SOL     OW29197   2.511   1.734  11.209  0.2027  0.1428 -0.1558
 5912SOL    HW129198   2.435   1.681  11.231  0.1904  0.1172 -0.2609
 5912SOL    HW229199   2.579   1.704  11.269 -0.4010 -0.4622  0.2242
 5913SOL     OW29200   3.153   2.239  13.028 -0.5308 -0.2448  0.2417
 5913SOL    HW129201   3.112   2.318  13.063 -0.7671 -1.3070  2.3429
 5913SOL    HW229202   3.121   2.181  13.097 -1.2689  0.7479  0.7259
 5914SOL     OW29203   4.462   0.045   0.923 -0.6410 -0.4000 -0.1600
 5914SOL    HW129204   4.486   0.048   1.015  0.0240 -0.5878 -0.3268
 5914SOL    HW229205   4.396   0.114   0.922  0.6495  0.8124 -2.0383
 5915SOL     OW29206   1.354   4.402   5.775  0.7896  0.2958  0.3138
 5915SOL    HW129207   1.273   4.366   5.737  1.2809 -1.0392  0.5304
 5915SOL    HW229208   1.365   4.490   5.740  0.7442 -0.5405 -1.7654
 5916SOL     OW29209   4.404   0.449   2.687 -0.3713 -0.2408  0.5813
 5916SOL    HW129210   4.318   0.431   2.723 -1.2587  1.8525 -0.5016
 5916SOL    HW229211   4.446   0.516   2.741 -0.0364  1.9694 -2.3799
 5917SOL     OW29212   0.975   3.039  17.563  0.0977  0.2277 -0.1263
 5917SOL    HW129213   1.011   2.990  17.489 -0.9683  0.6421 -0.9303
 5917SOL    HW229214   1.017   3.124  17.549  3.1151 -1.3397 -0.7092
 5918SOL     OW29215   1.698   0.829   7.448 -0.6680  0.1726 -0.3118
 5918SOL    HW129216   1.638   0.787   7.511  0.3776 -2.0941 -0.8355
 5918SOL    HW229217   1.733   0.754   7.401  1.3417 -1.3405  3.5440
 5919SOL     OW29218   2.044   3.434   1.672 -0.3428  0.1701 -0.1508
 5919SOL    HW129219   2.041   3.497   1.600  1.5866  0.4016 -0.0251
 5919SOL    HW229220   2.125   3.389   1.649 -0.3409 -0.2100  0.6128
 5920SOL     OW29221   1.943   2.470   3.828 -0.3147  0.3106  0.1396
 5920SOL    HW129222   1.990   2.390   3.852 -0.4395  0.4421  0.8083
 5920SOL    HW229223   1.954   2.459   3.733  0.0172  0.1249  0.1997
 5921SOL     OW29224   3.280   0.728  14.456  0.2586  0.3199  0.1450
 5921SOL    HW129225   3.238   0.646  14.478  0.3644  0.2858  0.2208
 5921SOL    HW229226   3.232   0.751  14.377 -2.0221 -0.9784  1.1726
 5922SOL     OW29227   2.417   0.683  10.265  0.4053 -0.0011 -0.0866
 5922SOL    HW129228   2.330   0.669  10.227 -0.4988 -0.7162  2.2889
 5922SOL    HW229229   2.412   0.623  10.339 -0.8423 -0.0641 -0.2099
 5923SOL     OW29230   4.148   1.718   5.351 -0.5042 -0.0561 -0.4424
 5923SOL    HW129231   4.105   1.762   5.425 -0.3199  2.6469 -1.9538
 5923SOL    HW229232   4.183   1.793   5.304  1.0950 -0.6117 -0.1301
 5924SOL     OW29233   4.221   0.134  12.043 -0.0832 -0.2953  0.0598
 5924SOL    HW129234   4.299   0.130  12.098 -1.3662  1.4463  1.9777
 5924SOL    HW229235   4.234   0.069  11.974  1.4144  0.8493 -0.7544
 5925SOL     OW29236   2.936   3.185   7.800 -0.4343  0.8153 -0.9783
 5925SOL    HW129237   3.028   3.212   7.805 -0.3892  0.1950  1.7548
 5925SOL    HW229238   2.903   3.211   7.886  0.4395 -1.0284 -0.0822
 5926SOL     OW29239   3.630   2.218  12.021  0.6533  0.2582 -0.2274
 5926SOL    HW129240   3.707   2.185  11.976  0.0796 -2.3408  0.6818
 5926SOL    HW229241   3.657   2.309  12.018 -0.5951  0.5034 -3.5850
 5927SOL     OW29242   1.570   1.906   1.798 -0.0493 -0.0229  0.2300
 5927SOL    HW129243   1.656   1.932   1.832 -0.3398 -1.5039  2.0572
 5927SOL    HW229244   1.563   1.820   1.838 -0.0625 -1.2895 -2.5422
 5928SOL     OW29245   3.524   1.069  16.933  0.3803  0.1317 -0.6243
 5928SOL    HW129246   3.566   0.998  16.982  0.9980  1.2175  0.4287
 5928SOL    HW229247   3.553   1.147  16.982  0.0095  0.6815 -1.2901
 5929SOL     OW29248   0.264   2.940   1.100  0.0939 -0.5454 -0.1585
 5929SOL    HW129249   0.229   2.876   1.038 -2.0810  1.0553 -0.6079
 5929SOL    HW229250   0.337   2.891   1.135  1.0434  0.8453 -0.2006
 5930SOL     OW29251   0.316   4.022   5.252 -0.0488 -0.0157 -0.2113
 5930SOL    HW129252   0.337   3.930   5.265  1.4165  0.3352 -0.0951
 5930SOL    HW229253   0.228   4.029   5.214 -0.2237  1.2031  0.4062
 5931SOL     OW29254   3.998   4.718   8.861  0.2893 -0.2200 -0.0477
 5931SOL    HW129255   4.026   0.083   8.895  0.2559 -0.8110  1.4595
 5931SOL    HW229256   4.075   4.685   8.816  0.2462 -2.4207  1.4584
 5932SOL     OW29257   0.914   1.252   1.738 -0.0057  0.0387  0.3001
 5932SOL    HW129258   1.006   1.271   1.757 -0.5766  1.2160  1.8433
 5932SOL    HW229259   0.899   1.325   1.679  2.2604 -0.5799 -1.0253
 5933SOL     OW29260   2.839   0.902   4.948  0.4667 -0.0517 -0.4291
 5933SOL    HW129261   2.917   0.954   4.965  0.4189  0.0757 -0.5962
 5933SOL    HW229262   2.781   0.946   5.011 -0.0977  0.1282 -1.0718
 5934SOL     OW29263   0.767   1.881   7.128 -0.0610 -0.1576  1.0978
 5934SOL    HW129264   0.795   1.789   7.138 -2.1017 -0.7851  0.9357
 5934SOL    HW229265   0.768   1.901   7.222  1.4403  0.4781  0.9549
 5935SOL     OW29266   1.906   0.098   3.737 -0.0604  0.8705  0.2683
 5935SOL    HW129267   1.888   0.014   3.780 -0.6569  0.8542 -0.0170
 5935SOL    HW229268   1.999   0.095   3.715 -0.8464 -0.2979 -2.8623
 5936SOL     OW29269   2.383   4.248  13.864 -0.3369  0.2422  0.2267
 5936SOL    HW129270   2.412   4.178  13.923  0.3586  0.1329 -0.2508
 5936SOL    HW229271   2.296   4.226  13.832 -0.9593  2.8092  0.2015
 5937SOL     OW29272   3.254   2.024  15.937  0.2315  0.5136 -0.1389
 5937SOL    HW129273   3.265   2.010  15.843  0.4764  0.7148 -0.1398
 5937SOL    HW229274   3.224   1.937  15.965  1.9585  0.0040  0.1528
 5938SOL     OW29275   1.896   0.418   2.978 -0.4660 -0.6093  0.2149
 5938SOL    HW129276   1.978   0.455   2.946 -2.0081 -0.4811 -3.6271
 5938SOL    HW229277   1.847   0.418   2.895  0.4566  0.0642 -0.3296
 5939SOL     OW29278   0.138   1.951   8.621  0.0649 -0.8184  0.5178
 5939SOL    HW129279   0.116   2.043   8.638  1.7213 -0.2709 -0.3076
 5939SOL    HW229280   0.154   1.946   8.527 -1.5534  1.5103  0.1068
 5940SOL     OW29281   0.799   3.022   4.828  0.7438 -0.2823 -0.2266
 5940SOL    HW129282   0.847   2.971   4.894 -0.9181 -2.3149 -0.6129
 5940SOL    HW229283   0.863   3.061   4.768 -0.6866  2.4004 -0.0066
 5941SOL     OW29284   3.124   2.195  15.564 -0.6411 -0.1256 -0.5218
 5941SOL    HW129285   3.043   2.235  15.531 -0.1582  2.1955  1.0930
 5941SOL    HW229286   3.179   2.223  15.492 -0.1779 -0.1438 -0.1725
 5942SOL     OW29287   3.510   1.384   4.357 -0.1417  0.2478  0.6287
 5942SOL    HW129288   3.468   1.448   4.415  2.1609 -1.4831  4.2252
 5942SOL    HW229289   3.468   1.303   4.385  1.9487 -1.3116 -0.7780
 5943SOL     OW29290   0.631   1.483   9.238  0.2587 -0.2510  0.4347
 5943SOL    HW129291   0.726   1.487   9.223  0.3872  0.2114  1.4119
 5943SOL    HW229292   0.608   1.413   9.177  3.3153 -1.3044  0.4809
 5944SOL     OW29293   1.664   2.253   3.968 -0.2489 -0.6040  0.4424
 5944SOL    HW129294   1.687   2.163   3.992  3.3788 -0.2217 -1.6310
 5944SOL    HW229295   1.690   2.316   4.034 -0.3731  0.9695 -0.9983
 5945SOL     OW29296   1.388   0.633  14.637 -0.0590  0.0366 -0.2644
 5945SOL    HW129297   1.402   0.539  14.622 -1.8346 -0.1124 -1.0126
 5945SOL    HW229298   1.457   0.672  14.690 -0.2505  0.3911 -0.2773
 5946SOL     OW29299   3.171   3.453   7.741  0.1917  0.4768  0.0841
 5946SOL    HW129300   3.210   3.530   7.784  3.4718 -0.5199 -1.0910
 5946SOL    HW229301   3.085   3.450   7.782 -1.4383  0.8655 -3.2878
 5947SOL     OW29302   4.171   2.387   2.119 -0.1955 -0.0521  0.0842
 5947SOL    HW129303   4.180   2.321   2.050 -1.8742 -0.0401 -0.1506
 5947SOL    HW229304   4.128   2.341   2.191  2.6548 -0.4377  1.5474
 5948SOL     OW29305   2.584   0.395   6.994 -0.1322 -0.6071 -0.3365
 5948SOL    HW129306   2.631   0.430   6.918  1.4030  0.7503  1.2218
 5948SOL    HW229307   2.599   0.469   7.053  0.3729 -0.3036 -0.8387
 5949SOL     OW29308   4.608   4.182   0.652  0.1964  0.5750  0.1639
 5949SOL    HW129309   4.601   4.091   0.622  0.2310  0.5303  0.2913
 5949SOL    HW229310   4.665   4.161   0.725 -0.0055 -0.3911  0.0558
 5950SOL     OW29311   0.804   2.567   1.084 -0.0863  0.0518 -0.2668
 5950SOL    HW129312   0.722   2.604   1.119 -0.7254  0.5642 -2.2944
 5950SOL    HW229313   0.782   2.489   1.034  0.4873 -1.0069  1.1245
 5951SOL     OW29314   1.496   3.859   3.780 -0.3083  0.0444  0.5887
 5951SOL    HW129315   1.584   3.868   3.816 -0.0176 -0.9932  0.1424
 5951SOL    HW229316   1.504   3.865   3.685 -0.1556 -0.2107  0.5860
 5952SOL     OW29317   3.927   2.763  12.005  0.0486  0.0983  0.3509
 5952SOL    HW129318   3.912   2.834  11.943  0.3193 -0.0706  0.0960
 5952SOL    HW229319   3.840   2.730  12.028  0.8854 -2.2529  0.1439
 5953SOL     OW29320   3.242   0.222   6.606  0.1042  0.1513 -0.4222
 5953SOL    HW129321   3.213   0.181   6.525  0.4788  1.5319 -1.2559
 5953SOL    HW229322   3.266   0.144   6.657  1.9616  1.8264  1.2753
 5954SOL     OW29323   4.455   1.762  14.261  0.3405  0.2848 -0.0315
 5954SOL    HW129324   4.550   1.766  14.272  0.2021 -0.5114  1.3476
 5954SOL    HW229325   4.433   1.671  14.277  1.0536  0.0116 -0.6122
 5955SOL     OW29326   2.314   2.619  17.228 -0.9377 -0.5532 -0.2968
 5955SOL    HW129327   2.395   2.569  17.239 -0.7515 -0.1766  0.0381
 5955SOL    HW229328   2.256   2.563  17.280 -1.7910 -0.7078 -1.4049
 5956SOL     OW29329   3.099   2.835  15.471 -0.0424  0.4283  0.4616
 5956SOL    HW129330   3.101   2.741  15.487  2.9788  0.7495  2.0498
 5956SOL    HW229331   3.025   2.847  15.411  0.9917 -1.8961 -1.2619
 5957SOL     OW29332   2.686   1.129   4.517  0.4059 -0.1481 -0.2867
 5957SOL    HW129333   2.660   1.206   4.569  4.0344  1.2952 -0.5793
 5957SOL    HW229334   2.702   1.059   4.580  0.9472  0.7003  0.5183
 5958SOL     OW29335   4.179   0.717  10.013  0.6190  0.8936 -0.0309
 5958SOL    HW129336   4.125   0.774  10.067  0.5985 -0.7287  1.6525
 5958SOL    HW229337   4.174   0.637  10.065 -0.0210  0.0364 -1.3898
 5959SOL     OW29338   2.879   3.852   3.714 -0.1526  0.4719 -0.3770
 5959SOL    HW129339   2.873   3.770   3.665 -1.4072  0.4630 -0.2122
 5959SOL    HW229340   2.964   3.859   3.756 -0.4746  2.0749  0.0040
 5960SOL     OW29341   0.117   0.019   1.445  0.0162  0.0432  0.0393
 5960SOL    HW129342   0.049   0.054   1.502  1.0272  0.6527  0.8692
 5960SOL    HW229343   0.065   0.030   1.365  1.3244  0.8535 -0.7086
 5961SOL     OW29344   4.276   3.630   8.386 -0.3614 -0.3490  0.4327
 5961SOL    HW129345   4.298   3.604   8.297  0.5638  0.9262  0.3002
 5961SOL    HW229346   4.208   3.564   8.400 -0.4974 -0.1957  0.5046
 5962SOL     OW29347   2.047   1.197   6.798 -0.3939 -0.3648  0.6690
 5962SOL    HW129348   2.140   1.176   6.791 -0.6542 -0.1712 -3.4973
 5962SOL    HW229349   2.051   1.239   6.884  3.5370 -1.1898  0.8673
 5963SOL     OW29350   3.038   1.344   8.323  0.0647  0.1257  0.0829
 5963SOL    HW129351   3.126   1.378   8.333 -0.4324  1.5975 -0.6290
 5963SOL    HW229352   3.029   1.342   8.418 -1.3651  1.5356 -0.0260
 5964SOL     OW29353   3.717   4.334   6.080  0.0166  0.3188  0.0291
 5964SOL    HW129354   3.629   4.302   6.099  1.5073 -4.0292 -0.4815
 5964SOL    HW229355   3.713   4.350   5.985 -0.1765 -2.8596 -0.5042
 5965SOL     OW29356   2.143   1.285   5.256 -0.1798 -0.1427  0.1390
 5965SOL    HW129357   2.080   1.255   5.189  0.1119  0.2970 -0.3312
 5965SOL    HW229358   2.224   1.240   5.232  0.1380  0.3033  0.3911
 5966SOL     OW29359   3.652   3.509   1.479 -0.1271 -0.2502  0.6778
 5966SOL    HW129360   3.678   3.592   1.439 -2.4810 -0.5486 -1.4900
 5966SOL    HW229361   3.603   3.541   1.554  1.4158  4.0137 -0.1188
 5967SOL     OW29362   2.878   3.430  16.806 -0.1086  0.2900  0.2484
 5967SOL    HW129363   2.866   3.434  16.711  3.1297 -1.4536 -0.2518
 5967SOL    HW229364   2.788   3.442  16.837  0.3284 -2.8230  2.6810
 5968SOL     OW29365   3.992   0.623   2.629  0.1879 -0.3581  0.3764
 5968SOL    HW129366   4.049   0.679   2.682  0.6802 -1.6838  1.2537
 5968SOL    HW229367   4.001   0.539   2.674 -2.0313 -1.2695 -0.9201
 5969SOL     OW29368   1.354   2.629   3.407 -0.4326  0.0613  0.2915
 5969SOL    HW129369   1.259   2.635   3.393 -1.0101 -1.1170  3.6510
 5969SOL    HW229370   1.361   2.605   3.499 -1.1109  2.0789  0.8692
 5970SOL     OW29371   2.512   1.702   6.473 -0.3052 -0.2934 -0.1584
 5970SOL    HW129372   2.503   1.625   6.416 -2.4175 -0.2685  0.1193
 5970SOL    HW229373   2.466   1.775   6.430 -1.2072 -0.9874 -0.3803
 5971SOL     OW29374   0.515   2.272   8.239  0.2256 -0.2311  0.1752
 5971SOL    HW129375   0.453   2.340   8.212 -0.7723 -0.9525  0.6402
 5971SOL    HW229376   0.460   2.206   8.197  0.5730  0.3078 -1.1431
 5972SOL     OW29377   4.228   0.381   2.253 -0.2193 -0.6320  0.2793
 5972SOL    HW129378   4.254   0.311   2.312  1.9823  0.3754  0.5216
 5972SOL    HW229379   4.149   0.340   2.218 -0.9342  0.6589  0.3563
 5973SOL     OW29380   1.281   1.777   8.992 -0.8877 -0.2825 -0.2798
 5973SOL    HW129381   1.271   1.722   8.915 -1.9556 -1.8528  0.9956
 5973SOL    HW229382   1.204   1.751   9.043 -0.9651  0.5017  0.0055
 5974SOL     OW29383   2.517   1.564   7.272 -0.0754 -0.5148  0.3964
 5974SOL    HW129384   2.540   1.472   7.265  1.5655  0.2214 -3.8957
 5974SOL    HW229385   2.472   1.571   7.188  0.4692  0.9825  0.2224
 5975SOL     OW29386   4.009   3.769  12.226  0.0590  0.4857 -0.0504
 5975SOL    HW129387   4.052   3.691  12.190 -1.1881  0.2201 -0.9542
 5975SOL    HW229388   3.975   3.809  12.146 -2.5477 -1.8317 -0.1231
 5976SOL     OW29389   2.420   4.609   8.069  0.1250 -0.3623  0.1641
 5976SOL    HW129390   2.384   4.681   8.121  1.2284  0.8660 -0.7667
 5976SOL    HW229391   2.481   4.659   8.015 -0.8151 -0.8116 -1.3050
 5977SOL     OW29392   0.436   2.418   0.840 -0.0977  0.5414 -0.0913
 5977SOL    HW129393   0.418   2.511   0.830  2.0178  0.9647  0.1005
 5977SOL    HW229394   0.507   2.415   0.904  0.5243  1.4456 -0.7301
 5978SOL     OW29395   4.575   1.307   1.573 -0.0033 -0.7932 -0.5732
 5978SOL    HW129396   4.499   1.314   1.517  0.0742 -1.3515 -0.7420
 5978SOL    HW229397   4.584   1.397   1.604  1.4676 -0.3906 -2.1636
 5979SOL     OW29398   4.467   4.584  14.917  0.5117 -0.1272  0.3811
 5979SOL    HW129399   4.455   4.508  14.973  1.0733  1.0403  2.0662
 5979SOL    HW229400   4.557   4.562  14.894  0.1220 -0.5828 -0.7055
 5980SOL     OW29401   2.234   3.342   5.125 -0.0647  1.0667 -0.3580
 5980SOL    HW129402   2.216   3.391   5.045  1.1457 -0.2408 -1.4283
 5980SOL    HW229403   2.261   3.413   5.184 -1.2904  2.3779 -1.3944
 5981SOL     OW29404   1.467   2.908   7.538  0.0065 -0.4924  0.2399
 5981SOL    HW129405   1.398   2.916   7.604 -1.7009 -2.8661 -1.2575
 5981SOL    HW229406   1.539   2.876   7.593  0.6824 -1.5999 -1.2733
 5982SOL     OW29407   0.286   0.507   5.616 -0.1891 -0.2059  0.2649
 5982SOL    HW129408   0.319   0.585   5.659  1.6796 -0.0935 -1.3630
 5982SOL    HW229409   0.202   0.538   5.582  0.3019  1.0272  0.1715
 5983SOL     OW29410   2.365   0.713   8.396  0.0986 -0.1626  0.3277
 5983SOL    HW129411   2.458   0.731   8.406  0.5608 -1.1912 -2.0425
 5983SOL    HW229412   2.340   0.671   8.478 -0.3147 -1.1493 -0.3009
 5984SOL     OW29413   2.315   2.457   1.947 -0.1145 -0.1727 -0.2758
 5984SOL    HW129414   2.322   2.497   2.033 -0.7359  3.4581 -1.8921
 5984SOL    HW229415   2.332   2.365   1.964 -0.9309 -0.2223  0.3028
 5985SOL     OW29416   0.684   2.934  17.036  0.4263  0.8974 -0.3449
 5985SOL    HW129417   0.742   2.959  17.108 -0.0852  0.5039  0.1978
 5985SOL    HW229418   0.692   3.003  16.969 -2.8731  0.4539 -1.1925
 5986SOL     OW29419   4.374   4.519   8.234 -0.0420  0.3764  0.0464
 5986SOL    HW129420   4.455   4.488   8.276 -0.0664 -2.8169 -2.3246
 5986SOL    HW229421   4.313   4.510   8.307 -0.5726  1.1196 -0.3038
 5987SOL     OW29422   1.079   4.388   6.538 -0.1858 -0.2695  0.3292
 5987SOL    HW129423   1.008   4.355   6.482  0.8481 -0.1701 -1.0225
 5987SOL    HW229424   1.153   4.353   6.488  0.8937 -1.3944  2.7534
 5988SOL     OW29425   0.472   0.380   8.868 -0.6143 -0.3590 -0.2263
 5988SOL    HW129426   0.563   0.369   8.895 -0.1051  3.4688 -0.3691
 5988SOL    HW229427   0.424   0.391   8.950  0.3617 -0.7554  0.3971
 5989SOL     OW29428   4.108   1.329   4.172  0.3519  0.7143  0.2320
 5989SOL    HW129429   4.158   1.399   4.213  2.1956  0.9369 -2.4193
 5989SOL    HW229430   4.117   1.361   4.082 -1.5312 -2.1555 -0.9853
 5990SOL     OW29431   2.167   0.708   4.891  0.7808  0.2601  0.5020
 5990SOL    HW129432   2.156   0.671   4.979 -0.5017 -1.7539 -0.5102
 5990SOL    HW229433   2.105   0.654   4.842  3.3153 -2.0238 -0.2024
 5991SOL     OW29434   4.466   1.716   1.590  0.2653 -0.3927  0.0342
 5991SOL    HW129435   4.402   1.669   1.537  1.2105 -0.7906 -0.7639
 5991SOL    HW229436   4.425   1.800   1.608 -1.8630 -1.1407 -1.2841
 5992SOL     OW29437   3.884   1.436  13.716 -0.4618 -0.2078 -0.2934
 5992SOL    HW129438   3.891   1.365  13.780 -0.1651 -0.8533 -1.0366
 5992SOL    HW229439   3.795   1.421  13.685 -0.2343  1.2065 -1.6383
 5993SOL     OW29440   1.592   2.989   3.136 -0.0796 -0.0012  0.2338
 5993SOL    HW129441   1.640   3.069   3.119  1.3585 -0.9383 -0.1222
 5993SOL    HW229442   1.508   3.028   3.160 -0.1539 -0.3080  0.4723
 5994SOL     OW29443   0.052   3.824   6.242  0.2432 -0.2662 -0.0802
 5994SOL    HW129444   0.067   3.730   6.235 -3.0626 -0.9674  2.5814
 5994SOL    HW229445   0.050   3.842   6.336 -0.3132  1.1847 -0.3501
 5995SOL     OW29446   0.157   2.086  16.078  0.2062  0.5723  0.2603
 5995SOL    HW129447   0.089   2.082  16.145 -0.4264  1.5185 -0.3370
 5995SOL    HW229448   0.234   2.051  16.125 -1.1321  0.4103  2.3410
 5996SOL     OW29449   3.135   3.600   7.518 -0.0836  0.1055 -0.2475
 5996SOL    HW129450   3.135   3.533   7.450  2.4094 -0.0048 -0.1441
 5996SOL    HW229451   3.119   3.551   7.598  1.5739 -0.1712 -0.0792
 5997SOL     OW29452   1.517   4.571   6.836  0.0916 -0.1579 -0.2209
 5997SOL    HW129453   1.430   4.603   6.861  0.8866  0.2806  2.0478
 5997SOL    HW229454   1.576   4.623   6.891  1.1486 -0.7571 -0.8069
 5998SOL     OW29455   2.271   3.063  14.349  0.2412 -0.2473  0.0985
 5998SOL    HW129456   2.279   3.049  14.255  0.6281  2.8692 -0.3339
 5998SOL    HW229457   2.321   2.992  14.389  0.5354  0.5021  1.0522
 5999SOL     OW29458   3.579   4.026   6.377 -0.1858 -0.5207 -0.0840
 5999SOL    HW129459   3.590   4.052   6.285 -4.0770 -1.7273 -0.8812
 5999SOL    HW229460   3.487   4.052   6.378 -0.1948 -0.6249  1.3983
 6000SOL     OW29461   2.569   4.044   6.662 -0.1396 -0.0935  0.3245
 6000SOL    HW129462   2.647   4.078   6.617  0.1836 -1.2650  0.0005
 6000SOL    HW229463   2.588   4.067   6.753  0.6006  1.5899 -0.2667
 6001SOL     OW29464   0.411   1.811   2.940 -0.4249  0.0249 -0.1539
 6001SOL    HW129465   0.407   1.767   3.025 -0.4056 -1.5598 -0.9728
 6001SOL    HW229466   0.405   1.731   2.888 -3.3416  0.6984 -0.8704
 6002SOL     OW29467   2.166   0.400   5.765  0.4035 -0.4617  0.3025
 6002SOL    HW129468   2.139   0.476   5.816  2.6426  0.0790  0.6976
 6002SOL    HW229469   2.260   0.398   5.746  0.7140 -2.9262  2.1650
 6003SOL     OW29470   2.394   4.105   7.022 -0.3672  0.1801  0.7019
 6003SOL    HW129471   2.382   4.192   7.061 -0.8873 -0.1002  1.1667
 6003SOL    HW229472   2.486   4.102   6.997 -0.5458  5.2723 -0.6461
 6004SOL     OW29473   4.454   1.267  11.257 -0.0849  0.3348 -0.4876
 6004SOL    HW129474   4.457   1.325  11.333 -0.7042 -1.0751  0.6382
 6004SOL    HW229475   4.466   1.338  11.194  0.3110 -0.2451 -1.0648
 6005SOL     OW29476   4.378   2.482   4.812  0.5212 -0.5523 -0.3133
 6005SOL    HW129477   4.409   2.560   4.858 -1.6919 -0.1435  0.5081
 6005SOL    HW229478   4.367   2.524   4.727  0.2583 -0.0726 -0.0413
 6006SOL     OW29479   0.631   3.501   0.775  0.1857 -0.7029 -0.5675
 6006SOL    HW129480   0.571   3.498   0.849  2.0723  1.1811  1.0505
 6006SOL    HW229481   0.693   3.558   0.821  0.3451 -3.4845  2.7193
 6007SOL     OW29482   0.180   2.014   0.514  0.5189  0.8530 -0.1307
 6007SOL    HW129483   0.221   2.083   0.567 -0.4705  0.8407  0.6604
 6007SOL    HW229484   0.092   2.052   0.509 -0.9498 -2.6075 -0.6974
 6008SOL     OW29485   2.190   0.746   2.635 -0.2470 -0.1790 -0.1263
 6008SOL    HW129486   2.115   0.806   2.632 -0.7687 -0.6958  2.2402
 6008SOL    HW229487   2.262   0.808   2.637  0.2423 -0.8196  1.6064
 6009SOL     OW29488   0.169   3.306  14.960 -0.2434  0.0855 -0.3534
 6009SOL    HW129489   0.092   3.357  14.985  0.7738  1.1272  0.6749
 6009SOL    HW229490   0.213   3.384  14.926  2.5482 -1.4299 -0.2653
 6010SOL     OW29491   3.081   3.622  16.786 -0.5071  0.2012 -0.3141
 6010SOL    HW129492   3.113   3.596  16.699 -1.2697 -1.1839 -0.1820
 6010SOL    HW229493   3.014   3.553  16.792  1.8039 -2.0304 -0.1790
 6011SOL     OW29494   2.205   3.442   4.869  0.0260 -0.0464  0.0560
 6011SOL    HW129495   2.116   3.433   4.836  0.3027  1.1033 -0.9876
 6011SOL    HW229496   2.256   3.492   4.806 -3.0111  2.6129 -0.2971
 6012SOL     OW29497   4.158   1.668   8.013 -0.2437  0.4699  0.3330
 6012SOL    HW129498   4.201   1.675   7.927 -3.4353 -1.3543 -1.3935
 6012SOL    HW229499   4.112   1.586   7.996  1.6747 -0.8294  1.4291
 6013SOL     OW29500   4.602   1.528   7.582 -0.4858 -0.7342  0.6170
 6013SOL    HW129501   4.635   1.467   7.517 -4.4937 -1.8173 -0.3948
 6013SOL    HW229502   4.534   1.574   7.533  0.0429  1.0150  1.5139
 6014SOL     OW29503   4.147   0.904   8.914 -0.3342  0.6095  0.7326
 6014SOL    HW129504   4.105   0.864   8.990 -1.2722  0.3495  0.0738
 6014SOL    HW229505   4.168   0.825   8.864 -4.6985  1.6037 -2.6499
 6015SOL     OW29506   3.753   0.381   2.321 -0.1057  0.2604 -0.2087
 6015SOL    HW129507   3.715   0.460   2.362  1.4152  0.0864  1.5506
 6015SOL    HW229508   3.836   0.368   2.366 -0.1916  1.8262  0.4279
 6016SOL     OW29509   1.817   4.245  13.337  0.0985  0.5877  0.3166
 6016SOL    HW129510   1.875   4.183  13.294  0.1569  0.8693 -0.0148
 6016SOL    HW229511   1.732   4.201  13.329  0.3945  0.6850 -3.3541
 6017SOL     OW29512   3.722   1.308   4.023 -0.0108  0.0688  0.7974
 6017SOL    HW129513   3.797   1.270   3.977 -0.5404 -0.5012  0.4130
 6017SOL    HW229514   3.748   1.397   4.046 -0.1019  0.0675  0.9055
 6018SOL     OW29515   3.658   3.380   8.493  0.0253  0.1307  0.3358
 6018SOL    HW129516   3.739   3.352   8.535 -0.1717 -1.6464 -0.4776
 6018SOL    HW229517   3.612   3.296   8.497  2.5025 -1.1974  0.9266
 6019SOL     OW29518   4.317   4.381  12.111 -0.1968  0.3160 -0.1105
 6019SOL    HW129519   4.291   4.337  12.192 -4.1220  2.2476 -0.2710
 6019SOL    HW229520   4.317   4.311  12.047  1.3012  0.8009 -0.6196
 6020SOL     OW29521   3.209   1.596   5.889  0.0030  0.5453  0.1165
 6020SOL    HW129522   3.164   1.515   5.865  0.6268  0.6729 -1.4536
 6020SOL    HW229523   3.217   1.588   5.984  1.4543 -1.3693 -0.1792
 6021SOL     OW29524   1.331   4.275   8.513 -0.2412  0.2250  0.0950
 6021SOL    HW129525   1.257   4.220   8.488  0.7556 -0.6430 -0.9745
 6021SOL    HW229526   1.288   4.359   8.500  0.0547  0.4639  0.6640
 6022SOL     OW29527   2.388   4.387  16.368  0.0502 -0.7757  0.3648
 6022SOL    HW129528   2.456   4.384  16.301 -2.0790 -0.5638 -1.8116
 6022SOL    HW229529   2.418   4.457  16.426 -2.0610  0.6488 -0.2330
 6023SOL     OW29530   0.874   1.971   2.265  0.3423 -0.3681  0.0636
 6023SOL    HW129531   0.822   2.045   2.233  1.6329  1.5597  2.4081
 6023SOL    HW229532   0.961   2.010   2.253 -0.1112  0.2251 -1.2616
 6024SOL     OW29533   0.936   2.960   6.379  0.0970  0.1084 -0.3541
 6024SOL    HW129534   0.997   3.000   6.317 -0.8284  0.2706 -1.1760
 6024SOL    HW229535   0.864   3.022   6.369 -0.0100  0.2794  1.5735
 6025SOL     OW29536   3.801   4.555  11.203 -0.1676  0.2459 -0.0132
 6025SOL    HW129537   3.734   4.624  11.206  0.4990  0.9120 -0.3172
 6025SOL    HW229538   3.755   4.496  11.263 -0.8042 -0.5529 -1.2929
 6026SOL     OW29539   2.927   2.030   5.768  0.2744 -0.5677  0.3097
 6026SOL    HW129540   2.971   2.100   5.719 -1.0201 -0.2184 -0.3657
 6026SOL    HW229541   2.998   1.966   5.777 -2.1299 -3.4512 -1.0297
 6027SOL     OW29542   2.408   0.853   9.273  0.6954  0.1898  0.0611
 6027SOL    HW129543   2.400   0.787   9.342 -0.0465 -1.5935 -1.7452
 6027SOL    HW229544   2.406   0.931   9.328  0.0252 -0.4719  0.9669
 6028SOL     OW29545   2.259   1.411   9.547  0.2230  0.3405 -0.2823
 6028SOL    HW129546   2.256   1.492   9.597 -0.2887  0.5902 -0.7253
 6028SOL    HW229547   2.197   1.435   9.479  0.6249 -0.0149 -0.7688
 6029SOL     OW29548   4.205   4.015  13.402  0.0461  0.7219 -0.3912
 6029SOL    HW129549   4.165   3.939  13.445 -0.9106  0.6392 -1.4188
 6029SOL    HW229550   4.242   4.058  13.479 -0.2171 -0.9934  0.7112
 6030SOL     OW29551   1.021   1.341   1.388  0.1058 -0.1420  0.1287
 6030SOL    HW129552   1.008   1.392   1.309 -1.1578  0.8505  0.9621
 6030SOL    HW229553   1.112   1.358   1.414  0.0360  1.7924 -0.8583
 6031SOL     OW29554   2.552   4.441   7.286  0.2889 -0.0802  0.0054
 6031SOL    HW129555   2.559   4.536   7.274  0.1547  0.1672  1.9375
 6031SOL    HW229556   2.482   4.425   7.350  1.5473  1.3407  1.7224
 6032SOL     OW29557   0.202   1.528   6.360  0.2180 -0.5348 -0.0674
 6032SOL    HW129558   0.197   1.593   6.290  0.2984 -1.5542 -1.0243
 6032SOL    HW229559   0.273   1.568   6.409  1.1614 -3.3107  0.8251
 6033SOL     OW29560   3.431   0.769   8.362  0.5684 -0.0997  0.1929
 6033SOL    HW129561   3.472   0.817   8.433 -0.8395  0.5088  0.5967
 6033SOL    HW229562   3.436   0.681   8.400  0.6141  0.7619  2.1878
 6034SOL     OW29563   2.296   1.785   4.183  0.0487 -0.4040  0.0591
 6034SOL    HW129564   2.221   1.839   4.156 -1.3788 -0.7766  3.3441
 6034SOL    HW229565   2.364   1.846   4.213  0.4974  0.6471 -3.1167
 6035SOL     OW29566   0.284   2.275   5.475  0.0189 -0.2417  0.1190
 6035SOL    HW129567   0.315   2.354   5.518 -1.3139 -0.6541  1.8187
 6035SOL    HW229568   0.215   2.311   5.418 -2.3114 -1.4102  2.1938
 6036SOL     OW29569   0.616   1.883   6.037 -0.1011  0.1531  1.1554
 6036SOL    HW129570   0.528   1.904   6.005  1.4380  1.3706 -2.2910
 6036SOL    HW229571   0.608   1.789   6.022  2.4088 -0.0272  1.0021
 6037SOL     OW29572   1.385   3.695  11.334 -0.1787 -0.4573  0.0858
 6037SOL    HW129573   1.415   3.614  11.292 -1.5358 -1.2460  0.6404
 6037SOL    HW229574   1.402   3.666  11.424  0.4615  1.8768  0.7189
 6038SOL     OW29575   3.365   3.665  16.141 -0.3316  0.5041 -0.4221
 6038SOL    HW129576   3.334   3.755  16.143 -1.3017  0.1148  3.6915
 6038SOL    HW229577   3.282   3.617  16.135 -1.1727  2.1561 -1.8305
 6039SOL     OW29578   0.585   2.056   6.299  0.2287  0.0078 -0.6620
 6039SOL    HW129579   0.663   2.112   6.290  0.3047  0.0465  0.2412
 6039SOL    HW229580   0.582   2.024   6.209 -1.1738 -1.1839 -0.1911
 6040SOL     OW29581   2.621   3.462   4.476 -0.0798  0.9452  0.8900
 6040SOL    HW129582   2.641   3.449   4.384 -1.9723 -0.6741  0.7216
 6040SOL    HW229583   2.692   3.425   4.529  0.3770 -2.8025 -2.3822
 6041SOL     OW29584   3.580   2.622  11.658  0.3084  0.1626 -0.4119
 6041SOL    HW129585   3.558   2.676  11.582  0.1173  0.1711 -0.3524
 6041SOL    HW229586   3.500   2.569  11.664  1.6515 -1.7614  0.6366
 6042SOL     OW29587   1.294   2.043  16.736 -0.0743 -0.0068  0.1786
 6042SOL    HW129588   1.220   1.984  16.728 -1.0389  1.1754  0.3106
 6042SOL    HW229589   1.303   2.078  16.648 -1.5781  0.3087  0.1433
 6043SOL     OW29590   0.709   1.356   0.374 -0.9669  0.2742  0.1540
 6043SOL    HW129591   0.780   1.293   0.371 -0.2842  1.1560 -2.0153
 6043SOL    HW229592   0.723   1.408   0.454 -0.8531 -1.0368  0.9872
 6044SOL     OW29593   0.299   2.186   0.122 -0.3723  0.0036 -0.0404
 6044SOL    HW129594   0.294   2.267   0.072  0.0441  0.5849  0.8700
 6044SOL    HW229595   0.363   2.202   0.191 -1.1314 -1.9729  1.1336
 6045SOL     OW29596   2.292   3.627   7.388 -0.1513 -0.0687 -0.2061
 6045SOL    HW129597   2.352   3.679   7.441 -0.9624  0.1193  0.5329
 6045SOL    HW229598   2.354   3.584   7.329 -1.0558 -0.2571 -1.0201
 6046SOL     OW29599   1.044   1.656  13.857  0.4264  0.9814 -0.4443
 6046SOL    HW129600   1.130   1.613  13.861 -0.1645 -0.1128  0.8118
 6046SOL    HW229601   1.065   1.744  13.826  2.8904  0.1480 -1.1073
 6047SOL     OW29602   4.552   0.035   2.706  0.3975  0.3409  0.3544
 6047SOL    HW129603   4.563   0.117   2.658  1.0541  0.2927  0.4227
 6047SOL    HW229604   4.461   0.052   2.730 -0.2412  1.6613 -3.0004
 6048SOL     OW29605   0.608   1.509   8.750 -0.3870 -0.3489 -0.0167
 6048SOL    HW129606   0.581   1.598   8.726  1.5355  0.1885 -0.1542
 6048SOL    HW229607   0.523   1.467   8.735 -1.8831  1.7568  2.4009
 6049SOL     OW29608   4.316   2.817   2.232  0.4166 -0.4095 -0.2963
 6049SOL    HW129609   4.269   2.900   2.234  0.6643 -0.2590 -0.7725
 6049SOL    HW229610   4.297   2.788   2.143 -3.1365 -0.3766  0.4747
 6050SOL     OW29611   4.062   3.076   9.835  0.5263  0.4339 -0.0081
 6050SOL    HW129612   4.023   2.988   9.836  0.2935  0.5509  1.7164
 6050SOL    HW229613   4.129   3.068   9.767 -1.6373  0.5935 -2.1572
 6051SOL     OW29614   0.119   4.604   3.294 -0.3745 -0.5696 -0.0133
 6051SOL    HW129615   0.028   4.572   3.297 -1.4016  2.4376  0.9279
 6051SOL    HW229616   0.156   4.541   3.233  1.6369  0.4541  0.1537
 6052SOL     OW29617   3.186   1.351   2.646  0.1470  0.4829  1.0080
 6052SOL    HW129618   3.234   1.281   2.603 -1.6507 -1.2304  1.7812
 6052SOL    HW229619   3.147   1.317   2.727 -1.3361 -0.0342  0.0613
 6053SOL     OW29620   2.342   0.957   3.053 -0.5678  0.1948  0.5739
 6053SOL    HW129621   2.287   0.985   3.126  1.0937  1.4045  1.3764
 6053SOL    HW229622   2.288   1.007   2.992  0.8133  1.6270  0.5315
 6054SOL     OW29623   0.604   3.343  12.719 -0.0639 -0.0639  1.0411
 6054SOL    HW129624   0.665   3.277  12.688 -0.2487 -0.2077  0.9827
 6054SOL    HW229625   0.531   3.283  12.732 -1.3093  1.1601 -0.2647
 6055SOL     OW29626   1.748   4.127   1.710 -0.2413  0.0365 -0.2041
 6055SOL    HW129627   1.685   4.078   1.657 -0.6995  0.4794 -0.0713
 6055SOL    HW229628   1.788   4.065   1.770  0.3745 -1.7228 -2.4251
 6056SOL     OW29629   4.269   1.307   8.352  0.1421  0.1893 -0.0021
 6056SOL    HW129630   4.259   1.351   8.437  0.2618  1.0888 -0.4505
 6056SOL    HW229631   4.270   1.382   8.293 -3.0196  2.6898  3.1271
 6057SOL     OW29632   2.379   4.220   7.639 -0.1312 -0.3054 -0.6308
 6057SOL    HW129633   2.327   4.160   7.691  0.2399  0.7075  0.9059
 6057SOL    HW229634   2.353   4.305   7.675 -1.6358 -1.1320  0.2345
 6058SOL     OW29635   1.933   1.424   1.614  0.1735 -0.3912  0.1409
 6058SOL    HW129636   1.907   1.455   1.527 -1.3161 -1.4311  0.2150
 6058SOL    HW229637   1.906   1.498   1.668  2.4937 -1.4843  2.7891
 6059SOL     OW29638   3.145   0.262   7.488 -0.6520 -0.1788 -0.2122
 6059SOL    HW129639   3.191   0.287   7.408 -0.3134  0.1545  0.0846
 6059SOL    HW229640   3.134   0.167   7.483 -1.1381 -0.0814 -0.8980
 6060SOL     OW29641   4.329   0.732  10.457  0.3244 -0.2794 -0.3455
 6060SOL    HW129642   4.266   0.717  10.528 -0.9590  0.1247 -1.3907
 6060SOL    HW229643   4.375   0.808  10.491 -0.5712 -0.0381  0.3393
 6061SOL     OW29644   2.226   0.342  11.823  0.4692 -0.2936  0.2132
 6061SOL    HW129645   2.197   0.401  11.893 -0.0766  2.4393 -2.3017
 6061SOL    HW229646   2.195   0.387  11.744  0.3767 -1.3104 -0.3253
 6062SOL     OW29647   3.934   3.752  13.816  0.0845  0.2281  0.4736
 6062SOL    HW129648   4.010   3.698  13.837 -0.2033 -0.9606 -1.4860
 6062SOL    HW229649   3.914   3.799  13.897  2.3676  1.1295  0.5056
 6063SOL     OW29650   0.346   4.197  14.022  0.1367  0.5257  0.0677
 6063SOL    HW129651   0.261   4.157  14.005  1.6243 -0.8684 -3.9661
 6063SOL    HW229652   0.363   4.267  13.959 -0.7617  0.2848 -0.4412
 6064SOL     OW29653   2.134   4.088  14.788  0.2777  0.4975  0.1693
 6064SOL    HW129654   2.170   4.175  14.808  2.0070  0.4372 -2.6119
 6064SOL    HW229655   2.171   4.042  14.864  1.3788 -0.1278 -0.7269
 6065SOL     OW29656   1.360   2.577   1.327 -0.0682 -0.5857 -0.1699
 6065SOL    HW129657   1.289   2.524   1.364  0.2793 -0.5876  0.5089
 6065SOL    HW229658   1.322   2.638   1.265 -1.6786 -0.9960  0.4184
 6066SOL     OW29659   1.535   1.657  11.978  0.4531  0.8784 -0.9518
 6066SOL    HW129660   1.599   1.646  12.049  0.9734 -3.1305 -2.0640
 6066SOL    HW229661   1.468   1.713  12.016 -1.8076 -3.0350  0.7602
 6067SOL     OW29662   1.670   3.600   4.167 -0.5334  0.2004 -0.2247
 6067SOL    HW129663   1.661   3.691   4.194 -3.2649 -0.1029 -0.0683
 6067SOL    HW229664   1.736   3.604   4.099 -2.2392 -1.5860 -1.9815
 6068SOL     OW29665   3.337   0.586  10.337 -0.2152  0.0788 -0.0739
 6068SOL    HW129666   3.251   0.609  10.373  0.3059  0.6153  0.8395
 6068SOL    HW229667   3.363   0.514  10.395 -4.9187 -0.7216  1.0689
 6069SOL     OW29668   2.588   2.028   1.136 -0.4625  0.1439  0.5564
 6069SOL    HW129669   2.570   1.936   1.156 -0.3628 -0.0099 -0.0569
 6069SOL    HW229670   2.665   2.017   1.081 -1.9639 -0.9570 -1.3443
 6070SOL     OW29671   4.324   3.993  10.557  0.3089 -0.4610  0.1428
 6070SOL    HW129672   4.303   4.018  10.467  0.9853  0.4467  0.2372
 6070SOL    HW229673   4.418   4.012  10.550  0.1445  1.1927  2.4746
 6071SOL     OW29674   2.934   3.100  11.257 -0.6383 -0.3693 -0.2103
 6071SOL    HW129675   2.858   3.107  11.314  0.4997 -3.8331  1.7512
 6071SOL    HW229676   2.930   3.188  11.221 -0.6263  1.2463  3.8165
 6072SOL     OW29677   4.383   4.667  10.463 -0.1322 -0.3614 -0.6734
 6072SOL    HW129678   4.351   0.030  10.429  1.0693  0.5265  0.3432
 6072SOL    HW229679   4.429   4.627  10.389 -3.4576  0.2229 -3.0525
 6073SOL     OW29680   1.724   0.018  10.727  0.2677 -0.8596 -0.0367
 6073SOL    HW129681   1.750   4.646  10.721  0.7040 -0.7819  0.6880
 6073SOL    HW229682   1.673   0.027  10.646  0.0753  0.1160  0.1857
 6074SOL     OW29683   4.551   4.546   8.712  0.1872 -0.5183  0.1227
 6074SOL    HW129684   4.593   4.593   8.640 -0.8613  1.6048  0.8772
 6074SOL    HW229685   4.487   4.611   8.741 -0.4256 -0.6376 -0.9609
 6075SOL     OW29686   0.846   4.151   7.452  0.2268 -0.2832  0.0985
 6075SOL    HW129687   0.893   4.082   7.404  0.2428 -0.5601  0.5032
 6075SOL    HW229688   0.876   4.137   7.542  0.0497 -0.7895  0.0817
 6076SOL     OW29689   1.911   4.086   3.074 -0.1015 -0.1161 -0.0821
 6076SOL    HW129690   1.976   4.156   3.069  0.8685 -0.9802  0.5564
 6076SOL    HW229691   1.970   4.022   3.114  0.3955 -0.9382 -2.1311
 6077SOL     OW29692   1.572   4.203   8.423 -0.3093 -0.2172 -0.8485
 6077SOL    HW129693   1.479   4.202   8.447 -0.6304  2.2460 -1.9866
 6077SOL    HW229694   1.603   4.270   8.485 -1.4623  1.4569 -2.0876
 6078SOL     OW29695   2.547   4.560   0.361  0.0625 -0.0315  0.4782
 6078SOL    HW129696   2.466   4.530   0.403 -0.6061 -0.1089 -0.8673
 6078SOL    HW229697   2.546   4.500   0.287  1.4394  0.8637 -0.2649
 6079SOL     OW29698   3.052   4.082   7.746  0.5604  0.7215  0.0028
 6079SOL    HW129699   3.015   4.161   7.785  1.5867  0.1195  2.2169
 6079SOL    HW229700   2.992   4.018   7.783  0.0482  0.9761 -0.3855
 6080SOL     OW29701   0.630   3.359   4.205 -0.5038  0.1943 -0.4391
 6080SOL    HW129702   0.599   3.420   4.138  1.8637 -1.2080 -2.7895
 6080SOL    HW229703   0.603   3.274   4.172  0.1744 -0.1723 -0.0456
 6081SOL     OW29704   3.495   3.818   9.258 -0.5345  0.4840 -0.5899
 6081SOL    HW129705   3.448   3.740   9.231 -0.2083 -1.1575  3.6421
 6081SOL    HW229706   3.423   3.876   9.283 -0.4878  0.3811 -0.2256
 6082SOL     OW29707   0.703   0.375   7.014  0.0949 -0.2538  0.5486
 6082SOL    HW129708   0.639   0.364   6.944 -0.0644 -2.2299  0.9936
 6082SOL    HW229709   0.651   0.342   7.088 -0.4998  0.4519  0.4419
 6083SOL     OW29710   3.190   1.018   7.786 -0.0983 -0.0501  0.1676
 6083SOL    HW129711   3.172   0.925   7.781 -0.3795  0.0392 -0.3915
 6083SOL    HW229712   3.240   1.031   7.867 -0.5063 -1.9200  0.6982
 6084SOL     OW29713   4.635   0.410   2.322 -0.5561  0.3003  0.1113
 6084SOL    HW129714   0.006   0.440   2.316 -0.4269 -0.0336  0.3338
 6084SOL    HW229715   4.618   0.385   2.231  0.9011  0.7806 -0.2957
 6085SOL     OW29716   1.999   1.451   3.767 -0.2900  0.1812  0.0364
 6085SOL    HW129717   1.983   1.447   3.673  1.2865  1.0687 -0.2746
 6085SOL    HW229718   1.962   1.535   3.795 -2.4188 -0.9635  0.6676
 6086SOL     OW29719   4.405   2.258   3.550  0.3971  0.9924  0.5862
 6086SOL    HW129720   4.395   2.250   3.644  0.2204 -1.9670  0.3262
 6086SOL    HW229721   4.453   2.340   3.539  2.8843 -0.6578 -0.9113
 6087SOL     OW29722   1.887   2.239   1.800 -0.2666 -0.0258  0.7524
 6087SOL    HW129723   1.868   2.318   1.750 -0.2192 -0.1785  0.4898
 6087SOL    HW229724   1.944   2.184   1.746  1.8639  2.4388  0.5161
 6088SOL     OW29725   0.895   3.992   4.334  0.1416 -0.1791 -0.1692
 6088SOL    HW129726   0.874   3.899   4.328 -0.3958 -0.3209  4.0581
 6088SOL    HW229727   0.986   3.984   4.306  0.4933 -0.5025  1.0883
 6089SOL     OW29728   3.034   3.321   4.187 -0.0885 -0.3286  0.1421
 6089SOL    HW129729   2.982   3.335   4.108  0.1854 -0.2285 -0.0211
 6089SOL    HW229730   2.961   3.312   4.248 -1.5271  0.8051 -1.4030
 6090SOL     OW29731   4.161   3.490   6.503 -0.4687 -0.4419  0.5465
 6090SOL    HW129732   4.239   3.543   6.484  0.4556 -2.7538 -1.9263
 6090SOL    HW229733   4.100   3.535   6.444 -0.6878  0.9839  1.8524
 6091SOL     OW29734   0.010   0.309   5.884  0.3155 -0.2221 -0.2281
 6091SOL    HW129735   4.708   0.218   5.903 -0.7749  0.3436  1.1877
 6091SOL    HW229736   4.652   0.358   5.909  0.5422  1.1294 -2.1990
 6092SOL     OW29737   1.892   4.498  13.234  0.0341  0.0397  0.1903
 6092SOL    HW129738   1.879   4.434  13.304  2.2105  1.6941  2.0952
 6092SOL    HW229739   1.919   4.574  13.286 -0.1348 -0.1993  0.6276
 6093SOL     OW29740   1.270   3.126   5.228  0.5385 -0.4439  0.0259
 6093SOL    HW129741   1.319   3.174   5.295 -0.5116  0.8718 -0.1632
 6093SOL    HW229742   1.323   3.140   5.150  1.0997 -0.0990  0.4695
 6094SOL     OW29743   0.709   1.771   2.172 -0.5732  0.1555 -0.0423
 6094SOL    HW129744   0.659   1.852   2.173 -0.0954  0.4563 -0.5493
 6094SOL    HW229745   0.789   1.801   2.214 -1.2451  1.0438  0.5878
 6095SOL     OW29746   1.466   2.897   3.873 -0.0929 -0.1645  0.1962
 6095SOL    HW129747   1.468   2.993   3.867  2.2379 -0.2355 -0.0104
 6095SOL    HW229748   1.376   2.883   3.843 -0.4827 -0.1172  1.3404
 6096SOL     OW29749   2.148   0.872   8.389  0.2392  0.5191 -0.5435
 6096SOL    HW129750   2.116   0.782   8.393  1.5521 -0.1001 -3.9867
 6096SOL    HW229751   2.241   0.848   8.386  0.6090  2.2003 -2.5879
 6097SOL     OW29752   2.535   2.007   7.276 -0.3509 -0.4937 -0.4763
 6097SOL    HW129753   2.459   1.951   7.292  0.6213 -1.4164  0.9322
 6097SOL    HW229754   2.501   2.090   7.308  1.1906 -0.3929  0.8902
 6098SOL     OW29755   4.275   4.150   2.953 -0.3515 -0.1434 -0.1797
 6098SOL    HW129756   4.334   4.104   3.013 -1.0600 -1.7812 -0.7265
 6098SOL    HW229757   4.307   4.239   2.968  1.9458 -0.9449 -0.3183
 6099SOL     OW29758   1.978   3.696  17.084  0.9207 -0.5258 -0.1657
 6099SOL    HW129759   1.986   3.788  17.110 -0.6984 -0.7246  1.0449
 6099SOL    HW229760   1.904   3.687  17.024  1.2316  4.2301 -1.2413
 6100SOL     OW29761   2.302   0.333   7.084 -0.5400  0.4090  0.5187
 6100SOL    HW129762   2.261   0.387   7.017  0.4297  1.0531  0.4388
 6100SOL    HW229763   2.396   0.352   7.076 -0.7384  1.9314  1.9982
 6101SOL     OW29764   0.260   0.602   0.652 -0.4064 -0.3593  0.5605
 6101SOL    HW129765   0.223   0.514   0.656 -0.8945 -0.2089 -0.6191
 6101SOL    HW229766   0.353   0.589   0.673 -0.4729 -0.7703  0.5988
 6102SOL     OW29767   0.562   1.275   7.547 -0.0759  0.1608  0.0569
 6102SOL    HW129768   0.475   1.270   7.584 -0.3559 -0.6978 -0.7280
 6102SOL    HW229769   0.602   1.353   7.586  1.4726 -1.2723  1.3110
 6103SOL     OW29770   2.702   3.252   0.522  0.4376  0.1611  0.3579
 6103SOL    HW129771   2.775   3.247   0.583 -0.8374 -0.6590  1.8302
 6103SOL    HW229772   2.629   3.202   0.560  0.3259  0.6055  0.7395
 6104SOL     OW29773   1.954   2.315   4.869  0.7663 -0.1885  0.6072
 6104SOL    HW129774   1.944   2.223   4.842 -0.3936  0.3680 -0.8973
 6104SOL    HW229775   2.020   2.348   4.808 -0.7928 -0.5785 -1.2986
 6105SOL     OW29776   2.479   2.709   0.254  0.1685 -0.9561  0.0331
 6105SOL    HW129777   2.476   2.620   0.218  1.9888 -1.6179  1.4619
 6105SOL    HW229778   2.524   2.745   0.178  1.4974 -0.8003  0.8745
 6106SOL     OW29779   1.829   3.698  12.565 -1.4268 -0.0833  0.1175
 6106SOL    HW129780   1.855   3.606  12.558  1.2033  0.8239 -1.9007
 6106SOL    HW229781   1.883   3.732  12.636 -1.7459 -1.2631  0.9213
 6107SOL     OW29782   2.994   3.288   1.294 -0.1612  0.4249  0.1506
 6107SOL    HW129783   3.087   3.266   1.283  0.0336  0.4503  1.7433
 6107SOL    HW229784   2.995   3.269   1.388 -0.2368 -0.6034 -0.0584
 6108SOL     OW29785   1.304   4.011   0.849  0.4133 -0.0386  0.1021
 6108SOL    HW129786   1.254   3.949   0.796 -0.1359 -0.3247  0.9399
 6108SOL    HW229787   1.348   4.054   0.776 -1.1690  1.8564  0.2882
 6109SOL     OW29788   2.634   2.376   5.691 -0.5626  0.1140  0.0768
 6109SOL    HW129789   2.656   2.300   5.637 -1.8372  0.0538 -0.3545
 6109SOL    HW229790   2.634   2.334   5.778  1.1363  1.8722  0.9304
 6110SOL     OW29791   0.883   3.802   6.433 -0.3086  0.0257  0.3796
 6110SOL    HW129792   0.893   3.814   6.339  1.5606 -0.2806  0.5383
 6110SOL    HW229793   0.853   3.712   6.443 -0.3417  0.0286  0.3043
 6111SOL     OW29794   2.827   2.946  16.056  0.2555  0.2051 -0.1290
 6111SOL    HW129795   2.910   2.973  16.095  0.4972 -1.8238  0.7755
 6111SOL    HW229796   2.815   3.009  15.985  0.3922  0.4744  0.0872
 6112SOL     OW29797   4.241   1.065   6.165  0.2207 -0.5394  0.5747
 6112SOL    HW129798   4.320   1.096   6.208 -0.1059  1.5417 -0.3137
 6112SOL    HW229799   4.221   1.144   6.115  1.2808  0.5365  1.8403
 6113SOL     OW29800   2.573   2.182  12.521 -0.0472  0.2937  0.0090
 6113SOL    HW129801   2.662   2.184  12.485  0.1262 -0.8829  0.3846
 6113SOL    HW229802   2.554   2.089  12.536 -0.2984  0.0998 -1.5687
 6114SOL     OW29803   2.331   0.412   4.021  0.5915 -0.7789  0.1665
 6114SOL    HW129804   2.254   0.468   4.028  0.6057 -0.9099  1.3127
 6114SOL    HW229805   2.394   0.483   4.012  0.9640 -1.2618 -1.0630
 6115SOL     OW29806   0.237   2.411   9.469 -0.8386 -0.0363 -0.4044
 6115SOL    HW129807   0.211   2.437   9.381  0.2301 -0.7539 -0.9411
 6115SOL    HW229808   0.235   2.315   9.467  0.4614 -0.0543 -0.6798
 6116SOL     OW29809   2.881   2.175   6.912  0.5318  0.6693  0.1038
 6116SOL    HW129810   2.837   2.125   6.843  1.7082  0.5221 -0.5255
 6116SOL    HW229811   2.815   2.184   6.981 -0.2062 -0.7041 -0.4135
 6117SOL     OW29812   1.832   4.545   5.511 -0.6249 -0.6541 -0.0432
 6117SOL    HW129813   1.777   4.603   5.563  1.0115 -0.9563  2.0145
 6117SOL    HW229814   1.916   4.556   5.556 -0.9997 -1.5153  0.8691
 6118SOL     OW29815   4.126   2.495   5.054  0.1149 -0.4356  0.3345
 6118SOL    HW129816   4.104   2.403   5.064  0.9563 -0.7933 -1.0843
 6118SOL    HW229817   4.049   2.521   5.005 -0.0717 -1.6485 -0.0033
 6119SOL     OW29818   0.012   3.083   4.721 -0.3234 -0.1961  0.3628
 6119SOL    HW129819   4.657   3.139   4.700  1.2199  0.8912 -2.1830
 6119SOL    HW229820   4.686   3.007   4.758 -1.5005  0.0315 -0.6421
 6120SOL     OW29821   3.022   0.517  15.952 -0.3957 -0.7419 -0.1560
 6120SOL    HW129822   3.064   0.603  15.953 -1.2729 -0.3063 -0.7177
 6120SOL    HW229823   3.038   0.481  16.039 -2.9084  1.2200  1.1087
 6121SOL     OW29824   0.699   1.442  10.985  0.2394  0.5105  0.1006
 6121SOL    HW129825   0.607   1.440  11.011  0.6131  3.1928  1.6974
 6121SOL    HW229826   0.714   1.535  11.001 -2.6249  1.1750 -1.1761
 6122SOL     OW29827   1.398   2.397   3.604 -0.0175 -0.4539  0.0323
 6122SOL    HW129828   1.415   2.357   3.690 -0.1335  1.2725  0.8551
 6122SOL    HW229829   1.304   2.416   3.613  0.1609  1.0041 -1.1996
 6123SOL     OW29830   2.623   2.626   3.197  0.9417  0.3442 -0.0704
 6123SOL    HW129831   2.663   2.540   3.213 -0.6997 -0.4118 -0.0285
 6123SOL    HW229832   2.545   2.607   3.145  0.8162 -0.9709  0.5954
 6124SOL     OW29833   1.144   1.314   7.537  0.3670  0.4396  0.5655
 6124SOL    HW129834   1.198   1.393   7.538  1.1015 -0.0807  2.0447
 6124SOL    HW229835   1.177   1.269   7.614 -1.5176  0.0950  1.1757
 6125SOL     OW29836   3.377   3.837  14.791 -0.4422  0.4951  0.8981
 6125SOL    HW129837   3.445   3.894  14.754  0.7338 -0.7723  1.1141
 6125SOL    HW229838   3.302   3.859  14.735  0.8984  0.7265 -0.7961
 6126SOL     OW29839   3.706   3.725   5.839  0.8281  0.5103 -0.0107
 6126SOL    HW129840   3.687   3.754   5.928 -3.1574  1.1182 -1.0118
 6126SOL    HW229841   3.753   3.645   5.863 -0.7268  0.1211  1.7466
 6127SOL     OW29842   4.116   3.481   3.714  0.0927  0.3129  0.6557
 6127SOL    HW129843   4.136   3.418   3.783  0.8169  0.3398  0.4614
 6127SOL    HW229844   4.069   3.427   3.650 -1.8628  0.7832  1.6864
 6128SOL     OW29845   2.203   0.364   3.334 -0.5894  0.3748 -1.0241
 6128SOL    HW129846   2.264   0.385   3.405 -0.7718  0.4034 -0.8791
 6128SOL    HW229847   2.271   0.341   3.270  0.7443 -2.0406  1.2712
 6129SOL     OW29848   3.938   3.099   6.430 -0.6152  0.2597  0.4092
 6129SOL    HW129849   4.001   3.141   6.489 -0.0862 -1.3690  0.9997
 6129SOL    HW229850   3.913   3.168   6.368 -1.6289  0.1718  0.7185
 6130SOL     OW29851   0.152   3.738  12.221  0.0768  0.4345  0.0870
 6130SOL    HW129852   0.199   3.673  12.169  1.4470 -0.6690  2.7475
 6130SOL    HW229853   0.093   3.758  12.148 -0.8927 -1.0269  0.4738
 6131SOL     OW29854   2.380   1.577  14.746  0.3677  0.0055 -0.3732
 6131SOL    HW129855   2.306   1.527  14.711 -0.2220 -0.6512  1.8297
 6131SOL    HW229856   2.361   1.659  14.700  0.8556  0.2542 -0.1341
 6132SOL     OW29857   0.669   1.065   4.741  0.5375  0.0049 -0.4028
 6132SOL    HW129858   0.640   1.037   4.654 -1.5835  0.1967  0.2487
 6132SOL    HW229859   0.600   1.127   4.765 -0.0588 -0.5249 -0.7475
 6133SOL     OW29860   4.232   0.706   0.352  0.2081 -0.5831 -0.1947
 6133SOL    HW129861   4.287   0.785   0.345  0.9646 -1.0711  0.2208
 6133SOL    HW229862   4.268   0.670   0.433  0.9409  1.9782  0.6353
 6134SOL     OW29863   0.166   2.433   0.084  0.3648 -0.0493  0.1439
 6134SOL    HW129864   0.140   2.475   0.167  2.1569 -1.7260  1.5605
 6134SOL    HW229865   0.116   2.352   0.086 -0.4515  0.4496 -0.2153
 6135SOL     OW29866   4.651   0.954   6.186 -0.1267 -0.5583 -0.3552
 6135SOL    HW129867   4.652   0.985   6.096  2.0539  0.7273  0.0967
 6135SOL    HW229868   0.023   0.928   6.198  0.5056  2.1974  0.7544
 6136SOL     OW29869   3.196   3.447   8.068  0.2183  0.0353  0.2677
 6136SOL    HW129870   3.222   3.520   8.012 -0.1414 -0.0056  0.0498
 6136SOL    HW229871   3.127   3.485   8.122 -0.2038 -1.2595  0.6360
 6137SOL     OW29872   1.905   1.434   3.515 -0.3019  0.6004  0.4823
 6137SOL    HW129873   1.886   1.501   3.449  0.3833 -0.0937 -0.4118
 6137SOL    HW229874   1.837   1.369   3.499 -0.8598  1.2000  0.4172
 6138SOL     OW29875   3.697   3.885   7.265 -0.4209  0.6579 -0.2141
 6138SOL    HW129876   3.614   3.933   7.267 -1.2197 -0.8113  1.9163
 6138SOL    HW229877   3.709   3.899   7.171 -0.3400 -1.3622 -0.5204
 6139SOL     OW29878   1.898   0.635   3.669 -0.4791  0.0564 -0.3292
 6139SOL    HW129879   1.824   0.658   3.725 -0.9192  0.3119 -1.0074
 6139SOL    HW229880   1.919   0.559   3.724  2.5525  1.1570 -0.0191
 6140SOL     OW29881   3.677   3.963   3.009 -0.4615  0.1732 -0.0647
 6140SOL    HW129882   3.713   3.889   3.059 -0.2091  1.2458  1.3545
 6140SOL    HW229883   3.746   3.970   2.944  2.2468 -0.1594  2.7481
 6141SOL     OW29884   1.664   0.674   3.803  0.2262  0.3004  1.1377
 6141SOL    HW129885   1.683   0.661   3.896 -1.9469  1.2552  1.7404
 6141SOL    HW229886   1.620   0.759   3.814 -0.0457  0.2870  0.1519
 6142SOL     OW29887   4.284   3.803   8.897  0.0890 -0.5096  0.1926
 6142SOL    HW129888   4.207   3.747   8.908 -0.5988  0.3450 -0.2903
 6142SOL    HW229889   4.306   3.796   8.805 -2.8485 -0.0233 -0.5359
 6143SOL     OW29890   3.133   2.063   5.051 -0.0200 -0.2767 -0.0181
 6143SOL    HW129891   3.084   2.009   4.989 -1.3771 -1.7254  2.3352
 6143SOL    HW229892   3.167   2.130   4.992  0.9843 -1.5850 -0.9334
 6144SOL     OW29893   0.075   0.763   7.916 -0.3999 -0.3079 -0.2831
 6144SOL    HW129894   0.060   0.802   8.002  1.0639  0.0186 -0.1768
 6144SOL    HW229895   0.157   0.809   7.897  0.3359 -2.1133 -1.4615
 6145SOL     OW29896   4.303   0.211   4.802  0.8716  0.1461 -0.2394
 6145SOL    HW129897   4.229   0.156   4.774  2.1609 -1.3394 -0.6936
 6145SOL    HW229898   4.271   0.221   4.892  1.2176  2.2992 -0.3716
 6146SOL     OW29899   2.073   1.567   6.936  0.1714 -0.0555  0.3656
 6146SOL    HW129900   2.098   1.482   6.973  1.0660  0.1203  0.1420
 6146SOL    HW229901   1.980   1.542   6.941  0.1365  0.2757  1.3843
 6147SOL     OW29902   0.965   1.448   7.394 -0.1904  0.4679 -0.1549
 6147SOL    HW129903   1.030   1.516   7.377  0.0407  0.5110  0.8655
 6147SOL    HW229904   1.028   1.399   7.446 -0.5056 -1.7395 -1.8902
 6148SOL     OW29905   0.240   1.879   3.375  0.7071 -0.2207 -0.0418
 6148SOL    HW129906   0.303   1.834   3.320  2.2695  2.2058 -0.2295
 6148SOL    HW229907   0.260   1.969   3.349 -1.0238  0.6741  1.7636
 6149SOL     OW29908   3.400   4.361   6.624  0.0722 -0.3312  0.9544
 6149SOL    HW129909   3.467   4.356   6.556 -1.3947 -2.9829 -0.2998
 6149SOL    HW229910   3.448   4.317   6.695  0.9686 -0.2563  0.4006
 6150SOL     OW29911   0.984   3.497   0.171 -0.1025  0.2430 -0.7785
 6150SOL    HW129912   0.947   3.550   0.242 -2.0166 -1.9176 -0.1535
 6150SOL    HW229913   0.986   3.407   0.205 -1.9255  0.9964  1.3207
 6151SOL     OW29914   1.017   3.025   1.261  0.1452  0.3320 -0.4009
 6151SOL    HW129915   1.071   3.101   1.280 -0.2246  0.1966  1.2225
 6151SOL    HW229916   0.982   3.068   1.183 -0.1294  0.0567 -0.4303
 6152SOL     OW29917   4.238   4.351   9.703  0.2943 -0.1137 -0.4133
 6152SOL    HW129918   4.209   4.379   9.790  0.4962  1.4960 -0.8782
 6152SOL    HW229919   4.321   4.397   9.694 -0.8971  1.9154 -0.8536
 6153SOL     OW29920   4.397   2.540   4.556 -0.1529  0.5175  0.4009
 6153SOL    HW129921   4.455   2.615   4.553 -0.4790  0.8037  1.1561
 6153SOL    HW229922   4.340   2.551   4.480 -1.3641  0.1407  1.2453
 6154SOL     OW29923   2.272   0.174   1.551 -0.3650 -0.7474 -0.3767
 6154SOL    HW129924   2.293   0.266   1.534  2.3258 -1.2845 -0.0558
 6154SOL    HW229925   2.248   0.176   1.644  1.1870  0.1522  0.0105
 6155SOL     OW29926   4.210   4.640   2.953  0.2316 -0.3812  0.0469
 6155SOL    HW129927   4.132   4.683   2.987  0.3357 -2.4242  2.8875
 6155SOL    HW229928   4.211   4.558   3.003 -0.0675  1.3298  2.8197
 6156SOL     OW29929   2.350   1.436  10.382  0.3387 -0.0258  0.3707
 6156SOL    HW129930   2.436   1.471  10.358  0.0204 -1.0618 -2.2679
 6156SOL    HW229931   2.359   1.349  10.341 -0.7319  0.2741 -0.4884
 6157SOL     OW29932   3.929   0.397   9.944  0.1618  0.7698 -0.1036
 6157SOL    HW129933   3.844   0.433   9.969 -0.9526 -1.0506 -1.2147
 6157SOL    HW229934   3.967   0.447   9.872 -0.7400 -0.0982 -1.1836
 6158SOL     OW29935   2.564   0.451   5.551 -0.1393  0.4039  0.6957
 6158SOL    HW129936   2.640   0.509   5.544 -0.7997  1.4720  2.5539
 6158SOL    HW229937   2.603   0.367   5.527 -1.0512  0.0042  0.6319
 6159SOL     OW29938   3.573   4.376  17.357 -0.5804 -0.6278 -0.0964
 6159SOL    HW129939   3.575   4.281  17.346 -1.8476 -0.7162  0.4170
 6159SOL    HW229940   3.661   4.403  17.330 -0.4741 -0.2327  0.6514
 6160SOL     OW29941   1.036   0.442  17.365  0.1331 -0.4171  0.0541
 6160SOL    HW129942   0.974   0.477  17.301  1.5368 -0.2994 -1.2258
 6160SOL    HW229943   1.011   0.502  17.435  0.1620 -1.9370  1.3762
 6161SOL     OW29944   3.694   1.123  11.307  0.2056 -0.1005  0.3024
 6161SOL    HW129945   3.637   1.153  11.377  1.0596 -1.1952  1.4777
 6161SOL    HW229946   3.760   1.192  11.310 -0.3191  0.4398 -0.4981
 6162SOL     OW29947   2.056   3.653   2.750 -0.0822  0.4919 -0.0031
 6162SOL    HW129948   2.001   3.695   2.684 -0.0178  0.1886 -0.2484
 6162SOL    HW229949   2.032   3.563   2.728 -1.2933  1.6541 -3.4772
 6163SOL     OW29950   4.407   3.715   3.326 -0.2640  0.7617  0.1855
 6163SOL    HW129951   4.331   3.658   3.317  2.4850 -2.7357 -0.9492
 6163SOL    HW229952   4.413   3.719   3.422  1.1929  1.6733  0.0432
 6164SOL     OW29953   3.843   2.580  15.680  0.5232  0.1273 -0.6853
 6164SOL    HW129954   3.774   2.642  15.661 -2.0175 -2.6285 -0.4286
 6164SOL    HW229955   3.832   2.516  15.610  1.0367 -0.4112 -0.2748
 6165SOL     OW29956   1.827   3.376   1.818  0.4137  0.4053  0.2879
 6165SOL    HW129957   1.848   3.284   1.802 -1.9243  0.1961 -1.5050
 6165SOL    HW229958   1.896   3.414   1.763  0.5593 -1.2334 -0.6356
 6166SOL     OW29959   4.525   4.337  14.566 -0.4286 -0.5842 -0.0946
 6166SOL    HW129960   4.446   4.387  14.589  0.3905  0.8555 -0.3843
 6166SOL    HW229961   4.590   4.406  14.555 -0.0162 -1.0085 -0.3301
 6167SOL     OW29962   4.360   4.507  10.683 -0.1152  0.1235 -0.0604
 6167SOL    HW129963   4.353   4.581  10.622  0.2034  0.5173  0.3872
 6167SOL    HW229964   4.454   4.493  10.675 -0.2509 -0.0909 -1.3108
 6168SOL     OW29965   4.119   4.431  10.861  0.0026 -0.3321 -0.5296
 6168SOL    HW129966   4.093   4.503  10.918  0.0053 -1.6052  1.0843
 6168SOL    HW229967   4.191   4.464  10.807 -1.9525  4.3858 -0.2198
 6169SOL     OW29968   3.440   3.214   3.178 -0.3300 -0.2807 -0.0078
 6169SOL    HW129969   3.519   3.257   3.211 -0.1869 -1.3625  1.0446
 6169SOL    HW229970   3.475   3.159   3.108 -2.8385  0.7083 -2.0496
 6170SOL     OW29971   4.380   1.550   6.120  0.1356 -0.4620 -0.0562
 6170SOL    HW129972   4.433   1.629   6.123 -1.5466  0.6646  0.4844
 6170SOL    HW229973   4.405   1.515   6.206  0.3370 -1.3460 -0.4769
 6171SOL     OW29974   0.760   3.237   8.400  0.4351 -0.2483 -0.0168
 6171SOL    HW129975   0.689   3.174   8.387  0.6029 -0.7239  1.3638
 6171SOL    HW229976   0.712   3.319   8.407  0.7402  0.0720 -1.6978
 6172SOL     OW29977   0.860   3.358   2.516  0.3454  0.4261  0.2679
 6172SOL    HW129978   0.800   3.341   2.443  0.2321  1.9908 -0.0038
 6172SOL    HW229979   0.835   3.447   2.542 -3.6489 -0.2127 -1.4553
 6173SOL     OW29980   4.369   0.768   1.760 -0.2582  0.1362  0.3940
 6173SOL    HW129981   4.329   0.814   1.834 -0.1881  1.5916 -0.4733
 6173SOL    HW229982   4.298   0.724   1.713  0.5941 -1.3249  0.4674
 6174SOL     OW29983   3.064   0.832   4.695 -0.2183 -0.1279 -0.3192
 6174SOL    HW129984   3.132   0.898   4.680 -0.8833  0.5369 -0.3881
 6174SOL    HW229985   3.051   0.837   4.790 -0.2434  2.2932 -0.4431
 6175SOL     OW29986   1.516   2.876   8.679 -0.3390  0.2182 -0.5553
 6175SOL    HW129987   1.557   2.955   8.715  0.1110 -0.9297  1.4282
 6175SOL    HW229988   1.513   2.817   8.754  0.6846  1.2481  0.3036
 6176SOL     OW29989   1.270   2.534   7.489  0.2919  0.1244  0.3469
 6176SOL    HW129990   1.285   2.461   7.548  2.2859 -0.2898 -0.6773
 6176SOL    HW229991   1.249   2.606   7.549 -0.4430  0.0125  0.2302
 6177SOL     OW29992   3.185   2.062   4.379  0.2884 -0.1488  0.2045
 6177SOL    HW129993   3.244   2.123   4.334 -0.7779 -0.6179 -1.8106
 6177SOL    HW229994   3.252   2.013   4.428  1.2269 -0.8426 -1.7696
 6178SOL     OW29995   0.782   1.064   2.478 -0.2910  0.0589  0.3943
 6178SOL    HW129996   0.814   1.113   2.403  2.1090 -0.7028  0.9163
 6178SOL    HW229997   0.721   1.129   2.512 -0.2111  0.5848 -0.4981
 6179SOL     OW29998   1.411   3.547   7.710 -0.0915 -0.1457  0.4945
 6179SOL    HW129999   1.441   3.534   7.800  2.2047  0.7685 -0.1589
 6179SOL    HW230000   1.328   3.594   7.718  0.1058  0.7471 -2.6653
 6180SOL     OW30001   1.615   1.874   6.522  0.2129  0.3843  0.0328
 6180SOL    HW130002   1.706   1.900   6.537 -0.2344  1.9467  0.1022
 6180SOL    HW230003   1.573   1.949   6.564 -1.0326 -0.1346 -0.2870
 6181SOL     OW30004   0.556   2.178  13.378 -0.3900  0.1433  0.2048
 6181SOL    HW130005   0.623   2.124  13.419 -0.2880 -0.8304 -1.2494
 6181SOL    HW230006   0.597   2.256  13.415 -2.2852  0.9682  0.5401
 6182SOL     OW30007   1.626   4.073   6.975 -0.4246  0.8307 -0.3675
 6182SOL    HW130008   1.580   4.018   6.912 -0.3429 -0.2889  0.5537
 6182SOL    HW230009   1.679   4.004   7.015  1.9230  2.0904 -1.2566
 6183SOL     OW30010   1.301   1.768   3.174  0.2832  0.4670 -0.6071
 6183SOL    HW130011   1.350   1.834   3.225  1.3008  0.7550 -1.9502
 6183SOL    HW230012   1.279   1.818   3.095 -1.3615  1.5689  0.5372
 6184SOL     OW30013   3.526   1.854   8.672 -0.2631 -0.1934  0.1446
 6184SOL    HW130014   3.515   1.827   8.763  1.0121 -1.3542 -0.0555
 6184SOL    HW230015   3.446   1.816   8.635  0.4856 -0.4714 -1.1726
 6185SOL     OW30016   3.778   2.349  14.755 -0.2609 -0.2023  0.1066
 6185SOL    HW130017   3.707   2.357  14.820 -0.0666  2.1831  0.0533
 6185SOL    HW230018   3.754   2.423  14.699 -1.4973 -0.9202 -0.3058
 6186SOL     OW30019   3.628   0.220   4.903 -0.3513  0.1022  0.1216
 6186SOL    HW130020   3.682   0.188   4.975  1.1265  0.4781 -0.8074
 6186SOL    HW230021   3.546   0.228   4.950 -1.0332  1.1764 -1.2477
 6187SOL     OW30022   0.244   1.934   1.421  0.2027 -0.3766  0.1447
 6187SOL    HW130023   0.176   1.954   1.357 -1.7622  1.8733  2.9331
 6187SOL    HW230024   0.194   1.961   1.498  2.0171 -4.0748  2.6111
 6188SOL     OW30025   4.159   1.495   3.303 -0.6268  0.3561  0.1155
 6188SOL    HW130026   4.176   1.412   3.348  0.8513 -0.2296 -1.5508
 6188SOL    HW230027   4.084   1.488   3.246 -0.4333 -1.2912  0.0774
 6189SOL     OW30028   1.924   3.778   0.109 -0.0268  0.5679 -0.4437
 6189SOL    HW130029   1.874   3.697   0.110 -0.5491  0.8911  0.3277
 6189SOL    HW230030   1.867   3.816   0.043 -1.1269 -0.9413 -0.3516
 6190SOL     OW30031   1.201   2.411   8.121  0.1951  0.1427 -0.1760
 6190SOL    HW130032   1.217   2.486   8.178  0.7108 -0.9370  1.1099
 6190SOL    HW230033   1.114   2.387   8.151 -0.8107  2.2695 -1.4290
 6191SOL     OW30034   1.651   4.582   0.876  0.3160  1.1297 -0.1822
 6191SOL    HW130035   1.741   4.578   0.910 -0.9207 -2.4592  2.5844
 6191SOL    HW230036   1.613   4.495   0.878 -2.7382  2.4153 -2.0070
 6192SOL     OW30037   3.030   3.797   7.107 -0.4188 -0.0322 -0.6174
 6192SOL    HW130038   3.022   3.728   7.041  0.5238 -0.6390 -0.0966
 6192SOL    HW230039   2.965   3.773   7.173  1.0619 -0.8734  0.5257
 6193SOL     OW30040   2.877   3.144   0.750  0.0967  0.0485 -0.0494
 6193SOL    HW130041   2.926   3.127   0.830  1.3354 -2.8043 -1.3995
 6193SOL    HW230042   2.955   3.164   0.699  1.1681 -2.3386  0.6663
 6194SOL     OW30043   1.422   1.713  14.692  0.0445 -0.3203 -0.0266
 6194SOL    HW130044   1.486   1.700  14.622 -2.0286 -0.7845 -1.8451
 6194SOL    HW230045   1.365   1.782  14.657  1.4648  0.0097 -1.7183
 6195SOL     OW30046   4.622   0.725   1.163 -0.3196  0.0331  0.1741
 6195SOL    HW130047   4.559   0.657   1.188  0.2595  0.6345  3.2528
 6195SOL    HW230048   4.564   0.789   1.123  0.9520  1.4915  0.6714
 6196SOL     OW30049   1.863   2.253   6.651 -0.1288  0.1462 -0.3335
 6196SOL    HW130050   1.836   2.320   6.589 -1.5561  1.4963  1.7346
 6196SOL    HW230051   1.841   2.288   6.738 -0.6087 -0.1994 -0.3137
 6197SOL     OW30052   0.797   3.817   5.987  0.5747 -0.2497 -0.1019
 6197SOL    HW130053   0.841   3.786   5.908 -1.6816  0.6929 -1.7215
 6197SOL    HW230054   0.869   3.807   6.050  0.1051 -1.4433  0.2333
 6198SOL     OW30055   4.383   0.056   3.637  0.2325  0.1402  0.4276
 6198SOL    HW130056   4.300   0.063   3.683 -0.8133  0.4108 -1.4908
 6198SOL    HW230057   4.353   0.054   3.546 -0.3132  1.3007  0.5806
 6199SOL     OW30058   1.583   1.271   5.876  0.0814  0.4112 -0.0648
 6199SOL    HW130059   1.597   1.361   5.906 -1.7079  1.2194 -1.7044
 6199SOL    HW230060   1.585   1.287   5.782  2.4669 -1.5836 -0.3709
 6200SOL     OW30061   4.469   1.108   4.430 -0.2716  0.2271 -0.0690
 6200SOL    HW130062   4.509   1.032   4.471 -0.4792  0.1973  0.0808
 6200SOL    HW230063   4.380   1.108   4.466  0.0882  0.4302  0.8062
 6201SOL     OW30064   4.507   2.675   9.628  0.5515 -0.0245 -0.0085
 6201SOL    HW130065   4.597   2.664   9.597  0.0273 -1.2524 -1.0608
 6201SOL    HW230066   4.462   2.647   9.549  0.8497  2.2375 -0.9875
 6202SOL     OW30067   1.432   4.340   5.479  0.3212  0.5891 -0.1388
 6202SOL    HW130068   1.439   4.430   5.511 -1.7886  1.2783 -1.6245
 6202SOL    HW230069   1.505   4.350   5.418 -1.1132  1.0125 -1.7774
 6203SOL     OW30070   1.229   3.715   3.803 -0.1826  0.1613  0.1257
 6203SOL    HW130071   1.314   3.759   3.804 -0.6761  1.1143  0.0700
 6203SOL    HW230072   1.251   3.633   3.760 -1.5469  0.2433 -0.7069
 6204SOL     OW30073   2.792   3.697   4.252  0.7054 -0.5780 -1.5228
 6204SOL    HW130074   2.774   3.770   4.191 -0.8832  1.2104  1.0871
 6204SOL    HW230075   2.819   3.743   4.331 -3.0087 -0.6109 -0.2724
 6205SOL     OW30076   3.085   3.980  10.384 -0.0719  0.1891 -0.5202
 6205SOL    HW130077   3.055   3.998  10.295 -1.0655 -1.8084 -0.5857
 6205SOL    HW230078   3.125   3.895  10.365 -1.1936 -0.4076 -0.2019
 6206SOL     OW30079   2.304   3.130  12.142 -0.1887  0.2230 -0.1018
 6206SOL    HW130080   2.290   3.224  12.157  0.8723  0.4720 -0.6421
 6206SOL    HW230081   2.340   3.101  12.227  0.1971 -2.7009 -1.2543
 6207SOL     OW30082   4.424   1.975   3.193  0.1291 -0.1628 -0.2389
 6207SOL    HW130083   4.353   1.929   3.148 -1.1467 -1.3774  2.9794
 6207SOL    HW230084   4.417   2.070   3.181 -0.3479 -0.5651 -3.1151
 6208SOL     OW30085   1.528   3.511   1.127  0.3221  0.4778  0.3593
 6208SOL    HW130086   1.605   3.554   1.091  2.1721 -1.9161  1.4463
 6208SOL    HW230087   1.585   3.458   1.183  1.3926  0.8783 -0.3645
 6209SOL     OW30088   0.450   2.441   3.617  0.0218  0.0326 -0.0067
 6209SOL    HW130089   0.467   2.376   3.549  4.3020 -0.0556  1.1950
 6209SOL    HW230090   0.493   2.407   3.695 -1.3203 -2.1247 -0.2041
 6210SOL     OW30091   0.659   3.636   4.660  0.0714  0.1797 -0.0557
 6210SOL    HW130092   0.636   3.652   4.568 -1.6442  1.2467  0.5662
 6210SOL    HW230093   0.597   3.567   4.683  0.9415 -1.4067 -2.3780
 6211SOL     OW30094   1.421   3.864   6.377  0.0166 -0.0216  0.5315
 6211SOL    HW130095   1.473   3.935   6.340 -0.7406 -0.7497 -1.9284
 6211SOL    HW230096   1.479   3.807   6.428  0.7991  0.7980  0.5521
 6212SOL     OW30097   2.314   0.909   6.583  0.0235 -0.4959  0.1475
 6212SOL    HW130098   2.255   0.835   6.568  0.8076 -0.4590 -3.2031
 6212SOL    HW230099   2.281   0.970   6.517  0.0845 -1.7620 -1.0414
 6213SOL     OW30100   1.124   3.364   2.533 -0.3068  0.0311 -0.0560
 6213SOL    HW130101   1.136   3.303   2.606  0.4378  1.6341  1.1510
 6213SOL    HW230102   1.030   3.357   2.516 -0.1426  1.0579 -1.3927
 6214SOL     OW30103   3.371   1.886  14.102 -0.3768  0.8191  0.0768
 6214SOL    HW130104   3.327   1.889  14.187  2.1133 -0.1681  1.3954
 6214SOL    HW230105   3.307   1.936  14.052  0.0109  0.7854 -0.4575
 6215SOL     OW30106   1.283   2.447  16.330 -0.6099 -0.0019  0.3776
 6215SOL    HW130107   1.308   2.357  16.354 -0.7236 -0.4970 -1.3431
 6215SOL    HW230108   1.258   2.478  16.416  1.0912 -1.1261  1.2877
 6216SOL     OW30109   4.692   1.777   1.021  0.0952 -0.5174  0.4388
 6216SOL    HW130110   4.658   1.712   1.083  0.7445 -0.9307  0.3555
 6216SOL    HW230111   4.617   1.831   0.994  0.9328  0.7646  0.6487
 6217SOL     OW30112   1.258   1.522   3.576 -0.4387  0.2050 -0.4376
 6217SOL    HW130113   1.282   1.507   3.667 -1.4740 -1.9597 -0.5222
 6217SOL    HW230114   1.336   1.570   3.548 -1.3991  1.2722 -1.2616
 6218SOL     OW30115   0.809   0.181  14.248 -0.3642  0.7560  0.1430
 6218SOL    HW130116   0.840   0.111  14.191  1.1726  0.7041  1.0540
 6218SOL    HW230117   0.877   0.185  14.315 -0.0958 -3.1455  0.1040
 6219SOL     OW30118   1.472   3.820   7.533 -0.5767  0.1167 -0.0975
 6219SOL    HW130119   1.448   3.745   7.587 -1.4410  0.7372  0.3581
 6219SOL    HW230120   1.404   3.879   7.564 -2.2929 -1.8460 -0.0746
 6220SOL     OW30121   0.220   4.162   4.933  0.1590  0.0117  0.3206
 6220SOL    HW130122   0.208   4.067   4.924 -0.8312  0.3911 -2.3871
 6220SOL    HW230123   0.174   4.168   5.016 -0.0438  1.3027  0.1126
 6221SOL     OW30124   0.650   3.947  16.725  0.0573 -0.1733 -0.3565
 6221SOL    HW130125   0.719   3.880  16.724 -1.3784 -1.6680  2.3102
 6221SOL    HW230126   0.688   4.007  16.790  0.1733 -0.7895  0.1465
 6222SOL     OW30127   4.251   3.404  10.822 -0.3284  0.1701 -0.5692
 6222SOL    HW130128   4.180   3.423  10.760 -0.7732 -1.4161 -0.5451
 6222SOL    HW230129   4.271   3.494  10.849 -1.3927  0.0223  0.6958
 6223SOL     OW30130   3.172   1.029   3.704  0.2323 -0.0590 -0.0177
 6223SOL    HW130131   3.116   1.098   3.739  0.6314  0.3845 -0.2662
 6223SOL    HW230132   3.254   1.072   3.683  0.5083 -1.7694 -2.3798
 6224SOL     OW30133   1.000   4.591   5.442 -0.1696  0.1524  0.5080
 6224SOL    HW130134   1.049   4.625   5.517  1.2950 -0.0283 -0.3500
 6224SOL    HW230135   1.023   4.498   5.449  1.4739  0.4425 -0.9822
 6225SOL     OW30136   1.245   1.246   7.800 -0.1541 -0.1154 -0.3719
 6225SOL    HW130137   1.228   1.173   7.859 -3.4567 -1.5576 -3.1427
 6225SOL    HW230138   1.340   1.249   7.793  0.0071  0.6473  2.0408
 6226SOL     OW30139   2.184   4.012  17.487  0.1571 -0.3902  0.1227
 6226SOL    HW130140   2.163   3.922  17.465 -1.6612  0.1717 -0.4166
 6226SOL    HW230141   2.107   4.043  17.535  0.4841  1.1183 -0.3024
 6227SOL     OW30142   0.520   4.031  16.486 -0.1163 -0.0758 -0.5187
 6227SOL    HW130143   0.473   3.947  16.489  1.3275 -0.8395  1.2245
 6227SOL    HW230144   0.573   4.019  16.565  0.1380  1.0119 -0.5307
 6228SOL     OW30145   2.750   0.789  13.038 -0.2252  0.3107 -0.2203
 6228SOL    HW130146   2.784   0.702  13.058  1.7852  1.6453  2.2449
 6228SOL    HW230147   2.825   0.849  13.043  0.6650 -0.9005  0.8601
 6229SOL     OW30148   1.805   1.837  13.699 -0.0028 -0.3397  0.1175
 6229SOL    HW130149   1.787   1.757  13.648  1.4027 -0.4898 -0.1368
 6229SOL    HW230150   1.724   1.886  13.684 -0.2959 -0.9032 -0.1536
 6230SOL     OW30151   1.562   3.255   0.356 -0.2580  0.5032  0.1907
 6230SOL    HW130152   1.517   3.189   0.408  2.1534 -2.0323 -0.8685
 6230SOL    HW230153   1.525   3.240   0.269 -0.7828  0.9296  0.3454
 6231SOL     OW30154   4.687   3.768   7.333  0.0241 -0.2348  0.4104
 6231SOL    HW130155   0.062   3.783   7.342 -0.2128  0.6026  1.4643
 6231SOL    HW230156   4.684   3.674   7.315 -1.4668 -0.4010  1.5667
 6232SOL     OW30157   1.575   1.996   0.989 -0.1676  0.2556 -0.2781
 6232SOL    HW130158   1.664   1.963   0.977  0.3887  1.3484  0.8188
 6232SOL    HW230159   1.525   1.923   1.027  0.8294 -1.1483 -1.7017
 6233SOL     OW30160   3.043   0.975  11.730  0.0020 -0.3028  0.0029
 6233SOL    HW130161   3.085   0.889  11.738  2.3322  0.8566  0.3643
 6233SOL    HW230162   3.069   1.021  11.809  0.4689 -1.3177  0.4486
 6234SOL     OW30163   0.858   4.105  16.589  0.4098 -0.1828 -0.4378
 6234SOL    HW130164   0.921   4.033  16.590 -1.3329 -1.6517  2.8273
 6234SOL    HW230165   0.838   4.088  16.681  2.3723 -1.7286 -0.3124
 6235SOL     OW30166   4.409   4.323   9.424  0.4567  0.2639 -0.0116
 6235SOL    HW130167   4.375   4.390   9.483 -0.4871  0.5855 -0.9175
 6235SOL    HW230168   4.452   4.379   9.359 -0.0206 -1.0388 -1.4566
 6236SOL     OW30169   3.813   1.888   5.223  0.7482  0.5398  0.1400
 6236SOL    HW130170   3.900   1.870   5.187  0.6191 -1.1991  0.6966
 6236SOL    HW230171   3.836   1.960   5.283 -1.5789  0.2289  1.3883
 6237SOL     OW30172   1.278   4.200  13.990 -0.3671 -0.1401  0.4168
 6237SOL    HW130173   1.314   4.201  13.901  0.2195 -0.3547  0.6537
 6237SOL    HW230174   1.207   4.136  13.990  0.0414 -0.5806  1.7590
 6238SOL     OW30175   2.759   2.258   5.190  0.3823 -0.7240 -0.3035
 6238SOL    HW130176   2.690   2.289   5.131  0.7089 -0.8856 -0.7750
 6238SOL    HW230177   2.824   2.231   5.126 -1.1404 -0.6839 -1.8742
 6239SOL     OW30178   1.754   1.441   6.097 -0.1358 -0.0801  0.4883
 6239SOL    HW130179   1.760   1.525   6.051 -0.5054  0.7517  1.9594
 6239SOL    HW230180   1.659   1.430   6.098 -0.0180 -0.8436  2.6150
 6240SOL     OW30181   3.613   2.892   8.005  0.1624  0.1313  0.2483
 6240SOL    HW130182   3.691   2.836   7.999 -1.4702 -2.1079  0.2419
 6240SOL    HW230183   3.602   2.902   8.100 -0.8035  0.6973  0.0742
 6241SOL     OW30184   0.354   3.250  15.246  0.7573  0.1087  0.0382
 6241SOL    HW130185   0.267   3.225  15.279  0.2734  1.2184 -0.4212
 6241SOL    HW230186   0.352   3.340  15.215 -1.0688  0.2378  0.5149
 6242SOL     OW30187   1.427   2.205   8.934 -0.3120 -0.0606 -0.1024
 6242SOL    HW130188   1.447   2.115   8.909  1.4930  1.2760 -3.4574
 6242SOL    HW230189   1.508   2.236   8.975 -0.1517  0.5379 -0.8736
 6243SOL     OW30190   0.085   0.306   4.405  0.1626 -0.1570 -0.2128
 6243SOL    HW130191   0.087   0.276   4.314 -0.1907  3.3711 -1.4232
 6243SOL    HW230192   0.007   0.361   4.401 -0.7978 -1.5931 -0.9966
 6244SOL     OW30193   4.340   2.964  15.573 -0.6736  0.0305 -0.4945
 6244SOL    HW130194   4.335   2.958  15.669  0.7819  0.1985 -0.4127
 6244SOL    HW230195   4.430   2.949  15.547 -0.0768  2.4409  0.1777
 6245SOL     OW30196   3.900   2.834  13.157 -0.0729  0.2072  0.5125
 6245SOL    HW130197   3.819   2.817  13.109  0.4466 -0.6406 -0.0635
 6245SOL    HW230198   3.946   2.884  13.089 -0.9364 -1.6942 -1.4582
 6246SOL     OW30199   2.587   2.716   6.128  0.5149  0.4671 -0.4062
 6246SOL    HW130200   2.557   2.690   6.216 -0.0116  0.6740 -0.5207
 6246SOL    HW230201   2.650   2.646   6.110 -2.5545 -1.4576 -3.6614
 6247SOL     OW30202   2.428   1.813  14.588  0.2827  0.0819 -0.3681
 6247SOL    HW130203   2.461   1.887  14.537 -0.5058  2.7131  2.8994
 6247SOL    HW230204   2.491   1.830  14.658  0.4223  2.1126 -0.9750
 6248SOL     OW30205   3.999   2.662  16.984  0.6569  1.0270  0.0635
 6248SOL    HW130206   4.045   2.719  16.923 -0.5654  2.7421  0.7139
 6248SOL    HW230207   3.923   2.717  17.004  0.5327  1.5072 -1.7165
 6249SOL     OW30208   3.755   4.713  14.617  0.9234 -0.5381  0.2101
 6249SOL    HW130209   3.827   4.693  14.557 -0.5765 -0.2866 -1.6674
 6249SOL    HW230210   3.770   0.088  14.617  1.6636 -0.6585  2.4744
 6250SOL     OW30211   1.957   4.269   6.850 -0.2287 -0.3792 -0.0557
 6250SOL    HW130212   1.970   4.186   6.896  1.1939 -0.1161  0.0266
 6250SOL    HW230213   1.863   4.278   6.866 -0.3013  0.9390 -1.2103
 6251SOL     OW30214   2.712   3.568   5.587 -0.1930 -0.5226 -0.2311
 6251SOL    HW130215   2.766   3.494   5.615 -0.9548 -0.5822  1.0848
 6251SOL    HW230216   2.697   3.604   5.674  3.3691 -2.1300  1.0471
 6252SOL     OW30217   2.344   0.203   9.412  0.2335 -0.1031  0.3753
 6252SOL    HW130218   2.349   0.297   9.430 -0.2101  0.3367 -1.7329
 6252SOL    HW230219   2.346   0.167   9.500 -0.8086 -1.8558 -0.3112
 6253SOL     OW30220   0.069   2.486   2.211 -0.9118 -0.5085 -0.8569
 6253SOL    HW130221   0.071   2.473   2.116 -1.7238 -0.7256 -0.8414
 6253SOL    HW230222   0.111   2.404   2.239  0.0947 -0.2274 -1.5347
 6254SOL     OW30223   2.856   1.664   1.861  0.0639  0.3855 -0.1121
 6254SOL    HW130224   2.942   1.630   1.833  0.0224 -0.0411  0.2779
 6254SOL    HW230225   2.817   1.583   1.895  0.3189  0.0924 -0.5075
 6255SOL     OW30226   3.781   1.631   5.748 -0.6730  0.7905 -0.0309
 6255SOL    HW130227   3.863   1.627   5.698  0.1337  1.4850  1.2289
 6255SOL    HW230228   3.761   1.538   5.752  0.5343  0.4096 -2.8922
 6256SOL     OW30229   1.989   1.315   9.274 -0.4078 -0.0742 -0.4431
 6256SOL    HW130230   1.985   1.400   9.317 -0.7325 -0.1192 -0.3870
 6256SOL    HW230231   1.920   1.263   9.314  0.3604  0.2921  1.3313
 6257SOL     OW30232   2.021   4.434  11.216  0.0663 -0.8641  0.3200
 6257SOL    HW130233   2.073   4.354  11.229  1.8391 -0.1165 -2.1380
 6257SOL    HW230234   1.996   4.425  11.124  1.7639  1.4402 -0.3571
 6258SOL     OW30235   2.580   3.362   8.184 -0.1117  0.1534 -0.0852
 6258SOL    HW130236   2.505   3.330   8.233  0.0653 -0.8723 -0.4889
 6258SOL    HW230237   2.547   3.408   8.107  2.4003  0.3401 -1.0550
 6259SOL     OW30238   1.693   3.344   0.005  0.1095  0.1706 -0.2590
 6259SOL    HW130239   1.608   3.300   0.013 -0.3502  0.6693 -2.5789
 6259SOL    HW230240   1.752   3.287   0.055  1.3469 -0.4142 -2.3989
 6260SOL     OW30241   2.834   1.020  12.882  0.2611 -0.2398  0.2819
 6260SOL    HW130242   2.911   1.011  12.938  1.7314 -0.8754 -1.8311
 6260SOL    HW230243   2.880   1.068  12.814 -1.0990  2.4949  1.2964
 6261SOL     OW30244   4.682   1.425   5.901 -0.0521 -0.1389 -0.0850
 6261SOL    HW130245   0.013   1.496   5.862  0.1518  0.0103  0.4573
 6261SOL    HW230246   4.669   1.360   5.831 -1.0550  0.0672 -0.0960
 6262SOL     OW30247   4.505   1.453   6.361  0.1276 -0.0972  0.4064
 6262SOL    HW130248   4.570   1.435   6.292  0.7610  0.3434  0.8921
 6262SOL    HW230249   4.566   1.493   6.422 -0.3721 -0.3680  1.0803
 6263SOL     OW30250   2.370   3.155   4.002 -0.0512  0.2198 -0.0762
 6263SOL    HW130251   2.441   3.183   3.944  1.1193 -0.4373  1.0609
 6263SOL    HW230252   2.353   3.076   3.951  1.6003  0.5283 -1.1118
 6264SOL     OW30253   2.914   2.931   4.274  0.7646  0.5646  0.3900
 6264SOL    HW130254   2.847   2.991   4.241 -0.3579 -0.1036  1.4035
 6264SOL    HW230255   2.985   2.945   4.212 -0.6120  0.1151 -1.3131
 6265SOL     OW30256   0.036   3.884  10.066 -0.3098 -0.1307  0.1053
 6265SOL    HW130257   4.676   3.832  10.070  0.2216 -0.9033  0.6025
 6265SOL    HW230258   0.096   3.810  10.059 -2.4101 -1.7742 -0.4050
 6266SOL     OW30259   0.390   0.822  16.232  0.1105 -0.3061  0.9610
 6266SOL    HW130260   0.383   0.906  16.186  0.6696 -0.6334  0.2756
 6266SOL    HW230261   0.482   0.813  16.256  0.1917 -2.3176 -0.1101
 6267SOL     OW30262   2.399   0.152   6.400 -0.3769 -0.0583  0.0484
 6267SOL    HW130263   2.382   0.058   6.406  0.2102 -0.2903 -1.7893
 6267SOL    HW230264   2.379   0.188   6.486  1.3375  0.6539  0.1681
 6268SOL     OW30265   4.578   1.803   7.981  0.2657 -0.1870 -0.4623
 6268SOL    HW130266   4.574   1.734   7.915 -1.7169 -1.1118  0.6401
 6268SOL    HW230267   4.674   1.803   7.984  0.2998 -0.0920 -1.4591
 6269SOL     OW30268   3.256   3.533   0.712 -0.3990 -0.6684 -0.0621
 6269SOL    HW130269   3.312   3.493   0.778  3.2418  2.4875 -1.2388
 6269SOL    HW230270   3.299   3.618   0.705 -1.0978 -0.3760 -0.7188
 6270SOL     OW30271   2.319   3.607   2.610 -0.3483 -0.5000  0.3806
 6270SOL    HW130272   2.333   3.690   2.563 -3.0380 -0.7479 -0.8790
 6270SOL    HW230273   2.258   3.643   2.674  1.3083  1.6952  0.7740
 6271SOL     OW30274   1.089   0.666   7.472 -0.0478  0.5166 -0.2641
 6271SOL    HW130275   1.165   0.713   7.437  0.3735 -0.5453 -0.8028
 6271SOL    HW230276   1.107   0.573   7.456 -0.6110  0.8025 -2.4951
 6272SOL     OW30277   1.164   1.081   2.015 -0.0609 -0.0514 -0.0198
 6272SOL    HW130278   1.196   1.035   2.092 -1.1219  0.1461  0.5322
 6272SOL    HW230279   1.088   1.027   1.994  0.1777 -0.6192  0.5889
 6273SOL     OW30280   1.956   0.572   6.793 -0.3167 -0.5032  0.1676
 6273SOL    HW130281   1.878   0.519   6.773  0.3383 -1.6226  0.5558
 6273SOL    HW230282   1.924   0.645   6.844  0.5577 -1.4723  2.0957
 6274SOL     OW30283   3.550   2.595   0.054 -0.0450  0.3131 -0.1194
 6274SOL    HW130284   3.573   2.688   0.049  0.0387  0.3792  1.6247
 6274SOL    HW230285   3.456   2.583   0.042  0.0167 -1.7699  1.5446
 6275SOL     OW30286   2.381   2.265   7.383  0.5589 -0.1858 -1.0134
 6275SOL    HW130287   2.415   2.334   7.327 -0.3006  1.8566  0.9862
 6275SOL    HW230288   2.318   2.316   7.434  0.8457  0.8084 -1.6469
 6276SOL     OW30289   1.393   3.996  17.242  0.5255 -0.1424  0.3059
 6276SOL    HW130290   1.416   4.085  17.213  0.3133  0.2643  1.3921
 6276SOL    HW230291   1.478   3.957  17.219  0.3991  0.8632 -1.8789
 6277SOL     OW30292   3.578   2.900  10.812 -0.6742  0.0790 -0.2660
 6277SOL    HW130293   3.491   2.874  10.781 -0.8746  0.6170 -0.1490
 6277SOL    HW230294   3.617   2.820  10.849 -2.5647 -0.3506  0.7954
 6278SOL     OW30295   3.792   4.438   9.216 -0.4610 -0.9181  0.9873
 6278SOL    HW130296   3.752   4.525   9.228  1.5112 -0.0091  1.0710
 6278SOL    HW230297   3.865   4.458   9.156 -1.0970 -2.2394 -0.2410
 6279SOL     OW30298   3.295   2.275   5.503  0.0375  0.0542  0.6368
 6279SOL    HW130299   3.282   2.224   5.583 -2.6338 -0.9536 -0.4517
 6279SOL    HW230300   3.243   2.216   5.449 -0.2723  1.5656 -0.7203
 6280SOL     OW30301   3.441   3.657  17.492 -0.4500 -0.0477  0.1968
 6280SOL    HW130302   3.458   3.649  17.586  0.1944 -0.0401  0.0833
 6280SOL    HW230303   3.532   3.668  17.464  0.8478 -3.8726  2.8837
 6281SOL     OW30304   0.513   0.361   9.172 -0.4258 -0.0940 -0.3127
 6281SOL    HW130305   0.521   0.365   9.267 -0.5264  1.2804 -0.3657
 6281SOL    HW230306   0.586   0.417   9.147  0.0745 -0.7228 -0.2688
 6282SOL     OW30307   1.974   3.667   0.861  0.1945 -0.1975  0.4971
 6282SOL    HW130308   1.955   3.614   0.783  1.7019 -1.0115  0.6634
 6282SOL    HW230309   2.022   3.736   0.815  1.4692 -1.7211 -0.4567
 6283SOL     OW30310   4.555   0.978   5.367  0.2909  0.1895  0.3915
 6283SOL    HW130311   4.631   0.967   5.425 -0.1590  2.2623  1.3731
 6283SOL    HW230312   4.586   0.938   5.286  1.3762 -0.4986  1.1487
 6284SOL     OW30313   2.251   2.186   8.338  0.4992 -0.5530  0.6762
 6284SOL    HW130314   2.172   2.174   8.391 -0.6799 -1.9515 -1.3991
 6284SOL    HW230315   2.304   2.241   8.395  0.6496 -1.7094  1.6554
 6285SOL     OW30316   1.696   0.487   2.516 -0.2546 -0.3309 -0.4926
 6285SOL    HW130317   1.783   0.498   2.479 -0.2313 -1.0853 -0.6646
 6285SOL    HW230318   1.681   0.577   2.544  1.2442 -0.0676 -0.5501
 6286SOL     OW30319   4.224   4.500   2.653 -0.7210 -0.0397  0.6964
 6286SOL    HW130320   4.162   4.477   2.584 -0.0042 -3.1766  1.0968
 6286SOL    HW230321   4.166   4.535   2.720 -0.7462 -1.7707  1.5890
 6287SOL     OW30322   1.958   1.807   9.138  0.1258  0.1644  0.7741
 6287SOL    HW130323   1.979   1.900   9.131 -0.2601  0.2645  0.9657
 6287SOL    HW230324   1.945   1.796   9.233  0.7702  0.8618  0.9372
 6288SOL     OW30325   3.433   3.092   1.026  0.0262  0.6535  0.1561
 6288SOL    HW130326   3.503   3.068   0.966 -0.2357  1.7701 -0.6044
 6288SOL    HW230327   3.443   3.187   1.032  0.0775  0.5275  2.0345
 6289SOL     OW30328   2.063   2.508   1.442 -0.0640 -0.3595  0.2901
 6289SOL    HW130329   2.107   2.453   1.377  1.0603 -0.0793  0.8189
 6289SOL    HW230330   2.009   2.442   1.487  0.5185 -1.2594 -0.3206
 6290SOL     OW30331   2.336   1.647   8.114  0.4413  0.4794  0.1610
 6290SOL    HW130332   2.351   1.569   8.060  1.3295  1.4072 -0.9416
 6290SOL    HW230333   2.258   1.622   8.163 -0.0470  0.6793 -0.5210
 6291SOL     OW30334   4.109   0.940   8.536  0.3127  0.0388  0.0557
 6291SOL    HW130335   4.130   0.964   8.446 -2.4987 -1.2831 -0.9408
 6291SOL    HW230336   4.177   0.983   8.589  0.2789  0.7661 -0.4971
 6292SOL     OW30337   1.688   2.304   2.087  0.1301  0.1314  0.8058
 6292SOL    HW130338   1.613   2.349   2.050  0.9172 -1.0484 -2.2047
 6292SOL    HW230339   1.748   2.357   2.035 -1.8732 -1.0937 -2.7456
 6293SOL     OW30340   1.552   2.254   5.337  0.2585 -0.3782  0.0142
 6293SOL    HW130341   1.556   2.292   5.249 -3.0203 -0.5761 -0.2409
 6293SOL    HW230342   1.562   2.159   5.333 -0.1428 -0.3531 -1.9696
 6294SOL     OW30343   2.236   2.076   4.423 -0.6037 -0.2627 -0.4716
 6294SOL    HW130344   2.255   2.127   4.345  0.9209 -0.3362 -0.1403
 6294SOL    HW230345   2.165   2.018   4.395 -0.9225 -1.0488  1.9765
 6295SOL     OW30346   0.783   0.132   5.108 -0.1851 -0.7938  0.5516
 6295SOL    HW130347   0.700   0.154   5.150 -0.1412  1.2069 -0.3846
 6295SOL    HW230348   0.838   0.142   5.186  1.2353  1.0215 -0.6675
 6296SOL     OW30349   2.788   3.125   3.410 -0.4193  0.0347 -0.0458
 6296SOL    HW130350   2.723   3.156   3.346  0.1419 -1.4639 -1.3611
 6296SOL    HW230351   2.847   3.079   3.350  1.0362  2.0028 -0.0927
 6297SOL     OW30352   3.888   1.328  11.334 -0.0917 -0.3512 -0.4869
 6297SOL    HW130353   3.972   1.285  11.349 -0.0024  0.1470  0.4420
 6297SOL    HW230354   3.923   1.406  11.290 -1.6888  0.5089 -0.1994
 6298SOL     OW30355   1.254   4.020   4.938  0.4921 -0.2999  0.2387
 6298SOL    HW130356   1.341   4.038   4.974  1.3778 -2.3757 -0.8909
 6298SOL    HW230357   1.260   3.935   4.894 -3.0665 -1.6879  2.3784
 6299SOL     OW30358   0.995   2.129   6.333 -0.0945 -0.2640  0.3813
 6299SOL    HW130359   1.012   2.085   6.417 -0.6948 -3.3222 -1.1127
 6299SOL    HW230360   1.002   2.058   6.270 -1.6624  0.6433 -0.8183
 6300SOL     OW30361   0.517   1.604  17.223  0.1375 -0.1467 -0.4682
 6300SOL    HW130362   0.439   1.552  17.200 -1.2095  0.9705  1.6262
 6300SOL    HW230363   0.475   1.685  17.195  2.4604  0.6987 -1.4580
 6301SOL     OW30364   4.042   0.292  16.604 -0.5538 -0.1955  0.1271
 6301SOL    HW130365   3.966   0.242  16.575 -1.6193  1.0913  0.7255
 6301SOL    HW230366   4.113   0.249  16.555 -1.0003 -0.0962 -0.6039
 6302SOL     OW30367   2.815   1.264   8.818  0.1782 -0.0293 -0.6650
 6302SOL    HW130368   2.894   1.252   8.869  0.3979  1.7512 -0.5757
 6302SOL    HW230369   2.770   1.180   8.822  0.5401 -0.1875 -0.0211
 6303SOL     OW30370   3.514   0.655   1.796  0.1349  0.2371 -0.2593
 6303SOL    HW130371   3.474   0.650   1.709  1.2479  1.4511 -0.8397
 6303SOL    HW230372   3.543   0.564   1.805  1.5101  0.6687 -0.3664
 6304SOL     OW30373   0.419   3.524  17.039  0.3692  0.4420 -0.0590
 6304SOL    HW130374   0.436   3.430  17.046  1.3546  0.5124 -1.6491
 6304SOL    HW230375   0.510   3.553  17.046  0.9605 -1.7281  1.0327
 6305SOL     OW30376   4.180   0.333  11.843  0.3508  0.1653  0.7002
 6305SOL    HW130377   4.173   0.314  11.936 -0.6067  0.4865  0.6965
 6305SOL    HW230378   4.167   0.243  11.811  1.1009 -0.2813  1.6505
 6306SOL     OW30379   0.374   0.476   3.117  0.0100  0.2530  0.3441
 6306SOL    HW130380   0.409   0.498   3.203 -0.0380 -1.2192  0.7325
 6306SOL    HW230381   0.407   0.557   3.078  0.1338 -0.9438 -2.0198
 6307SOL     OW30382   4.696   0.141  15.940  0.5910  0.4604  0.0827
 6307SOL    HW130383   4.692   0.074  15.872  0.4507  1.1357 -0.5639
 6307SOL    HW230384   0.030   0.192  15.880 -0.1222  0.9210 -0.1636
 6308SOL     OW30385   0.558   4.402   1.170 -0.4295  0.2063  0.0033
 6308SOL    HW130386   0.619   4.347   1.122  0.2253  0.0904  0.9653
 6308SOL    HW230387   0.605   4.483   1.187 -2.2275  0.8701  1.8048
 6309SOL     OW30388   0.348   4.542   5.746 -0.0319 -0.4782 -0.0273
 6309SOL    HW130389   0.349   4.624   5.697  2.4064 -0.5265 -0.0558
 6309SOL    HW230390   0.253   4.539   5.762 -0.4257 -1.3193 -2.5826
 6310SOL     OW30391   0.050   1.822   7.290 -0.9670  0.0044 -0.4228
 6310SOL    HW130392   4.690   1.823   7.237 -0.5286  2.9578 -1.0779
 6310SOL    HW230393   0.043   1.894   7.353  1.7624 -1.3933  1.4404
 6311SOL     OW30394   0.609   2.976  12.499  0.7574 -0.2490 -0.2803
 6311SOL    HW130395   0.651   2.935  12.575  0.6937 -2.2764 -1.3217
 6311SOL    HW230396   0.622   2.905  12.436 -0.2233 -0.6571 -0.0234
 6312SOL     OW30397   1.329   4.621  10.217  0.9626  0.1268  0.2322
 6312SOL    HW130398   1.352   4.654  10.304  3.0625  0.6347 -0.5273
 6312SOL    HW230399   1.237   4.645  10.204  1.2971  1.9231  1.1173
 6313SOL     OW30400   4.450   3.843  14.913 -0.2977  0.0462  0.1253
 6313SOL    HW130401   4.451   3.747  14.910  1.2523  0.0641  0.2586
 6313SOL    HW230402   4.540   3.870  14.901  0.3926 -2.5331 -0.4842
 6314SOL     OW30403   0.960   0.784   4.277  0.2822  0.4504  0.2331
 6314SOL    HW130404   0.920   0.844   4.213  0.0937 -0.1351 -0.1999
 6314SOL    HW230405   1.040   0.828   4.306  0.1735 -0.4054  1.8186
 6315SOL     OW30406   2.907   2.650   3.130  0.3839 -0.2439 -0.2845
 6315SOL    HW130407   2.813   2.631   3.126  0.5052 -0.8886 -0.1824
 6315SOL    HW230408   2.915   2.717   3.062  0.3285  1.5485  1.4911
 6316SOL     OW30409   4.224   0.715   6.174  0.0692  0.5333 -0.1614
 6316SOL    HW130410   4.305   0.724   6.223 -1.9139  0.3321  3.1788
 6316SOL    HW230411   4.255   0.663   6.100  1.2156 -2.9451  2.7277
 6317SOL     OW30412   2.573   4.219   0.028 -0.7770 -0.0413 -0.1494
 6317SOL    HW130413   2.640   4.281  17.680 -0.6636 -0.3759 -0.5836
 6317SOL    HW230414   2.586   4.150  17.645  2.4817  1.4626 -1.1028
 6318SOL     OW30415   2.790   1.857  12.447 -0.1838 -0.1602  0.8555
 6318SOL    HW130416   2.697   1.871  12.427  0.6466  0.9661 -2.1138
 6318SOL    HW230417   2.830   1.852  12.360  2.3415  0.2804  1.9990
 6319SOL     OW30418   2.941   3.459  12.826  0.4630  0.0047  0.3152
 6319SOL    HW130419   2.859   3.464  12.777 -0.0677  0.7724  1.2670
 6319SOL    HW230420   2.947   3.542  12.873  2.9690  0.8349 -1.5194
 6320SOL     OW30421   2.710   2.005  13.890  0.1914  0.1504  0.1127
 6320SOL    HW130422   2.617   2.023  13.882 -0.6100 -3.2379  1.5996
 6320SOL    HW230423   2.740   2.085  13.847  0.2502 -0.2333 -0.5673
 6321SOL     OW30424   3.646   0.841   3.157  0.1697  0.4415  0.2182
 6321SOL    HW130425   3.635   0.750   3.186 -1.3897 -0.2602 -2.5860
 6321SOL    HW230426   3.683   0.822   3.071 -0.9611 -0.5796 -0.0421
 6322SOL     OW30427   3.749   2.444  11.941 -0.1031 -0.5397  0.2186
 6322SOL    HW130428   3.693   2.518  11.962 -0.7623 -0.8924 -0.2828
 6322SOL    HW230429   3.775   2.457  11.850  0.7999 -0.9231  0.4231
 6323SOL     OW30430   1.546   0.911   4.580  0.0335 -0.0880  0.3217
 6323SOL    HW130431   1.475   0.960   4.623  0.5927 -0.3070  1.5058
 6323SOL    HW230432   1.610   0.912   4.651  0.8006  0.4199 -0.3743
 6324SOL     OW30433   2.649   3.998  14.093 -0.1928  0.3919  0.1779
 6324SOL    HW130434   2.671   3.906  14.075 -0.8853  0.1969  0.3439
 6324SOL    HW230435   2.620   3.996  14.184 -2.1350  1.5218 -0.4318
 6325SOL     OW30436   1.544   3.675   6.529 -0.0929 -0.1083  0.5379
 6325SOL    HW130437   1.514   3.599   6.578  3.1062 -1.4312  0.4030
 6325SOL    HW230438   1.629   3.638   6.505 -1.1488 -2.9945  1.2539
 6326SOL     OW30439   3.360   2.445   8.268 -0.6449  0.1766 -0.1825
 6326SOL    HW130440   3.331   2.440   8.177  1.4971 -0.7412 -0.8003
 6326SOL    HW230441   3.296   2.383   8.303 -1.1618 -0.7055 -2.7199
 6327SOL     OW30442   4.579   4.361  11.357  0.1799  0.3895 -0.2859
 6327SOL    HW130443   4.496   4.315  11.343  0.1958  0.4080 -0.4405
 6327SOL    HW230444   4.561   4.406  11.440  1.2024 -0.0248  0.1614
 6328SOL     OW30445   1.460   3.761  11.076  0.1038  0.7648 -0.3164
 6328SOL    HW130446   1.432   3.769  11.167 -0.3850  0.7331 -0.4644
 6328SOL    HW230447   1.406   3.827  11.031 -0.8211 -0.3037 -0.7847
 6329SOL     OW30448   4.197   0.568   7.522  0.3761 -0.5197  0.5993
 6329SOL    HW130449   4.155   0.487   7.495  1.6724 -1.1851  0.5949
 6329SOL    HW230450   4.128   0.595   7.582  2.2953 -1.3660  3.2032
 6330SOL     OW30451   0.172   3.107  15.393  0.2956 -0.5829  0.1828
 6330SOL    HW130452   0.084   3.137  15.417  0.8582  1.7566 -0.7466
 6330SOL    HW230453   0.154   3.017  15.366 -1.6805 -0.1724  0.1191
 6331SOL     OW30454   3.368   2.615   4.252 -0.2397  0.4096  0.1222
 6331SOL    HW130455   3.307   2.589   4.321  0.3009 -1.8372 -0.2487
 6331SOL    HW230456   3.420   2.679   4.299 -0.1789  1.4371 -1.3382
 6332SOL     OW30457   0.546   2.890   3.768 -0.2583  0.4712 -0.3047
 6332SOL    HW130458   0.548   2.801   3.733 -1.0149  1.0218 -1.7245
 6332SOL    HW230459   0.541   2.877   3.863 -2.6805 -0.1683 -0.5286
 6333SOL     OW30460   2.838   2.442  13.382  0.4599 -0.1605 -0.2472
 6333SOL    HW130461   2.914   2.491  13.413 -0.3543  0.6551  0.4482
 6333SOL    HW230462   2.803   2.512  13.329 -0.1124 -0.3541 -0.1206
 6334SOL     OW30463   2.109   0.133   5.935 -0.6056  0.0143  0.2805
 6334SOL    HW130464   2.043   0.130   5.867 -1.1314  0.8876  0.7631
 6334SOL    HW230465   2.116   0.226   5.953 -2.3587  0.4299 -1.1847
 6335SOL     OW30466   2.039   1.332  12.750  0.1989 -0.4118 -0.1441
 6335SOL    HW130467   2.058   1.425  12.738 -2.3345 -0.0295 -1.2495
 6335SOL    HW230468   1.944   1.323  12.741  0.0842 -0.0966  0.7135
 6336SOL     OW30469   3.748   2.556   0.514  0.5517  0.1083  0.0755
 6336SOL    HW130470   3.690   2.626   0.485 -1.8899 -1.6947  0.6525
 6336SOL    HW230471   3.817   2.608   0.556 -1.1526  1.7578  0.8089
 6337SOL     OW30472   1.505   4.160   5.773 -0.2754  0.0651 -0.0670
 6337SOL    HW130473   1.483   4.253   5.775  0.3572  0.2171 -0.4023
 6337SOL    HW230474   1.429   4.134   5.722 -1.3788  3.1208 -0.0087
 6338SOL     OW30475   0.630   0.999  12.868  0.0834  0.6502 -0.0292
 6338SOL    HW130476   0.636   1.011  12.963  1.7272 -2.4340  0.2691
 6338SOL    HW230477   0.539   1.022  12.853 -0.1806  0.2015  0.8913
 6339SOL     OW30478   1.756   0.058   5.998 -0.1869  0.1366 -0.2600
 6339SOL    HW130479   1.683   0.096   6.047  0.1371  0.8661 -0.3425
 6339SOL    HW230480   1.793   4.716   6.061  1.3429  1.8299  0.4868
 6340SOL     OW30481   0.777   4.619   9.376  0.0293  0.7935  0.2877
 6340SOL    HW130482   0.838   4.647   9.444  1.9332 -0.4257 -0.9336
 6340SOL    HW230483   0.703   4.580   9.424  0.4184 -1.3797 -0.8528
 6341SOL     OW30484   2.050   2.130   8.490  0.9464 -0.0666  0.3912
 6341SOL    HW130485   2.083   2.050   8.531  0.8900 -0.4505 -0.3100
 6341SOL    HW230486   1.957   2.111   8.506  1.2726 -1.0014  1.1656
 6342SOL     OW30487   3.196   1.934   0.649  0.4662  0.5909  0.4575
 6342SOL    HW130488   3.218   1.928   0.742  1.6429 -1.4424  0.0417
 6342SOL    HW230489   3.184   2.029   0.642  0.4480  0.7832  2.8732
 6343SOL     OW30490   2.669   0.943   4.713  0.2024  1.4327  0.2148
 6343SOL    HW130491   2.610   0.870   4.733  0.7270  1.2338  1.0087
 6343SOL    HW230492   2.712   0.951   4.798  0.2942  0.3217  0.2744
 6344SOL     OW30493   3.337   4.157   3.407  0.3050 -0.4361  0.3694
 6344SOL    HW130494   3.277   4.218   3.365 -0.5335 -0.9990  0.7602
 6344SOL    HW230495   3.354   4.093   3.337  0.2311  0.6715 -0.6512
 6345SOL     OW30496   2.893   0.632   6.905  0.4460 -0.1843  0.7277
 6345SOL    HW130497   2.902   0.724   6.882 -1.0381  0.0579  1.1347
 6345SOL    HW230498   2.813   0.607   6.858  2.2723 -0.6356 -2.1486
 6346SOL     OW30499   2.167   2.129   0.215  0.3171 -0.6856  0.9071
 6346SOL    HW130500   2.076   2.147   0.241  1.3106  1.3235  2.9360
 6346SOL    HW230501   2.155   2.046   0.169  1.4852 -0.0277 -0.5721
 6347SOL     OW30502   4.468   3.645   5.890 -0.4674 -0.4063 -0.2796
 6347SOL    HW130503   4.442   3.631   5.981 -2.2590 -0.1081 -0.7452
 6347SOL    HW230504   4.386   3.635   5.842 -1.0279 -1.2042  0.8297
 6348SOL     OW30505   2.059   4.636   5.642  0.5610 -0.1392  0.3803
 6348SOL    HW130506   1.990   4.619   5.706  0.0792 -0.1335 -0.1348
 6348SOL    HW230507   2.069   0.011   5.634  4.5814 -0.6408 -0.2822
 6349SOL     OW30508   3.161   3.093  10.057 -0.6697  0.6845 -0.0652
 6349SOL    HW130509   3.234   3.151  10.039  0.6074 -0.6140  0.8790
 6349SOL    HW230510   3.117   3.154  10.117 -1.9972 -1.9533  1.6623
 6350SOL     OW30511   4.586   2.855   4.794 -0.0681  0.6373 -0.2998
 6350SOL    HW130512   4.646   2.780   4.793 -0.0087  0.6663  0.7055
 6350SOL    HW230513   4.529   2.826   4.865  0.6992 -0.1749  0.0006
 6351SOL     OW30514   3.312   3.181  14.837 -0.4146 -0.1369 -0.3365
 6351SOL    HW130515   3.279   3.204  14.923 -0.3176 -0.1456 -0.2968
 6351SOL    HW230516   3.383   3.245  14.831  1.3061 -2.1315 -1.2297
 6352SOL     OW30517   3.578   0.997   6.278  0.6712 -0.3313 -0.2091
 6352SOL    HW130518   3.623   0.949   6.348  0.8254  0.5206  0.2804
 6352SOL    HW230519   3.582   0.935   6.205 -0.3954 -0.4847 -0.1418
 6353SOL     OW30520   1.650   1.571   5.780 -0.3274 -0.4892 -0.0050
 6353SOL    HW130521   1.582   1.639   5.780 -2.3612 -2.5241  0.9132
 6353SOL    HW230522   1.723   1.618   5.821 -0.4902 -1.0317  0.9172
 6354SOL     OW30523   3.423   4.719   4.045 -0.0575 -0.4177 -0.0126
 6354SOL    HW130524   3.393   0.081   4.006  0.5404  0.1289  0.6958
 6354SOL    HW230525   3.369   4.659   3.992  0.0616  1.7357 -2.5778
 6355SOL     OW30526   0.955   2.440  11.715 -0.5815  0.2022  0.1511
 6355SOL    HW130527   0.867   2.478  11.715 -0.2046  1.0656  0.7895
 6355SOL    HW230528   0.995   2.496  11.781 -0.1499 -1.5307  1.3398
 6356SOL     OW30529   2.320   1.895   8.044  0.6506  0.0645 -0.1848
 6356SOL    HW130530   2.332   1.809   8.083  0.5436  0.9484  1.8236
 6356SOL    HW230531   2.262   1.865   7.975  1.1685  1.2493 -1.1487
 6357SOL     OW30532   2.136   3.486   8.322 -0.3835  0.2776 -0.2042
 6357SOL    HW130533   2.199   3.542   8.369 -0.6762 -0.5431  1.1825
 6357SOL    HW230534   2.175   3.488   8.235 -0.4336  1.1586 -0.2057
 6358SOL     OW30535   0.212   3.382   3.947 -0.2223 -0.1455 -0.2047
 6358SOL    HW130536   0.267   3.408   3.873 -2.3983  1.2399 -1.3495
 6358SOL    HW230537   0.223   3.288   3.929  0.7870  0.0024 -0.3194
 6359SOL     OW30538   0.692   0.070   7.822 -0.5327  0.3249 -0.4235
 6359SOL    HW130539   0.637   4.716   7.848 -1.1287  1.0308  0.3476
 6359SOL    HW230540   0.628   0.132   7.787 -2.2613  0.2249  2.4977
 6360SOL     OW30541   3.659   2.976   2.791  0.8504  0.0272  0.6999
 6360SOL    HW130542   3.701   2.906   2.742 -1.8525 -1.4068  0.4039
 6360SOL    HW230543   3.733   3.036   2.781  0.8029 -0.0237  0.0095
 6361SOL     OW30544   2.825   0.284   4.628 -0.1743 -0.2910 -0.1559
 6361SOL    HW130545   2.873   0.207   4.598  1.8947  0.8845  0.1038
 6361SOL    HW230546   2.796   0.258   4.716 -0.3008 -1.8226 -0.6626
 6362SOL     OW30547   0.556   4.359   6.712 -0.0982  0.3920  0.2189
 6362SOL    HW130548   0.531   4.423   6.779 -0.4068 -0.2566  0.7301
 6362SOL    HW230549   0.537   4.277   6.759 -0.4702  0.4410  0.1550
 6363SOL     OW30550   4.552   0.955   1.706 -0.2392  0.3170  0.7445
 6363SOL    HW130551   4.619   0.892   1.678 -0.4036  0.8123 -0.7430
 6363SOL    HW230552   4.476   0.897   1.706 -1.3955  1.8488 -1.1202
 6364SOL     OW30553   2.216   2.654   6.482  0.1443  0.3365 -0.2669
 6364SOL    HW130554   2.198   2.575   6.432  2.7171 -1.7232  2.0700
 6364SOL    HW230555   2.311   2.666   6.473  0.2714 -0.8745 -0.5552
 6365SOL     OW30556   4.670   4.131   5.477  0.0633 -0.1965  0.0462
 6365SOL    HW130557   0.006   4.133   5.554  0.8584 -0.5830 -0.5176
 6365SOL    HW230558   4.593   4.181   5.506 -1.1345 -1.3920 -1.0435
 6366SOL     OW30559   0.361   3.035   9.926 -0.5172  0.5588 -0.2304
 6366SOL    HW130560   0.422   3.071   9.991 -2.4822  0.3217  1.7357
 6366SOL    HW230561   0.287   3.091   9.949  2.6137  3.4333  2.8869
 6367SOL     OW30562   3.554   4.652   2.407  0.3321  0.0449  0.1602
 6367SOL    HW130563   3.514   0.010   2.371 -2.6017 -0.5345  2.1375
 6367SOL    HW230564   3.495   4.585   2.373 -1.1527  0.2936  2.2670
 6368SOL     OW30565   0.660   0.074   9.664 -0.4070  0.0930 -0.5112
 6368SOL    HW130566   0.661   4.717   9.720  2.0313  0.1284 -0.5214
 6368SOL    HW230567   0.592   0.131   9.702  2.0343  2.6501 -0.0014
 6369SOL     OW30568   4.085   0.333  12.114 -0.2767 -0.1732 -0.0514
 6369SOL    HW130569   4.140   0.256  12.095 -1.5450 -1.0962  0.0287
 6369SOL    HW230570   4.079   0.334  12.210  1.2841  1.0960  0.0324
 6370SOL     OW30571   4.113   0.909   7.389 -0.0563 -0.2610  0.1212
 6370SOL    HW130572   4.142   0.881   7.476  2.3038  0.7205 -0.3505
 6370SOL    HW230573   4.119   1.003   7.403 -0.4218 -0.4371  1.4965
 6371SOL     OW30574   2.852   3.229  11.823 -0.5539 -0.1394  0.0607
 6371SOL    HW130575   2.845   3.214  11.917  0.9228  2.7147  0.6344
 6371SOL    HW230576   2.818   3.318  11.813 -0.6230 -0.2397 -0.5847
 6372SOL     OW30577   1.825   1.930   1.021  0.2562  0.0600 -0.2050
 6372SOL    HW130578   1.889   1.987   0.980  1.1335 -0.8712 -0.1562
 6372SOL    HW230579   1.878   1.871   1.076  0.0159  0.2520  0.2317
 6373SOL     OW30580   2.126   0.200   5.062  0.3486 -0.1967 -0.3864
 6373SOL    HW130581   2.089   0.123   5.020 -1.4641  0.8375 -0.6668
 6373SOL    HW230582   2.095   0.196   5.152 -0.6868  0.9641 -0.6898
 6374SOL     OW30583   1.625   2.643   8.570  0.5803 -0.1157  0.0454
 6374SOL    HW130584   1.595   2.727   8.604  1.0918  0.3798 -0.7302
 6374SOL    HW230585   1.699   2.619   8.626  0.0469 -3.2450 -0.6005
 6375SOL     OW30586   3.778   0.891  11.183 -0.2854  0.7291 -0.0571
 6375SOL    HW130587   3.817   0.945  11.115  2.0204  0.4060  1.0054
 6375SOL    HW230588   3.722   0.958  11.221  0.2994  1.3015 -0.2206
 6376SOL     OW30589   4.449   0.971  17.271  0.4838  0.1624  0.6774
 6376SOL    HW130590   4.502   0.961  17.350  1.5248 -0.7495 -0.1499
 6376SOL    HW230591   4.467   0.887  17.230  0.0696  0.8410 -0.9360
 6377SOL     OW30592   3.869   0.573  10.607 -0.6131 -0.0231 -0.9275
 6377SOL    HW130593   3.892   0.485  10.635 -1.1280  0.4115  0.8834
 6377SOL    HW230594   3.826   0.606  10.686 -2.1147  0.0995 -1.7935
 6378SOL     OW30595   0.592   1.374   6.607  0.1043  0.2151  0.1038
 6378SOL    HW130596   0.621   1.314   6.538 -0.1214 -0.4971  0.6257
 6378SOL    HW230597   0.554   1.310   6.668 -1.4611  1.8869  0.8860
 6379SOL     OW30598   1.752   3.797  17.546  0.2979 -0.2453 -0.1786
 6379SOL    HW130599   1.717   3.880  17.517  0.4146  0.1083  0.6811
 6379SOL    HW230600   1.681   3.749  17.588  1.2582 -2.9835 -1.6716
 6380SOL     OW30601   0.147   2.813   4.059 -0.8032  0.5430  0.1132
 6380SOL    HW130602   0.146   2.860   4.142  0.5429 -2.3305  1.7912
 6380SOL    HW230603   0.206   2.738   4.074 -0.4332  0.9043  0.4641
 6381SOL     OW30604   3.390   2.223  11.180 -0.2117 -0.3693  0.9568
 6381SOL    HW130605   3.359   2.208  11.269 -2.1688 -1.8781  0.0115
 6381SOL    HW230606   3.368   2.138  11.140  0.7655 -0.5421  0.7730
 6382SOL     OW30607   0.095   0.978   9.109  0.2543 -0.2911 -0.1100
 6382SOL    HW130608   0.066   1.069   9.118 -1.2042 -0.5015 -2.4884
 6382SOL    HW230609   0.157   0.980   9.182  0.8620  0.3858 -0.6500
 6383SOL     OW30610   4.212   0.031   8.098  0.2299  0.2438  0.4424
 6383SOL    HW130611   4.259   4.701   8.165  0.0113 -0.3348  0.1617
 6383SOL    HW230612   4.276   0.027   8.028  0.9655 -2.8238  1.3009
 6384SOL     OW30613   3.417   1.584   2.225  0.1207  0.4039 -0.1263
 6384SOL    HW130614   3.427   1.498   2.185 -0.3989 -0.4546  1.5539
 6384SOL    HW230615   3.333   1.567   2.267  1.0963 -0.5939  1.4389
 6385SOL     OW30616   0.612   0.624   2.564 -0.4020 -0.2267 -0.6756
 6385SOL    HW130617   0.698   0.583   2.560 -0.0969  0.4409 -1.0392
 6385SOL    HW230618   0.586   0.621   2.656 -1.2097 -0.2320 -0.9088
 6386SOL     OW30619   0.852   0.693   6.028 -0.4372 -0.1677  0.1416
 6386SOL    HW130620   0.946   0.700   6.048 -1.1095 -1.2620  3.5625
 6386SOL    HW230621   0.853   0.615   5.974  1.2009  1.2708 -1.9123
 6387SOL     OW30622   1.696   4.292   6.015 -0.3920  0.3956  0.3502
 6387SOL    HW130623   1.694   4.376   5.968 -0.9012 -0.7700 -1.7197
 6387SOL    HW230624   1.735   4.314   6.099 -1.0252  2.2740  0.1583
 6388SOL     OW30625   4.181   4.165   6.620 -0.0103 -0.3513 -0.2207
 6388SOL    HW130626   4.155   4.250   6.584 -0.0383 -1.1917 -2.1735
 6388SOL    HW230627   4.097   4.129   6.650 -0.5696 -0.2561 -1.6923
 6389SOL     OW30628   4.015   1.566   5.953 -0.4555 -0.5062 -0.3796
 6389SOL    HW130629   4.019   1.470   5.961  2.6310 -0.5325 -2.2038
 6389SOL    HW230630   3.927   1.583   5.988  0.2954  1.1765  0.6691
 6390SOL     OW30631   3.369   1.182   3.617 -0.1180 -0.1521 -0.2834
 6390SOL    HW130632   3.328   1.267   3.599 -0.4773 -0.3918 -0.6017
 6390SOL    HW230633   3.428   1.201   3.689  0.3244  4.1627 -1.7783
 6391SOL     OW30634   1.164   4.552   9.384  0.2596  0.0899 -0.3387
 6391SOL    HW130635   1.112   4.489   9.434  0.0462  0.0961 -0.5530
 6391SOL    HW230636   1.100   4.622   9.387  1.8663  1.6021 -1.4174
 6392SOL     OW30637   0.546   1.369   5.895 -0.3837 -0.4055  0.1298
 6392SOL    HW130638   0.593   1.287   5.904 -0.8821 -0.7426 -0.3388
 6392SOL    HW230639   0.453   1.351   5.911 -0.3390 -0.8496 -0.1100
 6393SOL     OW30640   3.367   4.184   5.296 -0.0547  0.1794 -0.3252
 6393SOL    HW130641   3.342   4.258   5.242  1.3899  0.1309 -1.0453
 6393SOL    HW230642   3.316   4.198   5.376 -0.1344 -1.0365 -0.1646
 6394SOL     OW30643   0.904   1.089   4.896  0.8807 -0.6218  0.3881
 6394SOL    HW130644   0.937   1.179   4.895  0.0444 -0.3152  0.0956
 6394SOL    HW230645   0.838   1.087   4.826  0.4288 -1.1349  0.8303
 6395SOL     OW30646   1.637   0.131   9.092  0.1328 -0.0797  0.6510
 6395SOL    HW130647   1.582   0.136   9.170  0.0541 -1.4291  0.6856
 6395SOL    HW230648   1.703   0.066   9.120  1.9588  1.8900  0.9520
 6396SOL     OW30649   2.573   0.519   9.144 -0.6408 -0.1156  0.4541
 6396SOL    HW130650   2.650   0.566   9.112  0.0241 -3.3005 -2.6527
 6396SOL    HW230651   2.609   0.483   9.225 -0.0413  2.6686  1.4169
 6397SOL     OW30652   3.027   2.131   3.333 -0.5584 -0.1997  0.6674
 6397SOL    HW130653   2.932   2.133   3.335 -0.5716  0.6508 -1.7501
 6397SOL    HW230654   3.041   2.141   3.428 -0.2774 -0.7886  0.6895
 6398SOL     OW30655   3.623   1.302  12.803 -0.4001  0.0078  0.4492
 6398SOL    HW130656   3.718   1.314  12.796 -0.5842  2.6624  2.3039
 6398SOL    HW230657   3.599   1.339  12.718 -0.5436 -2.2585 -0.4962
 6399SOL     OW30658   3.695   3.718   3.418 -0.0695  0.5682 -0.0614
 6399SOL    HW130659   3.671   3.806   3.447  0.2301 -0.0332  2.0601
 6399SOL    HW230660   3.613   3.670   3.427  1.2571 -2.2316 -3.0140
 6400SOL     OW30661   2.250   2.020  13.341  0.0115 -0.0585 -0.6279
 6400SOL    HW130662   2.179   2.018  13.277 -0.5680 -3.8288  0.1379
 6400SOL    HW230663   2.196   2.001  13.418  1.6575 -0.0647  0.5160
 6401SOL     OW30664   0.043   3.689   9.075  0.1418  0.0245 -0.0085
 6401SOL    HW130665   0.062   3.770   9.027  1.4859  0.8401  1.8926
 6401SOL    HW230666   4.668   3.691   9.069  0.0878  0.9678  1.1944
 6402SOL     OW30667   0.995   3.140   8.591 -0.2241  0.2641  0.7791
 6402SOL    HW130668   0.912   3.175   8.624 -1.4705  0.4715 -2.5589
 6402SOL    HW230669   0.962   3.090   8.516  0.5029 -1.3778  1.5592
 6403SOL     OW30670   0.683   4.021   2.108  0.1868  0.3494  0.0034
 6403SOL    HW130671   0.700   4.105   2.066 -2.1499  0.8652  0.1075
 6403SOL    HW230672   0.663   3.970   2.030  0.4337 -1.8794  1.3878
 6404SOL     OW30673   0.391   4.646   1.079  0.2021  0.6285 -0.0107
 6404SOL    HW130674   0.466   4.592   1.057 -0.6232  0.0271 -1.3453
 6404SOL    HW230675   0.376   4.663   0.986 -0.9666  1.5250  0.3295
 6405SOL     OW30676   4.045   1.866   6.069  0.2736 -0.1798  0.6386
 6405SOL    HW130677   3.985   1.811   6.017 -0.2401  0.1766  0.8520
 6405SOL    HW230678   4.010   1.841   6.154 -0.7052 -0.4548  0.1626
 6406SOL     OW30679   2.421   0.574   5.787 -0.1967 -0.3210  0.4424
 6406SOL    HW130680   2.481   0.522   5.734 -1.0278  0.3525 -1.1502
 6406SOL    HW230681   2.470   0.648   5.824  1.6096  0.1506 -2.8650
 6407SOL     OW30682   2.816   2.935  12.843 -0.2402 -0.6440  0.0627
 6407SOL    HW130683   2.847   3.020  12.812 -0.5159 -0.2145  0.9797
 6407SOL    HW230684   2.735   2.925  12.792 -0.5179 -0.1343  0.4032
 6408SOL     OW30685   1.305   1.401   6.706 -0.1991 -0.3771  0.0753
 6408SOL    HW130686   1.263   1.487   6.696 -0.7164 -0.6722 -0.2951
 6408SOL    HW230687   1.394   1.430   6.686  0.0811 -1.6486 -0.4893
 6409SOL     OW30688   2.676   3.043   4.152  0.3289  0.0778 -0.4556
 6409SOL    HW130689   2.617   2.969   4.147 -1.6599  1.4874  1.9044
 6409SOL    HW230690   2.623   3.100   4.208  1.8643  1.5147 -0.4522
 6410SOL     OW30691   1.038   3.193   3.731 -0.3017 -0.1575 -1.0938
 6410SOL    HW130692   0.955   3.226   3.696 -1.0885  0.5182  1.4155
 6410SOL    HW230693   1.052   3.247   3.809 -0.1212  1.0912 -1.9752
 6411SOL     OW30694   3.536   2.972  15.773  0.8094  0.1275 -0.2043
 6411SOL    HW130695   3.564   3.057  15.740  1.8954  0.4709  1.6119
 6411SOL    HW230696   3.452   2.966  15.728  0.7965 -2.4137  0.1524
 6412SOL     OW30697   1.045   4.710   8.005  0.0830 -0.3871  0.3383
 6412SOL    HW130698   1.077   0.061   7.950  0.9115 -0.1882  1.0838
 6412SOL    HW230699   1.109   4.644   7.979  2.1275  0.9756  1.9200
 6413SOL     OW30700   4.172   2.016  17.443  0.0217  0.1491 -0.4536
 6413SOL    HW130701   4.114   2.084  17.476  0.4913  1.1595 -1.7492
 6413SOL    HW230702   4.122   1.967  17.378 -0.5080 -1.3556  1.0812
 6414SOL     OW30703   3.118   4.518   6.852  0.0358  0.4233 -0.0784
 6414SOL    HW130704   3.115   4.509   6.757 -2.1093  0.3912  0.0014
 6414SOL    HW230705   3.098   4.611   6.857  2.4400  1.0622 -2.4843
 6415SOL     OW30706   3.531   3.415  15.119 -0.3356 -0.3156  0.5227
 6415SOL    HW130707   3.509   3.502  15.151  0.2276 -0.2295  0.6777
 6415SOL    HW230708   3.546   3.429  15.026  0.2785 -0.0514  0.6594
 6416SOL     OW30709   1.999   3.522   1.193  0.1484  0.2005  0.0366
 6416SOL    HW130710   1.926   3.547   1.136  0.3653  1.0461  0.1385
 6416SOL    HW230711   2.067   3.529   1.126  0.2906 -1.5141 -0.0013
 6417SOL     OW30712   3.587   1.750  13.068 -0.1330 -0.1932 -0.6846
 6417SOL    HW130713   3.558   1.658  13.065 -0.6393 -0.0300 -0.8394
 6417SOL    HW230714   3.548   1.769  13.153  1.3385  0.1573 -0.0868
 6418SOL     OW30715   0.922   2.609   6.079  0.2618  0.3946  0.7262
 6418SOL    HW130716   0.829   2.596   6.057  0.7275 -1.1134 -0.3279
 6418SOL    HW230717   0.927   2.648   6.166  1.1505 -2.0462  1.7351
 6419SOL     OW30718   2.863   1.070   0.644 -0.4031  0.0076 -0.5096
 6419SOL    HW130719   2.958   1.067   0.630 -0.3065  3.0099 -0.4652
 6419SOL    HW230720   2.846   0.994   0.700  1.9059  0.3088  0.5865
 6420SOL     OW30721   1.129   4.695  13.354  0.0479  0.1131 -0.4667
 6420SOL    HW130722   1.182   4.625  13.315  1.1798  1.1626 -0.8151
 6420SOL    HW230723   1.197   0.042  13.368 -0.1659 -0.3374  2.7137
 6421SOL     OW30724   4.236   2.084   2.389  0.1275 -0.0737 -0.1409
 6421SOL    HW130725   4.174   2.027   2.435 -1.4895  0.0381 -2.1399
 6421SOL    HW230726   4.172   2.143   2.348 -0.3260 -1.4817 -1.4617
 6422SOL     OW30727   1.804   2.916  11.753 -0.1193 -0.0444  0.0531
 6422SOL    HW130728   1.882   2.864  11.772  0.5477  1.6823  1.9929
 6422SOL    HW230729   1.733   2.881  11.807  0.8783 -0.6506  0.9534
 6423SOL     OW30730   1.004   3.518   3.539 -0.1135 -0.0817  0.2559
 6423SOL    HW130731   0.950   3.539   3.616 -0.3371 -1.9403  0.6092
 6423SOL    HW230732   0.939   3.481   3.481  1.1566 -0.9590 -0.5995
 6424SOL     OW30733   3.524   2.641   7.415  0.1090 -0.3842  0.0163
 6424SOL    HW130734   3.498   2.676   7.501  0.5763 -3.6667  1.4854
 6424SOL    HW230735   3.595   2.589   7.451  0.2006  0.8520  1.6292
 6425SOL     OW30736   0.095   0.418  17.172  0.2584  0.4302 -0.1331
 6425SOL    HW130737   0.090   0.323  17.162  1.0629  0.4670 -0.8906
 6425SOL    HW230738   0.085   0.446  17.081 -2.1898  0.2710  0.0793
 6426SOL     OW30739   4.323   2.372   1.405 -0.0657  0.2610  0.0782
 6426SOL    HW130740   4.302   2.279   1.402 -1.3987  0.5503  0.4975
 6426SOL    HW230741   4.408   2.373   1.360 -0.4422  0.4445 -0.6331
 6427SOL     OW30742   1.680   1.513   4.981 -0.1098 -0.0063 -0.1271
 6427SOL    HW130743   1.727   1.583   4.936 -1.4945  0.9059 -0.1720
 6427SOL    HW230744   1.648   1.459   4.909 -1.4341  1.8099 -0.9120
 6428SOL     OW30745   1.807   0.995   6.393  0.5137 -0.3398  0.3173
 6428SOL    HW130746   1.876   1.061   6.396  0.2955 -0.1117  0.3107
 6428SOL    HW230747   1.758   1.041   6.461  0.2221 -0.4128  0.1594
 6429SOL     OW30748   3.276   1.292  12.887  0.7056  0.4670  0.1045
 6429SOL    HW130749   3.242   1.300  12.976  0.2378  1.6131 -0.1742
 6429SOL    HW230750   3.306   1.380  12.864  0.4345  1.2636  2.7662
 6430SOL     OW30751   3.308   0.711   5.026 -0.1265  0.0082  0.2107
 6430SOL    HW130752   3.244   0.769   5.067 -0.3804 -0.8960  1.1225
 6430SOL    HW230753   3.344   0.769   4.960 -1.5369  0.4880 -0.1305
 6431SOL     OW30754   3.619   4.254   9.389 -0.4135 -0.0133  0.3089
 6431SOL    HW130755   3.675   4.331   9.399 -0.2317 -0.2280  0.9047
 6431SOL    HW230756   3.565   4.285   9.316 -0.5636 -3.7451 -1.1882
 6432SOL     OW30757   3.851   2.850   7.008 -0.9081  0.1818  0.1700
 6432SOL    HW130758   3.756   2.841   6.998 -1.1077  2.8108 -0.1259
 6432SOL    HW230759   3.863   2.944   7.016 -0.2547  0.1095  0.0417
 6433SOL     OW30760   1.469   0.017   1.029  0.3811  0.0235 -0.0054
 6433SOL    HW130761   1.513   4.670   0.976  2.0177  2.0650 -1.2172
 6433SOL    HW230762   1.543   0.072   1.051  0.8859 -0.9345  0.7017
 6434SOL     OW30763   3.349   3.435   5.504 -0.4561 -0.0301 -0.2439
 6434SOL    HW130764   3.396   3.390   5.434  0.6100 -0.0874  0.5263
 6434SOL    HW230765   3.398   3.517   5.501 -0.5187 -0.0262 -1.0696
 6435SOL     OW30766   0.041   2.210   1.956 -0.1390  0.0326 -0.1611
 6435SOL    HW130767   0.070   2.155   2.028  0.6450 -0.5220 -0.9080
 6435SOL    HW230768   4.666   2.211   1.970  0.1321 -1.1656  1.7499
 6436SOL     OW30769   1.416   1.383   0.419 -0.0948 -0.6202  0.0892
 6436SOL    HW130770   1.330   1.413   0.449 -0.1189 -0.2388 -0.3524
 6436SOL    HW230771   1.426   1.436   0.340 -1.4603 -1.8285 -0.9188
 6437SOL     OW30772   2.427   1.045   4.497 -0.1464  0.0751 -0.5803
 6437SOL    HW130773   2.517   1.072   4.516  0.0150 -2.5383  2.2813
 6437SOL    HW230774   2.371   1.098   4.553 -0.2700 -0.4674 -0.1930
 6438SOL     OW30775   4.437   0.337   5.984 -0.0604 -0.6958 -0.0800
 6438SOL    HW130776   4.435   0.254   6.030  0.6077 -1.7506 -1.9781
 6438SOL    HW230777   4.488   0.383   6.052 -0.9850 -1.4084  1.0849
 6439SOL     OW30778   4.492   4.455   9.702 -0.3228 -0.5571  0.2847
 6439SOL    HW130779   4.498   4.467   9.797 -0.6524 -1.7456  0.4637
 6439SOL    HW230780   4.573   4.407   9.682  0.2790  0.5261  0.1190
 6440SOL     OW30781   1.178   2.868   5.641 -0.5216  0.2902 -0.2026
 6440SOL    HW130782   1.201   2.935   5.577 -1.2672  0.4683 -0.2711
 6440SOL    HW230783   1.230   2.793   5.611 -1.3650 -0.6706  0.7133
 6441SOL     OW30784   3.090   3.890   4.975 -0.4623  0.0781  0.1914
 6441SOL    HW130785   3.156   3.910   5.041 -3.1295  1.3861  2.4872
 6441SOL    HW230786   3.023   3.959   4.974 -0.8945 -0.3618 -0.8948
 6442SOL     OW30787   2.813   0.482   5.974  0.3324 -0.0095  0.3741
 6442SOL    HW130788   2.820   0.447   5.886  0.0802  1.8420 -0.3856
 6442SOL    HW230789   2.789   0.574   5.960 -1.0997 -0.2222  1.4530
 6443SOL     OW30790   1.685   3.675  17.318 -0.2343 -0.4391  0.2106
 6443SOL    HW130791   1.723   3.595  17.353  0.7409 -0.2751 -0.4641
 6443SOL    HW230792   1.723   3.745  17.371  0.4643 -0.7527  0.1296
 6444SOL     OW30793   1.630   2.438   3.435  0.4197 -0.4136 -0.4417
 6444SOL    HW130794   1.557   2.389   3.471  0.4295 -1.0912 -1.3460
 6444SOL    HW230795   1.605   2.451   3.343  1.5429 -1.4979 -0.8978
 6445SOL     OW30796   3.773   2.180   2.950  1.0810 -0.0550  0.0647
 6445SOL    HW130797   3.695   2.126   2.939  1.6589 -1.1811  1.5966
 6445SOL    HW230798   3.840   2.115   2.969  1.7084  1.0074  1.4700
 6446SOL     OW30799   3.150   0.427  15.111 -0.3169  0.4239 -0.3325
 6446SOL    HW130800   3.078   0.376  15.146  1.7597 -0.6512  2.3988
 6446SOL    HW230801   3.124   0.424  15.019  2.9788 -0.4757 -1.2479
 6447SOL     OW30802   2.524   0.711  16.359  0.4017  0.3218  0.3355
 6447SOL    HW130803   2.529   0.644  16.427  0.1259 -0.6601 -0.6163
 6447SOL    HW230804   2.538   0.793  16.407 -3.2011  1.0162  0.1739
 6448SOL     OW30805   1.975   4.407   7.489  0.1119  0.6036 -0.3714
 6448SOL    HW130806   2.000   4.480   7.433  0.6313 -0.2208 -1.2054
 6448SOL    HW230807   1.892   4.442   7.523 -0.5836  0.7469 -2.1782
 6449SOL     OW30808   3.512   2.827  16.373 -0.1927 -0.4452  0.2412
 6449SOL    HW130809   3.580   2.775  16.330 -0.5713 -1.1860  0.5412
 6449SOL    HW230810   3.485   2.767  16.443 -2.8954  2.2463  1.4887
 6450SOL     OW30811   1.065   3.144   1.560  0.0671  0.9138  0.0390
 6450SOL    HW130812   1.076   3.103   1.474 -0.6646  2.4661 -0.7946
 6450SOL    HW230813   0.971   3.143   1.577 -0.2035  0.4878 -1.5072
 6451SOL     OW30814   4.531   0.895   3.291  0.3408  0.1190 -0.1416
 6451SOL    HW130815   4.608   0.923   3.340  0.3281 -1.2260  0.6646
 6451SOL    HW230816   4.515   0.811   3.334  0.1370  0.7410  0.9801
 6452SOL     OW30817   2.934   1.298   3.268 -0.1237 -0.0069 -0.6854
 6452SOL    HW130818   2.865   1.233   3.282  0.1555 -0.2404 -0.3958
 6452SOL    HW230819   2.989   1.263   3.338  0.4066  1.6054 -0.2903
 6453SOL     OW30820   1.587   4.083  13.310  0.1700 -0.4509 -0.5120
 6453SOL    HW130821   1.639   4.004  13.319  1.4055  0.1692 -2.2927
 6453SOL    HW230822   1.524   4.054  13.244 -0.2546 -2.4482  0.7748
 6454SOL     OW30823   0.304   3.895   8.609 -0.0474 -0.1162  0.1625
 6454SOL    HW130824   0.276   3.950   8.682 -1.4937 -0.2688 -0.2672
 6454SOL    HW230825   0.273   3.811   8.644  0.2758  0.9175  2.9736
 6455SOL     OW30826   3.676   0.716   7.493 -0.2482 -0.1107  0.1418
 6455SOL    HW130827   3.655   0.728   7.400  1.3505  1.4779 -0.0061
 6455SOL    HW230828   3.610   0.653   7.523  2.3274 -2.8534  0.0227
 6456SOL     OW30829   1.715   0.298  17.124  0.0258  0.1144 -0.5372
 6456SOL    HW130830   1.672   0.321  17.042  1.5684 -0.5932 -1.5658
 6456SOL    HW230831   1.763   0.218  17.100 -1.0853 -0.8703  0.5188
 6457SOL     OW30832   2.124   1.030   8.070 -0.1929 -0.2568  0.8433
 6457SOL    HW130833   2.067   0.962   8.105 -1.0939  0.7363  1.3103
 6457SOL    HW230834   2.193   1.038   8.135  0.0835  1.7577  0.2861
 6458SOL     OW30835   3.553   2.726  14.751  0.3864 -0.2965  0.2005
 6458SOL    HW130836   3.523   2.698  14.837  0.8743 -1.8237 -0.1264
 6458SOL    HW230837   3.571   2.816  14.777 -0.0063  0.7599 -3.1275
 6459SOL     OW30838   3.004   2.302   3.739 -0.8703 -0.1656 -0.1179
 6459SOL    HW130839   3.086   2.277   3.698 -0.8651 -1.6828  0.8134
 6459SOL    HW230840   2.984   2.381   3.689 -0.1924  1.2439  1.8565
 6460SOL     OW30841   1.156   1.563  16.229  0.0537  0.4225 -0.2840
 6460SOL    HW130842   1.220   1.507  16.185  0.4386  0.7636 -0.1652
 6460SOL    HW230843   1.111   1.598  16.152 -0.5314  3.0686  1.2627
 6461SOL     OW30844   3.024   2.319   1.555  0.3834  0.5555 -0.2516
 6461SOL    HW130845   3.113   2.316   1.520  0.7725  2.4712  0.5732
 6461SOL    HW230846   3.040   2.280   1.641 -1.1320  0.4889 -0.0013
 6462SOL     OW30847   4.595   0.262   2.580 -0.2932  0.1834  0.0086
 6462SOL    HW130848   4.601   0.321   2.504  1.7285 -1.0470 -0.7852
 6462SOL    HW230849   4.551   0.316   2.646  0.6344  1.9988 -0.8478
 6463SOL     OW30850   3.860   3.982  10.955  0.3121  0.2146  0.1697
 6463SOL    HW130851   3.862   3.984  10.860  0.5925  0.5320  0.1831
 6463SOL    HW230852   3.826   3.892  10.960 -1.1936  0.7783  0.2575
 6464SOL     OW30853   4.624   2.884  10.614  0.3523  0.5338 -0.2934
 6464SOL    HW130854   4.639   2.970  10.653  0.4553  0.6563 -0.6031
 6464SOL    HW230855   4.660   2.902  10.527  0.5156 -2.4120 -0.8361
 6465SOL     OW30856   0.105   0.830  16.334 -0.0835  0.0674 -0.4195
 6465SOL    HW130857   0.193   0.858  16.308  0.7725 -0.6649  1.6970
 6465SOL    HW230858   0.076   0.908  16.380 -1.3698 -0.3389 -0.5285
 6466SOL     OW30859   2.016   3.601   1.466  0.3464 -0.1151  0.0558
 6466SOL    HW130860   2.015   3.554   1.382 -2.9725  1.0336 -0.5419
 6466SOL    HW230861   1.964   3.680   1.453 -1.4664 -1.3833 -0.3613
 6467SOL     OW30862   1.890   4.529   9.584  0.1685  0.5767  0.0396
 6467SOL    HW130863   1.831   4.513   9.510 -1.2605  4.2839  0.3949
 6467SOL    HW230864   1.939   4.448   9.599 -1.9720 -1.0670 -1.7777
 6468SOL     OW30865   0.612   1.265   1.418  0.2626  0.5769 -0.5604
 6468SOL    HW130866   0.519   1.269   1.443 -0.2394  0.4646 -2.4705
 6468SOL    HW230867   0.610   1.177   1.382  3.2126  0.2612  0.0775
 6469SOL     OW30868   3.152   3.508   2.817 -0.1886  0.5744 -0.0176
 6469SOL    HW130869   3.209   3.468   2.883 -0.2088 -1.2406 -1.0967
 6469SOL    HW230870   3.164   3.600   2.838 -0.5816  0.0110  2.6401
 6470SOL     OW30871   2.878   0.100   5.888  0.1038 -0.1659 -0.7650
 6470SOL    HW130872   2.925   0.122   5.808  1.5673  1.1074  0.4354
 6470SOL    HW230873   2.793   0.139   5.870 -0.2102 -0.6708 -0.3704
 6471SOL     OW30874   2.916   1.747   8.503  0.2827  0.1803  0.2905
 6471SOL    HW130875   2.891   1.672   8.557 -0.4851  1.9623  2.4128
 6471SOL    HW230876   2.976   1.800   8.556 -0.2203  1.9451 -0.9382
 6472SOL     OW30877   3.264   3.746   3.976 -0.2873 -0.3049  0.0183
 6472SOL    HW130878   3.241   3.811   4.042 -0.1866 -0.7101  0.4534
 6472SOL    HW230879   3.357   3.769   3.977 -0.6916  1.3453 -1.6658
 6473SOL     OW30880   0.053   1.973   1.591 -0.2239 -0.2396  0.2210
 6473SOL    HW130881   0.005   2.044   1.634 -1.4226 -0.5337 -0.6208
 6473SOL    HW230882   4.692   1.927   1.570 -0.1716 -0.4251  0.4269
 6474SOL     OW30883   3.315   2.543   5.792 -0.4928  0.4138  0.3601
 6474SOL    HW130884   3.372   2.610   5.755 -1.7413  1.2262 -0.0888
 6474SOL    HW230885   3.338   2.468   5.736 -2.1915 -1.9191  2.7613
 6475SOL     OW30886   3.205   2.975   2.176  0.2558 -0.1963 -0.6267
 6475SOL    HW130887   3.284   3.009   2.134 -0.3100  1.2144 -0.5634
 6475SOL    HW230888   3.220   2.885   2.146 -1.2948 -0.6589 -0.0114
 6476SOL     OW30889   0.541   2.971  14.939  0.1741  0.4827  0.1228
 6476SOL    HW130890   0.563   3.049  14.989  0.6614  0.7901 -0.5768
 6476SOL    HW230891   0.626   2.950  14.902 -1.0541 -0.3533 -2.2538
 6477SOL     OW30892   3.051   2.817   5.865  0.5050 -0.2830 -0.1809
 6477SOL    HW130893   3.100   2.799   5.946 -0.2456  0.2061  0.3942
 6477SOL    HW230894   3.105   2.871   5.807 -0.7965 -0.5391 -1.6013
 6478SOL     OW30895   2.529   1.019  11.146 -0.7084 -0.0474 -0.3987
 6478SOL    HW130896   2.611   0.978  11.172 -1.2287 -1.3418 -0.7971
 6478SOL    HW230897   2.552   1.110  11.166 -1.1480 -0.2272  0.9446
 6479SOL     OW30898   0.513   1.745   9.461 -0.8410 -0.1585  0.4154
 6479SOL    HW130899   0.541   1.654   9.460 -3.1671 -0.8866 -0.0575
 6479SOL    HW230900   0.502   1.762   9.555 -0.3707 -2.6672  0.9195
 6480SOL     OW30901   2.225   1.219   5.615 -0.6352 -0.1898  0.6919
 6480SOL    HW130902   2.142   1.196   5.573  0.1082 -0.1262 -0.8030
 6480SOL    HW230903   2.186   1.297   5.655 -2.0083 -0.5749  0.1294
 6481SOL     OW30904   2.978   3.842  16.914  0.8103  0.3358  0.1709
 6481SOL    HW130905   3.017   3.919  16.873 -0.2483  1.3221  0.9926
 6481SOL    HW230906   3.011   3.769  16.862  0.8571  0.7580 -0.3931
 6482SOL     OW30907   1.559   2.270   8.031 -0.6800 -0.3111  0.9750
 6482SOL    HW130908   1.530   2.339   8.091  0.9681  1.9830 -0.8786
 6482SOL    HW230909   1.531   2.187   8.070 -0.7431 -0.3467  0.8544
 6483SOL     OW30910   2.023   4.205  16.690  0.0320  0.6851  0.2054
 6483SOL    HW130911   1.965   4.158  16.751  0.3503 -1.2469 -0.9729
 6483SOL    HW230912   1.973   4.208  16.608  0.3686  0.8310  0.0068
 6484SOL     OW30913   1.115   4.609  12.360  0.0386  0.3154  0.2873
 6484SOL    HW130914   1.050   4.610  12.430  0.4099  1.0337  0.6223
 6484SOL    HW230915   1.188   4.666  12.386 -0.4247  0.8085  0.5220
 6485SOL     OW30916   2.338   3.509  13.684 -0.1879 -0.2173  0.0162
 6485SOL    HW130917   2.357   3.434  13.740  0.7191 -0.5833 -0.7759
 6485SOL    HW230918   2.263   3.480  13.634 -0.3210 -0.1720  0.1890
 6486SOL     OW30919   0.657   0.028   2.747  0.1590  0.2773 -0.5100
 6486SOL    HW130920   0.669   0.112   2.791 -1.9643  0.5667 -0.4732
 6486SOL    HW230921   0.625   0.066   2.665  2.7573 -1.7426 -2.4668
 6487SOL     OW30922   1.955   2.717  16.994 -0.3293  0.0632  0.0652
 6487SOL    HW130923   1.939   2.627  16.966 -0.8685 -0.4292  1.9691
 6487SOL    HW230924   2.012   2.750  16.925 -0.6920  2.3159  0.8535
 6488SOL     OW30925   3.150   0.470   7.788 -0.0789  0.3288  0.4186
 6488SOL    HW130926   3.130   0.398   7.848 -0.3525 -0.0694 -0.1479
 6488SOL    HW230927   3.234   0.496   7.826  0.4379  1.3865 -1.4338
 6489SOL     OW30928   1.117   4.480   1.359 -0.0253  0.0321  0.0458
 6489SOL    HW130929   1.188   4.436   1.407 -0.0840 -1.7185 -1.4522
 6489SOL    HW230930   1.170   4.508   1.284 -0.4863  2.7706  0.7669
 6490SOL     OW30931   1.770   2.985   1.301 -0.5734  0.2108 -0.5136
 6490SOL    HW130932   1.693   2.983   1.358  1.0583 -1.7967  1.6250
 6490SOL    HW230933   1.806   2.896   1.309 -1.9029  0.0265  3.4996
 6491SOL     OW30934   4.699   2.909   2.459  0.2524 -0.5587 -0.1226
 6491SOL    HW130935   0.063   2.951   2.438  0.0398  0.3850  0.9557
 6491SOL    HW230936   4.668   2.888   2.370  0.0102  0.7399 -0.3459
 6492SOL     OW30937   0.517   2.318   9.628 -0.1994 -0.3257  0.2013
 6492SOL    HW130938   0.569   2.364   9.562  1.9092 -1.7908  0.8501
 6492SOL    HW230939   0.482   2.395   9.674  0.2652  0.3146 -0.5263
 6493SOL     OW30940   0.089   1.630   3.497 -0.0127  0.2793  0.6501
 6493SOL    HW130941   0.122   1.700   3.441 -0.4036  0.3098  0.4599
 6493SOL    HW230942   4.718   1.656   3.511  0.1575  1.2229  0.0108
 6494SOL     OW30943   1.723   2.481   6.893  0.4249 -0.3219 -0.3327
 6494SOL    HW130944   1.764   2.529   6.965 -2.7094  0.1436  1.0984
 6494SOL    HW230945   1.707   2.397   6.936  2.4482 -0.4804  0.1251
 6495SOL     OW30946   2.861   3.745  10.689 -0.2529 -0.6687 -0.0654
 6495SOL    HW130947   2.851   3.702  10.604 -0.0944 -1.0456  0.1071
 6495SOL    HW230948   2.917   3.822  10.679 -1.1547 -0.3615 -2.8384
 6496SOL     OW30949   1.571   3.777   2.443 -0.2550  0.4690  0.0605
 6496SOL    HW130950   1.612   3.856   2.478  0.0783  0.1912  0.3007
 6496SOL    HW230951   1.486   3.815   2.421  0.3934  1.4725 -0.7365
 6497SOL     OW30952   2.443   1.626   9.467  0.4346  0.4268 -0.1634
 6497SOL    HW130953   2.500   1.561   9.507 -1.8462 -1.4776 -0.0426
 6497SOL    HW230954   2.410   1.566   9.401  0.3165 -1.7781  1.9179
 6498SOL     OW30955   3.455   2.443  16.216 -0.2213 -0.0248 -0.2776
 6498SOL    HW130956   3.505   2.378  16.267  0.1912 -0.2461 -0.9579
 6498SOL    HW230957   3.386   2.381  16.193  0.0231 -0.5122  0.2743
 6499SOL     OW30958   0.778   0.485   4.246  0.0793 -0.5005 -0.0962
 6499SOL    HW130959   0.789   0.467   4.340  0.4598  2.2062  0.3688
 6499SOL    HW230960   0.698   0.537   4.236  0.7921  1.0757  2.3594
 6500SOL     OW30961   1.925   0.577   2.425 -0.8324  0.3477  0.5898
 6500SOL    HW130962   1.960   0.649   2.373 -0.3626 -0.2687  0.0390
 6500SOL    HW230963   2.008   0.538   2.453 -1.1277 -1.4798 -1.0187
 6501SOL     OW30964   0.289   0.806  13.227  0.7194  0.4659 -0.4412
 6501SOL    HW130965   0.268   0.770  13.314  0.5588  0.1149 -0.6269
 6501SOL    HW230966   0.241   0.746  13.170 -0.2512  2.4936 -1.7371
 6502SOL     OW30967   3.867   3.466  15.370  0.5853  0.0533  0.4950
 6502SOL    HW130968   3.908   3.475  15.456 -1.1208 -0.9169  1.4050
 6502SOL    HW230969   3.834   3.376  15.361  0.7103 -0.1008  1.6213
 6503SOL     OW30970   4.693   2.853   1.941  0.2432  0.5498  0.4296
 6503SOL    HW130971   0.061   2.840   1.978 -0.2809  2.1578  2.2220
 6503SOL    HW230972   4.648   2.846   2.025  0.6278  0.4592  0.6306
 6504SOL     OW30973   2.867   0.230   0.170 -0.2604  0.1391  0.1262
 6504SOL    HW130974   2.817   0.240   0.251  0.3908  0.5114  0.4856
 6504SOL    HW230975   2.951   0.207   0.210 -0.0240  0.3975 -0.2203
 6505SOL     OW30976   2.779   4.647  12.003 -0.1713 -0.2648 -0.0654
 6505SOL    HW130977   2.768   4.668  12.096 -0.6410  1.2104 -0.4542
 6505SOL    HW230978   2.874   4.638  12.001  0.0186  1.8638 -0.8869
 6506SOL     OW30979   1.145   3.491   6.533 -0.1197 -0.2997  0.0968
 6506SOL    HW130980   1.162   3.572   6.485  2.0896 -1.4311 -0.9961
 6506SOL    HW230981   1.105   3.437   6.464 -0.4534  1.0924 -0.7990
 6507SOL     OW30982   1.846   0.565   7.638 -0.4468 -0.6407 -0.3352
 6507SOL    HW130983   1.756   0.592   7.618 -0.2356  1.2986  1.2943
 6507SOL    HW230984   1.862   0.517   7.557  0.5706 -0.4128 -0.2669
 6508SOL     OW30985   0.837   1.458   6.028 -0.2914 -0.1304 -0.4542
 6508SOL    HW130986   0.745   1.444   6.050 -0.5078  0.1271 -1.2042
 6508SOL    HW230987   0.831   1.474   5.934  0.3134  0.5963 -0.3679
 6509SOL     OW30988   2.001   3.598   2.227  0.0468 -0.0250  0.1855
 6509SOL    HW130989   1.979   3.607   2.320  0.9678  0.6278  0.3365
 6509SOL    HW230990   2.028   3.507   2.239 -1.1702 -0.3221  0.6802
 6510SOL     OW30991   3.782   3.815   9.110  0.0364 -0.0333  0.3897
 6510SOL    HW130992   3.842   3.880   9.073 -3.3164  2.9669  0.2204
 6510SOL    HW230993   3.706   3.872   9.124  0.0011 -1.1108  4.5981
 6511SOL     OW30994   2.371   3.254  15.930 -0.4791 -0.1652  0.2265
 6511SOL    HW130995   2.279   3.234  15.911 -0.3009 -0.7164 -0.0410
 6511SOL    HW230996   2.417   3.209  15.859  0.3981 -0.1616  0.7919
 6512SOL     OW30997   3.402   4.424   7.769  0.0302  0.5885  0.2978
 6512SOL    HW130998   3.390   4.339   7.811  0.3594 -0.1108 -1.0322
 6512SOL    HW230999   3.497   4.435   7.774  0.1770  0.0014 -1.4015
 6513SOL     OW31000   1.039   2.553   6.541 -0.5687  0.0643 -0.6925
 6513SOL    HW131001   1.112   2.606   6.574 -0.5536 -0.8941  0.8569
 6513SOL    HW231002   1.047   2.468   6.585 -0.2795 -0.9207 -2.6427
 6514SOL     OW31003   4.058   2.999  10.465 -0.0134  0.1996  0.6183
 6514SOL    HW131004   4.104   3.083  10.464  0.2119  0.0808  2.3830
 6514SOL    HW231005   3.975   3.016  10.420 -0.2925  0.7087  1.3347
 6515SOL     OW31006   3.812   2.860   7.380 -0.3903  0.6235 -0.0515
 6515SOL    HW131007   3.832   2.954   7.389  2.9332  0.1057 -2.1556
 6515SOL    HW231008   3.717   2.850   7.380 -0.3934  0.6729 -0.8552
 6516SOL     OW31009   0.147   2.098   8.293 -0.5602  0.4558 -0.6377
 6516SOL    HW131010   0.217   2.051   8.338 -0.8927  0.3452 -0.2355
 6516SOL    HW231011   0.063   2.055   8.309 -0.6912  1.1234  0.4610
 6517SOL     OW31012   1.777   4.662  13.066  0.3682  0.0937  0.3065
 6517SOL    HW131013   1.770   4.624  12.978  0.4704 -1.0442  0.7836
 6517SOL    HW231014   1.833   4.601  13.115 -0.3633  0.6247  1.7935
 6518SOL     OW31015   1.751   0.404   6.757 -0.0897  0.6541 -0.1986
 6518SOL    HW131016   1.664   0.369   6.737  0.6233 -0.6378 -1.0158
 6518SOL    HW231017   1.766   0.366   6.844 -0.2578 -0.3802 -0.6156
 6519SOL     OW31018   4.506   4.236   6.201  0.3585 -0.4112 -0.0014
 6519SOL    HW131019   4.564   4.235   6.277  0.3189  1.9405  0.0640
 6519SOL    HW231020   4.463   4.151   6.192 -1.8937  0.8130 -0.9676
 6520SOL     OW31021   1.399   2.401   5.512  0.2067 -0.1567  0.8237
 6520SOL    HW131022   1.438   2.344   5.446 -0.3937  1.5136 -0.9855
 6520SOL    HW231023   1.307   2.381   5.492  0.0266  2.0221 -0.5245
 6521SOL     OW31024   3.874   1.429   6.877 -0.1957  0.2697 -0.4968
 6521SOL    HW131025   3.899   1.350   6.924 -1.7300 -0.0694 -0.2521
 6521SOL    HW231026   3.903   1.491   6.944 -1.9568  0.7399 -0.1802
 6522SOL     OW31027   3.890   4.058   6.397  0.5655 -0.3963 -0.6152
 6522SOL    HW131028   3.798   4.061   6.422  0.0365  0.8872 -2.7111
 6522SOL    HW231029   3.909   4.152   6.400 -0.9254 -0.1114 -0.2456
 6523SOL     OW31030   3.062   4.079   6.659 -0.3847 -0.2965 -0.0763
 6523SOL    HW131031   3.102   4.121   6.735 -1.2376 -2.2968  1.4431
 6523SOL    HW231032   3.080   3.988   6.679  1.7526 -0.0490 -0.8251
 6524SOL     OW31033   1.335   2.579   0.933 -0.1417 -0.1693 -0.2380
 6524SOL    HW131034   1.335   2.646   1.002 -0.1696  0.2202 -0.6147
 6524SOL    HW231035   1.306   2.498   0.975 -0.0936 -1.0525 -1.9490
 6525SOL     OW31036   1.202   2.224   2.483  0.9596  0.3016 -0.0795
 6525SOL    HW131037   1.268   2.163   2.515 -0.3811 -0.4936  1.1539
 6525SOL    HW231038   1.168   2.242   2.570 -1.5215  0.4734 -1.0909
 6526SOL     OW31039   3.025   3.685  11.374 -0.4398  0.1724  0.1988
 6526SOL    HW131040   2.985   3.771  11.389  1.0159  1.5200 -3.7303
 6526SOL    HW231041   3.116   3.704  11.397  0.2037 -0.4341 -1.8258
 6527SOL     OW31042   4.463   2.594  11.003 -0.0592  0.5371  0.2311
 6527SOL    HW131043   4.523   2.612  10.931 -0.5385  1.5336  0.0752
 6527SOL    HW231044   4.502   2.510  11.025 -1.6066 -0.4594 -0.8108
 6528SOL     OW31045   0.451   4.419   5.180 -0.4561  0.1978  0.0959
 6528SOL    HW131046   0.546   4.421   5.171 -0.4929 -1.9957 -1.0195
 6528SOL    HW231047   0.443   4.325   5.196  2.4413  0.1138  1.0318
 6529SOL     OW31048   1.253   1.633  16.756 -0.1793  0.4268 -0.1906
 6529SOL    HW131049   1.187   1.694  16.789 -1.4557 -1.1207  0.1795
 6529SOL    HW231050   1.288   1.666  16.674 -0.7534 -1.6683 -1.2899
 6530SOL     OW31051   3.599   2.081   9.244 -0.1823  0.0065 -0.2621
 6530SOL    HW131052   3.687   2.109   9.267 -1.0752  0.3068  2.7592
 6530SOL    HW231053   3.549   2.120   9.315  0.4144 -0.7825  0.6004
 6531SOL     OW31054   1.451   3.814   2.762  0.0041  0.6079  0.2344
 6531SOL    HW131055   1.401   3.734   2.779 -0.8946  1.1291  0.0585
 6531SOL    HW231056   1.396   3.845   2.690  0.3821  3.4590  1.1716
 6532SOL     OW31057   4.071   4.599  16.512 -0.1639  0.0495 -0.1014
 6532SOL    HW131058   4.143   4.537  16.521  1.0146  1.5044  0.4490
 6532SOL    HW231059   4.126   4.676  16.500 -0.3168  0.0893 -0.5709
 6533SOL     OW31060   0.925   3.780  16.773  0.4537 -0.2785 -0.0445
 6533SOL    HW131061   0.989   3.829  16.722 -2.5946  2.9380 -0.7822
 6533SOL    HW231062   0.910   3.711  16.708 -0.4975 -0.6124  0.5245
 6534SOL     OW31063   1.811   3.680   6.921 -0.0229 -0.0939  0.0163
 6534SOL    HW131064   1.801   3.705   7.013 -0.1663  0.1973 -0.0787
 6534SOL    HW231065   1.895   3.721   6.904  0.0682 -0.1076  0.4330
 6535SOL     OW31066   3.229   3.152   5.439 -0.0909  0.2937 -0.5932
 6535SOL    HW131067   3.258   3.128   5.350 -0.2067 -3.1223  0.2886
 6535SOL    HW231068   3.180   3.233   5.427 -1.0503 -0.0435  1.1318
 6536SOL     OW31069   3.798   1.900   5.855 -0.8774 -0.0589 -0.8529
 6536SOL    HW131070   3.793   1.812   5.817  1.6029  0.2739 -1.9528
 6536SOL    HW231071   3.866   1.943   5.803 -0.1014  1.5511  1.4836
 6537SOL     OW31072   4.386   4.191   1.822  0.3664 -0.0524  0.2470
 6537SOL    HW131073   4.477   4.214   1.841 -0.6642  2.4280  2.1481
 6537SOL    HW231074   4.400   4.162   1.732  0.5322 -1.7395  0.8264
 6538SOL     OW31075   3.755   3.000   4.406  0.6725 -0.6596  0.9723
 6538SOL    HW131076   3.753   3.048   4.323 -0.1110 -1.3208  0.6147
 6538SOL    HW231077   3.764   3.070   4.471 -0.9476  1.5475 -1.1988
 6539SOL     OW31078   0.181   3.645   3.704  1.0356 -0.1607 -0.4298
 6539SOL    HW131079   0.170   3.668   3.612 -4.0550 -0.4752  0.0568
 6539SOL    HW231080   0.233   3.565   3.696 -1.4137 -1.7095 -0.8954
 6540SOL     OW31081   0.542   2.988  16.328 -0.2968 -0.0537  0.4018
 6540SOL    HW131082   0.524   3.008  16.236  1.7789  0.2369  0.0622
 6540SOL    HW231083   0.541   2.892  16.321 -1.6577  0.0096 -0.1761
 6541SOL     OW31084   0.414   4.157   0.098 -0.7231 -0.4329  0.0027
 6541SOL    HW131085   0.388   4.065   0.090 -4.0062  0.6468 -1.6646
 6541SOL    HW231086   0.419   4.168   0.192 -0.8502 -0.9386  0.0693
 6542SOL     OW31087   2.195   1.837   3.699 -0.1633  0.1727 -0.2637
 6542SOL    HW131088   2.188   1.774   3.627  2.1805  0.5795 -0.8589
 6542SOL    HW231089   2.148   1.915   3.669  2.0689  1.8931  0.7631
 6543SOL     OW31090   0.770   3.170   6.071 -0.0718  0.0880 -0.2203
 6543SOL    HW131091   0.817   3.220   6.005 -0.7929  1.6855  0.4827
 6543SOL    HW231092   0.806   3.081   6.071 -0.7990 -0.2012 -0.8779
 6544SOL     OW31093   1.870   4.435   8.714  0.2044 -1.1114 -0.3838
 6544SOL    HW131094   1.924   4.459   8.639 -0.4449 -1.6094 -1.0192
 6544SOL    HW231095   1.923   4.466   8.787 -0.7600 -0.2442 -0.0560
 6545SOL     OW31096   3.762   1.946   0.967  0.1453  0.3657  0.1277
 6545SOL    HW131097   3.759   2.001   1.045  2.1026 -0.2730  0.6605
 6545SOL    HW231098   3.672   1.933   0.936  0.4588 -1.4766 -0.0601
 6546SOL     OW31099   1.781   1.229   1.454 -0.3720 -0.3848  0.0066
 6546SOL    HW131100   1.788   1.244   1.359 -1.5885 -1.1616 -0.2044
 6546SOL    HW231101   1.868   1.256   1.482 -0.9221  0.8593  0.4922
 6547SOL     OW31102   1.044   2.526   7.299  0.3775 -0.1501  0.2254
 6547SOL    HW131103   0.975   2.493   7.356  0.1389 -1.2448 -0.7121
 6547SOL    HW231104   1.117   2.495   7.353 -0.8554 -0.0853  1.9366
 6548SOL     OW31105   3.898   3.948   2.821  0.1424 -0.1784  0.1400
 6548SOL    HW131106   3.927   3.953   2.730 -1.0748  0.1033 -0.2279
 6548SOL    HW231107   3.948   4.025   2.849  1.0246  0.2217 -2.4803
 6549SOL     OW31108   3.988   0.624   9.487  0.0635  0.0785 -0.0144
 6549SOL    HW131109   4.062   0.564   9.474  0.1213 -0.4628  2.6883
 6549SOL    HW231110   3.992   0.651   9.579  1.2209  0.7529 -0.2758
 6550SOL     OW31111   1.601   0.401   0.708  0.3894  0.6324  0.4804
 6550SOL    HW131112   1.609   0.481   0.761  1.5471  0.3007  0.8057
 6550SOL    HW231113   1.639   0.338   0.769  0.2886 -0.8644 -1.0304
 6551SOL     OW31114   1.184   2.710   7.656  0.0011  0.3393 -0.1096
 6551SOL    HW131115   1.163   2.802   7.673  0.8395  0.2634  1.3149
 6551SOL    HW231116   1.238   2.711   7.735  0.8739 -1.1280 -0.6984
 6552SOL     OW31117   2.737   0.906  14.327  0.1620 -0.4963  0.4522
 6552SOL    HW131118   2.763   0.936  14.414 -0.4692  2.1177 -0.2768
 6552SOL    HW231119   2.804   0.840  14.311  1.1139  0.3631  0.9344
 6553SOL     OW31120   1.430   1.311   3.885 -0.0143 -0.2921  0.1102
 6553SOL    HW131121   1.364   1.377   3.907 -1.4446 -0.4078 -3.9790
 6553SOL    HW231122   1.376   1.248   3.837  1.1221 -1.3633  0.2155
 6554SOL     OW31123   1.137   2.864   6.547  0.2149 -0.7044  0.2223
 6554SOL    HW131124   1.124   2.954   6.516 -0.0768 -0.8793 -0.1689
 6554SOL    HW231125   1.047   2.834   6.531 -0.3179  0.0340  1.9362
 6555SOL     OW31126   1.676   3.359  11.023 -0.1225 -0.1224  0.0609
 6555SOL    HW131127   1.662   3.267  11.001 -0.5399  0.4399 -2.0308
 6555SOL    HW231128   1.768   3.373  11.044 -0.2880 -1.9544  1.9520
 6556SOL     OW31129   0.125   2.606   6.259  0.4461  0.3598 -0.6152
 6556SOL    HW131130   0.117   2.544   6.331  2.3771  0.9480  0.1004
 6556SOL    HW231131   0.220   2.607   6.246  0.7386 -3.0153  1.4333
 6557SOL     OW31132   2.099   1.803   4.974  0.0885 -0.3983 -0.2823
 6557SOL    HW131133   2.006   1.803   4.998  0.7953  1.8629  2.4450
 6557SOL    HW231134   2.146   1.742   5.031  0.8796 -0.9797 -1.5571
 6558SOL     OW31135   1.658   3.971  17.179 -0.0068 -0.2559  0.0929
 6558SOL    HW131136   1.682   4.064  17.182  2.6140 -0.8546 -2.7487
 6558SOL    HW231137   1.741   3.943  17.141 -1.1128  0.7469 -3.0812
 6559SOL     OW31138   0.841   1.420   7.783  0.3897  0.7411  0.8840
 6559SOL    HW131139   0.750   1.446   7.799  0.0599 -0.5796  1.1541
 6559SOL    HW231140   0.864   1.399   7.874  0.4206  0.0059  0.7006
 6560SOL     OW31141   3.967   1.783   9.022  0.5706  0.0693 -0.2074
 6560SOL    HW131142   3.874   1.802   9.015  0.6370  1.3478  2.3102
 6560SOL    HW231143   3.988   1.828   9.104  0.9539 -0.9615  0.2609
 6561SOL     OW31144   1.287   0.640   1.901 -0.4063 -0.1294 -0.1082
 6561SOL    HW131145   1.284   0.554   1.943 -0.7073 -1.0820 -2.0940
 6561SOL    HW231146   1.210   0.631   1.845 -1.3922 -1.8378  1.5231
 6562SOL     OW31147   3.903   3.587   9.953  0.2485 -0.8241 -0.2293
 6562SOL    HW131148   3.913   3.666   9.901  1.3220 -0.8873 -0.1203
 6562SOL    HW231149   3.847   3.532   9.899  0.5455  0.6887 -2.0584
 6563SOL     OW31150   3.148   0.504   4.886  0.4515  0.0141  0.4481
 6563SOL    HW131151   3.064   0.546   4.908 -0.2152 -0.2981 -1.4898
 6563SOL    HW231152   3.209   0.566   4.924 -0.8753 -0.6544  3.6379
 6564SOL     OW31153   4.073   3.913  10.662 -0.4796  0.4730 -0.3340
 6564SOL    HW131154   4.158   3.955  10.648 -0.9747  1.6073  0.0381
 6564SOL    HW231155   4.083   3.895  10.756  1.3350 -0.2415 -0.6728
 6565SOL     OW31156   3.101   0.009   2.444  0.0745  0.1759  0.3518
 6565SOL    HW131157   3.166   4.662   2.464 -0.6576 -0.9084 -0.8308
 6565SOL    HW231158   3.043   4.684   2.381  1.1910 -0.9016  0.1020
 6566SOL     OW31159   2.490   4.118   2.649 -0.1569  0.7046  0.2978
 6566SOL    HW131160   2.578   4.085   2.633 -0.4799 -0.0095  0.0192
 6566SOL    HW231161   2.448   4.123   2.563  0.0490 -0.2636  0.1513
 6567SOL     OW31162   3.154   0.628   5.301  0.3377  0.4673  1.1674
 6567SOL    HW131163   3.088   0.567   5.268  2.3886 -0.7268 -0.7129
 6567SOL    HW231164   3.111   0.712   5.281 -0.0100 -0.6132 -2.6874
 6568SOL     OW31165   0.963   3.976   0.847 -0.2840 -0.2667  0.2220
 6568SOL    HW131166   0.924   3.939   0.768 -1.9689  0.9656  0.4809
 6568SOL    HW231167   0.892   4.002   0.906  1.5781  0.2089  2.2898
 6569SOL     OW31168   1.960   2.455  17.163 -0.0461  0.4286  0.3821
 6569SOL    HW131169   2.031   2.454  17.099 -1.4306 -1.5758 -1.1267
 6569SOL    HW231170   1.940   2.549  17.169 -2.9016 -0.3507  3.1142
 6570SOL     OW31171   0.515   2.080  16.545 -0.0391 -0.3899 -0.2566
 6570SOL    HW131172   0.481   1.994  16.570 -0.2920 -0.5146 -1.0369
 6570SOL    HW231173   0.591   2.063  16.489 -0.1565 -0.3261 -0.4358
 6571SOL     OW31174   1.272   0.042   2.710  0.1566 -0.2936 -0.3798
 6571SOL    HW131175   1.263   4.670   2.683 -0.6173 -0.4296  0.3474
 6571SOL    HW231176   1.184   0.077   2.697  0.8185  0.3699 -3.0644
 6572SOL     OW31177   0.734   1.845   1.304  0.0993 -0.4828  0.4436
 6572SOL    HW131178   0.782   1.913   1.255 -2.8457  0.7447 -0.7408
 6572SOL    HW231179   0.714   1.776   1.240 -1.2822  0.0974  0.2470
 6573SOL     OW31180   1.485   0.328   6.740  0.7214  0.0156 -0.3213
 6573SOL    HW131181   1.457   0.255   6.685  1.0030  0.0430 -0.5027
 6573SOL    HW231182   1.445   0.402   6.693 -0.3769  1.0896  2.3073
 6574SOL     OW31183   4.008   0.993   4.990 -0.7168  0.3884  0.3931
 6574SOL    HW131184   3.943   1.059   5.011 -1.8892 -0.9509  0.9082
 6574SOL    HW231185   4.081   1.012   5.049 -0.8262 -1.4545  1.1392
 6575SOL     OW31186   1.054   2.982  16.627  0.3396  0.5056  0.2961
 6575SOL    HW131187   1.061   2.979  16.532 -0.6473 -2.1829  0.2831
 6575SOL    HW231188   0.970   2.937  16.637 -0.0393  0.9853 -0.7369
 6576SOL     OW31189   1.487   1.397   5.143 -0.0777 -0.4072  0.2588
 6576SOL    HW131190   1.561   1.442   5.104 -1.3018 -0.5195 -2.1760
 6576SOL    HW231191   1.433   1.392   5.065 -0.4852 -3.1442  0.7119
 6577SOL     OW31192   4.154   0.639   5.646  0.1064  0.1713  0.6633
 6577SOL    HW131193   4.213   0.714   5.647 -0.0823  0.3197  0.5329
 6577SOL    HW231194   4.067   0.678   5.637  0.3503  0.2827 -1.2904
 6578SOL     OW31195   3.165   2.070   8.846 -0.0318  0.1030  0.0986
 6578SOL    HW131196   3.103   2.111   8.906  0.6401  1.8026 -0.3672
 6578SOL    HW231197   3.235   2.037   8.904 -0.4945 -0.6976  0.1951
 6579SOL     OW31198   3.839   3.149   2.672 -0.7457  0.1017 -0.0769
 6579SOL    HW131199   3.888   3.119   2.595 -0.6882 -0.0871  0.0348
 6579SOL    HW231200   3.867   3.241   2.673  0.1311 -0.1681  0.3305
 6580SOL     OW31201   2.555   0.278  10.917  0.4721 -0.1508  0.2244
 6580SOL    HW131202   2.520   0.326  10.992  0.0491  0.6154 -0.4565
 6580SOL    HW231203   2.473   0.256  10.872 -1.0179  0.9713  2.3906
 6581SOL     OW31204   4.176   2.329   7.253  0.5611  0.4523 -0.2057
 6581SOL    HW131205   4.272   2.333   7.247  0.5688  1.3916  0.5499
 6581SOL    HW231206   4.167   2.234   7.243 -2.3150  0.7171 -0.1427
 6582SOL     OW31207   4.698   2.375  16.978 -0.0862 -0.3620 -0.9245
 6582SOL    HW131208   4.603   2.363  16.979  0.0303 -1.2777 -0.3305
 6582SOL    HW231209   4.698   2.444  16.911 -0.5271 -0.3348 -0.8970
 6583SOL     OW31210   2.216   1.083   6.366 -0.1237 -0.2044  0.0460
 6583SOL    HW131211   2.159   1.058   6.294 -0.0051 -0.6764  0.1136
 6583SOL    HW231212   2.158   1.138   6.420 -0.4254 -0.6975  0.2296
 6584SOL     OW31213   2.066   0.153   3.218 -0.1141  0.2793 -0.3513
 6584SOL    HW131214   2.124   0.078   3.228 -1.8331 -1.1205 -0.9202
 6584SOL    HW231215   2.123   0.220   3.256 -2.1292  1.9793 -0.3247
 6585SOL     OW31216   1.825   0.331  13.050 -0.1320  0.6252 -0.4651
 6585SOL    HW131217   1.894   0.273  13.080 -0.9609  0.0865  0.3836
 6585SOL    HW231218   1.870   0.413  13.027  1.5839 -0.0504  0.4879
 6586SOL     OW31219   1.615   1.305  14.163  0.6724  0.1547 -0.0444
 6586SOL    HW131220   1.696   1.282  14.209  0.5704 -0.0119  0.0539
 6586SOL    HW231221   1.578   1.357  14.235  0.7417 -0.6141  0.5528
 6587SOL     OW31222   2.041   1.636   4.495 -0.2047  0.3734  0.2425
 6587SOL    HW131223   2.027   1.720   4.452  2.3516 -0.0429 -1.3911
 6587SOL    HW231224   2.007   1.649   4.584 -1.2909  1.3055 -0.2996
 6588SOL     OW31225   4.068   3.096   4.396 -0.2121 -0.1860  0.3775
 6588SOL    HW131226   4.017   3.083   4.316  0.9533 -0.0959 -0.3767
 6588SOL    HW231227   4.138   3.148   4.356 -2.2625  0.5269 -2.3030
 6589SOL     OW31228   0.590   0.288   2.806 -0.4508 -0.7032  0.3228
 6589SOL    HW131229   0.545   0.294   2.721  0.9530 -0.7505 -0.4268
 6589SOL    HW231230   0.517   0.285   2.868 -1.5667 -1.8393 -1.0266
 6590SOL     OW31231   1.939   3.722  15.634 -0.0535 -0.5020  0.2466
 6590SOL    HW131232   2.008   3.688  15.578  0.4512  0.1782  0.4489
 6590SOL    HW231233   1.871   3.746  15.570  0.4189  1.4427  0.4837
 6591SOL     OW31234   3.818   4.361   3.360  0.2230  0.3007 -0.0506
 6591SOL    HW131235   3.735   4.322   3.331 -0.3318  1.7203 -0.3414
 6591SOL    HW231236   3.865   4.357   3.277  0.4890  3.2916 -0.0211
 6592SOL     OW31237   2.155   3.006   7.778 -0.1799  0.1300  0.1085
 6592SOL    HW131238   2.099   3.069   7.823  1.1517  0.9659  0.5985
 6592SOL    HW231239   2.232   3.012   7.835 -0.7432  0.8564  0.7977
 6593SOL     OW31240   0.384   2.635   9.233 -0.6016  0.0403 -0.2395
 6593SOL    HW131241   0.453   2.580   9.270 -1.1122  0.5734  1.5167
 6593SOL    HW231242   0.302   2.586   9.241 -0.5802 -0.1382 -1.1461
 6594SOL     OW31243   0.413   3.724   6.620  0.1853  0.2383  0.3305
 6594SOL    HW131244   0.482   3.790   6.628  1.1641 -0.8192  0.6157
 6594SOL    HW231245   0.445   3.665   6.688  1.2425  0.8579  0.3720
 6595SOL     OW31246   1.010   0.319  12.773 -0.2464  0.0761 -0.2473
 6595SOL    HW131247   0.918   0.343  12.773 -0.4941 -0.8714  1.5339
 6595SOL    HW231248   1.013   0.280  12.685  0.3764 -0.2186 -0.1019
 6596SOL     OW31249   1.027   4.647  14.312 -0.3252  0.1438 -0.0584
 6596SOL    HW131250   1.106   4.594  14.326 -1.1642 -1.3905 -1.0881
 6596SOL    HW231251   1.072   0.009  14.293  2.9090 -1.4982  0.4905
 6597SOL     OW31252   1.400   3.715   0.974  0.4260 -0.0100 -0.1425
 6597SOL    HW131253   1.461   3.651   1.012 -1.3665 -1.5999  0.0589
 6597SOL    HW231254   1.451   3.746   0.899 -1.3627 -0.1991 -1.4549
 6598SOL     OW31255   0.756   3.571   8.069  0.4432  0.5868 -0.1952
 6598SOL    HW131256   0.677   3.626   8.075  1.4028  1.5343  3.7481
 6598SOL    HW231257   0.758   3.543   8.160  0.8725  1.9554  0.2239
 6599SOL     OW31258   1.322   1.657   8.001  0.6161 -0.1249 -0.3024
 6599SOL    HW131259   1.279   1.740   7.980 -1.8058 -1.8762 -2.2484
 6599SOL    HW231260   1.373   1.675   8.079 -1.6274  1.5514  0.7713
 6600SOL     OW31261   1.718   1.812   3.369 -0.4013  0.3025  0.4562
 6600SOL    HW131262   1.760   1.895   3.393  1.5741 -0.7520  0.6543
 6600SOL    HW231263   1.628   1.838   3.348 -0.3388  1.2987  1.4000
 6601SOL     OW31264   1.093   2.443   7.691  0.6682 -0.1101  0.0834
 6601SOL    HW131265   1.029   2.427   7.622  0.2890 -0.7443  0.5830
 6601SOL    HW231266   1.122   2.531   7.666  0.4815 -0.0914 -0.0672
 6602SOL     OW31267   1.467   2.168   6.907 -0.3324 -0.0451 -0.1931
 6602SOL    HW131268   1.549   2.174   6.956 -0.6641 -1.6508  0.5395
 6602SOL    HW231269   1.421   2.235   6.959 -0.5460 -0.2018 -0.1807
 6603SOL     OW31270   1.863   1.871   8.252  0.0193 -0.0209 -0.2244
 6603SOL    HW131271   1.890   1.944   8.196  0.4513 -0.4134 -0.5415
 6603SOL    HW231272   1.813   1.927   8.310 -0.6402 -0.1160 -0.7048
 6604SOL     OW31273   3.943   1.963   2.155 -0.0376  0.3087  0.1992
 6604SOL    HW131274   3.848   1.967   2.157 -0.1092 -1.1203  0.1055
 6604SOL    HW231275   3.962   1.888   2.212 -1.7795  0.9127  1.5697
 6605SOL     OW31276   0.926   2.694   2.003 -0.3183  0.3748 -0.4378
 6605SOL    HW131277   1.019   2.685   2.023 -0.3127 -0.3121 -0.7741
 6605SOL    HW231278   0.902   2.615   1.954 -2.7598 -0.2332  1.7406
 6606SOL     OW31279   0.522   3.655   2.788  0.0228  0.6729 -0.1993
 6606SOL    HW131280   0.494   3.699   2.708 -0.2399 -2.7048 -1.9573
 6606SOL    HW231281   0.474   3.698   2.859  1.2390 -0.3324  1.2263
 6607SOL     OW31282   1.220   3.650   8.442 -0.5685  0.2053 -0.1010
 6607SOL    HW131283   1.159   3.581   8.466 -0.5833  0.5034  0.7012
 6607SOL    HW231284   1.220   3.705   8.520  1.7610  2.2994 -1.5908
 6608SOL     OW31285   3.842   4.700   6.870  0.1974  0.1525 -0.0032
 6608SOL    HW131286   3.783   4.671   6.939  0.8442  0.8597  0.8589
 6608SOL    HW231287   3.900   0.043   6.913 -0.7229  0.7945  0.2876
 6609SOL     OW31288   3.111   1.294   2.891 -0.0460  0.5196  0.2561
 6609SOL    HW131289   3.093   1.201   2.907 -1.2622  0.9423  1.2853
 6609SOL    HW231290   3.031   1.330   2.930  0.6137 -0.1836  2.2256
 6610SOL     OW31291   1.747   2.867   3.859 -0.0246 -0.1490  1.0664
 6610SOL    HW131292   1.703   2.950   3.840  1.1287  0.4334  0.8841
 6610SOL    HW231293   1.670   2.816   3.881 -1.1222  0.6984 -0.7725
 6611SOL     OW31294   1.177   3.914   7.890  0.6698 -0.1844 -0.2410
 6611SOL    HW131295   1.084   3.904   7.907  0.0518  0.8384 -3.0736
 6611SOL    HW231296   1.203   3.974   7.961 -0.2119 -0.0165 -0.0614
 6612SOL     OW31297   1.341   1.573  12.823 -0.4847  0.6715  0.5863
 6612SOL    HW131298   1.264   1.535  12.866 -1.5331  1.8278 -0.2700
 6612SOL    HW231299   1.334   1.665  12.848  2.8610  1.3725 -1.0888
 6613SOL     OW31300   3.946   4.408   8.818 -0.1722  0.0266 -0.0753
 6613SOL    HW131301   4.029   4.409   8.867  0.0750  1.7086 -0.5255
 6613SOL    HW231302   3.962   4.459   8.740 -0.3415  1.4355  0.8143
 6614SOL     OW31303   3.824   2.198   8.364  0.0012  0.2318  0.2824
 6614SOL    HW131304   3.755   2.153   8.414  0.0137 -1.0628 -0.8537
 6614SOL    HW231305   3.780   2.207   8.280  0.0282  0.7273  0.3200
 6615SOL     OW31306   3.019   3.032   6.486 -0.3603  0.1262 -0.0370
 6615SOL    HW131307   2.935   2.990   6.467  1.2727 -1.8421 -2.9471
 6615SOL    HW231308   3.078   2.957   6.482 -1.3695 -0.6830  0.1569
 6616SOL     OW31309   3.492   2.739   2.973  0.2495 -0.6045  0.0114
 6616SOL    HW131310   3.398   2.726   2.965 -0.0017 -0.3170  2.5653
 6616SOL    HW231311   3.513   2.677   3.043 -0.6702  0.1662  0.9812
 6617SOL     OW31312   0.362   3.365   8.269  0.3035  0.1378  0.5367
 6617SOL    HW131313   0.380   3.283   8.221 -2.6029  1.9023 -3.5708
 6617SOL    HW231314   0.280   3.348   8.316 -0.1952  1.4051  0.1127
 6618SOL     OW31315   0.059   3.745   5.565  0.2201 -0.6835  0.1573
 6618SOL    HW131316   0.008   3.673   5.602 -2.1956  2.0494  2.1444
 6618SOL    HW231317   0.044   3.810   5.634  2.0659  0.7677 -0.7970
 6619SOL     OW31318   3.981   1.566  15.774 -0.2236  0.0873  0.4135
 6619SOL    HW131319   3.956   1.520  15.694  1.4507  0.9136 -0.5861
 6619SOL    HW231320   3.903   1.556  15.829 -0.1849  0.8043  0.5945
 6620SOL     OW31321   1.067   0.155   9.451 -0.5145  0.4707  0.1053
 6620SOL    HW131322   1.062   0.099   9.528  1.1148 -0.0595 -0.1550
 6620SOL    HW231323   0.995   0.216   9.466  1.4865  2.6195  1.1832
 6621SOL     OW31324   2.532   2.897   3.242 -0.5368  0.0289  0.3861
 6621SOL    HW131325   2.557   2.892   3.334  1.3732 -1.3565 -0.2181
 6621SOL    HW231326   2.548   2.808   3.210  0.7220 -0.6786  2.9253
 6622SOL     OW31327   4.565   0.279   4.829 -0.0106  0.5135 -0.1044
 6622SOL    HW131328   4.478   0.239   4.825  0.8453 -1.2777 -0.4607
 6622SOL    HW231329   4.597   0.257   4.741  3.6662  2.5279  0.7249
 6623SOL     OW31330   1.848   4.053   8.144  0.3340  0.0454  0.3366
 6623SOL    HW131331   1.843   3.970   8.096 -2.1832  1.4097 -1.7678
 6623SOL    HW231332   1.823   4.115   8.076  1.2708 -0.5515 -0.5561
 6624SOL     OW31333   2.783   0.080   5.133 -0.2985 -0.1219 -0.3527
 6624SOL    HW131334   2.764   0.014   5.067  1.9466 -1.5321  0.3870
 6624SOL    HW231335   2.713   0.084   5.198  0.7160 -2.2117  0.8640
 6625SOL     OW31336   4.187   1.255   8.646 -0.2414 -0.3339  0.2595
 6625SOL    HW131337   4.258   1.191   8.650  1.1415  1.3045  2.8684
 6625SOL    HW231338   4.154   1.243   8.735 -0.4997 -0.4611  0.1459
 6626SOL     OW31339   2.503   2.722   6.404  0.2730 -0.6332 -0.7139
 6626SOL    HW131340   2.524   2.655   6.468 -0.2951 -0.8400 -0.7432
 6626SOL    HW231341   2.509   2.799   6.461 -0.5496  0.2763 -1.8545
 6627SOL     OW31342   2.072   2.717  11.573  0.7762  0.4630 -0.3162
 6627SOL    HW131343   2.121   2.771  11.635  0.5657  0.4032 -0.0972
 6627SOL    HW231344   2.011   2.676  11.634  1.6684  1.4474  1.2164
 6628SOL     OW31345   1.841   3.440   3.085 -0.3333  0.3441 -0.2203
 6628SOL    HW131346   1.897   3.433   3.008 -1.5502 -0.5385 -1.0198
 6628SOL    HW231347   1.906   3.471   3.148  0.6359 -4.0349  0.9346
 6629SOL     OW31348   0.395   1.650   6.991 -0.4062 -0.1126 -0.1338
 6629SOL    HW131349   0.314   1.700   6.997 -0.7528 -0.8862  1.5808
 6629SOL    HW231350   0.379   1.597   6.914  1.5556  2.5575 -2.3872
 6630SOL     OW31351   2.926   3.234   3.790  0.1065 -0.2561  0.4417
 6630SOL    HW131352   2.850   3.224   3.733  0.2997  3.6371 -0.4995
 6630SOL    HW231353   2.905   3.166   3.854  0.4969  0.8937  1.7871
 6631SOL     OW31354   1.090   1.698   6.911 -0.1882 -0.6381 -0.1092
 6631SOL    HW131355   1.125   1.693   6.822 -2.1811 -1.5348 -0.8195
 6631SOL    HW231356   1.107   1.615   6.955  1.6415 -0.7023 -0.9515
 6632SOL     OW31357   1.599   3.134   8.128 -0.1181  0.1279 -0.2263
 6632SOL    HW131358   1.553   3.215   8.108  1.5467  1.5020  1.4679
 6632SOL    HW231359   1.574   3.117   8.219 -1.5367  2.9899 -0.0869
 6633SOL     OW31360   1.541   1.741  15.979 -0.3347  0.6158  0.2638
 6633SOL    HW131361   1.463   1.788  15.950  0.1502 -0.0342 -2.0927
 6633SOL    HW231362   1.532   1.653  15.942  0.7617  0.7017 -0.2082
 6634SOL     OW31363   1.770   0.341   0.256  0.6172  0.0046  0.1532
 6634SOL    HW131364   1.746   0.328   0.348  0.2784 -1.9320 -0.2100
 6634SOL    HW231365   1.828   0.267   0.236  1.9174  1.0732  0.0234
 6635SOL     OW31366   4.300   3.732   2.688 -0.3051 -0.6589 -0.2208
 6635SOL    HW131367   4.353   3.703   2.613  1.2601  0.2919  0.5284
 6635SOL    HW231368   4.315   3.826   2.690 -0.5232 -0.6557  0.9152
 6636SOL     OW31369   0.558   0.302   4.871  0.0198 -0.1592  0.3720
 6636SOL    HW131370   0.568   0.321   4.964 -1.0088 -0.9939  0.6593
 6636SOL    HW231371   0.606   0.375   4.833  1.1119 -1.4165 -0.6691
 6637SOL     OW31372   0.650   0.300   1.545 -0.2461 -0.0236 -0.0250
 6637SOL    HW131373   0.585   0.291   1.615 -0.3262 -0.7068 -0.1863
 6637SOL    HW231374   0.662   0.208   1.521  1.5206  0.1574  0.1641
 6638SOL     OW31375   1.931   3.997  15.557  0.3037  0.2779 -0.7466
 6638SOL    HW131376   2.015   3.984  15.512  0.3305  0.6220 -0.7980
 6638SOL    HW231377   1.877   3.926  15.522 -0.6073 -1.2530  3.8522
 6639SOL     OW31378   0.954   2.427   1.368  0.7717 -0.8313  0.2444
 6639SOL    HW131379   0.929   2.375   1.291 -1.0097 -0.8828  0.8628
 6639SOL    HW231380   1.049   2.416   1.375  0.7979  0.2004  1.5212
 6640SOL     OW31381   3.764   2.911  16.665 -0.4285  0.0464  0.1037
 6640SOL    HW131382   3.801   2.952  16.743 -0.1742 -2.8362  1.5201
 6640SOL    HW231383   3.783   2.971  16.593  1.6475  0.1816  0.7669
 6641SOL     OW31384   1.130   4.396  11.907  0.1016  0.0537  0.3359
 6641SOL    HW131385   1.045   4.367  11.874 -0.6102  0.5291  1.7294
 6641SOL    HW231386   1.113   4.388  12.001  1.9426  1.3690  0.7633
 6642SOL     OW31387   4.461   0.680   6.957  0.1275  0.1096  0.3747
 6642SOL    HW131388   4.381   0.673   7.008  0.5057 -2.9041  0.5563
 6642SOL    HW231389   4.457   0.607   6.895 -0.9195 -0.8240  1.5504
 6643SOL     OW31390   0.169   2.586   0.314  0.4281  0.4501  0.0744
 6643SOL    HW131391   0.125   2.506   0.342  2.2293 -0.1284  1.2064
 6643SOL    HW231392   0.122   2.651   0.366 -1.4226 -1.0600  0.3172
 6644SOL     OW31393   0.656   2.028   3.874 -0.1438 -0.0051  0.0130
 6644SOL    HW131394   0.708   1.986   3.806 -0.4798 -0.1947 -0.1234
 6644SOL    HW231395   0.665   1.971   3.951  2.1515  1.0130  0.5126
 6645SOL     OW31396   0.125   4.485   2.721 -0.2722  0.8042  0.4935
 6645SOL    HW131397   0.203   4.513   2.770  1.3855 -1.5012 -0.8296
 6645SOL    HW231398   0.063   4.528   2.780  0.9881  1.1015  1.6197
 6646SOL     OW31399   1.436   0.454  11.090  0.3639 -0.5156 -0.0670
 6646SOL    HW131400   1.362   0.403  11.057  0.2049 -0.8121  0.7541
 6646SOL    HW231401   1.415   0.454  11.183 -0.5035 -0.3206 -0.2681
 6647SOL     OW31402   4.390   1.836   4.943  0.4693  0.2544 -0.3429
 6647SOL    HW131403   4.399   1.742   4.927  0.7483  0.1866  0.2371
 6647SOL    HW231404   4.311   1.863   4.896  1.8244  1.0758 -2.1697
 6648SOL     OW31405   1.180   1.166   0.665  0.4185 -0.0986  0.2463
 6648SOL    HW131406   1.164   1.189   0.573  1.1746 -4.4757 -0.9619
 6648SOL    HW231407   1.272   1.140   0.667  0.6433  0.7469  0.9846
 6649SOL     OW31408   1.664   0.935   4.856 -0.4793 -0.0310  0.0200
 6649SOL    HW131409   1.581   0.890   4.876  0.6072 -1.5386  1.1569
 6649SOL    HW231410   1.717   0.911   4.932  1.0991  0.8735 -0.8107
 6650SOL     OW31411   0.153   1.636  15.082 -0.1135  0.3917  0.3751
 6650SOL    HW131412   0.124   1.556  15.127  0.8889 -0.0828  0.1977
 6650SOL    HW231413   0.207   1.683  15.145  0.7755 -1.1111  0.7490
 6651SOL     OW31414   4.573   3.992   4.842  0.4350  0.6609  0.6963
 6651SOL    HW131415   4.587   3.935   4.918 -4.3308 -2.0109 -0.4180
 6651SOL    HW231416   4.519   4.062   4.878  1.7068  1.0460  1.8532
 6652SOL     OW31417   0.850   2.090   3.469  0.2262 -1.0134  0.5076
 6652SOL    HW131418   0.834   2.182   3.447  1.4126 -1.0647 -0.5495
 6652SOL    HW231419   0.825   2.054   3.383 -0.6369  2.6657 -0.7942
 6653SOL     OW31420   2.221   4.355   8.659 -0.2692 -0.4491 -0.3311
 6653SOL    HW131421   2.139   4.394   8.628  0.9235  1.8538 -0.6236
 6653SOL    HW231422   2.198   4.277   8.710  1.2367  0.2632  1.4455
 6654SOL     OW31423   2.125   3.172   5.294 -0.2985  0.4734  0.1934
 6654SOL    HW131424   2.127   3.237   5.223 -2.9049 -0.3958 -0.6859
 6654SOL    HW231425   2.081   3.099   5.250 -3.3088  1.7384  1.0550
 6655SOL     OW31426   4.633   0.973   8.672 -0.0069 -0.3928 -0.0619
 6655SOL    HW131427   4.647   1.062   8.703  0.7159 -0.9163  1.1579
 6655SOL    HW231428   4.669   0.977   8.583 -0.1329  2.5896  0.0377
 6656SOL     OW31429   4.273   0.724   0.801  0.2834 -0.4423 -0.6495
 6656SOL    HW131430   4.271   0.820   0.801  2.0579 -0.4153 -1.5062
 6656SOL    HW231431   4.186   0.701   0.834  0.0149  0.5786 -0.6539
 6657SOL     OW31432   2.817   3.799   6.827  0.1002 -0.2888 -0.1630
 6657SOL    HW131433   2.754   3.871   6.826  0.1396 -0.2599 -0.7362
 6657SOL    HW231434   2.776   3.735   6.769 -1.7676  1.3452 -0.6721
 6658SOL     OW31435   0.734   0.018  13.539 -0.2450  0.7166  0.3351
 6658SOL    HW131436   0.702   0.076  13.608 -1.2922  1.5910 -0.8924
 6658SOL    HW231437   0.673   0.015  13.466 -0.8372 -0.4603  0.8862
 6659SOL     OW31438   4.135   1.044   9.894  0.3907  0.1779 -0.1861
 6659SOL    HW131439   4.182   1.103   9.954  0.8633 -0.5512  0.1623
 6659SOL    HW231440   4.119   1.112   9.829 -1.7645  1.3560  1.5836
 6660SOL     OW31441   3.835   1.399   2.371  0.3889 -0.2650  0.0147
 6660SOL    HW131442   3.797   1.407   2.458  2.0218  1.7864  0.5226
 6660SOL    HW231443   3.749   1.391   2.331  0.4980 -0.6103 -0.1562
 6661SOL     OW31444   1.160   3.940   7.093  0.4054 -0.4756  0.1076
 6661SOL    HW131445   1.198   3.881   7.028  0.9654 -0.1158  0.1129
 6661SOL    HW231446   1.077   3.956   7.048  0.7263 -0.5482 -0.5150
 6662SOL     OW31447   2.755   1.412   7.198 -0.4790  0.3411  0.2711
 6662SOL    HW131448   2.725   1.325   7.222  0.9331  0.5718  2.8405
 6662SOL    HW231449   2.725   1.404   7.107 -1.8620  1.3234  0.6431
 6663SOL     OW31450   4.144   2.990   7.921 -0.5970  0.4043  0.3804
 6663SOL    HW131451   4.052   3.012   7.938 -0.4741  0.0179  1.4814
 6663SOL    HW231452   4.198   3.055   7.965 -0.1295  0.8958 -0.9199
 6664SOL     OW31453   1.874   4.686   5.259 -0.3008 -0.2458 -0.4878
 6664SOL    HW131454   1.949   4.627   5.255 -1.3242 -1.7011  1.6211
 6664SOL    HW231455   1.829   4.649   5.335 -1.1615 -2.9454 -2.2922
 6665SOL     OW31456   1.073   4.652   5.702  1.1536 -0.1963  0.6751
 6665SOL    HW131457   1.044   4.709   5.774  0.2158 -0.2488  0.3453
 6665SOL    HW231458   1.038   4.568   5.731  1.7838 -0.7768 -0.2688
 6666SOL     OW31459   0.682   3.365   6.228 -0.0400 -0.5101 -0.1444
 6666SOL    HW131460   0.726   3.321   6.155 -0.9393  0.1218 -1.0584
 6666SOL    HW231461   0.593   3.378   6.196  0.7266  0.6147 -1.8402
 6667SOL     OW31462   2.112   3.474  17.196 -0.0923 -0.3503  0.1380
 6667SOL    HW131463   2.147   3.445  17.112 -1.0780 -1.1765  0.0133
 6667SOL    HW231464   2.054   3.539  17.155  1.6917 -0.6145 -2.8063
 6668SOL     OW31465   2.527   0.130  13.170 -0.5137 -0.3231  0.7427
 6668SOL    HW131466   2.593   0.062  13.156  0.2434  0.8391 -1.3575
 6668SOL    HW231467   2.576   0.203  13.133 -3.2882  0.9144 -0.5111
 6669SOL     OW31468   2.364   4.595   6.354  1.1539 -0.2310  0.0118
 6669SOL    HW131469   2.285   4.594   6.300  0.9159  0.9186  0.3546
 6669SOL    HW231470   2.394   4.506   6.333  0.3002 -0.4610 -0.2337
 6670SOL     OW31471   0.353   1.965   8.398  0.3903  0.6542  0.4920
 6670SOL    HW131472   0.435   2.010   8.419  1.0119  0.0293 -0.5476
 6670SOL    HW231473   0.386   1.878   8.376 -1.1716 -0.4641  2.5994
 6671SOL     OW31474   2.530   2.640  14.229  0.5095 -0.2717  0.3420
 6671SOL    HW131475   2.548   2.733  14.243  2.8650 -0.4780 -1.3954
 6671SOL    HW231476   2.524   2.636  14.134  2.5608 -1.5331  0.2835
 6672SOL     OW31477   3.053   3.734  15.233 -0.1730  0.3428 -0.2089
 6672SOL    HW131478   3.129   3.750  15.289  0.9494  1.4327 -2.0397
 6672SOL    HW231479   2.979   3.744  15.293  1.2257  1.0721  1.3752
 6673SOL     OW31480   1.748   1.987   4.559  0.2427 -0.0478 -0.0848
 6673SOL    HW131481   1.788   2.027   4.482 -0.3850  2.2476  0.7785
 6673SOL    HW231482   1.784   2.049   4.623  0.3645 -2.4011  2.1559
 6674SOL     OW31483   3.757   3.275   1.395 -0.4987 -0.1766 -1.2291
 6674SOL    HW131484   3.717   3.361   1.409  2.1845  0.9229 -0.1705
 6674SOL    HW231485   3.847   3.300   1.374  0.2620 -1.6044  0.3413
 6675SOL     OW31486   4.268   1.489   8.899 -0.2298 -0.4966  0.5698
 6675SOL    HW131487   4.175   1.487   8.918 -0.3954  1.7540 -0.0168
 6675SOL    HW231488   4.288   1.580   8.919 -3.3688 -0.1027  1.8967
 6676SOL     OW31489   1.213   0.846  14.647 -0.0818  0.2058 -0.4008
 6676SOL    HW131490   1.264   0.921  14.614 -2.9023  1.8236 -1.0742
 6676SOL    HW231491   1.269   0.771  14.629  0.1138  0.3775 -0.5082
 6677SOL     OW31492   1.579   1.495   8.200  0.4188 -0.8127  0.2558
 6677SOL    HW131493   1.643   1.522   8.134 -0.1879 -0.1074 -0.0409
 6677SOL    HW231494   1.525   1.433   8.152  1.0143 -1.7589  0.8040
 6678SOL     OW31495   1.274   1.959   1.209 -0.3120 -0.4453  0.1411
 6678SOL    HW131496   1.246   1.899   1.278  0.1908 -0.8162  0.0211
 6678SOL    HW231497   1.324   1.899   1.154 -1.0904  0.6859 -1.8015
 6679SOL     OW31498   3.273   3.819  10.710 -0.3237 -0.8685  0.8399
 6679SOL    HW131499   3.339   3.792  10.773  1.9244 -0.6254 -1.3894
 6679SOL    HW231500   3.295   3.762  10.635 -0.2838 -0.0918  0.2612
 6680SOL     OW31501   0.104   0.166   6.599 -0.4096  0.4123  0.4353
 6680SOL    HW131502   0.146   0.172   6.513  0.2485  2.0741  0.8697
 6680SOL    HW231503   0.138   0.085   6.636  0.8206 -0.0280 -1.6453
 6681SOL     OW31504   1.241   0.317  10.168  0.4487  0.3727  0.3500
 6681SOL    HW131505   1.311   0.319  10.103  0.2203 -0.2630  0.0765
 6681SOL    HW231506   1.170   0.377  10.146  1.3358  1.2087 -0.1743
 6682SOL     OW31507   2.649   0.794   3.639  0.4401 -0.2802 -0.5163
 6682SOL    HW131508   2.611   0.861   3.582 -2.5992 -1.4656  0.0911
 6682SOL    HW231509   2.716   0.854   3.673  0.9389  0.2199 -2.3707
 6683SOL     OW31510   1.020   3.764   6.148  0.3410  0.6019  0.3635
 6683SOL    HW131511   1.022   3.675   6.112  2.1171  0.7960 -0.0259
 6683SOL    HW231512   1.111   3.787   6.127 -0.4527  2.1604 -1.3204
 6684SOL     OW31513   3.420   2.922  15.091  0.1775 -0.3599  0.3039
 6684SOL    HW131514   3.409   2.967  15.175 -1.1451 -2.3197  1.1643
 6684SOL    HW231515   3.360   2.848  15.098  1.6085 -1.4020  1.6142
 6685SOL     OW31516   0.872   0.715   2.827 -0.3012  0.3569 -0.4960
 6685SOL    HW131517   0.851   0.657   2.900  1.3423  1.8308  1.1160
 6685SOL    HW231518   0.929   0.785   2.856  1.0954 -1.0759  0.1841
 6686SOL     OW31519   0.390   1.529   6.758 -0.2992 -0.4167 -0.0987
 6686SOL    HW131520   0.339   1.459   6.718  0.0604 -1.2136  0.8495
 6686SOL    HW231521   0.474   1.484   6.756 -0.4536 -0.7000 -0.1281
 6687SOL     OW31522   1.637   2.958   7.251  0.3612  0.1738  0.4534
 6687SOL    HW131523   1.598   3.042   7.225  0.1430  0.3553  1.3733
 6687SOL    HW231524   1.710   2.988   7.305 -0.0285  2.1195 -0.0671
 6688SOL     OW31525   3.519   1.342   9.141  0.7256 -0.3506 -0.1706
 6688SOL    HW131526   3.469   1.414   9.179  1.1785  0.6708 -1.4654
 6688SOL    HW231527   3.481   1.273   9.194 -0.2202 -0.5177 -1.0744
 6689SOL     OW31528   0.353   3.087   4.412 -0.1184 -0.0554  0.4996
 6689SOL    HW131529   0.435   3.057   4.373  1.0781  2.3686  1.1583
 6689SOL    HW231530   0.287   3.036   4.364 -1.5360  0.1514  2.2281
 6690SOL     OW31531   4.480   2.072   1.207  0.4871  0.2067  0.0462
 6690SOL    HW131532   4.461   1.984   1.240 -0.5922 -0.3480 -2.0552
 6690SOL    HW231533   4.414   2.091   1.140 -1.7849 -1.6968  1.7515
 6691SOL     OW31534   3.525   2.211   5.063 -0.0190 -0.3090  0.2191
 6691SOL    HW131535   3.462   2.258   5.117 -1.6461 -1.2288 -0.8845
 6691SOL    HW231536   3.585   2.198   5.136 -0.7434  0.5548  0.9674
 6692SOL     OW31537   4.616   1.486   3.924  0.6368 -0.6475 -0.0125
 6692SOL    HW131538   4.561   1.540   3.868  0.7620  1.6345  2.0901
 6692SOL    HW231539   4.697   1.484   3.873  0.3153  0.5295 -0.5660
 6693SOL     OW31540   1.750   1.495  10.492  0.1659  0.7945  0.2856
 6693SOL    HW131541   1.789   1.580  10.472 -1.8771  1.6302 -0.1139
 6693SOL    HW231542   1.695   1.519  10.566 -1.0033 -1.0758  0.0183
 6694SOL     OW31543   3.365   3.274  11.309  0.1093  0.9415  1.0144
 6694SOL    HW131544   3.356   3.236  11.221 -2.5248  0.6978  1.4096
 6694SOL    HW231545   3.347   3.196  11.361  2.0620  0.8206  1.5175
 6695SOL     OW31546   3.061   3.272   8.416 -0.2461 -0.2048  0.0632
 6695SOL    HW131547   3.004   3.195   8.408  0.1840 -0.7106  1.9225
 6695SOL    HW231548   2.996   3.341   8.430  0.7203  0.6657  0.2506
 6696SOL     OW31549   2.917   2.831   4.989  0.2257  0.2798  0.1814
 6696SOL    HW131550   2.900   2.891   4.916 -2.4676  1.2280  1.5745
 6696SOL    HW231551   3.002   2.799   4.959  0.8387 -0.3236  2.6129
 6697SOL     OW31552   4.233   2.947   5.800  0.4665 -0.5294  0.1341
 6697SOL    HW131553   4.182   2.884   5.850  2.1301 -1.1687  1.0382
 6697SOL    HW231554   4.318   2.941   5.843 -0.3254 -1.3485  1.5505
 6698SOL     OW31555   3.943   0.554   6.005  0.3695 -0.4236 -0.0666
 6698SOL    HW131556   3.978   0.490   5.944 -1.2089 -0.2024 -1.2092
 6698SOL    HW231557   3.849   0.564   5.988  0.2696 -1.7693 -0.3391
 6699SOL     OW31558   1.037   0.231   4.431 -0.0330  0.4375  0.0734
 6699SOL    HW131559   1.078   0.176   4.497 -1.7501  0.8946  1.5230
 6699SOL    HW231560   1.088   0.312   4.436  0.4181  0.2129 -0.9380
 6700SOL     OW31561   3.318   4.416   5.669 -0.1618 -0.5081  0.9871
 6700SOL    HW131562   3.412   4.430   5.673 -0.2297  0.1748  0.1814
 6700SOL    HW231563   3.286   4.505   5.655  1.9020  0.0323 -0.1688
 6701SOL     OW31564   0.670   2.524  14.711 -0.4631  0.2412  0.2308
 6701SOL    HW131565   0.679   2.528  14.806 -0.6113 -0.9425  0.2931
 6701SOL    HW231566   0.764   2.537  14.699 -0.2397 -1.6815 -0.1087
 6702SOL     OW31567   0.342   0.353   2.597 -0.1270  0.8622 -0.1798
 6702SOL    HW131568   0.420   0.313   2.559  0.2787  0.8933  0.6219
 6702SOL    HW231569   0.289   0.274   2.602 -0.6974  1.2394 -0.2656
 6703SOL     OW31570   1.626   4.386   1.186 -0.4060  0.0612  0.6924
 6703SOL    HW131571   1.693   4.321   1.166  0.5393  1.0034  0.7617
 6703SOL    HW231572   1.544   4.339   1.190  0.4763 -1.4996  0.3340
 6704SOL     OW31573   4.571   2.133   7.069 -0.7770  0.2888 -0.0605
 6704SOL    HW131574   4.530   2.068   7.011  1.5814  0.3324 -1.7567
 6704SOL    HW231575   4.651   2.163   7.026 -0.7340  0.9773  0.5009
 6705SOL     OW31576   1.746   0.764  17.209  0.0681 -0.0041 -0.4820
 6705SOL    HW131577   1.717   0.819  17.136  0.5283 -1.2321 -1.6051
 6705SOL    HW231578   1.782   0.688  17.163 -2.0637 -1.5838  0.5050
 6706SOL     OW31579   1.052   0.826   6.225  0.4106 -0.0077  0.1219
 6706SOL    HW131580   1.113   0.890   6.190  1.9206 -1.6341 -0.2350
 6706SOL    HW231581   1.106   0.748   6.209  3.9977  2.3316  0.9022
 6707SOL     OW31582   0.088   1.235   4.583 -0.0455  0.0731  0.0511
 6707SOL    HW131583   0.009   1.209   4.630  0.0637 -0.9152 -0.3099
 6707SOL    HW231584   0.121   1.147   4.566  0.2154 -0.2927  2.4393
 6708SOL     OW31585   3.440   2.668  12.716 -0.0923  0.5317 -0.2059
 6708SOL    HW131586   3.504   2.704  12.778 -1.4689 -3.0452  3.2604
 6708SOL    HW231587   3.457   2.575  12.731  0.4117  0.7397  0.5063
 6709SOL     OW31588   0.991   0.835   3.277 -0.4152 -0.2308 -0.2409
 6709SOL    HW131589   0.950   0.898   3.337 -1.0058 -1.1756  0.3410
 6709SOL    HW231590   1.082   0.841   3.308 -0.1326 -2.7684 -0.6233
 6710SOL     OW31591   1.289   4.573  11.725  0.1607  0.0946 -0.6229
 6710SOL    HW131592   1.354   4.523  11.676  1.4187  1.3562 -0.2688
 6710SOL    HW231593   1.262   4.517  11.798  0.0193 -0.7548 -1.3317
 6711SOL     OW31594   2.589   0.517   5.083 -0.2030 -0.4989 -0.9774
 6711SOL    HW131595   2.530   0.442   5.083  1.1134 -1.5323 -1.9448
 6711SOL    HW231596   2.563   0.583   5.148 -1.7578  0.8012 -2.9329
 6712SOL     OW31597   3.491   3.386   6.490 -0.3986 -0.0462 -0.3916
 6712SOL    HW131598   3.418   3.325   6.484 -0.5007 -0.0583  0.8496
 6712SOL    HW231599   3.510   3.393   6.584  0.2714  1.0932 -0.6095
 6713SOL     OW31600   4.258   3.248   8.525 -0.0222  0.5322  0.1230
 6713SOL    HW131601   4.271   3.188   8.599 -0.6967  2.0337  1.4507
 6713SOL    HW231602   4.289   3.191   8.454 -0.5633  0.5548 -0.1279
 6714SOL     OW31603   4.477   3.089   7.077  0.2325 -0.0410 -0.0871
 6714SOL    HW131604   4.425   3.088   7.158  0.1730  0.4820 -0.1171
 6714SOL    HW231605   4.495   3.182   7.064 -0.3879  0.1474  0.4316
 6715SOL     OW31606   1.554   3.808  16.799  0.0449 -0.7262 -0.2457
 6715SOL    HW131607   1.611   3.879  16.768 -1.1991  0.5588  0.3915
 6715SOL    HW231608   1.573   3.801  16.893  4.9846  1.5130 -1.1221
 6716SOL     OW31609   1.391   3.966  12.387 -0.6745  0.3479 -0.1429
 6716SOL    HW131610   1.461   3.906  12.361 -0.3771  1.1420 -1.1557
 6716SOL    HW231611   1.309   3.919  12.373  0.8008 -2.8943  2.1084
 6717SOL     OW31612   4.677   4.232   6.437  0.3060  0.2345 -0.6870
 6717SOL    HW131613   4.667   4.292   6.510  2.8608 -0.7542  0.4592
 6717SOL    HW231614   0.010   4.282   6.375 -1.1294 -1.5996 -3.4215
 6718SOL     OW31615   2.329   3.523   0.127  0.3795  0.0783  0.2532
 6718SOL    HW131616   2.290   3.591   0.073  0.2551 -0.7577 -0.7313
 6718SOL    HW231617   2.268   3.451   0.109  0.3533 -0.1531  1.2640
 6719SOL     OW31618   1.677   3.644  11.384  0.4286 -0.6836  0.4220
 6719SOL    HW131619   1.721   3.578  11.438  1.9377 -0.9390 -1.1148
 6719SOL    HW231620   1.595   3.643  11.433 -1.2854 -3.2806 -2.4628
 6720SOL     OW31621   3.617   3.285  11.428  0.0914 -0.6520 -0.7598
 6720SOL    HW131622   3.657   3.351  11.372  1.0676 -0.6008 -0.0139
 6720SOL    HW231623   3.524   3.304  11.414 -0.5090 -1.9735  1.3537
 6721SOL     OW31624   1.032   0.369   6.012  0.1713  0.3464 -0.8198
 6721SOL    HW131625   1.054   0.462   6.018 -1.8038  0.7337  0.3362
 6721SOL    HW231626   1.042   0.352   5.918 -2.3927 -0.2810 -0.9698
 6722SOL     OW31627   0.450   3.768   6.315  0.8505 -0.0216 -0.5602
 6722SOL    HW131628   0.501   3.789   6.393  0.1525 -1.3804  0.2637
 6722SOL    HW231629   0.407   3.687   6.342 -0.2251  0.6079 -0.3786
 6723SOL     OW31630   2.660   3.496  10.559  0.1117  0.1436 -0.3428
 6723SOL    HW131631   2.733   3.498  10.497 -0.1286 -0.4935 -0.6518
 6723SOL    HW231632   2.647   3.585  10.591  1.1914  1.2432 -2.9312
 6724SOL     OW31633   1.671   4.250  16.693 -0.0227 -0.2418  0.0991
 6724SOL    HW131634   1.604   4.236  16.625 -1.5615 -1.0902  1.7895
 6724SOL    HW231635   1.684   4.158  16.716  0.3468 -0.1005  0.4519
 6725SOL     OW31636   2.759   1.300   5.773  0.2645 -1.1007  0.6105
 6725SOL    HW131637   2.773   1.242   5.699 -1.0513 -2.7581  1.6575
 6725SOL    HW231638   2.677   1.338   5.740  0.6265  1.5403  2.7702
 6726SOL     OW31639   3.780   2.725   3.043 -0.5419  0.3184 -0.4545
 6726SOL    HW131640   3.721   2.747   3.114 -1.5984 -1.4020 -0.7907
 6726SOL    HW231641   3.744   2.779   2.973 -2.0649 -1.3467 -0.9718
 6727SOL     OW31642   2.365   4.376   6.020  0.4110 -0.0011 -0.0965
 6727SOL    HW131643   2.382   4.427   5.942  3.7073 -1.2263 -0.1955
 6727SOL    HW231644   2.271   4.363   6.012  0.5169 -1.7108  1.2320
 6728SOL     OW31645   1.181   2.988   2.281  0.3028  0.1893  0.4550
 6728SOL    HW131646   1.130   2.910   2.257 -0.2732  1.1658 -1.4859
 6728SOL    HW231647   1.240   2.959   2.350 -1.0508 -0.4098  1.3703
 6729SOL     OW31648   3.449   4.168   3.653 -0.0303 -0.3409  0.4444
 6729SOL    HW131649   3.427   4.261   3.665 -0.0705 -0.4240  1.0408
 6729SOL    HW231650   3.419   4.157   3.563  2.4461  3.1236 -0.8152
 6730SOL     OW31651   3.204   2.639  15.136 -0.8469 -0.2231 -0.3165
 6730SOL    HW131652   3.113   2.665  15.125 -0.9794  0.9682  3.6417
 6730SOL    HW231653   3.204   2.563  15.195 -1.1160  1.5143  1.9179
 6731SOL     OW31654   0.176   0.544   7.188  0.2649  0.4337 -0.1019
 6731SOL    HW131655   0.256   0.517   7.142 -0.1743 -0.5272 -0.3009
 6731SOL    HW231656   0.158   0.630   7.151  1.4637 -0.1206 -1.9819
 6732SOL     OW31657   2.065   4.102   2.405  0.1042 -0.0801 -1.1005
 6732SOL    HW131658   2.111   4.183   2.384  3.1104 -2.0970 -2.3324
 6732SOL    HW231659   2.011   4.128   2.479  0.0368  1.4245 -1.6844
 6733SOL     OW31660   2.843   1.869   7.226 -0.3645  0.7315 -0.2240
 6733SOL    HW131661   2.825   1.875   7.132 -1.0814  2.5262  0.0364
 6733SOL    HW231662   2.871   1.777   7.226  0.2155  0.9100  0.6725
 6734SOL     OW31663   2.514   3.698   4.025  0.4112  0.0496  0.7185
 6734SOL    HW131664   2.512   3.728   4.116  0.0268  1.1879  0.3278
 6734SOL    HW231665   2.454   3.763   3.988  1.1912 -0.0459 -0.7121
 6735SOL     OW31666   1.097   4.113   8.481 -0.3053 -0.1495 -0.3188
 6735SOL    HW131667   1.041   4.036   8.490  0.4004 -0.5701  0.4214
 6735SOL    HW231668   1.039   4.186   8.504 -2.4786 -1.9157 -0.2288
 6736SOL     OW31669   3.258   2.934  15.668 -0.3521 -0.7736 -0.2081
 6736SOL    HW131670   3.249   2.852  15.718 -0.5705 -0.7503 -0.2080
 6736SOL    HW231671   3.203   2.913  15.592 -1.2132 -4.1196  1.3043
 6737SOL     OW31672   0.318   4.268   9.415  1.0898  0.1777 -0.0764
 6737SOL    HW131673   0.397   4.226   9.447  0.8903  0.0761  0.2843
 6737SOL    HW231674   0.306   4.236   9.325 -0.8742  1.6237 -0.3334
 6738SOL     OW31675   0.997   0.311   2.291 -0.0137 -0.2227 -0.2613
 6738SOL    HW131676   1.090   0.296   2.272  0.3919  2.0161 -0.1405
 6738SOL    HW231677   0.959   0.234   2.250 -0.3749 -0.1779 -0.0081
 6739SOL     OW31678   3.205   3.128   3.253  0.1559  0.4611 -0.2613
 6739SOL    HW131679   3.296   3.149   3.234  0.5590 -2.2089 -1.3268
 6739SOL    HW231680   3.178   3.184   3.180  1.3833  0.2168 -0.9097
 6740SOL     OW31681   4.120   1.333   9.441  0.7505 -0.1534  0.6998
 6740SOL    HW131682   4.125   1.308   9.349 -2.0020 -1.9599  1.0439
 6740SOL    HW231683   4.075   1.263   9.488 -0.6845  0.6730  0.5557
 6741SOL     OW31684   1.848   0.418   3.517 -0.3066  0.1699  0.0893
 6741SOL    HW131685   1.871   0.449   3.430  0.8894  0.7607  0.6134
 6741SOL    HW231686   1.864   0.497   3.570 -1.0205 -0.4662  1.2655
 6742SOL     OW31687   0.412   4.561  14.448 -0.1402  0.0449  0.2762
 6742SOL    HW131688   0.463   4.637  14.420 -2.5476  0.8789 -1.9013
 6742SOL    HW231689   0.342   4.553  14.382 -1.0886 -0.5434  1.3599
 6743SOL     OW31690   2.905   2.638   7.572  0.7755 -0.1956 -0.1118
 6743SOL    HW131691   2.937   2.720   7.610  0.4971 -1.9730  3.9084
 6743SOL    HW231692   2.942   2.564   7.619 -2.8789 -1.8640  0.1484
 6744SOL     OW31693   1.810   2.450  10.520  0.4815 -0.1118 -0.5077
 6744SOL    HW131694   1.856   2.509  10.460 -0.2906  1.4666  0.4679
 6744SOL    HW231695   1.762   2.387  10.465 -0.8759 -0.8023  1.4543
 6745SOL     OW31696   0.079   3.763   3.919 -0.1536  0.0416  0.4721
 6745SOL    HW131697   0.109   3.708   3.846  2.5965  1.1276  0.7849
 6745SOL    HW231698   4.718   3.803   3.887 -0.0335 -0.5166 -0.5397
 6746SOL     OW31699   2.599   3.233  16.718  0.2092 -0.5248 -0.2133
 6746SOL    HW131700   2.556   3.262  16.798  2.5446 -1.9593  1.5677
 6746SOL    HW231701   2.593   3.295  16.645  1.6037 -1.5307 -1.1723
 6747SOL     OW31702   3.765   3.101   4.872  0.1717  0.0953  0.2104
 6747SOL    HW131703   3.812   3.095   4.789 -0.7167 -0.8543 -0.2308
 6747SOL    HW231704   3.727   3.014   4.881 -3.3381  1.6162  0.4462
 6748SOL     OW31705   3.270   2.949  14.391  0.0757 -0.4862 -0.2507
 6748SOL    HW131706   3.318   2.949  14.474 -1.2942  0.5456  0.5396
 6748SOL    HW231707   3.334   2.988  14.333 -0.2086  1.0480  0.4604
 6749SOL     OW31708   3.994   3.486   6.727  0.3699 -0.2556 -0.3782
 6749SOL    HW131709   4.034   3.423   6.787  0.1647  0.0097  0.0384
 6749SOL    HW231710   4.066   3.507   6.667  0.3251 -1.6361 -0.9258
 6750SOL     OW31711   1.453   0.022  14.224 -0.4454  1.1879 -0.1999
 6750SOL    HW131712   1.388   0.023  14.154  0.9478 -1.4919 -1.5182
 6750SOL    HW231713   1.533   0.062  14.188  0.6172 -1.7169 -1.0402
 6751SOL     OW31714   0.114   2.504  12.603  0.0876  0.2363  0.1356
 6751SOL    HW131715   0.078   2.583  12.565 -1.0317 -0.6653 -0.6883
 6751SOL    HW231716   0.200   2.514  12.562 -0.3819  2.1754 -0.3503
 6752SOL     OW31717   1.870   3.395   2.424  0.0062 -0.2294 -0.1586
 6752SOL    HW131718   1.835   3.325   2.369 -0.1627 -1.7253  1.8529
 6752SOL    HW231719   1.947   3.352   2.461  0.6900  1.3574  0.2448
 6753SOL     OW31720   0.502   3.983   4.515  0.4968  0.1540  0.2979
 6753SOL    HW131721   0.518   4.048   4.447  3.9471  0.1741  1.1504
 6753SOL    HW231722   0.455   4.036   4.579 -0.6297  0.1232 -0.5047
 6754SOL     OW31723   1.986   0.987   5.710 -0.2782  0.1432 -0.3838
 6754SOL    HW131724   2.016   1.031   5.630 -1.5891 -3.3406 -2.7977
 6754SOL    HW231725   2.072   0.954   5.735 -0.7356 -1.3956 -0.8608
 6755SOL     OW31726   4.281   1.211  10.903 -0.4679 -0.3228  0.4470
 6755SOL    HW131727   4.215   1.205  10.834 -0.2031 -0.2038  0.1848
 6755SOL    HW231728   4.224   1.226  10.979 -0.3914  1.6295  0.1093
 6756SOL     OW31729   1.128   3.275   1.278  0.1115  0.2061  0.2998
 6756SOL    HW131730   1.185   3.287   1.202 -2.0912  2.4169 -0.9676
 6756SOL    HW231731   1.080   3.357   1.274  1.2838  0.7790 -2.4691
 6757SOL     OW31732   2.213   3.985  16.654 -0.4434  0.3641 -0.2898
 6757SOL    HW131733   2.260   4.035  16.587  0.2450 -0.9179 -0.7607
 6757SOL    HW231734   2.163   4.059  16.690  1.0294  0.5183  1.4173
 6758SOL     OW31735   0.720   0.613  17.640  0.0694 -0.5402  0.0000
 6758SOL    HW131736   0.687   0.524  17.638 -1.7390  0.1115  0.7853
 6758SOL    HW231737   0.809   0.603  17.606  0.3439 -0.8402  0.8201
 6759SOL     OW31738   2.486   1.025   8.666  0.1175 -0.6027  0.7901
 6759SOL    HW131739   2.480   1.086   8.740  1.6198 -1.9048  1.9956
 6759SOL    HW231740   2.529   1.079   8.600  0.7121 -1.4631  0.4795
 6760SOL     OW31741   2.992   0.127   4.955 -0.4455 -0.2945  0.1270
 6760SOL    HW131742   2.960   0.127   4.864  4.1633 -0.5171 -1.5117
 6760SOL    HW231743   2.912   0.114   5.004 -1.1117 -2.3685 -1.5277
 6761SOL     OW31744   2.116   0.158   8.962  0.2867 -0.2944  0.0485
 6761SOL    HW131745   2.168   0.131   9.038 -1.9839 -0.5186  1.5323
 6761SOL    HW231746   2.044   0.198   9.011  1.3958  0.3475  1.1599
 6762SOL     OW31747   0.246   1.214   5.668  0.3410 -0.4767  0.4231
 6762SOL    HW131748   0.282   1.201   5.756  2.2752 -0.2964 -0.3391
 6762SOL    HW231749   0.153   1.221   5.687  0.5492 -0.2417  1.3703
 6763SOL     OW31750   3.240   0.845  10.549  1.1601 -0.4804  0.3381
 6763SOL    HW131751   3.214   0.863  10.639 -1.0342  4.1540 -1.2128
 6763SOL    HW231752   3.189   0.769  10.522 -1.7940  1.0417  1.7221
 6764SOL     OW31753   4.265   2.963   8.611 -0.2839 -0.3362 -0.0489
 6764SOL    HW131754   4.328   2.922   8.670 -0.5880 -1.4878 -0.5201
 6764SOL    HW231755   4.200   2.981   8.679  1.1414  1.9568  0.7094
 6765SOL     OW31756   0.067   4.272  15.047  0.0352 -0.1062  0.1920
 6765SOL    HW131757   0.076   4.352  15.098 -1.5049 -0.1977  0.5953
 6765SOL    HW231758   0.075   4.309  14.959 -0.2938 -0.3147  0.0738
 6766SOL     OW31759   3.108   2.486  13.175 -0.0795 -0.5742 -0.6784
 6766SOL    HW131760   3.088   2.563  13.229 -0.7645 -0.2447 -1.4124
 6766SOL    HW231761   3.202   2.491  13.156 -0.5206  2.1900 -2.1394
 6767SOL     OW31762   3.188   3.556  16.545 -0.3600  0.3089 -0.1595
 6767SOL    HW131763   3.161   3.465  16.530 -2.9423  1.3076 -1.5284
 6767SOL    HW231764   3.270   3.573  16.499 -1.0943 -0.3228 -1.7088
 6768SOL     OW31765   3.482   1.486   8.558 -1.0101  0.2411  0.4686
 6768SOL    HW131766   3.497   1.491   8.652  0.4972 -0.2960  0.2594
 6768SOL    HW231767   3.565   1.523   8.526 -0.3375 -1.4910  0.2043
 6769SOL     OW31768   2.848   1.889   3.808  0.3425  0.0131  0.8023
 6769SOL    HW131769   2.877   1.956   3.870  0.4733  1.7146 -1.0814
 6769SOL    HW231770   2.755   1.876   3.828 -0.1175  2.8954  0.5574
 6770SOL     OW31771   2.438   0.608   6.240 -0.5190  0.4912 -0.1015
 6770SOL    HW131772   2.374   0.537   6.249 -2.6262  2.2377 -1.4858
 6770SOL    HW231773   2.522   0.561   6.238 -2.2668 -2.6126 -1.2777
 6771SOL     OW31774   1.336   1.386   4.911  0.3352 -0.4169  0.5803
 6771SOL    HW131775   1.290   1.437   4.844  0.9335 -0.3257  0.2367
 6771SOL    HW231776   1.295   1.300   4.903 -0.1268  0.0403 -1.9162
 6772SOL     OW31777   0.162   0.342   6.859 -0.2284  0.4126 -0.2415
 6772SOL    HW131778   0.174   0.249   6.880 -2.2394 -0.0331 -1.1218
 6772SOL    HW231779   0.246   0.373   6.893  1.2526 -2.3082 -1.4271
 6773SOL     OW31780   0.182   2.733   7.828 -0.1194  0.1193 -0.1976
 6773SOL    HW131781   0.170   2.755   7.920 -0.3813 -1.6304  0.1803
 6773SOL    HW231782   0.275   2.713   7.826  0.0443  0.9071 -0.7695
 6774SOL     OW31783   4.285   4.690   3.387 -0.1643 -0.3360 -0.6447
 6774SOL    HW131784   4.209   4.633   3.390 -0.8329  0.6040  0.1828
 6774SOL    HW231785   4.236   0.048   3.360  0.0370  0.3432  0.9478
 6775SOL     OW31786   0.714   1.629   1.090 -0.1049 -0.0793 -0.0992
 6775SOL    HW131787   0.797   1.580   1.095 -0.4405 -0.5133  1.0568
 6775SOL    HW231788   0.660   1.566   1.042 -0.5982 -0.1670  0.5768
 6776SOL     OW31789   4.208   3.243   6.292  0.3299  0.0846  0.3600
 6776SOL    HW131790   4.176   3.310   6.232 -0.2813 -1.2082 -0.7738
 6776SOL    HW231791   4.177   3.160   6.255 -1.0114  0.7691 -0.0645
 6777SOL     OW31792   0.624   1.655   9.739  0.0858  0.5863 -0.1120
 6777SOL    HW131793   0.701   1.690   9.784  0.4520 -2.0404  1.3136
 6777SOL    HW231794   0.652   1.565   9.722  0.9038  0.7188  0.5315
 6778SOL     OW31795   0.662   3.939  12.118  0.4874  0.1355 -0.1806
 6778SOL    HW131796   0.757   3.936  12.103  0.4490  1.6273 -0.7560
 6778SOL    HW231797   0.634   3.892  12.040  1.2005 -0.7006  0.0717
 6779SOL     OW31798   2.488   3.824   3.263  0.3966  0.3324 -0.0667
 6779SOL    HW131799   2.562   3.776   3.226 -0.9821 -2.1898  0.4923
 6779SOL    HW231800   2.416   3.775   3.224  1.2036 -0.5239 -0.4639
 6780SOL     OW31801   2.321   4.027   6.759  0.3424 -0.6782 -0.3759
 6780SOL    HW131802   2.409   4.037   6.722 -0.5670  0.8718 -2.0789
 6780SOL    HW231803   2.336   4.036   6.853  1.4223 -1.1254 -0.4969
 6781SOL     OW31804   0.278   0.081  14.874  0.2502  0.1468  0.7154
 6781SOL    HW131805   0.206   0.066  14.813  0.0573 -1.6172  1.3555
 6781SOL    HW231806   0.250   0.093  14.965  0.3650 -0.3037  0.8145
 6782SOL     OW31807   0.377   0.340   5.402  0.2741 -0.1035  0.5335
 6782SOL    HW131808   0.365   0.401   5.330  1.5633 -1.6298 -0.9585
 6782SOL    HW231809   0.335   0.384   5.476 -0.8086  3.9610 -2.5185
 6783SOL     OW31810   2.717   1.114   3.197 -0.0214 -0.4045 -0.6090
 6783SOL    HW131811   2.783   1.045   3.188 -0.0935 -0.4636 -0.6808
 6783SOL    HW231812   2.741   1.164   3.119 -1.4737 -0.2970 -0.9880
 6784SOL     OW31813   2.628   3.443   4.214 -0.7773  0.1344  0.1104
 6784SOL    HW131814   2.698   3.410   4.158 -1.4536  0.4902 -0.9450
 6784SOL    HW231815   2.656   3.533   4.230  0.8587 -0.7114  1.9648
 6785SOL     OW31816   0.909   2.366   8.475  0.1440 -0.0486  0.0247
 6785SOL    HW131817   0.873   2.454   8.466 -1.9263 -0.8741  0.2694
 6785SOL    HW231818   0.913   2.342   8.383 -0.6749 -1.7734  0.4288
 6786SOL     OW31819   3.392   0.872   4.782 -0.1641  0.0118 -0.0681
 6786SOL    HW131820   3.341   0.949   4.757 -1.2785 -0.2456  1.4564
 6786SOL    HW231821   3.479   0.912   4.776 -0.4532  1.1931  3.6848
 6787SOL     OW31822   2.227   4.517   4.613 -0.2670  0.0591  0.4416
 6787SOL    HW131823   2.272   4.487   4.534 -2.2461 -1.5650 -0.0679
 6787SOL    HW231824   2.297   4.578   4.638 -0.5466  0.9482 -0.9056
 6788SOL     OW31825   2.422   3.685   0.834  0.1626 -0.0558  0.4587
 6788SOL    HW131826   2.360   3.746   0.796  2.0163  0.6392 -1.3969
 6788SOL    HW231827   2.427   3.617   0.767 -1.3350 -0.4302  0.7191
 6789SOL     OW31828   1.426   0.134   6.544 -0.1344 -0.1664 -0.0841
 6789SOL    HW131829   1.510   0.110   6.506  0.0530 -0.7770  0.7251
 6789SOL    HW231830   1.376   0.054   6.527  0.5151 -0.2565 -1.6177
 6790SOL     OW31831   0.206   1.005  15.892  0.6192 -0.1492  0.0299
 6790SOL    HW131832   0.167   1.020  15.805  2.3355 -2.7493 -1.1630
 6790SOL    HW231833   0.287   0.967  15.860  0.1402 -2.0605  1.1267
 6791SOL     OW31834   0.155   4.040  16.894  0.2367  0.0208 -0.6807
 6791SOL    HW131835   0.147   4.064  16.802 -0.6958 -3.0133 -1.3824
 6791SOL    HW231836   0.150   4.122  16.943  2.2757 -0.2206 -0.0551
 6792SOL     OW31837   2.882   0.764   8.476  0.3498 -0.0869 -0.1288
 6792SOL    HW131838   2.976   0.764   8.455  0.2724 -0.0588 -0.4735
 6792SOL    HW231839   2.895   0.755   8.570  1.8760  3.5076  0.0222
 6793SOL     OW31840   1.365   3.797   7.267  0.5793 -0.0110 -0.2443
 6793SOL    HW131841   1.286   3.773   7.315 -0.3197  2.1734 -0.5870
 6793SOL    HW231842   1.420   3.815   7.343 -0.0598 -0.1081  0.2379
 6794SOL     OW31843   0.042   2.428   4.071  0.0192 -0.4723  0.2152
 6794SOL    HW131844   0.072   2.401   4.158 -0.2479  0.1819  0.5017
 6794SOL    HW231845   4.694   2.491   4.091 -1.4556 -2.4770  1.5282
 6795SOL     OW31846   2.174   0.565   5.417  0.3135 -0.0535  0.5082
 6795SOL    HW131847   2.099   0.604   5.462 -0.2164 -0.8057  0.2744
 6795SOL    HW231848   2.238   0.635   5.435  1.8850 -0.5981 -2.9964
 6796SOL     OW31849   0.103   3.322   8.649  0.0131  0.4214 -0.5230
 6796SOL    HW131850   0.014   3.302   8.679  0.1804 -3.1560 -2.4392
 6796SOL    HW231851   0.137   3.382   8.716 -1.9177  1.2928 -0.3061
 6797SOL     OW31852   0.450   3.694   3.802 -0.4870  0.4183 -0.9641
 6797SOL    HW131853   0.378   3.709   3.863  1.7599 -0.5205  1.9182
 6797SOL    HW231854   0.433   3.756   3.731  0.7656 -2.4168 -3.7967
 6798SOL     OW31855   1.210   1.888   5.413  0.4942  0.3852 -0.1820
 6798SOL    HW131856   1.186   1.796   5.421  0.9056  0.4816  2.4096
 6798SOL    HW231857   1.151   1.927   5.478 -2.4693 -4.6756  0.1035
 6799SOL     OW31858   3.867   0.523   5.212  0.0299  0.8779 -0.6077
 6799SOL    HW131859   3.807   0.455   5.243 -1.4207  2.6111  0.3934
 6799SOL    HW231860   3.832   0.602   5.254 -0.3052 -0.2643  1.2987
 6800SOL     OW31861   2.898   0.942   6.462  0.2546 -0.4413  0.3359
 6800SOL    HW131862   2.838   0.878   6.425 -0.8454  2.0262 -2.1712
 6800SOL    HW231863   2.899   0.924   6.556 -2.0319  1.0121  0.6227
 6801SOL     OW31864   4.560   1.435   1.012  0.3660  0.1443  0.2399
 6801SOL    HW131865   4.532   1.400   0.928  1.9325 -0.3370 -0.0842
 6801SOL    HW231866   4.502   1.384   1.068  0.3433  1.0291  1.0279
 6802SOL     OW31867   3.839   1.114   9.108 -0.1681  0.4136 -0.6699
 6802SOL    HW131868   3.907   1.053   9.134 -1.9501 -0.1214  2.8274
 6802SOL    HW231869   3.766   1.056   9.087 -0.0277 -0.2998  0.7566
 6803SOL     OW31870   1.341   1.855  12.024  0.0320  0.3833 -0.0792
 6803SOL    HW131871   1.347   1.949  12.039  1.0637  0.4592 -1.0161
 6803SOL    HW231872   1.340   1.841  11.929  2.9077 -0.8539  0.0875
 6804SOL     OW31873   2.558   3.972   0.963  0.4558 -0.0836  0.0133
 6804SOL    HW131874   2.573   3.929   1.047  1.0907 -0.5716 -0.3486
 6804SOL    HW231875   2.556   3.898   0.902  0.4724  0.1248 -0.2395
 6805SOL     OW31876   2.713   3.645  11.608  0.2191 -0.3592  0.1202
 6805SOL    HW131877   2.706   3.696  11.528 -1.8203  2.5671  2.1950
 6805SOL    HW231878   2.709   3.557  11.570  1.0503 -0.4062  0.1389
 6806SOL     OW31879   3.769   4.667   2.817  0.6939  0.1733 -0.6416
 6806SOL    HW131880   3.774   0.030   2.864 -0.6275 -1.3534  2.2279
 6806SOL    HW231881   3.693   4.677   2.760  1.1454  2.8650 -0.7611
 6807SOL     OW31882   2.720   1.587  11.697 -0.3206 -0.5780  0.3405
 6807SOL    HW131883   2.707   1.542  11.780  2.0168 -1.0329  0.4508
 6807SOL    HW231884   2.779   1.527  11.652  1.7502  1.0338  0.9286
 6808SOL     OW31885   3.163   3.868  16.139  0.2908  0.2231 -0.3690
 6808SOL    HW131886   3.116   3.821  16.208 -0.3344  2.4438  0.7467
 6808SOL    HW231887   3.098   3.873  16.070  2.4218 -1.1377 -2.4680
 6809SOL     OW31888   0.969   4.013   1.256  0.2650  0.0280  0.0369
 6809SOL    HW131889   1.060   3.983   1.246  0.7099  1.0377  1.0099
 6809SOL    HW231890   0.943   3.969   1.337 -0.3091 -2.0316 -1.2779
 6810SOL     OW31891   0.956   0.246   7.208 -0.7900  0.5411  0.4542
 6810SOL    HW131892   0.877   0.283   7.169  0.2283  2.5302  0.2654
 6810SOL    HW231893   0.908   0.192   7.270  3.0118 -3.0453  0.3176
 6811SOL     OW31894   4.544   4.266  16.710  0.0028  0.3022 -0.3957
 6811SOL    HW131895   4.611   4.274  16.643 -0.7425  2.4935 -0.8609
 6811SOL    HW231896   4.556   4.174  16.735 -0.2775  0.6548  1.0611
 6812SOL     OW31897   1.572   2.482   4.473  0.1636  0.0268 -0.6466
 6812SOL    HW131898   1.654   2.465   4.520 -0.8897  1.2667  1.5932
 6812SOL    HW231899   1.570   2.578   4.468  3.5751  0.0695 -1.4325
 6813SOL     OW31900   4.418   0.876   3.668 -0.5943  0.4277  0.8158
 6813SOL    HW131901   4.393   0.897   3.758  0.4047  0.9052  0.9832
 6813SOL    HW231902   4.407   0.782   3.654  0.6997  0.5532 -0.9483
 6814SOL     OW31903   0.840   0.272   3.099 -0.2862 -0.0181  0.3414
 6814SOL    HW131904   0.751   0.277   3.133 -1.0438  2.2192 -1.9497
 6814SOL    HW231905   0.882   0.259   3.184 -0.2937 -0.7848  0.2316
 6815SOL     OW31906   1.422   3.608   7.081 -0.0088 -0.1660 -0.0481
 6815SOL    HW131907   1.449   3.539   7.142  0.4559 -1.0706 -1.2689
 6815SOL    HW231908   1.411   3.685   7.137  0.7335 -1.3777  1.7427
 6816SOL     OW31909   1.115   2.480   3.646  0.2658  0.4202 -0.0758
 6816SOL    HW131910   1.021   2.459   3.643  0.3125  0.2661 -0.4730
 6816SOL    HW231911   1.113   2.522   3.732  0.6582 -2.6813  1.4609
 6817SOL     OW31912   1.848   1.569  12.913 -0.4442 -0.1294  0.5147
 6817SOL    HW131913   1.827   1.592  12.823 -4.1587  0.1139  1.4515
 6817SOL    HW231914   1.761   1.554  12.949 -0.4929  0.4043  0.6096
 6818SOL     OW31915   0.299   3.942  14.286 -0.2962  0.3149 -0.4200
 6818SOL    HW131916   0.206   3.919  14.289 -0.2813  0.1472 -1.3415
 6818SOL    HW231917   0.323   3.901  14.203 -2.8410 -0.3201 -0.8441
 6819SOL     OW31918   2.737   3.073  11.430 -0.1532  0.0790 -0.1292
 6819SOL    HW131919   2.668   3.069  11.495 -0.1115  0.2758 -0.0713
 6819SOL    HW231920   2.683   3.066  11.351  0.1577  1.4338 -0.4638
 6820SOL     OW31921   0.004   2.923  16.378  0.2783 -0.0418 -0.1572
 6820SOL    HW131922   0.012   2.898  16.286 -0.9066 -2.6288  0.4289
 6820SOL    HW231923   0.029   3.015  16.373 -0.2943  0.0237 -1.9952
 6821SOL     OW31924   4.683   4.172   1.765 -0.3778  0.2389 -0.3825
 6821SOL    HW131925   0.048   4.214   1.782 -0.4721 -0.0964  0.9274
 6821SOL    HW231926   4.636   4.239   1.716  0.8710 -0.2443 -2.2490
 6822SOL     OW31927   1.001   0.394   8.157  0.0651  0.5925 -0.3638
 6822SOL    HW131928   0.943   0.372   8.084  0.0149  0.0206 -0.1512
 6822SOL    HW231929   1.012   0.307   8.195  1.7599  1.2911  0.7458
 6823SOL     OW31930   2.090   3.066  16.187 -0.0980  0.3876  0.3180
 6823SOL    HW131931   2.131   3.121  16.253  0.5249 -1.4404  1.4451
 6823SOL    HW231932   2.086   2.979  16.227 -0.9295 -0.6926 -2.0761
 6824SOL     OW31933   3.981   1.098   5.400 -0.4057 -0.7586 -0.5604
 6824SOL    HW131934   3.963   1.006   5.419  0.2898 -1.0026 -1.0739
 6824SOL    HW231935   3.937   1.115   5.317 -4.5184  1.5240  2.0597
 6825SOL     OW31936   3.948   3.034   1.564 -0.0219  0.0225  0.5882
 6825SOL    HW131937   4.021   2.986   1.525  0.8796 -0.2647  2.6325
 6825SOL    HW231938   3.927   3.097   1.495 -1.6198  0.3477  1.3643
 6826SOL     OW31939   4.437   0.031   5.138 -0.0163  0.4236 -0.3682
 6826SOL    HW131940   4.362   0.088   5.120 -0.0032  0.5602  0.0003
 6826SOL    HW231941   4.467   0.059   5.225  1.5381 -0.8729 -0.4920
 6827SOL     OW31942   4.253   1.962   2.757  0.4953 -0.1261 -0.3756
 6827SOL    HW131943   4.337   1.987   2.719 -0.1969  3.6578  0.5850
 6827SOL    HW231944   4.222   2.049   2.781  1.1485  0.4567 -1.6747
 6828SOL     OW31945   3.439   1.880   8.348 -0.2574 -0.3459  0.0110
 6828SOL    HW131946   3.456   1.818   8.419  1.0503 -0.8651 -0.7584
 6828SOL    HW231947   3.366   1.841   8.302 -1.2009  1.8208 -0.3270
 6829SOL     OW31948   2.801   0.381   7.832 -0.2923  0.1464 -0.4844
 6829SOL    HW131949   2.877   0.396   7.776 -0.7327 -1.6181 -1.5390
 6829SOL    HW231950   2.799   0.286   7.827  1.5354  0.1014 -0.4129
 6830SOL     OW31951   2.092   2.451   6.818 -0.3906  0.5801 -0.0497
 6830SOL    HW131952   2.175   2.422   6.779  0.9532  0.9996  2.5321
 6830SOL    HW231953   2.076   2.393   6.892  0.6920 -0.2354 -0.4519
 6831SOL     OW31954   0.378   0.025   3.897  0.3707  0.1051  0.2005
 6831SOL    HW131955   0.294   4.698   3.898 -0.8742  2.3519  0.9903
 6831SOL    HW231956   0.416   4.700   3.821  0.5671 -1.1607  1.0494
 6832SOL     OW31957   0.805   1.492   5.771  0.1016 -0.1962  0.2730
 6832SOL    HW131958   0.810   1.486   5.676  0.7801  1.2553  0.2212
 6832SOL    HW231959   0.709   1.495   5.779  0.0336  1.1268 -1.1014
 6833SOL     OW31960   3.197   1.603  10.108 -0.0209  0.1977 -0.0251
 6833SOL    HW131961   3.180   1.693  10.134 -0.3128 -0.2944  1.4434
 6833SOL    HW231962   3.139   1.560  10.170 -0.7370 -0.8133 -1.3745
 6834SOL     OW31963   3.724   4.172  11.624  0.4825  0.1745  0.7655
 6834SOL    HW131964   3.632   4.164  11.602  0.1157  0.2053  2.3186
 6834SOL    HW231965   3.769   4.165  11.539 -1.2650 -0.0664 -0.1431
 6835SOL     OW31966   2.960   2.494   3.554  0.4684  0.1051 -0.4641
 6835SOL    HW131967   2.975   2.573   3.501 -0.3235 -1.1941 -2.6259
 6835SOL    HW231968   2.873   2.459   3.534  0.3584 -1.2830  2.4081
 6836SOL     OW31969   2.846   0.418  16.606  0.1921  0.3796 -0.6942
 6836SOL    HW131970   2.848   0.504  16.649  1.4792  0.1852 -0.3807
 6836SOL    HW231971   2.839   0.445  16.514 -1.5538 -2.7543 -1.4931
 6837SOL     OW31972   3.641   0.149   5.829  0.3737 -0.2235 -0.3054
 6837SOL    HW131973   3.641   0.080   5.896 -1.0657  0.2462  0.1744
 6837SOL    HW231974   3.577   0.206   5.871 -0.7757  0.0516 -2.4732
 6838SOL     OW31975   4.602   0.874   7.749  0.1648  0.0670  0.1412
 6838SOL    HW131976   4.536   0.808   7.726  1.9138 -2.3494  2.0863
 6838SOL    HW231977   4.664   0.830   7.807  0.2657 -2.7072 -2.1269
 6839SOL     OW31978   3.296   3.767  11.396  0.0984  0.4327  0.1732
 6839SOL    HW131979   3.382   3.733  11.373 -0.2262 -0.9613  0.9676
 6839SOL    HW231980   3.309   3.823  11.472  0.3357  1.4314 -0.6018
 6840SOL     OW31981   3.134   3.461   7.275 -0.2083 -0.2367 -0.1838
 6840SOL    HW131982   3.194   3.387   7.276 -0.0195 -0.0680  0.9602
 6840SOL    HW231983   3.182   3.533   7.235 -0.9636  0.4387  0.1246
 6841SOL     OW31984   2.860   1.176   5.556  0.0368 -0.3094  0.5163
 6841SOL    HW131985   2.863   1.114   5.484  1.1037 -0.9977  1.1467
 6841SOL    HW231986   2.917   1.134   5.621  0.4379 -0.2580  0.1976
 6842SOL     OW31987   2.665   1.301   6.246 -0.2822  0.1758 -0.1228
 6842SOL    HW131988   2.667   1.256   6.161 -2.5786 -0.3866  0.1445
 6842SOL    HW231989   2.751   1.275   6.279 -0.8259 -1.9223 -0.3591
 6843SOL     OW31990   4.379   2.708   4.923 -0.6777 -0.0129 -0.6002
 6843SOL    HW131991   4.392   2.682   5.014 -0.1571  1.3830 -0.2738
 6843SOL    HW231992   4.295   2.753   4.911 -0.1064  1.1226 -0.3435
 6844SOL     OW31993   3.645   1.108   4.989  0.0119 -0.2645 -0.2533
 6844SOL    HW131994   3.646   1.180   4.926  0.3485  1.5218  1.8049
 6844SOL    HW231995   3.653   1.031   4.932 -0.0863 -1.9258  1.9602
 6845SOL     OW31996   1.703   3.026  14.026  0.0775  0.0778  0.1145
 6845SOL    HW131997   1.667   3.041  14.113 -0.9193 -0.3703 -0.2150
 6845SOL    HW231998   1.631   2.972  13.993 -0.1196 -0.4856  1.4963
 6846SOL     OW31999   1.278   0.567   2.714 -0.4750  0.1433  0.9363
 6846SOL    HW132000   1.326   0.485   2.706  0.1790  0.4122  2.1217
 6846SOL    HW232001   1.189   0.539   2.695  0.1552 -0.4442 -1.2093
 6847SOL     OW32002   1.427   2.441  12.036  0.0618  0.5022  0.6048
 6847SOL    HW132003   1.454   2.454  12.127  2.0247 -1.0672  0.2321
 6847SOL    HW232004   1.343   2.487  12.036 -0.6965 -0.8886 -0.1105
 6848SOL     OW32005   2.776   2.475   2.098  0.8219 -0.2052 -0.0985
 6848SOL    HW132006   2.756   2.559   2.057  1.0917  0.0278  0.2492
 6848SOL    HW232007   2.859   2.447   2.061  1.2320  2.1019 -0.8908
 6849SOL     OW32008   4.173   2.948   3.798 -0.1419  0.0353 -0.5818
 6849SOL    HW132009   4.143   2.857   3.801 -0.6220  0.1909 -0.7381
 6849SOL    HW232010   4.236   2.948   3.726  0.3660  1.0589 -0.1356
 6850SOL     OW32011   3.825   1.405  11.615 -0.9094  0.3253  0.1930
 6850SOL    HW132012   3.804   1.381  11.525  0.2955 -1.1458  0.2983
 6850SOL    HW232013   3.758   1.463  11.651 -0.0995  1.7745 -0.6429
 6851SOL     OW32014   4.696   1.879   3.144  0.6762 -1.0042 -0.0760
 6851SOL    HW132015   4.609   1.919   3.147  0.9546 -0.4095  0.1321
 6851SOL    HW232016   0.002   1.873   3.236  0.3954  1.0506  0.1429
 6852SOL     OW32017   3.710   1.996   7.847 -0.4200  0.2062 -0.0039
 6852SOL    HW132018   3.656   1.993   7.926  1.1917 -0.5897  1.0445
 6852SOL    HW232019   3.792   1.964   7.884  0.5192  0.2223 -2.0707
 6853SOL     OW32020   3.974   1.631   1.563 -0.1995 -0.4101 -0.0004
 6853SOL    HW132021   3.945   1.552   1.517  0.3796 -1.1635  0.9335
 6853SOL    HW232022   4.067   1.634   1.543  0.3166  0.9238  2.6134
 6854SOL     OW32023   1.631   1.316   5.611  0.1098  0.0099 -0.0560
 6854SOL    HW132024   1.685   1.248   5.571 -1.4995 -0.0017 -2.2207
 6854SOL    HW232025   1.654   1.397   5.565 -1.8413  0.4534 -0.2809
 6855SOL     OW32026   3.548   1.950   9.859 -0.5922  0.8758 -0.0360
 6855SOL    HW132027   3.518   1.887   9.924  4.0488 -0.1214  1.1693
 6855SOL    HW232028   3.632   1.913   9.832 -0.5710  1.9396 -1.4446
 6856SOL     OW32029   3.384   3.047  16.275 -0.0116  0.0715 -0.2734
 6856SOL    HW132030   3.416   2.978  16.333  1.3766  0.9437 -0.0146
 6856SOL    HW232031   3.401   3.012  16.188  1.7137 -0.4587  0.2699
 6857SOL     OW32032   2.426   1.493   6.996  0.0388  0.1078 -0.1904
 6857SOL    HW132033   2.475   1.419   7.032  0.5770 -0.3942 -1.9346
 6857SOL    HW232034   2.422   1.474   6.902  1.3679  0.3618 -0.2971
 6858SOL     OW32035   0.388   1.984  12.376  0.2913  0.5292  0.0459
 6858SOL    HW132036   0.475   2.018  12.394  1.7395 -1.8364 -2.4948
 6858SOL    HW232037   0.335   2.030  12.441 -0.5724 -0.6837  0.2065
 6859SOL     OW32038   2.173   3.895   1.741  0.4116  0.1212  0.0685
 6859SOL    HW132039   2.143   3.825   1.800  1.5684  0.3207  0.9092
 6859SOL    HW232040   2.094   3.928   1.700  1.1418  2.5594  0.6178
 6860SOL     OW32041   2.436   1.529  13.201  0.6314 -0.3810  0.2303
 6860SOL    HW132042   2.483   1.561  13.123 -1.9346 -0.9585 -1.5632
 6860SOL    HW232043   2.423   1.616  13.238  1.1437 -0.2070  0.0064
 6861SOL     OW32044   1.350   1.235  15.639 -0.2123 -0.2061  0.1434
 6861SOL    HW132045   1.351   1.140  15.653 -2.0267 -0.3950 -0.8889
 6861SOL    HW232046   1.352   1.230  15.543  1.5475  3.2204  0.0193
 6862SOL     OW32047   2.074   4.173   5.713 -0.4268  0.2205 -1.2851
 6862SOL    HW132048   1.981   4.192   5.727 -0.8120 -2.4516 -0.1863
 6862SOL    HW232049   2.097   4.129   5.795 -2.1125  0.9397 -0.4244
 6863SOL     OW32050   2.077   3.009   4.851  0.2302  0.4288  0.1367
 6863SOL    HW132051   2.141   2.958   4.802  0.9144  0.9328  0.5073
 6863SOL    HW232052   2.043   2.936   4.903 -0.6183 -1.1415 -2.5697
 6864SOL     OW32053   0.320   2.948   5.225  0.9110  0.3401  0.0186
 6864SOL    HW132054   0.248   3.009   5.236 -0.1844 -0.8567 -0.5775
 6864SOL    HW232055   0.354   2.943   5.315 -0.3543 -2.0717  0.3743
 6865SOL     OW32056   2.635   3.332  12.258 -0.0651  0.5067 -0.0921
 6865SOL    HW132057   2.660   3.271  12.327  3.0075  1.2829 -0.5196
 6865SOL    HW232058   2.647   3.409  12.313  0.0563  0.8179 -0.5542
 6866SOL     OW32059   1.083   2.618   1.715 -0.0032 -0.3043 -0.8370
 6866SOL    HW132060   1.052   2.671   1.641 -3.2272 -0.0289  0.7124
 6866SOL    HW232061   1.014   2.556   1.736 -0.6123  1.3001  1.9138
 6867SOL     OW32062   3.262   4.645  12.256 -0.1177 -0.2981 -0.0646
 6867SOL    HW132063   3.280   4.663  12.348  0.6154  0.0046 -0.2761
 6867SOL    HW232064   3.352   4.629  12.229  0.5329  3.1670  0.0343
 6868SOL     OW32065   3.542   3.872   3.609  0.0970  0.4976  0.5507
 6868SOL    HW132066   3.493   3.803   3.565  1.6371  0.8102 -1.6345
 6868SOL    HW232067   3.481   3.942   3.631  0.9823  1.1639  0.9275
 6869SOL     OW32068   2.892   1.860  12.714 -0.5835  0.1079 -0.6706
 6869SOL    HW132069   2.823   1.889  12.774  0.2484  2.1941 -0.7419
 6869SOL    HW232070   2.854   1.870  12.627 -0.3727 -1.2224 -0.9216
 6870SOL     OW32071   2.555   0.584   4.020  0.2556 -0.0850  0.1937
 6870SOL    HW132072   2.644   0.598   4.052  0.3700  0.6593 -0.4532
 6870SOL    HW232073   2.555   0.633   3.938  0.1229  0.5154  0.5551
 6871SOL     OW32074   2.029   0.637   8.382 -0.4633 -0.5287  0.2032
 6871SOL    HW132075   1.947   0.600   8.413 -1.3164 -1.8592 -3.6582
 6871SOL    HW232076   2.070   0.558   8.347 -0.9064  0.4045 -2.4204
 6872SOL     OW32077   0.262   1.328   3.681  0.0834  0.3392 -0.2336
 6872SOL    HW132078   0.247   1.261   3.747  1.1800  0.6072  0.2849
 6872SOL    HW232079   0.233   1.282   3.602  2.2496 -1.5680  0.0935
 6873SOL     OW32080   2.421   0.925   2.661 -0.0527 -0.2715  0.1397
 6873SOL    HW132081   2.488   0.945   2.596  1.4392  0.8645  2.0185
 6873SOL    HW232082   2.454   0.963   2.742  0.0333  0.4562 -0.2324
 6874SOL     OW32083   2.115   2.718   4.953 -0.2794 -0.1620 -0.0300
 6874SOL    HW132084   2.095   2.680   5.038  0.3762 -0.9522 -0.2300
 6874SOL    HW232085   2.207   2.742   4.950 -0.6643  1.1677 -0.9168
 6875SOL     OW32086   4.060   3.388   2.573  0.7600  0.0434  0.5659
 6875SOL    HW132087   4.152   3.361   2.571  0.1925 -1.8025 -0.4789
 6875SOL    HW232088   4.027   3.347   2.493 -1.2206  0.4006  1.2049
 6876SOL     OW32089   3.520   0.735   2.200 -0.5149 -0.1728  0.7037
 6876SOL    HW132090   3.603   0.707   2.160  0.2482  0.8930  1.5347
 6876SOL    HW232091   3.469   0.655   2.212 -0.7335  0.0819  1.4075
 6877SOL     OW32092   3.466   2.297   8.903 -0.6717  0.0064  0.0419
 6877SOL    HW132093   3.457   2.287   8.809  2.0841 -0.2154 -0.1733
 6877SOL    HW232094   3.410   2.372   8.924  0.2922  0.6234  0.3835
 6878SOL     OW32095   1.704   4.394   4.558  0.1254 -0.2767 -0.2398
 6878SOL    HW132096   1.686   4.398   4.464  2.1597 -0.8472 -0.6552
 6878SOL    HW232097   1.618   4.364   4.590 -0.7243  4.5718  2.0995
 6879SOL     OW32098   2.264   1.754  15.076  0.4297  0.6004 -0.1209
 6879SOL    HW132099   2.240   1.805  14.999 -1.7890  0.9776  0.8036
 6879SOL    HW232100   2.272   1.675  15.023  1.9262  0.7999 -0.1928
 6880SOL     OW32101   4.128   1.182   7.367  0.0851  0.8828  0.1997
 6880SOL    HW132102   4.113   1.277   7.370 -1.9431  0.5560  0.5821
 6880SOL    HW232103   4.219   1.184   7.336  0.3049  1.3691  0.8840
 6881SOL     OW32104   4.712   3.656  15.864 -0.0246 -0.0106  0.0883
 6881SOL    HW132105   4.672   3.743  15.852 -0.2715 -0.4674 -2.3705
 6881SOL    HW232106   0.080   3.682  15.893  0.4486 -1.2248 -0.2750
 6882SOL     OW32107   0.214   1.468   5.549  0.1504 -0.0373  0.6060
 6882SOL    HW132108   0.217   1.385   5.597 -1.3758  0.2072  1.1180
 6882SOL    HW232109   0.221   1.440   5.457  1.7017  0.5337  0.5638
 6883SOL     OW32110   0.697   4.543   3.881  0.1604 -0.2169  0.1293
 6883SOL    HW132111   0.628   4.596   3.839  1.1163  1.1942  0.3243
 6883SOL    HW232112   0.680   4.555   3.974  0.1905  0.1680  0.0850
 6884SOL     OW32113   3.980   2.726   7.207 -0.6070 -0.3356  0.0058
 6884SOL    HW132114   3.939   2.751   7.290  1.1616 -1.1120  1.0987
 6884SOL    HW232115   3.914   2.750   7.141 -0.8926  0.3020  0.5173
 6885SOL     OW32116   1.823   0.254  15.538 -0.1940  0.2340 -0.8373
 6885SOL    HW132117   1.902   0.201  15.528 -2.1282 -2.5544 -1.2782
 6885SOL    HW232118   1.855   0.344  15.546  0.0318  0.1301 -0.5524
 6886SOL     OW32119   0.792   3.960   3.215  0.4371  0.0038  0.2474
 6886SOL    HW132120   0.811   4.054   3.215 -0.0389  0.0997  1.3458
 6886SOL    HW232121   0.734   3.954   3.291 -1.3607 -2.9427 -1.3478
 6887SOL     OW32122   0.263   0.488   9.697 -0.4931  0.0904  0.2214
 6887SOL    HW132123   0.273   0.439   9.615  0.3976  0.3042  0.2026
 6887SOL    HW232124   0.344   0.456   9.738  0.4031  2.6346  0.4456
 6888SOL     OW32125   2.056   1.773   3.145  0.0209  0.2047 -0.3284
 6888SOL    HW132126   2.123   1.707   3.167  0.8753  1.4991  0.9807
 6888SOL    HW232127   2.107   1.842   3.102  2.2571 -1.5859 -0.5636
 6889SOL     OW32128   1.575   0.978   7.729  0.0155 -0.1090 -0.1001
 6889SOL    HW132129   1.577   1.062   7.775 -2.5941  0.7339 -1.5019
 6889SOL    HW232130   1.577   0.998   7.635 -2.0341 -0.6710 -0.2637
 6890SOL     OW32131   4.455   3.682   7.456  0.6323  0.0351  0.0229
 6890SOL    HW132132   4.435   3.714   7.544 -1.8249 -0.3197 -0.3936
 6890SOL    HW232133   4.523   3.743   7.429 -0.5396  0.4535 -2.0271
 6891SOL     OW32134   4.351   2.284   6.627  0.1051 -0.0009  0.3300
 6891SOL    HW132135   4.351   2.378   6.609 -2.1202 -0.3626 -1.4859
 6891SOL    HW232136   4.351   2.252   6.537  0.4549 -1.0538  0.6986
 6892SOL     OW32137   4.177   4.507   8.465  0.4334  0.0813  0.1081
 6892SOL    HW132138   4.090   4.539   8.444 -0.8057 -2.3782  1.5650
 6892SOL    HW232139   4.164   4.413   8.468  1.0885 -0.0523 -1.1210
 6893SOL     OW32140   0.793   0.777   8.701  0.3369  0.1214  0.0958
 6893SOL    HW132141   0.764   0.686   8.695 -1.3896  0.8099 -2.2112
 6893SOL    HW232142   0.858   0.766   8.770  2.4796 -0.1773 -1.9957
 6894SOL     OW32143   0.265   0.383   1.215  0.2521  0.0970  0.0348
 6894SOL    HW132144   0.304   0.412   1.298 -0.7022 -0.7531  0.7870
 6894SOL    HW232145   0.220   0.456   1.173  0.6636  0.6617  0.5639
 6895SOL     OW32146   1.093   4.449  14.122  0.1045 -0.2632 -0.1186
 6895SOL    HW132147   1.030   4.382  14.095 -0.5524 -0.5868  2.2798
 6895SOL    HW232148   1.175   4.400  14.132 -0.2673 -0.4953  1.8110
 6896SOL     OW32149   2.871   3.230   5.343 -0.8506  0.5181  0.5179
 6896SOL    HW132150   2.936   3.296   5.368  0.3056  0.2659 -1.8436
 6896SOL    HW232151   2.836   3.193   5.424 -2.6730  1.3367  0.0946
 6897SOL     OW32152   3.329   1.234   8.055  0.3494 -0.1265  0.3609
 6897SOL    HW132153   3.329   1.319   8.011 -0.4965 -0.6990 -0.7593
 6897SOL    HW232154   3.262   1.246   8.121  1.4231 -2.3483  1.8563
 6898SOL     OW32155   0.320   1.699  16.241  0.0666  0.0698  0.2978
 6898SOL    HW132156   0.343   1.716  16.332  4.1353 -0.9816 -0.5231
 6898SOL    HW232157   0.373   1.620  16.236 -0.7760 -0.5532  1.3764
 6899SOL     OW32158   0.505   2.221   2.273 -0.0059  0.3572 -0.3402
 6899SOL    HW132159   0.580   2.258   2.225  1.2528  0.0035  1.3652
 6899SOL    HW232160   0.500   2.130   2.245 -1.0117 -0.1979  1.6394
 6900SOL     OW32161   2.866   2.236  15.505  0.0238 -0.2972 -0.0796
 6900SOL    HW132162   2.825   2.297  15.566 -1.0296 -1.3161  0.2244
 6900SOL    HW232163   2.791   2.193  15.464 -1.0262  0.1143  1.3947
 6901SOL     OW32164   1.340   1.427  13.300  0.1820  0.2530 -0.3297
 6901SOL    HW132165   1.403   1.481  13.253 -1.1419  3.2815  1.3629
 6901SOL    HW232166   1.357   1.338  13.269  2.5290  0.5672  0.0071
 6902SOL     OW32167   0.583   0.340   9.478  0.5179 -0.4455 -0.6013
 6902SOL    HW132168   0.581   0.434   9.494  0.5944 -0.8214  1.6307
 6902SOL    HW232169   0.503   0.305   9.516  1.7357 -3.0600 -0.4452
 6903SOL     OW32170   1.466   1.419   4.633 -0.2702  0.3076  0.0374
 6903SOL    HW132171   1.536   1.355   4.624  3.1260  3.6649  2.7777
 6903SOL    HW232172   1.388   1.365   4.647 -0.6688  0.7063 -0.6182
 6904SOL     OW32173   3.238   2.724   2.113  0.3579  0.2936 -0.1080
 6904SOL    HW132174   3.266   2.698   2.201  2.3994 -0.4629 -0.9757
 6904SOL    HW232175   3.226   2.640   2.070  1.3290  0.5124 -0.8181
 6905SOL     OW32176   1.984   2.637   4.029 -0.5864  0.2230  0.3159
 6905SOL    HW132177   1.957   2.579   3.958 -2.4365  1.3348  0.1146
 6905SOL    HW232178   2.024   2.699   3.967  3.4831 -2.4666  0.2709
 6906SOL     OW32179   0.537   0.293   6.816 -0.5783 -0.6302  0.1717
 6906SOL    HW132180   0.485   0.213   6.830  0.7287 -1.3755  0.7781
 6906SOL    HW232181   0.549   0.279   6.722 -2.9202 -2.3073  0.1153
 6907SOL     OW32182   1.224   3.568  11.094 -0.5449  0.1063 -0.0670
 6907SOL    HW132183   1.278   3.610  11.027 -0.8820  0.0045 -0.4034
 6907SOL    HW232184   1.295   3.524  11.141 -0.8994 -0.4546 -0.0528
 6908SOL     OW32185   0.075   1.018   5.491 -0.1014  0.7850 -0.1490
 6908SOL    HW132186   0.164   0.986   5.474  0.2019  1.6255 -0.1777
 6908SOL    HW232187   0.051   0.968   5.568 -2.3339  0.7605 -0.8752
 6909SOL     OW32188   3.589   2.384   4.849  0.0025 -0.0202 -0.0631
 6909SOL    HW132189   3.581   2.309   4.907  0.2083  0.1328  0.1642
 6909SOL    HW232190   3.666   2.360   4.798 -1.0411  1.0192 -2.1175
 6910SOL     OW32191   1.956   1.191   6.538  0.0524 -0.4961  0.6381
 6910SOL    HW132192   1.989   1.183   6.628  2.1831  0.7067 -0.0200
 6910SOL    HW232193   1.908   1.273   6.550  1.1615  0.3500 -0.6547
 6911SOL     OW32194   4.158   1.882  15.228 -0.5105 -0.6951 -0.2788
 6911SOL    HW132195   4.156   1.969  15.189 -0.3054 -0.0849  1.0828
 6911SOL    HW232196   4.197   1.824  15.161  0.9994 -0.1426  0.1106
 6912SOL     OW32197   0.755   2.363   4.072  0.3263  0.5858  0.0633
 6912SOL    HW132198   0.711   2.295   4.124 -0.5285  0.5588 -0.6896
 6912SOL    HW232199   0.790   2.431   4.129  0.5446 -0.1642  0.8206
 6913SOL     OW32200   1.680   2.624   9.352 -0.0251  0.4655  0.1957
 6913SOL    HW132201   1.622   2.614   9.277 -2.6742  1.1539  2.1720
 6913SOL    HW232202   1.685   2.536   9.391 -2.1981 -0.2596 -1.1729
 6914SOL     OW32203   3.426   1.471   9.526 -0.1648  0.0066  0.5389
 6914SOL    HW132204   3.428   1.485   9.621 -0.4443  2.6307  0.1405
 6914SOL    HW232205   3.506   1.419   9.518 -0.0340  0.3129 -0.1223
 6915SOL     OW32206   3.974   1.765  12.545  0.1296 -0.2219 -0.3201
 6915SOL    HW132207   4.044   1.711  12.583  0.1361  0.7157  1.0246
 6915SOL    HW232208   4.031   1.819  12.491 -0.7714 -0.1313 -1.1722
 6916SOL     OW32209   2.309   3.372   5.630 -0.3668 -0.4092  0.1262
 6916SOL    HW132210   2.358   3.361   5.711 -0.4572 -1.4622  0.0319
 6916SOL    HW232211   2.369   3.428   5.581  0.4777  0.4225  2.1048
 6917SOL     OW32212   4.453   0.427   9.880  0.1911 -0.0535 -0.4161
 6917SOL    HW132213   4.506   0.497   9.842  0.4947  1.6747  3.1739
 6917SOL    HW232214   4.472   0.359   9.816  0.3581  0.3036 -0.7391
 6918SOL     OW32215   3.162   0.791   4.263  0.1733  0.1031 -0.2953
 6918SOL    HW132216   3.101   0.827   4.327  1.9129 -0.8806  1.9034
 6918SOL    HW232217   3.192   0.713   4.310 -2.6219 -0.6872  0.1479
 6919SOL     OW32218   2.323   2.328   5.574  0.2050 -0.1613  0.3015
 6919SOL    HW132219   2.325   2.284   5.489  2.7367 -1.6281  1.1245
 6919SOL    HW232220   2.359   2.258   5.628 -0.6682 -2.7494 -2.4739
 6920SOL     OW32221   2.048   0.361   7.706 -0.8501  0.3889 -0.6780
 6920SOL    HW132222   2.066   0.350   7.800  0.5244 -0.5103 -1.0478
 6920SOL    HW232223   1.987   0.434   7.711 -1.3625 -0.1093  0.4720
 6921SOL     OW32224   4.648   2.558   5.069  0.1838  0.1558 -0.0554
 6921SOL    HW132225   4.635   2.652   5.077 -0.3302 -0.0251  1.3683
 6921SOL    HW232226   4.561   2.529   5.097  0.2835  0.7822  0.9012
 6922SOL     OW32227   0.639   0.712   5.585  0.2264 -0.4856  0.6023
 6922SOL    HW132228   0.629   0.758   5.669 -0.4535  0.2471  0.1234
 6922SOL    HW232229   0.568   0.758   5.539  0.6746  1.6384  2.0099
 6923SOL     OW32230   4.385   1.189   7.211  0.1129 -0.0109  0.3082
 6923SOL    HW132231   4.340   1.117   7.167 -0.8291  0.2358  0.8671
 6923SOL    HW232232   4.396   1.250   7.138 -1.8001 -0.0205 -0.0078
 6924SOL     OW32233   3.738   3.573   7.367  0.0571  0.0794  0.2000
 6924SOL    HW132234   3.738   3.658   7.324 -2.6271  1.0283  2.0929
 6924SOL    HW232235   3.767   3.518   7.294 -0.1878 -2.4836  2.0344
 6925SOL     OW32236   0.506   0.873   2.463 -0.3282 -0.0673  0.7950
 6925SOL    HW132237   0.581   0.883   2.404 -3.6555  0.1330 -3.4121
 6925SOL    HW232238   0.532   0.792   2.508 -0.2747  0.1017  1.0647
 6926SOL     OW32239   4.195   4.270   8.239  0.1263  0.3253  0.1052
 6926SOL    HW132240   4.136   4.201   8.270  2.8747 -2.1891 -0.2330
 6926SOL    HW232241   4.231   4.227   8.162  3.1261  1.4279  0.8580
 6927SOL     OW32242   1.851   3.754   4.327  0.0031 -0.3064 -0.7023
 6927SOL    HW132243   1.813   3.818   4.387  0.9698 -0.7206  0.3605
 6927SOL    HW232244   1.890   3.810   4.261 -1.6773  1.3238 -0.3092
 6928SOL     OW32245   0.931   2.049   7.873 -0.3678  0.5811  0.3302
 6928SOL    HW132246   0.888   1.976   7.828  1.1185 -1.0397  1.5274
 6928SOL    HW232247   1.022   2.020   7.874  0.0402  1.9818  2.6643
 6929SOL     OW32248   3.558   2.738   3.522 -0.8058 -0.3383 -0.2100
 6929SOL    HW132249   3.604   2.762   3.442  2.0232  1.1795  1.8521
 6929SOL    HW232250   3.494   2.677   3.486 -0.7223 -0.9584  0.6927
 6930SOL     OW32251   2.030   0.093   6.767 -0.0315  0.2402  0.2934
 6930SOL    HW132252   1.990   0.147   6.836 -0.0737  1.8055 -0.9717
 6930SOL    HW232253   2.051   0.007   6.802 -1.9339 -0.6047 -0.6531
 6931SOL     OW32254   1.689   0.788   8.416 -0.5868  0.1180  0.0411
 6931SOL    HW132255   1.663   0.868   8.462  0.4883  1.3029 -1.4443
 6931SOL    HW232256   1.682   0.823   8.327 -1.7974 -0.4972 -0.1106
 6932SOL     OW32257   2.483   0.299   9.005 -0.9017  0.3834  0.0411
 6932SOL    HW132258   2.501   0.375   9.061  0.7197  1.2113 -1.5860
 6932SOL    HW232259   2.436   0.344   8.935  0.6719  1.4497 -0.3355
 6933SOL     OW32260   2.570   1.803   4.271  0.4424 -0.1568  0.2254
 6933SOL    HW132261   2.626   1.745   4.324 -0.0101 -0.2343  0.6180
 6933SOL    HW232262   2.605   1.887   4.303  0.4433 -0.1706  0.2610
 6934SOL     OW32263   4.527   0.632  10.273 -0.3002  0.0360  0.0522
 6934SOL    HW132264   4.465   0.648  10.344 -1.8145 -0.8845 -1.0649
 6934SOL    HW232265   4.495   0.548  10.239 -1.6713  0.4870  0.2229
 6935SOL     OW32266   3.870   3.350  15.082 -0.6569  0.8114  0.6059
 6935SOL    HW132267   3.929   3.370  15.155 -0.9763  0.2813  1.0076
 6935SOL    HW232268   3.800   3.411  15.105 -1.7561 -0.1130 -0.3027
 6936SOL     OW32269   2.404   3.843   8.605  0.1296 -0.0077 -0.3380
 6936SOL    HW132270   2.435   3.829   8.694 -1.2291 -0.3677  0.0811
 6936SOL    HW232271   2.433   3.934   8.596 -0.0423 -0.2184 -2.9863
 6937SOL     OW32272   0.693   2.609   7.300  0.0116 -0.6494 -0.6835
 6937SOL    HW132273   0.720   2.605   7.208 -0.2940  0.8083 -0.8368
 6937SOL    HW232274   0.601   2.591   7.283  0.3319 -3.1593  0.3133
 6938SOL     OW32275   4.494   2.927   3.178 -0.2069 -0.6627  0.4267
 6938SOL    HW132276   4.457   2.958   3.261 -3.1063  3.2705 -2.3757
 6938SOL    HW232277   4.583   2.956   3.197  0.3068 -1.9690 -0.0085
 6939SOL     OW32278   1.378   3.688   8.225  0.4288  0.5590  0.1398
 6939SOL    HW132279   1.325   3.765   8.247 -1.0304 -0.6564  0.8868
 6939SOL    HW232280   1.372   3.649   8.312 -0.4157 -0.1874 -0.2520
 6940SOL     OW32281   0.834   1.613   7.568  0.1846  0.2746  0.2397
 6940SOL    HW132282   0.845   1.545   7.635  1.8376 -1.9593 -2.3233
 6940SOL    HW232283   0.871   1.563   7.496 -0.2254  0.8092 -0.3379
 6941SOL     OW32284   0.561   2.695   2.281  0.1020  0.3246  0.4683
 6941SOL    HW132285   0.477   2.655   2.258  1.3291 -1.1290 -1.5672
 6941SOL    HW232286   0.602   2.687   2.194  1.3622  1.4168  0.9698
 6942SOL     OW32287   2.449   2.076   5.149 -0.0052  0.0873  0.1922
 6942SOL    HW132288   2.538   2.050   5.124 -1.5143 -2.1864 -2.8353
 6942SOL    HW232289   2.430   2.139   5.080  1.2739  0.3067  0.0372
 6943SOL     OW32290   1.959   3.263   8.279  0.0682  0.5104 -0.1849
 6943SOL    HW132291   1.888   3.324   8.261 -0.4549  0.1529  0.6775
 6943SOL    HW232292   2.033   3.324   8.287 -1.1598  1.6365  2.6731
 6944SOL     OW32293   0.632   3.931   5.283  0.2209 -0.0687  0.1523
 6944SOL    HW132294   0.610   4.002   5.343 -1.2001 -0.4829  0.1328
 6944SOL    HW232295   0.686   3.877   5.341 -0.5633 -0.0106  0.9397
 6945SOL     OW32296   0.222   3.648   8.687  0.1222  0.0625  0.3617
 6945SOL    HW132297   0.282   3.580   8.718 -0.0052 -0.8539 -1.3640
 6945SOL    HW232298   0.138   3.625   8.726 -0.5360 -2.3076 -2.4281
 6946SOL     OW32299   4.513   1.918  16.151  0.1837  0.1205  0.1057
 6946SOL    HW132300   4.478   1.872  16.075  2.2621 -1.5512  0.1609
 6946SOL    HW232301   4.605   1.894  16.140  0.5805  2.7842 -2.4179
 6947SOL     OW32302   0.144   2.978   4.292 -0.6559 -0.6387 -0.4631
 6947SOL    HW132303   0.120   2.944   4.379  0.7940 -1.7545 -0.5129
 6947SOL    HW232304   0.113   3.069   4.290  1.9868  0.2312 -1.3621
 6948SOL     OW32305   3.821   4.680   5.663 -0.2728  0.4240 -0.2215
 6948SOL    HW132306   3.916   4.672   5.676 -0.0801  0.5365 -1.5873
 6948SOL    HW232307   3.793   4.697   5.753  3.7019  1.4510  0.8385
 6949SOL     OW32308   1.792   2.437   4.637  0.1531  0.0640  0.2244
 6949SOL    HW132309   1.816   2.529   4.638  1.7113 -0.3302 -0.5610
 6949SOL    HW232310   1.845   2.404   4.709 -0.5262 -2.2541 -0.3332
 6950SOL     OW32311   3.191   3.513  15.556  0.3756  0.5020 -0.2757
 6950SOL    HW132312   3.219   3.528  15.647 -0.6259 -1.8166  0.4247
 6950SOL    HW232313   3.099   3.536  15.569  0.7097  1.3551  0.6193
 6951SOL     OW32314   0.074   1.010   2.531  0.0780  0.2492  0.3766
 6951SOL    HW132315   0.059   1.104   2.537 -0.1216  0.2822 -0.6673
 6951SOL    HW232316   0.149   1.003   2.472 -0.0009  3.3614 -0.0999
 6952SOL     OW32317   3.227   4.527   3.393  0.4876  0.3400 -0.2191
 6952SOL    HW132318   3.197   4.472   3.466 -0.7335  0.0217 -0.9494
 6952SOL    HW232319   3.254   4.470   3.321 -0.4159 -0.9247  0.4387
 6953SOL     OW32320   1.088   0.465   6.367  0.0018  0.4469  0.3241
 6953SOL    HW132321   1.134   0.450   6.449  0.8500  1.3366  0.0087
 6953SOL    HW232322   1.162   0.441   6.311 -0.7902 -0.5775 -0.2887
 6954SOL     OW32323   3.493   0.547   7.575 -0.4489 -0.1969 -0.0790
 6954SOL    HW132324   3.408   0.588   7.560 -0.1592  0.4048 -0.0858
 6954SOL    HW232325   3.502   0.490   7.498 -1.4861  0.5888 -0.7724
 6955SOL     OW32326   2.235   1.552   3.200 -0.3067 -0.4836 -0.5223
 6955SOL    HW132327   2.331   1.550   3.203 -0.3207 -0.4587 -0.0799
 6955SOL    HW232328   2.212   1.463   3.225  1.7893 -0.5241  1.2816
 6956SOL     OW32329   1.033   0.593   8.317 -0.5155 -0.1364 -0.0351
 6956SOL    HW132330   1.037   0.518   8.257  0.9247  0.0698 -0.2055
 6956SOL    HW232331   0.957   0.643   8.287 -0.9675  0.1199  1.5518
 6957SOL     OW32332   1.829   3.265   9.383  0.1709 -0.6576 -0.0112
 6957SOL    HW132333   1.761   3.209   9.346 -0.1227  0.7842 -1.6658
 6957SOL    HW232334   1.803   3.263   9.475  0.9432  3.0706  0.3176
 6958SOL     OW32335   1.093   2.844   4.744 -0.1903 -0.8648  0.2866
 6958SOL    HW132336   1.092   2.938   4.760  0.1802 -0.6700 -0.7937
 6958SOL    HW232337   1.161   2.840   4.677  1.1191  0.0386  1.5612
 6959SOL     OW32338   0.392   4.110   5.704  0.3766  0.0330 -0.0344
 6959SOL    HW132339   0.409   4.161   5.783 -3.8980 -1.1723  1.6901
 6959SOL    HW232340   0.431   4.026   5.730  1.1943  0.5149  0.3127
 6960SOL     OW32341   1.102   0.184   9.110  0.0947  0.1020  0.2169
 6960SOL    HW132342   1.116   0.095   9.144  3.2826  0.1452 -0.9879
 6960SOL    HW232343   1.156   0.181   9.031  0.2490 -0.8844  0.3576
 6961SOL     OW32344   2.513   3.072   2.811 -0.8718 -0.0784 -0.5597
 6961SOL    HW132345   2.569   2.995   2.805  0.8905  1.2816 -1.8504
 6961SOL    HW232346   2.518   3.090   2.904 -1.3685  0.6750 -0.6840
 6962SOL     OW32347   4.563   2.187   4.158  0.2006  0.1057  0.1901
 6962SOL    HW132348   4.598   2.104   4.190  0.2347 -0.2532 -0.7755
 6962SOL    HW232349   4.499   2.138   4.107 -0.5109  0.2583  0.9214
 6963SOL     OW32350   3.275   1.571   9.819 -0.0248 -0.0945 -0.7213
 6963SOL    HW132351   3.364   1.604   9.827  0.3878 -1.9535  2.3387
 6963SOL    HW232352   3.279   1.521   9.901  1.4685 -1.3219 -1.5521
 6964SOL     OW32353   2.172   2.569   5.569  0.3374 -0.6188 -0.2764
 6964SOL    HW132354   2.211   2.483   5.580  1.0468 -0.2029  0.4428
 6964SOL    HW232355   2.218   2.621   5.503  1.6503 -1.0851  0.2845
 6965SOL     OW32356   2.322   0.533   9.228  0.7005 -0.0756  0.2732
 6965SOL    HW132357   2.325   0.510   9.321  2.6846 -1.0854 -0.0380
 6965SOL    HW232358   2.411   0.523   9.195  0.9097  2.7992  0.0210
 6966SOL     OW32359   4.146   1.637   2.532  0.3955 -0.6674  0.0784
 6966SOL    HW132360   4.079   1.705   2.531  0.3151 -0.7278  1.2540
 6966SOL    HW232361   4.103   1.571   2.586  0.5919 -0.0418  0.9894
 6967SOL     OW32362   0.159   4.027   9.561 -0.4874 -0.5702 -0.1320
 6967SOL    HW132363   0.120   4.114   9.560 -0.1808 -0.4362 -0.3139
 6967SOL    HW232364   0.211   4.041   9.641  0.6555 -1.5045 -0.7052
 6968SOL     OW32365   0.650   3.593  17.454  0.0719 -0.0287  0.2343
 6968SOL    HW132366   0.728   3.555  17.415 -1.6082 -1.4218 -1.7971
 6968SOL    HW232367   0.640   3.674  17.404 -0.0319 -0.2166 -0.0496
 6969SOL     OW32368   1.616   1.999   9.221 -0.5425  0.1564  0.3761
 6969SOL    HW132369   1.522   1.986   9.207 -0.6793  2.1202 -0.5119
 6969SOL    HW232370   1.643   1.951   9.143 -2.1753 -0.1736  0.0137
 6970SOL     OW32371   1.921   0.076   3.009  0.0173  0.0536 -0.4253
 6970SOL    HW132372   1.847   0.136   3.018 -0.4111 -0.5975  0.3868
 6970SOL    HW232373   1.979   0.116   3.074 -2.3052  0.1919  1.5520
 6971SOL     OW32374   3.411   4.550   6.901  0.0450  0.1139 -0.0374
 6971SOL    HW132375   3.412   4.633   6.853 -0.1386  0.2543  0.2042
 6971SOL    HW232376   3.350   4.504   6.844 -0.2668  0.1915  0.2355
 6972SOL     OW32377   0.864   2.242   0.760  0.4696 -0.8007  0.5781
 6972SOL    HW132378   0.915   2.165   0.737 -2.1051 -2.4232  0.2765
 6972SOL    HW232379   0.929   2.306   0.789  0.1195  0.2459 -0.9601
 6973SOL     OW32380   3.261   1.733  12.438 -0.7335  0.1443 -0.6936
 6973SOL    HW132381   3.317   1.776  12.503 -3.1060 -1.3774  2.3571
 6973SOL    HW232382   3.181   1.703  12.482 -0.8518 -0.5230 -1.3696
 6974SOL     OW32383   3.793   2.481  16.464 -0.0500 -0.2183  0.2391
 6974SOL    HW132384   3.786   2.549  16.531 -0.1930 -0.6483  0.6633
 6974SOL    HW232385   3.885   2.463  16.445 -0.0699  1.1473 -1.0965
 6975SOL     OW32386   1.079   4.618   0.967 -0.1344 -0.2693  0.0722
 6975SOL    HW132387   1.101   4.588   0.879 -3.0093 -1.5402 -0.2392
 6975SOL    HW232388   1.004   4.559   0.981 -0.6106 -0.0939 -1.7100
 6976SOL     OW32389   3.173   2.076   2.425 -0.0294 -0.0534 -0.2494
 6976SOL    HW132390   3.149   2.168   2.422  1.4854  0.3849  0.9190
 6976SOL    HW232391   3.164   2.059   2.519 -1.0110  1.9633  0.0133
 6977SOL     OW32392   0.145   2.270   6.113  0.4363  0.1597 -0.1965
 6977SOL    HW132393   0.230   2.273   6.069  0.2711  0.3405 -0.4967
 6977SOL    HW232394   0.094   2.299   6.038 -2.3057  0.6342  1.8373
 6978SOL     OW32395   2.561   1.285  14.060 -0.2747 -0.1539 -0.0226
 6978SOL    HW132396   2.509   1.365  14.057  0.9970  0.6035 -1.3767
 6978SOL    HW232397   2.498   1.213  14.054  0.5652 -0.7659 -1.5510
 6979SOL     OW32398   1.415   2.566   3.861 -0.3127 -0.9307 -0.4222
 6979SOL    HW132399   1.510   2.560   3.852 -0.4784 -2.1126 -1.4114
 6979SOL    HW232400   1.400   2.655   3.829 -2.2997 -1.4121 -0.8292
 6980SOL     OW32401   2.074   2.203   2.652 -0.0912 -0.2355 -0.0106
 6980SOL    HW132402   2.016   2.269   2.614  2.5635  0.4357 -2.8106
 6980SOL    HW232403   2.045   2.197   2.744  1.4865 -2.5374  0.3577
 6981SOL     OW32404   1.510   3.632   5.081 -0.8079 -0.0362  0.2675
 6981SOL    HW132405   1.559   3.593   5.008 -0.9338 -1.0026  0.7116
 6981SOL    HW232406   1.464   3.700   5.032 -0.2829  1.0111  1.2418
 6982SOL     OW32407   3.801   1.965   4.541  0.2171 -0.2854  0.3542
 6982SOL    HW132408   3.777   2.009   4.460  0.6710 -2.0358 -0.7328
 6982SOL    HW232409   3.891   1.947   4.513 -0.3345 -0.4386 -1.3240
 6983SOL     OW32410   0.802   4.168   5.180 -0.4921  0.1221  0.4999
 6983SOL    HW132411   0.879   4.110   5.183  0.2820  1.2338  1.8707
 6983SOL    HW232412   0.727   4.120   5.215 -0.2366  0.2138  1.1612
 6984SOL     OW32413   2.664   3.794  11.368 -0.1835  0.5013  0.0219
 6984SOL    HW132414   2.572   3.784  11.346 -0.1829  0.6062 -0.0305
 6984SOL    HW232415   2.688   3.853  11.296 -0.5219  1.3714  0.6291
 6985SOL     OW32416   0.349   0.294   2.934  0.0151 -0.4483  0.4385
 6985SOL    HW132417   0.277   0.329   2.882  0.1138 -0.8132  0.0570
 6985SOL    HW232418   0.335   0.345   3.014  0.6743  1.5374 -0.7106
 6986SOL     OW32419   3.919   0.684   6.758  0.0129  0.2537 -0.9356
 6986SOL    HW132420   4.013   0.664   6.760 -0.1462 -0.3902  0.2539
 6986SOL    HW232421   3.900   0.633   6.680 -0.0761  1.1346 -1.4896
 6987SOL     OW32422   0.817   0.583   7.580  0.5841  0.5811 -0.1769
 6987SOL    HW132423   0.874   0.588   7.503 -0.6480  1.2200 -1.0462
 6987SOL    HW232424   0.786   0.493   7.570 -1.3390  1.1495  0.6604
 6988SOL     OW32425   0.069   0.564  12.155 -0.0227 -0.4471  0.0096
 6988SOL    HW132426   0.126   0.487  12.168  0.4737  0.0696  0.8904
 6988SOL    HW232427   0.040   0.542  12.067  1.8252 -1.1594 -0.4296
 6989SOL     OW32428   1.447   4.429  13.113  0.0364 -0.0087  1.0934
 6989SOL    HW132429   1.396   4.383  13.047  1.9973 -0.5128 -0.0582
 6989SOL    HW232430   1.476   4.510  13.071 -0.6922  0.3777  1.3485
 6990SOL     OW32431   0.592   3.815   5.604  0.1938  0.2540  0.0956
 6990SOL    HW132432   0.550   3.845   5.685  1.8227  4.1228 -0.5019
 6990SOL    HW232433   0.525   3.753   5.575  1.4180 -0.1468 -1.8687
 6991SOL     OW32434   0.210   0.541   9.431 -0.0320 -0.0937 -0.4249
 6991SOL    HW132435   0.122   0.530   9.467  0.1313  0.2981  0.1035
 6991SOL    HW232436   0.204   0.611   9.367 -1.2726  0.1254 -0.0634
 6992SOL     OW32437   2.642   4.312   5.864  0.0130  0.1748 -0.2963
 6992SOL    HW132438   2.700   4.236   5.867  0.3350  0.4990  1.4703
 6992SOL    HW232439   2.608   4.314   5.774 -0.1125  0.7463 -0.2330
 6993SOL     OW32440   3.612   3.608   0.454 -0.0262 -0.0752 -0.4951
 6993SOL    HW132441   3.641   3.663   0.381  1.6063  0.0489  0.2634
 6993SOL    HW232442   3.524   3.645   0.444  0.0938  0.2763 -0.2593
 6994SOL     OW32443   4.059   2.393  15.522  0.1922 -0.3485 -0.1905
 6994SOL    HW132444   3.966   2.393  15.503  0.5840 -0.3003 -2.1123
 6994SOL    HW232445   4.086   2.480  15.492 -1.9144 -0.2626 -1.8212
 6995SOL     OW32446   0.334   2.973  14.328 -0.2884 -0.3239  1.0859
 6995SOL    HW132447   0.329   2.928  14.411 -0.3265  0.2172  1.3798
 6995SOL    HW232448   0.298   2.904  14.272 -0.5738  1.6494 -1.2000
 6996SOL     OW32449   0.614   3.246   5.014 -0.0921  0.0474 -0.1466
 6996SOL    HW132450   0.542   3.185   5.033  0.3876  0.1318  2.0133
 6996SOL    HW232451   0.669   3.193   4.957  0.1832 -0.2856  0.4218
 6997SOL     OW32452   0.041   2.842   4.515  0.2220  0.1374  0.1871
 6997SOL    HW132453   4.669   2.817   4.505  0.0557  0.5224  0.7789
 6997SOL    HW232454   0.040   2.889   4.598 -1.2358  2.4279 -1.1312
 6998SOL     OW32455   3.242   2.331  12.695  0.1129 -0.3746  0.0027
 6998SOL    HW132456   3.257   2.342  12.601 -2.1324 -0.0565 -0.3292
 6998SOL    HW232457   3.186   2.405  12.717  0.3198 -0.1019 -0.4065
 6999SOL     OW32458   3.142   3.352   5.024  0.3302  0.5964 -1.2641
 6999SOL    HW132459   3.214   3.350   4.960 -2.4329  0.8746 -4.3918
 6999SOL    HW232460   3.170   3.417   5.088 -2.4384  0.0825  0.4559
 7000SOL     OW32461   1.127   2.414   5.975  0.0162  0.3363 -0.0664
 7000SOL    HW132462   1.156   2.405   6.066 -0.0483 -2.2215 -0.3101
 7000SOL    HW232463   1.072   2.492   5.982 -1.0882 -0.4930  0.3280
 7001SOL     OW32464   1.543   1.646   6.307 -0.3694  0.1251  0.0034
 7001SOL    HW132465   1.569   1.712   6.371 -1.7815  1.0436 -0.3679
 7001SOL    HW232466   1.450   1.655   6.329  0.3143  1.1776  2.4686
 7002SOL     OW32467   1.154   2.335   2.057  0.1811  0.6074 -1.1118
 7002SOL    HW132468   1.103   2.269   2.009  1.1140 -1.6192  0.9808
 7002SOL    HW232469   1.082   2.383   2.099  0.3660  0.8851 -1.1154
 7003SOL     OW32470   4.443   0.922   1.080  0.8441 -0.2147  0.4312
 7003SOL    HW132471   4.397   1.004   1.063 -0.8666 -0.9841  1.4352
 7003SOL    HW232472   4.382   0.857   1.045  1.2425  0.0302 -0.7334
 7004SOL     OW32473   0.820   2.216   8.674 -0.3267 -0.4657 -0.3643
 7004SOL    HW132474   0.841   2.268   8.596  0.8800 -2.3522 -1.2944
 7004SOL    HW232475   0.828   2.286   8.739 -0.8026  2.6225 -3.5699
 7005SOL     OW32476   1.180   3.690   7.416  0.5540  0.1325 -0.1256
 7005SOL    HW132477   1.129   3.609   7.425  1.7026 -0.3696  1.8661
 7005SOL    HW232478   1.205   3.713   7.506  0.6677 -1.4840  0.2621
 7006SOL     OW32479   4.319   0.230   3.088 -0.0416 -0.2251 -0.3547
 7006SOL    HW132480   4.271   0.233   3.171  0.5586  0.5197 -0.0348
 7006SOL    HW232481   4.287   0.146   3.057  0.8656  0.1911 -2.4353
 7007SOL     OW32482   4.645   3.405   3.928  0.4260 -0.4541  0.0226
 7007SOL    HW132483   0.019   3.402   3.944  0.1326  1.5462  2.2237
 7007SOL    HW232484   4.646   3.404   3.832  1.8176 -0.9597  0.0461
 7008SOL     OW32485   2.720   1.185  13.832 -0.2497 -0.6024 -0.0866
 7008SOL    HW132486   2.751   1.162  13.919  2.1618 -0.9762 -1.0390
 7008SOL    HW232487   2.786   1.250  13.806 -1.0846  0.1077 -0.4391
 7009SOL     OW32488   1.225   1.363   5.225  0.4470 -0.0057 -0.0210
 7009SOL    HW132489   1.221   1.303   5.151 -0.1300  0.2922 -0.2297
 7009SOL    HW232490   1.315   1.390   5.208  0.1389  0.4858 -0.8525
 7010SOL     OW32491   0.634   1.730   2.452  0.4758  0.3546  0.2258
 7010SOL    HW132492   0.544   1.709   2.480  0.1285  0.6224 -0.6999
 7010SOL    HW232493   0.632   1.739   2.357  0.7627 -1.2519  0.0775
 7011SOL     OW32494   3.754   3.722   8.218 -0.1558  0.7573  0.2333
 7011SOL    HW132495   3.703   3.641   8.228  0.7276  0.0185 -1.1784
 7011SOL    HW232496   3.736   3.765   8.301 -0.0824 -2.2124  1.7856
 7012SOL     OW32497   4.418   0.403  11.751  0.0333  0.2251  0.7931
 7012SOL    HW132498   4.331   0.363  11.746  1.3178 -2.4875 -0.1885
 7012SOL    HW232499   4.421   0.466  11.823  2.1701 -0.1521  1.0233
 7013SOL     OW32500   0.172   3.647  16.621  0.0364 -0.0934 -0.6787
 7013SOL    HW132501   0.190   3.637  16.715 -1.7557  1.3496 -0.1925
 7013SOL    HW232502   0.208   3.562  16.593 -2.7534 -1.5704  0.2648
 7014SOL     OW32503   3.339   4.093   2.510 -0.0824  0.4895 -0.0288
 7014SOL    HW132504   3.272   4.128   2.451 -0.9971 -1.7141 -0.2743
 7014SOL    HW232505   3.291   4.018   2.544  0.7443 -0.8000 -1.7181
 7015SOL     OW32506   2.848   0.536   2.453 -0.0779 -0.0150  0.0538
 7015SOL    HW132507   2.917   0.484   2.410 -0.1451 -2.1498  2.5248
 7015SOL    HW232508   2.794   0.574   2.384 -0.1225  0.4291  0.3392
 7016SOL     OW32509   2.508   0.006   7.232  0.3174 -0.0916  0.1101
 7016SOL    HW132510   2.480   0.090   7.268  0.6656  1.5252 -3.3560
 7016SOL    HW232511   2.493   0.027   7.140 -0.4189  0.8331  0.4404
 7017SOL     OW32512   2.869   1.840  13.490  0.3217 -0.2232  0.2566
 7017SOL    HW132513   2.942   1.797  13.443  0.5695 -1.0214  1.3731
 7017SOL    HW232514   2.855   1.916  13.433  0.4192 -0.5225 -0.1709
 7018SOL     OW32515   0.265   2.079   7.616 -0.3679  0.3095  0.3035
 7018SOL    HW132516   0.249   1.986   7.603  3.3913 -0.0269 -1.8606
 7018SOL    HW232517   0.351   2.088   7.576 -1.3582  0.9555 -1.6793
 7019SOL     OW32518   1.763   0.429  16.427  0.4508  0.2298 -0.0829
 7019SOL    HW132519   1.825   0.407  16.497 -0.3883  2.1019  1.2473
 7019SOL    HW232520   1.735   0.341  16.403  4.1547 -0.6113 -1.3242
 7020SOL     OW32521   3.449   0.536   2.860 -0.1549 -0.2296  0.2067
 7020SOL    HW132522   3.400   0.485   2.795 -0.2286  0.6047 -0.3838
 7020SOL    HW232523   3.391   0.609   2.883  0.3411 -1.2780  4.8465
 7021SOL     OW32524   1.008   4.472  11.474 -0.3364  0.0240 -0.7657
 7021SOL    HW132525   0.932   4.446  11.526  1.2005  1.5986  2.2814
 7021SOL    HW232526   1.070   4.400  11.482  0.0004  0.2169 -1.7000
 7022SOL     OW32527   2.994   1.435   5.783 -0.0629 -0.1413 -0.4179
 7022SOL    HW132528   2.992   1.465   5.692  0.1228  0.9215 -0.0683
 7022SOL    HW232529   2.905   1.400   5.782  0.4509 -1.4546 -0.2633
 7023SOL     OW32530   0.675   0.039   5.403  0.3054  0.1709 -0.1043
 7023SOL    HW132531   0.761   0.062   5.369  1.1323 -1.5670  0.7892
 7023SOL    HW232532   0.613   0.071   5.337  0.2824 -1.1179 -0.7098
 7024SOL     OW32533   0.641   2.461   5.740 -0.5114  0.3983  0.0724
 7024SOL    HW132534   0.610   2.438   5.652  2.0533 -1.5017 -0.3256
 7024SOL    HW232535   0.728   2.422   5.734 -0.9671 -0.2461 -2.3429
 7025SOL     OW32536   0.865   2.792  16.293 -0.1847  0.3662  0.3577
 7025SOL    HW132537   0.782   2.780  16.248  0.3092 -1.7441  0.0082
 7025SOL    HW232538   0.926   2.755  16.229  1.8705  1.0710  1.8736
 7026SOL     OW32539   1.479   0.919  10.944 -0.2702 -0.3970  0.1274
 7026SOL    HW132540   1.527   0.858  10.888 -1.7753  2.4454 -4.2701
 7026SOL    HW232541   1.489   1.003  10.899  1.9132 -1.4150 -1.3091
 7027SOL     OW32542   2.958   3.036  10.440 -0.0250  0.1594 -0.1368
 7027SOL    HW132543   3.040   3.038  10.489  0.1319 -0.2353 -0.3840
 7027SOL    HW232544   2.988   3.080  10.360  0.0258 -0.2614 -0.3545
 7028SOL     OW32545   1.374   2.565   5.138  0.3303  0.0536 -0.6347
 7028SOL    HW132546   1.382   2.628   5.067  1.5653 -0.1466 -0.6649
 7028SOL    HW232547   1.322   2.497   5.095 -0.7850  2.1752 -2.6031
 7029SOL     OW32548   1.773   1.599   8.568  0.2345 -0.1974  0.1459
 7029SOL    HW132549   1.842   1.542   8.534  1.4432  0.6968  1.1124
 7029SOL    HW232550   1.805   1.684   8.538 -0.8272 -0.1608 -0.8721
 7030SOL     OW32551   0.745   3.261   3.628 -0.0349  0.2117 -0.1075
 7030SOL    HW132552   0.748   3.253   3.532 -1.3084  0.2263 -0.1521
 7030SOL    HW232553   0.713   3.349   3.650 -0.0719 -0.0073  0.6892
 7031SOL     OW32554   1.777   4.446  11.308  0.0324 -0.4339  0.0859
 7031SOL    HW132555   1.865   4.471  11.336  0.3156 -2.2068  0.8294
 7031SOL    HW232556   1.787   4.407  11.221 -0.1229 -1.4850  0.5403
 7032SOL     OW32557   3.742   4.695  14.894 -0.0244 -0.2191  0.0228
 7032SOL    HW132558   3.744   4.703  14.799  1.2288  2.3501  0.2612
 7032SOL    HW232559   3.665   0.030  14.910  1.1938  0.9352  2.0383
 7033SOL     OW32560   2.011   1.653  14.415 -1.2421  0.0903 -0.7074
 7033SOL    HW132561   1.957   1.710  14.470  1.7782  1.0082  1.2984
 7033SOL    HW232562   2.067   1.719  14.374  1.5124 -2.9188 -1.7404
 7034SOL     OW32563   4.301   0.597   1.196 -0.1877  0.6793 -0.1609
 7034SOL    HW132564   4.354   0.621   1.273 -0.9691  2.8231 -0.2928
 7034SOL    HW232565   4.213   0.620   1.225  0.2504  0.9702  0.9683
 7035SOL     OW32566   0.685   3.456  13.002 -0.7240  0.0703  0.2610
 7035SOL    HW132567   0.770   3.492  12.976 -0.4356 -1.0118 -0.3145
 7035SOL    HW232568   0.660   3.418  12.917  1.9170  0.7996 -0.8439
 7036SOL     OW32569   0.017   0.960   6.515  0.1624  0.5031  0.5070
 7036SOL    HW132570   0.074   0.935   6.588 -0.0482  1.1645  0.8961
 7036SOL    HW232571   4.684   0.881   6.511  0.8770  0.0131  0.7529
 7037SOL     OW32572   0.971   1.019   8.559  0.6060 -0.1221  0.5695
 7037SOL    HW132573   1.016   0.935   8.554 -1.1771 -1.2822  4.2566
 7037SOL    HW232574   0.894   1.000   8.612  1.6522 -0.8140  1.8362
 7038SOL     OW32575   0.039   4.418   9.249 -0.3209 -0.1401  0.0480
 7038SOL    HW132576   0.016   4.362   9.324  2.9746 -0.1080  1.0661
 7038SOL    HW232577   0.003   4.502   9.278  0.6830 -0.7954  3.1715
 7039SOL     OW32578   3.690   4.389   7.893  0.2877 -0.3153 -0.3235
 7039SOL    HW132579   3.704   4.438   7.975  1.1720  0.5985 -1.0247
 7039SOL    HW232580   3.731   4.308   7.924 -1.3703 -0.9781  0.1526
 7040SOL     OW32581   1.175   0.737  17.270  0.0220  0.1348  0.2423
 7040SOL    HW132582   1.224   0.805  17.222  0.8712 -1.4339 -1.1091
 7040SOL    HW232583   1.130   0.697  17.196 -0.0908  0.3041  0.2204
 7041SOL     OW32584   2.503   1.877   7.755  0.0418 -0.1648 -0.3131
 7041SOL    HW132585   2.524   1.826   7.833 -1.1125 -0.5453 -0.2666
 7041SOL    HW232586   2.561   1.953   7.763 -1.4986  0.7127  2.2132
 7042SOL     OW32587   1.907   3.512  14.177 -0.6249  0.1692  0.0308
 7042SOL    HW132588   1.966   3.441  14.150  0.4812  1.4811 -0.9846
 7042SOL    HW232589   1.828   3.463  14.199 -0.5059  0.2438  0.6295
 7043SOL     OW32590   0.717   4.282   8.668  0.4318  0.1135  0.0378
 7043SOL    HW132591   0.621   4.277   8.668  0.3990  0.9931 -2.7723
 7043SOL    HW232592   0.712   4.376   8.653 -1.4436  0.0110  0.0149
 7044SOL     OW32593   0.268   1.771   9.005  0.9225  0.4664  0.0451
 7044SOL    HW132594   0.290   1.781   9.098  1.6641 -2.1939  0.1607
 7044SOL    HW232595   0.301   1.684   8.983 -1.0917  0.4428 -2.8101
 7045SOL     OW32596   3.576   4.490  12.552  0.1057 -0.5476  0.4272
 7045SOL    HW132597   3.627   4.412  12.529 -1.3560 -1.7383  1.1860
 7045SOL    HW232598   3.635   4.556  12.516 -1.0440  0.2357 -0.0228
 7046SOL     OW32599   1.322   2.630   7.894  0.0596  0.9692  0.8672
 7046SOL    HW132600   1.340   2.559   7.955  0.4123  0.3675  0.0740
 7046SOL    HW232601   1.273   2.684   7.955  3.4989  0.8921  3.6794
 7047SOL     OW32602   2.197   2.105   1.450  0.2447  0.4452 -0.0954
 7047SOL    HW132603   2.120   2.092   1.505  0.7274 -0.9982  0.2226
 7047SOL    HW232604   2.270   2.078   1.504 -0.5853 -1.2973  0.1556
 7048SOL     OW32605   0.142   2.051   4.544  0.6156  0.4953  0.4831
 7048SOL    HW132606   0.078   2.095   4.599 -0.1944 -0.4747  0.3088
 7048SOL    HW232607   0.166   2.122   4.484 -1.5601 -0.5419 -1.6064
 7049SOL     OW32608   4.037   4.409   6.535 -0.0167  0.2395 -0.8083
 7049SOL    HW132609   3.995   4.424   6.619  2.0609  3.7357 -0.4024
 7049SOL    HW232610   3.970   4.443   6.475 -0.9500  1.1755  0.7544
 7050SOL     OW32611   1.330   3.387   8.376  0.5091 -0.3020 -0.1547
 7050SOL    HW132612   1.336   3.463   8.434  0.5296 -1.4891  1.3587
 7050SOL    HW232613   1.236   3.391   8.358  0.6349  0.3011 -0.6887
 7051SOL     OW32614   4.611   4.140   3.983 -0.4209  0.6920 -0.0606
 7051SOL    HW132615   4.695   4.184   3.970  0.4652 -0.3011  2.3128
 7051SOL    HW232616   4.636   4.073   4.047 -3.1176  1.5980  1.9490
 7052SOL     OW32617   3.214   4.180   5.547  0.5708  0.0116  0.2343
 7052SOL    HW132618   3.161   4.256   5.523 -0.1156 -0.2235  1.0017
 7052SOL    HW232619   3.263   4.222   5.618 -0.2197  2.9831 -0.9920
 7053SOL     OW32620   0.861   4.495   7.038  0.6597 -0.1802  0.2800
 7053SOL    HW132621   0.818   4.431   7.095  0.2421 -0.1907 -0.0494
 7053SOL    HW232622   0.937   4.444   7.009  1.9156  2.2833 -0.7631
 7054SOL     OW32623   4.218   3.842   3.547  0.7791 -0.0037  0.3377
 7054SOL    HW132624   4.170   3.865   3.467 -0.8611  0.1303  1.3598
 7054SOL    HW232625   4.146   3.818   3.605 -0.1155  0.5280 -0.5520
 7055SOL     OW32626   0.732   2.864  11.624 -0.1617 -0.4239 -0.2229
 7055SOL    HW132627   0.681   2.852  11.544 -0.9184 -1.8231  0.4629
 7055SOL    HW232628   0.665   2.909  11.675 -1.1711 -0.8411 -1.1791
 7056SOL     OW32629   4.169   3.547   3.349 -0.4377  0.1164  0.0959
 7056SOL    HW132630   4.098   3.510   3.402 -2.3968  3.5097 -0.1397
 7056SOL    HW232631   4.119   3.583   3.275 -2.8750  0.7374  2.0535
 7057SOL     OW32632   0.577   2.485   9.313  0.1397 -0.0966 -0.0401
 7057SOL    HW132633   0.569   2.414   9.249  0.6169 -1.3985  1.3403
 7057SOL    HW232634   0.663   2.471   9.353  0.6095  2.3314 -0.2042
 7058SOL     OW32635   2.560   2.118   5.884  0.6429  0.1739  0.4822
 7058SOL    HW132636   2.642   2.167   5.885 -0.1419  1.4890  0.7770
 7058SOL    HW232637   2.586   2.027   5.895 -1.5584 -0.5650 -0.2728
 7059SOL     OW32638   0.876   3.969  11.736  0.4039 -0.4631 -0.3993
 7059SOL    HW132639   0.827   3.899  11.695 -3.7720  1.5372  1.1536
 7059SOL    HW232640   0.890   3.933  11.824 -0.7128 -0.5889 -0.2737
 7060SOL     OW32641   3.891   1.505   3.173  0.2339 -1.2883  0.2638
 7060SOL    HW132642   3.815   1.561   3.159  2.8813  2.0056 -1.1370
 7060SOL    HW232643   3.843   1.425   3.192 -1.3611 -0.6398 -1.0727
 7061SOL     OW32644   3.053   1.036  14.453  0.2213 -0.2137  0.2486
 7061SOL    HW132645   3.060   0.988  14.371 -2.6527  0.1259 -0.1678
 7061SOL    HW232646   3.018   1.121  14.426 -1.4198 -0.7106  0.8078
 7062SOL     OW32647   2.608   4.600   5.907 -0.6397  0.3608 -0.3585
 7062SOL    HW132648   2.625   4.610   6.001  1.8472 -1.8486 -0.5504
 7062SOL    HW232649   2.632   4.509   5.887 -1.2233  0.0495  0.3660
 7063SOL     OW32650   2.084   0.496   8.994  0.3042  0.1893 -0.5280
 7063SOL    HW132651   2.157   0.536   9.042  0.3104  1.8818 -1.9496
 7063SOL    HW232652   2.036   0.574   8.968 -0.7161 -1.1002 -2.5692
 7064SOL     OW32653   0.880   4.685  11.309 -0.0422  0.1024 -0.6329
 7064SOL    HW132654   0.968   4.648  11.305 -0.4143 -0.8630  0.1723
 7064SOL    HW232655   0.826   4.625  11.360  3.4878 -0.6418  2.1786
 7065SOL     OW32656   3.655   0.730   2.886 -0.3791 -0.4154 -0.7842
 7065SOL    HW132657   3.667   0.788   2.811  1.3439  0.5158  0.2153
 7065SOL    HW232658   3.617   0.652   2.845  2.1393 -2.4624  0.7967
 7066SOL     OW32659   2.461   1.251  13.743 -0.2993  0.2154  0.1673
 7066SOL    HW132660   2.554   1.234  13.756 -0.0716  1.1123 -0.2494
 7066SOL    HW232661   2.439   1.171  13.695  2.4984 -0.3501 -0.1843
 7067SOL     OW32662   2.426   2.473   4.908  0.2626  0.2012  0.1713
 7067SOL    HW132663   2.406   2.484   5.001  2.4723  0.3927  0.6246
 7067SOL    HW232664   2.340   2.501   4.876 -0.5008 -2.5149 -0.1624
 7068SOL     OW32665   4.490   1.983   2.641  0.5018 -0.2732 -0.1855
 7068SOL    HW132666   4.470   2.062   2.591 -0.1491  1.3412  2.5757
 7068SOL    HW232667   4.578   1.999   2.675  0.7609 -2.3251  0.1165
 7069SOL     OW32668   4.467   1.102   0.835  0.1740 -0.4163  0.2589
 7069SOL    HW132669   4.497   1.188   0.804  0.8732 -0.9199 -0.4700
 7069SOL    HW232670   4.391   1.121   0.890 -1.3587  0.6649 -2.1904
 7070SOL     OW32671   3.322   2.535   2.601 -0.4122 -0.2467 -0.0128
 7070SOL    HW132672   3.330   2.451   2.647  1.5883 -0.9065 -1.5523
 7070SOL    HW232673   3.400   2.583   2.626 -1.1252  1.0180 -0.2475
 7071SOL     OW32674   1.036   3.949  14.685 -0.2099 -0.8437  0.0630
 7071SOL    HW132675   1.128   3.960  14.705 -0.5110  1.7163 -0.0276
 7071SOL    HW232676   1.057   3.926  14.594 -0.1624 -0.2893 -0.0631
 7072SOL     OW32677   4.616   1.990   5.568  0.2492 -0.2053  0.6063
 7072SOL    HW132678   4.611   1.907   5.520 -0.2922 -0.7513  1.5767
 7072SOL    HW232679   4.711   1.997   5.572  0.2637  0.0647 -0.2490
 7073SOL     OW32680   3.143   2.520  12.181  0.1795  0.1051 -0.1231
 7073SOL    HW132681   3.159   2.450  12.117 -2.0175 -0.3735 -0.1352
 7073SOL    HW232682   3.229   2.563  12.176  0.7421 -0.9072  0.8568
 7074SOL     OW32683   4.323   2.713   3.404  0.1129  0.3170  0.6344
 7074SOL    HW132684   4.307   2.804   3.377 -1.3928 -0.2922 -0.5234
 7074SOL    HW232685   4.290   2.673   3.323  3.7467  0.7693 -1.0602
 7075SOL     OW32686   2.169   3.308   0.067  0.3786  0.6143 -0.0139
 7075SOL    HW132687   2.218   3.233   0.030  0.1561  0.3413  0.2499
 7075SOL    HW232688   2.144   3.277   0.153  0.1966  0.6249 -0.0637
 7076SOL     OW32689   3.062   4.490  13.112  0.0036  0.7674  0.3885
 7076SOL    HW132690   2.988   4.432  13.093 -0.0656  1.4008 -1.2813
 7076SOL    HW232691   3.126   4.479  13.041 -0.2024  2.5471 -0.0640
 7077SOL     OW32692   2.413   2.681  12.969 -0.0060 -0.7520 -0.5574
 7077SOL    HW132693   2.466   2.710  12.895 -0.3690 -2.4990 -1.4992
 7077SOL    HW232694   2.427   2.746  13.038  0.8854 -2.2136  0.6624
 7078SOL     OW32695   1.896   3.492   7.447  0.1606  0.5023 -0.3083
 7078SOL    HW132696   1.824   3.470   7.506  0.1891  1.3083  0.0195
 7078SOL    HW232697   1.944   3.558   7.495  0.4138 -0.3121  0.5436
 7079SOL     OW32698   4.414   3.896   6.716  0.7798 -0.0344 -0.4072
 7079SOL    HW132699   4.333   3.865   6.757 -0.9258  2.2156 -2.0856
 7079SOL    HW232700   4.388   3.913   6.626  0.7048  1.0435 -0.1808
 7080SOL     OW32701   4.292   0.495   9.356 -0.2554  0.2265 -0.2743
 7080SOL    HW132702   4.355   0.426   9.375  0.1393  0.6911  0.0793
 7080SOL    HW232703   4.321   0.523   9.269 -0.2864 -0.1161 -0.3966
 7081SOL     OW32704   0.984   1.259   5.820  0.1230 -0.2499 -0.5104
 7081SOL    HW132705   0.903   1.223   5.857 -0.3765 -0.4884 -1.8640
 7081SOL    HW232706   0.986   1.350   5.851 -0.4708 -0.4394  0.0845
 7082SOL     OW32707   4.392   1.653   0.284 -0.0159  0.1393  0.2467
 7082SOL    HW132708   4.298   1.638   0.295  0.0447 -0.1466  0.3711
 7082SOL    HW232709   4.387   1.678   0.192  1.3121 -2.7278 -0.6156
 7083SOL     OW32710   2.345   3.073   7.961  0.7360 -0.2256 -0.0280
 7083SOL    HW132711   2.386   3.032   8.037  0.0103  0.2271  0.6065
 7083SOL    HW232712   2.292   3.140   8.004  0.1169 -0.9716  0.3638
 7084SOL     OW32713   0.013   0.631  12.412 -0.1979 -0.1353 -0.4765
 7084SOL    HW132714   0.043   0.606  12.325 -0.2021 -0.1759 -0.4664
 7084SOL    HW232715   4.716   0.722  12.388 -2.6631 -0.4870 -0.1222
 7085SOL     OW32716   3.837   0.378  11.683 -0.1205  0.1386  0.0766
 7085SOL    HW132717   3.768   0.334  11.732  1.3221 -1.1549  0.9394
 7085SOL    HW232718   3.791   0.448  11.636 -1.1148  0.4186  1.4486
 7086SOL     OW32719   1.224   4.098   7.288 -0.1104 -0.3194  0.0641
 7086SOL    HW132720   1.224   4.018   7.236  0.2162 -0.9514  1.0335
 7086SOL    HW232721   1.166   4.164   7.249  1.5365  0.9820 -0.1820
 7087SOL     OW32722   2.828   1.561   8.712  0.0224  0.3288  0.1986
 7087SOL    HW132723   2.806   1.532   8.800  0.4201 -0.7418 -0.0617
 7087SOL    HW232724   2.834   1.655   8.731  0.4777  0.0211  1.5755
 7088SOL     OW32725   2.653   4.293   5.488  0.2515  0.0073 -0.7030
 7088SOL    HW132726   2.683   4.218   5.539 -2.9510 -1.4558 -0.9525
 7088SOL    HW232727   2.571   4.320   5.531 -0.4243  1.1651 -2.7429
 7089SOL     OW32728   1.447   1.939   3.350  0.5287 -0.0733 -0.0695
 7089SOL    HW132729   1.371   1.941   3.408  0.4355 -0.1261 -0.1917
 7089SOL    HW232730   1.467   2.033   3.350  0.4193 -0.0434  3.3256
 7090SOL     OW32731   2.986   3.217   2.100 -0.0007  0.3418 -0.3935
 7090SOL    HW132732   2.915   3.165   2.064  0.2357  0.5046 -1.1082
 7090SOL    HW232733   3.050   3.146   2.105  1.7805  1.9515 -0.3035
 7091SOL     OW32734   0.124   0.486  16.133  0.4781 -0.5902 -0.0587
 7091SOL    HW132735   0.133   0.398  16.096  1.2607 -0.6199  0.2152
 7091SOL    HW232736   0.210   0.512  16.166 -0.4977  0.5264  1.6253
 7092SOL     OW32737   1.315   0.884   3.936 -0.5143  0.4706  0.2261
 7092SOL    HW132738   1.248   0.950   3.920 -0.7357  0.4278  0.9633
 7092SOL    HW232739   1.264   0.803   3.945 -0.3548  0.3619  0.1552
 7093SOL     OW32740   0.935   3.655   4.698  0.4054  0.2964 -0.0579
 7093SOL    HW132741   0.840   3.658   4.698  0.4044  0.2404  0.6874
 7093SOL    HW232742   0.950   3.745   4.668  1.9179  0.1485  0.2308
 7094SOL     OW32743   2.071   3.242   1.079 -0.2015  0.0571 -0.2082
 7094SOL    HW132744   2.053   3.190   1.157  1.4846  0.2773  0.3429
 7094SOL    HW232745   2.116   3.314   1.122  1.8511 -2.4365  1.8080
 7095SOL     OW32746   0.583   3.430  12.442 -0.5010  0.2744 -0.2025
 7095SOL    HW132747   0.535   3.353  12.412  1.4233 -0.7652 -0.5438
 7095SOL    HW232748   0.597   3.416  12.536  0.4107  2.2919 -0.0345
 7096SOL     OW32749   0.836   3.064  16.057 -0.5687  0.1644  0.4013
 7096SOL    HW132750   0.846   3.111  16.140 -1.3184  2.3302 -0.7243
 7096SOL    HW232751   0.923   3.027  16.046 -0.7905 -0.6824  1.4792
 7097SOL     OW32752   2.864   1.580   6.370 -0.1622  0.5627 -0.0261
 7097SOL    HW132753   2.840   1.555   6.281 -1.0324  1.6732 -0.0974
 7097SOL    HW232754   2.833   1.670   6.377 -0.5745  0.1574  3.7610
 7098SOL     OW32755   4.647   3.908   2.793  0.6836  0.6335 -0.0294
 7098SOL    HW132756   4.594   3.987   2.778 -0.1870 -0.0742 -0.6961
 7098SOL    HW232757   4.685   3.899   2.706 -0.8431 -0.6700 -0.5589
 7099SOL     OW32758   1.714   1.943   5.836  0.0193  0.1889 -0.1527
 7099SOL    HW132759   1.769   1.995   5.895 -1.0306 -2.3561  3.0561
 7099SOL    HW232760   1.627   1.978   5.856 -0.0450 -0.2324  0.2844
 7100SOL     OW32761   1.296   1.926  17.480 -0.1110  0.5040  0.5523
 7100SOL    HW132762   1.237   1.853  17.462  0.8777 -0.3840  0.9265
 7100SOL    HW232763   1.371   1.899  17.426 -0.8718  0.7851 -0.6415
 7101SOL     OW32764   0.944   0.802   2.222  0.2069  0.4965  0.1021
 7101SOL    HW132765   0.993   0.729   2.184  0.6008 -0.4390  2.3971
 7101SOL    HW232766   0.958   0.791   2.316  2.5804 -1.9748 -0.5601
 7102SOL     OW32767   3.145   1.561   2.348 -0.3615 -0.0766  0.0511
 7102SOL    HW132768   3.073   1.506   2.317  0.0015 -1.7134  2.0734
 7102SOL    HW232769   3.099   1.613   2.414  1.3104  0.1963  1.0025
 7103SOL     OW32770   4.610   4.030   8.384  0.2466 -0.0127  0.6855
 7103SOL    HW132771   4.682   4.070   8.334 -0.2941 -1.9832 -1.6943
 7103SOL    HW232772   4.616   4.069   8.471 -0.3181 -0.2893  0.8490
 7104SOL     OW32773   4.496   1.917   2.007 -0.6853 -0.2747  0.5659
 7104SOL    HW132774   4.527   1.986   1.948  0.6021  0.2438  1.8561
 7104SOL    HW232775   4.571   1.861   2.026 -0.5859 -0.9464 -1.7501
 7105SOL     OW32776   0.204   3.776   9.680  0.1609  0.0740 -0.2418
 7105SOL    HW132777   0.236   3.837   9.614 -0.8553  0.1634 -0.6562
 7105SOL    HW232778   0.183   3.837   9.751  1.2164 -2.9703  2.6743
 7106SOL     OW32779   0.161   2.655  14.247  0.4039 -0.3433 -0.3480
 7106SOL    HW132780   0.215   2.614  14.315 -1.3331 -2.1777 -0.0740
 7106SOL    HW232781   0.229   2.679  14.184  1.6098  1.7442  1.7352
 7107SOL     OW32782   0.299   3.207   8.905 -1.0350  0.4849 -0.0401
 7107SOL    HW132783   0.320   3.114   8.894  1.7193  0.8492  1.9763
 7107SOL    HW232784   0.211   3.205   8.941 -1.0654 -0.7903 -0.1886
 7108SOL     OW32785   1.098   2.903  17.348 -0.3897 -0.8217 -0.0115
 7108SOL    HW132786   1.037   2.911  17.275  1.3345 -0.1147 -1.3829
 7108SOL    HW232787   1.122   2.811  17.351 -1.6546 -1.2388 -2.5857
 7109SOL     OW32788   0.970   0.694   1.310  0.4978 -0.7627 -0.4287
 7109SOL    HW132789   1.063   0.718   1.311  0.4278 -0.5778  3.2384
 7109SOL    HW232790   0.952   0.732   1.224  0.8181  1.7474  0.5973
 7110SOL     OW32791   3.225   0.569   3.671  0.4420  0.6399 -0.7022
 7110SOL    HW132792   3.179   0.634   3.618 -1.4823 -0.7895 -0.7598
 7110SOL    HW232793   3.278   0.624   3.729  0.4206 -0.5901  0.4664
 7111SOL     OW32794   1.802   2.163   9.285  0.0550  0.0419 -0.2200
 7111SOL    HW132795   1.728   2.110   9.257  0.7245 -0.4726 -1.0080
 7111SOL    HW232796   1.865   2.115   9.231  1.6946  0.5459  1.2504
 7112SOL     OW32797   0.449   2.555   0.437  0.0055  0.2481 -0.3704
 7112SOL    HW132798   0.378   2.600   0.392  0.9788  0.0549 -2.1095
 7112SOL    HW232799   0.413   2.467   0.436  0.0068  0.2477 -0.3869
 7113SOL     OW32800   3.426   0.629   8.937 -0.2739  0.3200  0.3748
 7113SOL    HW132801   3.375   0.674   8.870 -2.0767 -2.2975 -0.0213
 7113SOL    HW232802   3.388   0.545   8.964  1.2649 -0.3540  0.4730
 7114SOL     OW32803   4.572   0.030   0.663  0.2036 -0.3758  0.1810
 7114SOL    HW132804   4.557   0.034   0.758  0.2544  2.7478  0.0551
 7114SOL    HW232805   4.570   4.655   0.650 -1.0875 -0.3164  0.0042
 7115SOL     OW32806   2.096   1.207   4.950 -0.6619  0.1640 -0.2084
 7115SOL    HW132807   2.181   1.197   4.993 -2.2595 -1.6183  2.5414
 7115SOL    HW232808   2.093   1.141   4.880 -1.0653  0.1096 -0.1392
 7116SOL     OW32809   0.517   0.121   6.323  0.4097 -0.2455 -0.8208
 7116SOL    HW132810   0.500   0.172   6.243  0.2427 -0.5126 -0.9550
 7116SOL    HW232811   0.588   0.060   6.300 -0.4144 -1.4619 -0.1214
 7117SOL     OW32812   1.275   4.580   1.166 -0.1147 -0.5102 -0.2679
 7117SOL    HW132813   1.219   4.613   1.095 -0.8903  1.3006  1.2116
 7117SOL    HW232814   1.355   4.628   1.143  0.0592 -2.4384 -3.6491
 7118SOL     OW32815   1.028   3.182   5.100  0.2273 -0.0437  0.6062
 7118SOL    HW132816   1.096   3.153   5.160  0.8621  1.0637  0.4139
 7118SOL    HW232817   1.000   3.269   5.130 -0.6149 -0.1125  0.0349
 7119SOL     OW32818   2.063   2.409  15.008  0.0402  0.2138  0.6508
 7119SOL    HW132819   2.006   2.484  14.994  0.4354  0.3182 -0.4417
 7119SOL    HW232820   2.104   2.402  14.922  0.5570  4.1275  0.6014
 7120SOL     OW32821   0.901   0.315   0.462 -0.1952  0.0635 -0.4831
 7120SOL    HW132822   0.878   0.254   0.391  2.0575 -3.3797  1.7304
 7120SOL    HW232823   0.901   0.250   0.533 -0.1381 -0.5099 -1.0037
 7121SOL     OW32824   2.426   1.459   7.899 -0.1860 -0.0946  0.2714
 7121SOL    HW132825   2.494   1.392   7.905  0.5899  0.7472  0.9776
 7121SOL    HW232826   2.450   1.509   7.821 -1.5395 -0.3004 -0.2807
 7122SOL     OW32827   1.962   2.319   3.159  0.0344  0.4682  0.6135
 7122SOL    HW132828   1.961   2.411   3.186 -2.7352  0.4642  0.5234
 7122SOL    HW232829   1.871   2.294   3.173  0.4797 -1.4204  0.2005
 7123SOL     OW32830   2.337   3.339   2.534 -0.1216 -0.1889  0.3463
 7123SOL    HW132831   2.248   3.322   2.565 -0.5841  0.1664 -0.7863
 7123SOL    HW232832   2.350   3.425   2.574 -0.0860  0.6877 -1.5534
 7124SOL     OW32833   4.219   1.597   3.620  0.6412 -0.2008 -0.0722
 7124SOL    HW132834   4.299   1.548   3.636  0.1348 -0.7847  0.6537
 7124SOL    HW232835   4.196   1.578   3.529  0.4811 -1.9286  0.3330
 7125SOL     OW32836   0.464   2.945   5.710 -0.3700 -0.3487  0.2650
 7125SOL    HW132837   0.556   2.940   5.735 -0.3807  1.0120  0.5736
 7125SOL    HW232838   0.444   2.853   5.696 -0.6599 -0.3127  0.4180
 7126SOL     OW32839   0.267   1.901  12.104 -0.0099 -0.5708 -0.3932
 7126SOL    HW132840   0.313   1.928  12.184 -0.2088  0.2976 -0.5685
 7126SOL    HW232841   0.311   1.817  12.089  1.3881  0.0304  0.3145
 7127SOL     OW32842   3.948   0.088   4.599  0.6339  0.4582 -0.6687
 7127SOL    HW132843   3.862   0.055   4.622  0.8833  0.9899  1.0607
 7127SOL    HW232844   3.963   0.129   4.684 -1.5630  3.8706 -1.9644
 7128SOL     OW32845   3.494   0.323  10.843  0.1706  0.1374 -0.0804
 7128SOL    HW132846   3.547   0.400  10.825  2.2115 -0.6334  2.5536
 7128SOL    HW232847   3.560   0.256  10.861 -0.7085 -0.7073  0.0258
 7129SOL     OW32848   3.365   2.957   2.839  0.1298 -0.5597  0.0055
 7129SOL    HW132849   3.327   3.039   2.808  1.9480  0.2538 -0.1181
 7129SOL    HW232850   3.457   2.978   2.854 -0.2558  1.8732 -1.0799
 7130SOL     OW32851   1.026   0.423   0.151  0.1837 -0.5843  0.1268
 7130SOL    HW132852   1.062   0.384   0.071  0.1408  0.1512 -0.2473
 7130SOL    HW232853   1.100   0.427   0.212 -1.3554  0.5773  1.8919
 7131SOL     OW32854   0.422   2.415   2.009 -0.7781  0.1361  0.6715
 7131SOL    HW132855   0.429   2.319   2.003  1.7512  0.3687 -0.1795
 7131SOL    HW232856   0.327   2.425   2.008 -1.0826 -2.4817  2.1483
 7132SOL     OW32857   3.818   1.321   7.718 -0.0771 -0.4557  0.3003
 7132SOL    HW132858   3.782   1.401   7.755 -1.9038 -1.1226 -0.0692
 7132SOL    HW232859   3.737   1.276   7.695 -0.3598 -0.7891  1.8959
 7133SOL     OW32860   1.818   3.935   5.992  0.3313 -0.3529 -0.4856
 7133SOL    HW132861   1.814   3.959   6.085  0.7824 -2.7236  0.1232
 7133SOL    HW232862   1.764   3.856   5.991 -0.4633  0.1777  0.0757
 7134SOL     OW32863   1.488   3.687  12.469  0.0288 -0.0240  0.2184
 7134SOL    HW132864   1.454   3.733  12.545 -0.7728 -2.5895  1.4307
 7134SOL    HW232865   1.537   3.753  12.421 -0.8622  1.4152  1.3103
 7135SOL     OW32866   4.699   4.247   0.366  0.1953  0.4614 -0.8200
 7135SOL    HW132867   0.032   4.202   0.432 -0.1220 -1.4280 -1.8674
 7135SOL    HW232868   4.702   4.192   0.288 -1.8412  1.7128 -1.7718
 7136SOL     OW32869   0.173   1.296   0.402  0.2693 -0.1067 -0.3735
 7136SOL    HW132870   0.202   1.385   0.424 -2.3768  0.9309 -1.0593
 7136SOL    HW232871   0.258   1.256   0.383 -0.1004 -1.2583  0.4418
 7137SOL     OW32872   0.117   0.561   9.917  0.1020  0.4319 -0.3750
 7137SOL    HW132873   0.034   0.595   9.884 -0.9979 -0.5987  1.3394
 7137SOL    HW232874   0.158   0.537   9.834 -0.3007  0.2496 -0.5230
 7138SOL     OW32875   3.602   2.153   6.618 -0.2517 -0.3977 -0.1464
 7138SOL    HW132876   3.665   2.168   6.547 -1.1833 -0.2899 -0.9573
 7138SOL    HW232877   3.550   2.074   6.603 -0.3198 -0.7448  1.9016
 7139SOL     OW32878   2.686   3.575   6.380  0.0210  0.3425  0.4358
 7139SOL    HW132879   2.633   3.642   6.424 -2.8057 -1.5629 -0.0567
 7139SOL    HW232880   2.683   3.500   6.440 -0.8311 -1.6353 -2.0904
 7140SOL     OW32881   2.943   3.077  14.511  0.5221 -0.1731  0.1171
 7140SOL    HW132882   2.979   3.114  14.430 -1.6988  2.1610  0.1946
 7140SOL    HW232883   2.946   2.985  14.487 -1.7451  0.3969 -2.4077
 7141SOL     OW32884   0.655   4.477   5.445 -0.1602  0.0970  0.0510
 7141SOL    HW132885   0.666   4.562   5.486  0.7680 -0.0574  0.1267
 7141SOL    HW232886   0.628   4.505   5.358 -0.5975 -0.1077  0.1186
 7142SOL     OW32887   2.385   4.544   3.437  0.1208  0.1861  0.3434
 7142SOL    HW132888   2.442   4.477   3.399  0.2674 -0.7188  2.1433
 7142SOL    HW232889   2.375   4.600   3.360 -1.9565 -1.8471 -0.8529
 7143SOL     OW32890   1.581   1.449  11.647 -0.5099  0.0428 -0.0137
 7143SOL    HW132891   1.610   1.373  11.596 -2.0363  0.3843 -1.3983
 7143SOL    HW232892   1.596   1.404  11.730 -0.0516 -0.7798 -0.5374
 7144SOL     OW32893   1.533   4.506   9.174 -0.0783 -0.2966  0.7521
 7144SOL    HW132894   1.541   4.562   9.252 -0.8903 -1.2227  1.5042
 7144SOL    HW232895   1.614   4.527   9.129 -0.9974  1.7658  0.0659
 7145SOL     OW32896   3.537   2.987   7.756 -0.6492  0.3894 -0.2334
 7145SOL    HW132897   3.547   2.946   7.842 -1.4084  2.7905  0.9999
 7145SOL    HW232898   3.600   3.057   7.773  0.2516 -0.9953  2.2064
 7146SOL     OW32899   4.567   4.538  12.599  0.1966  0.0521  0.0182
 7146SOL    HW132900   4.476   4.558  12.579  0.7008  1.5480 -0.8289
 7146SOL    HW232901   4.601   4.510  12.513  0.7780 -2.3678  1.0266
 7147SOL     OW32902   0.176   0.675  13.438  0.0884  0.3938 -0.1349
 7147SOL    HW132903   0.145   0.661  13.527 -0.9252 -0.4661 -0.6300
 7147SOL    HW232904   0.140   0.600  13.392 -0.8065  1.5766 -1.3727
 7148SOL     OW32905   3.687   2.405   3.073 -0.2150  0.5102 -0.3657
 7148SOL    HW132906   3.756   2.471   3.076 -0.6544  0.8987  1.0895
 7148SOL    HW232907   3.735   2.339   3.023  0.9443  2.7090 -2.1326
 7149SOL     OW32908   2.201   4.675  10.399 -0.4548  0.4639  0.6125
 7149SOL    HW132909   2.249   4.698  10.479 -1.5632  2.6837  0.6419
 7149SOL    HW232910   2.239   0.009  10.330 -1.0160  1.1324  0.8199
 7150SOL     OW32911   2.196   1.857   7.666 -0.3525  0.2181 -0.1508
 7150SOL    HW132912   2.109   1.849   7.626 -0.1229  1.5531 -0.9077
 7150SOL    HW232913   2.179   1.935   7.720  0.1799 -0.1438  0.5442
 7151SOL     OW32914   4.630   1.606   8.988 -0.7420 -0.2548 -0.0069
 7151SOL    HW132915   4.601   1.515   8.992  0.2674 -0.7058 -2.5766
 7151SOL    HW232916   4.654   1.621   8.897 -0.7402 -0.6404 -0.0679
 7152SOL     OW32917   0.562   4.237  16.295  0.1688  0.1386  0.0103
 7152SOL    HW132918   0.556   4.166  16.358  1.2621 -0.3589 -0.4545
 7152SOL    HW232919   0.492   4.293  16.331 -1.1100 -1.0860 -0.5682
 7153SOL     OW32920   4.410   0.853  17.586 -0.4455  0.2348  0.0879
 7153SOL    HW132921   4.316   0.833  17.589 -0.5235  0.6097  0.1727
 7153SOL    HW232922   4.410   0.931  17.641 -0.7534  0.6624 -0.5368
 7154SOL     OW32923   0.024   0.779   1.620 -0.3783  0.6157  0.1741
 7154SOL    HW132924   0.041   0.755   1.529 -1.8457 -0.5106  0.1946
 7154SOL    HW232925   4.719   0.694   1.657 -0.8844  0.8447  0.3453
 7155SOL     OW32926   3.833   1.643   7.082  0.2385  0.5134  0.1351
 7155SOL    HW132927   3.828   1.666   6.989  1.5292  0.2118 -0.0037
 7155SOL    HW232928   3.820   1.730   7.121  0.5047  0.5611  0.1138
 7156SOL     OW32929   4.441   2.366   7.198  0.0295 -0.0669 -0.4595
 7156SOL    HW132930   4.500   2.442   7.192  2.1634 -1.5205  2.4085
 7156SOL    HW232931   4.476   2.311   7.128  1.6489 -0.7373  0.8663
 7157SOL     OW32932   3.688   0.576   8.313 -0.1586  0.1351 -0.2567
 7157SOL    HW132933   3.681   0.622   8.230 -2.5801  0.8323  0.3545
 7157SOL    HW232934   3.603   0.559   8.354 -1.3177  1.2589 -2.2364
 7158SOL     OW32935   2.953   2.103   8.104  0.0766  0.0123 -0.5947
 7158SOL    HW132936   2.898   2.066   8.173 -0.2977  1.4906 -0.0867
 7158SOL    HW232937   2.951   2.032   8.041  2.3681 -0.5801 -0.0189
 7159SOL     OW32938   0.009   1.087   5.974 -0.0703  0.4124 -0.4224
 7159SOL    HW132939   4.686   1.151   5.917  2.3589  2.1310 -0.3520
 7159SOL    HW232940   0.097   1.125   5.972  0.5129 -0.7739  2.7250
 7160SOL     OW32941   4.514   0.024   5.419  0.5180  0.0333 -0.0525
 7160SOL    HW132942   4.433   0.066   5.447  0.9342  0.9036 -0.1495
 7160SOL    HW232943   4.520   4.659   5.461  1.3749  0.3697  0.5019
 7161SOL     OW32944   0.687   1.822   6.686 -0.2205 -0.6504  0.6414
 7161SOL    HW132945   0.633   1.833   6.765 -1.3388  0.0811 -0.2340
 7161SOL    HW232946   0.734   1.746   6.721  0.6340 -0.5627 -0.3171
 7162SOL     OW32947   2.406   3.126   2.000 -0.0431 -0.3831  0.5622
 7162SOL    HW132948   2.319   3.162   1.983 -0.6810 -1.7374  0.9636
 7162SOL    HW232949   2.425   3.171   2.083 -0.1400  0.9249 -0.1306
 7163SOL     OW32950   0.509   1.472   9.473 -0.3486  0.5921  0.5983
 7163SOL    HW132951   0.499   1.378   9.464 -1.4988  0.8833 -1.0668
 7163SOL    HW232952   0.565   1.484   9.396 -2.6382 -0.0321 -1.1526
 7164SOL     OW32953   0.551   1.945   2.751  0.2517  0.4782  0.2091
 7164SOL    HW132954   0.541   2.020   2.809  3.0265  1.1088 -0.1089
 7164SOL    HW232955   0.514   1.881   2.811 -1.2075 -0.2130 -1.4269
 7165SOL     OW32956   4.684   1.288   7.063  0.2492 -0.5378  0.0218
 7165SOL    HW132957   4.684   1.316   6.972  0.1941 -0.5443  0.0195
 7165SOL    HW232958   4.639   1.203   7.064  1.3970 -1.1557 -0.5139
 7166SOL     OW32959   4.447   1.353   0.428  0.4228 -0.4095 -0.6209
 7166SOL    HW132960   4.374   1.356   0.366 -0.1796  0.9132  0.1479
 7166SOL    HW232961   4.510   1.294   0.387 -1.1340 -1.3842 -1.6284
 7167SOL     OW32962   3.040   2.317   1.998 -0.0682  0.3030  0.4404
 7167SOL    HW132963   3.002   2.238   2.037  2.4275 -1.7498 -1.2736
 7167SOL    HW232964   3.072   2.271   1.921 -1.6479 -1.2973  0.7279
 7168SOL     OW32965   3.325   1.332   2.154  0.3520  0.1710 -0.4088
 7168SOL    HW132966   3.313   1.268   2.084 -1.6304 -0.9327  0.9132
 7168SOL    HW232967   3.267   1.290   2.218 -0.6604  3.0606  0.5715
 7169SOL     OW32968   3.553   4.347   6.399 -0.2776  0.3659 -0.4756
 7169SOL    HW132969   3.639   4.367   6.361 -0.1676 -1.5154 -1.2185
 7169SOL    HW232970   3.501   4.383   6.327  1.4886 -0.2221 -2.0528
 7170SOL     OW32971   2.135   4.420  15.613  0.1251 -0.0151 -0.3707
 7170SOL    HW132972   2.152   4.495  15.556  1.1616 -1.2300 -1.6683
 7170SOL    HW232973   2.049   4.430  15.654  0.7646 -3.9470  2.0086
 7171SOL     OW32974   0.645   3.524   3.663  0.7465  0.3688  0.2066
 7171SOL    HW132975   0.721   3.529   3.721  0.7928  0.2903  0.1524
 7171SOL    HW232976   0.587   3.581   3.712 -0.8928 -0.1635 -1.1129
 7172SOL     OW32977   2.356   1.168   3.717 -0.6188 -0.0003  0.0729
 7172SOL    HW132978   2.299   1.231   3.673 -0.0112 -0.2501 -1.0912
 7172SOL    HW232979   2.348   1.101   3.649 -0.5617 -1.1258  1.1791
 7173SOL     OW32980   2.808   0.999   6.949 -0.1532  0.2566 -0.3608
 7173SOL    HW132981   2.862   1.049   7.010  2.4877 -2.7297 -0.2559
 7173SOL    HW232982   2.753   1.070   6.915  1.6657  1.6678 -0.3373
 7174SOL     OW32983   1.899   0.939   6.790  0.0341 -0.0778  0.6632
 7174SOL    HW132984   1.939   1.020   6.822  2.0850 -0.0681 -1.8598
 7174SOL    HW232985   1.806   0.963   6.796 -0.2012 -0.3786 -1.8143
 7175SOL     OW32986   0.532   4.202  13.704 -0.1338 -0.1431  0.1984
 7175SOL    HW132987   0.503   4.192  13.613  3.2025  1.5186 -1.0228
 7175SOL    HW232988   0.478   4.273  13.738  0.7585  0.9307 -0.6470
 7176SOL     OW32989   0.255   4.524   4.654  1.0325 -0.0483  0.3441
 7176SOL    HW132990   0.271   4.610   4.692  1.6620 -0.2590  0.5508
 7176SOL    HW232991   0.278   4.462   4.723  1.9278  0.3797  0.4339
 7177SOL     OW32992   1.881   4.390   3.559  0.0653  0.1802 -0.5978
 7177SOL    HW132993   1.976   4.392   3.561  0.0361 -0.2708  1.3297
 7177SOL    HW232994   1.865   4.375   3.465  1.6921 -2.0239 -0.5149
 7178SOL     OW32995   0.022   3.557   3.124 -0.0288 -0.4087 -0.1772
 7178SOL    HW132996   0.107   3.530   3.091  1.6775  2.0076  2.2970
 7178SOL    HW232997   4.706   3.608   3.052 -1.7664 -0.7098  0.4694
 7179SOL     OW32998   0.607   3.352   2.746  0.2681  0.0919  0.2261
 7179SOL    HW132999   0.600   3.355   2.650  0.1467  1.2429  0.2628
 7179SOL    HW233000   0.576   3.439   2.772 -0.8229 -0.3931  0.5428
 7180SOL     OW33001   4.489   3.339  11.530 -0.1746  0.1898 -0.6857
 7180SOL    HW133002   4.564   3.339  11.471 -0.5073  0.7946 -1.1075
 7180SOL    HW233003   4.531   3.346  11.616 -2.5706  2.4490  0.3064
 7181SOL     OW33004   1.389   2.096  16.138  0.3461  0.2775 -0.4770
 7181SOL    HW133005   1.470   2.047  16.145 -0.0644 -0.0545  2.1066
 7181SOL    HW233006   1.438   2.175  16.118  0.2246  0.2872 -0.7302
 7182SOL     OW33007   4.277   2.804  11.841  0.6395 -0.7191  0.0361
 7182SOL    HW133008   4.209   2.737  11.849 -1.0941  1.0233  0.0411
 7182SOL    HW233009   4.263   2.866  11.913 -2.5335 -1.0201 -0.3116
 7183SOL     OW33010   2.725   4.205   8.669 -0.2293 -0.6960  0.1769
 7183SOL    HW133011   2.664   4.202   8.743 -0.7135 -1.5373 -0.2493
 7183SOL    HW233012   2.725   4.300   8.654 -1.6870 -0.5048  1.3924
 7184SOL     OW33013   2.889   2.651   8.094 -0.0470  0.0571  0.5637
 7184SOL    HW133014   2.915   2.581   8.153  3.0604 -1.0118 -2.1409
 7184SOL    HW233015   2.972   2.678   8.055  0.2412 -1.2862  0.2735
 7185SOL     OW33016   0.031   2.845   5.335  0.3215 -1.0135  0.6359
 7185SOL    HW133017   0.017   2.772   5.395 -0.8019 -1.7637 -0.5489
 7185SOL    HW233018   0.038   2.910   5.405 -0.0696  1.9476 -2.0827
 7186SOL     OW33019   3.083   2.333   6.010  1.0605  0.0784  0.3276
 7186SOL    HW133020   3.089   2.418   6.053 -0.4408  0.2254  0.2592
 7186SOL    HW233021   3.071   2.264   6.075  2.2760 -1.2903 -0.9025
 7187SOL     OW33022   3.163   0.953   2.229 -1.0492 -0.3971 -0.0555
 7187SOL    HW133023   3.154   1.047   2.211  0.6487  0.0259  1.3015
 7187SOL    HW233024   3.126   0.947   2.317 -0.3635 -1.9285  0.1299
 7188SOL     OW33025   0.301   2.085   8.004  0.3631  0.5045  0.6257
 7188SOL    HW133026   0.254   2.021   8.057  0.8663  0.1509  0.6554
 7188SOL    HW233027   0.234   2.149   7.981 -0.5884 -0.0841  1.8033
 7189SOL     OW33028   3.739   4.006   7.020 -0.0700 -0.0880  0.1306
 7189SOL    HW133029   3.663   3.974   6.971 -0.0743 -2.0206  1.3750
 7189SOL    HW233030   3.737   4.101   7.032  1.0943 -0.2934  2.1208
 7190SOL     OW33031   0.731   0.167  14.807  0.0861  0.6288 -0.0771
 7190SOL    HW133032   0.816   0.130  14.784 -0.5347 -0.6029 -0.3865
 7190SOL    HW233033   0.686   0.112  14.743  0.2672  0.6765 -0.2439
 7191SOL     OW33034   3.726   1.400   5.126  0.4277  0.2399  0.8178
 7191SOL    HW133035   3.649   1.420   5.074 -0.2272  1.5467  2.3060
 7191SOL    HW233036   3.778   1.479   5.112  0.9333 -0.4561 -1.2694
 7192SOL     OW33037   1.644   2.223  16.320  0.1162 -0.0369 -0.0838
 7192SOL    HW133038   1.628   2.148  16.378  0.5084 -0.3177 -0.3406
 7192SOL    HW233039   1.641   2.180  16.235 -3.6737 -0.9959  0.5182
 7193SOL     OW33040   3.472   3.311   5.286  0.2117  0.1467 -0.3187
 7193SOL    HW133041   3.555   3.325   5.240  0.9870  1.5335  1.5219
 7193SOL    HW233042   3.441   3.229   5.247 -2.7107  0.8781  0.4767
 7194SOL     OW33043   3.367   3.611   3.560  0.3398  0.1760  0.8165
 7194SOL    HW133044   3.334   3.546   3.499 -0.8749  2.4581 -0.9194
 7194SOL    HW233045   3.284   3.645   3.592  1.3056  2.4285  0.9674
 7195SOL     OW33046   0.910   3.300   0.814 -0.1492 -0.5383 -0.2298
 7195SOL    HW133047   0.821   3.267   0.798 -0.5896 -0.4348  1.9920
 7195SOL    HW233048   0.897   3.392   0.837  1.0965 -0.6035  0.7511
 7196SOL     OW33049   2.489   2.317   3.414 -0.2452  0.7204 -0.0698
 7196SOL    HW133050   2.515   2.226   3.424 -0.5875  0.6858  0.5340
 7196SOL    HW233051   2.412   2.309   3.356  0.7110  0.7579 -1.3410
 7197SOL     OW33052   0.628   0.846  13.273 -0.2243 -0.1110  0.2228
 7197SOL    HW133053   0.620   0.938  13.249 -1.8758 -0.1369  0.6889
 7197SOL    HW233054   0.537   0.816  13.277 -0.3761  0.3366  0.0962
 7198SOL     OW33055   3.501   4.604   3.066 -0.2646 -0.0977  0.0215
 7198SOL    HW133056   3.583   4.583   3.110  0.0379  1.4953  0.2369
 7198SOL    HW233057   3.523   4.591   2.974  0.5683 -2.7212  0.6052
 7199SOL     OW33058   4.233   4.229   7.950  0.2650 -0.1744 -0.1770
 7199SOL    HW133059   4.268   4.211   7.863  1.8323 -1.1033  0.6470
 7199SOL    HW233060   4.145   4.263   7.932  0.1789 -1.3735 -2.0360
 7200SOL     OW33061   3.935   1.190   3.817  0.2854 -0.1656  0.1171
 7200SOL    HW133062   3.916   1.108   3.862 -1.6597  0.9752  1.3774
 7200SOL    HW233063   3.933   1.160   3.727  0.4035  0.7932 -0.2056
 7201SOL     OW33064   1.182   2.641  11.648  0.4979  0.1180  0.2749
 7201SOL    HW133065   1.162   2.645  11.742 -0.4426 -4.2858  0.2465
 7201SOL    HW233066   1.228   2.557  11.651  0.7905  0.1654 -2.6667
 7202SOL     OW33067   3.310   3.336  16.298 -0.3262 -0.6193  0.2135
 7202SOL    HW133068   3.230   3.341  16.247 -1.4000 -2.3420  1.7386
 7202SOL    HW233069   3.309   3.240  16.304 -1.1720 -0.6593 -0.7068
 7203SOL     OW33070   3.751   0.827   5.145 -0.1039 -0.1371  0.5789
 7203SOL    HW133071   3.725   0.747   5.100 -2.1743  1.0036 -0.2478
 7203SOL    HW233072   3.734   0.893   5.078 -3.3633 -1.6399 -0.0916
 7204SOL     OW33073   3.295   4.117   6.207 -0.4822 -0.3310 -0.1704
 7204SOL    HW133074   3.299   4.076   6.293  0.8664 -1.1753 -0.6390
 7204SOL    HW233075   3.334   4.047   6.154 -0.4133  0.0438 -0.6234
 7205SOL     OW33076   3.958   0.681   7.398  0.1288 -0.0883 -0.2961
 7205SOL    HW133077   3.900   0.718   7.464 -0.7615 -0.9823 -0.5789
 7205SOL    HW233078   4.011   0.758   7.377  0.2730 -0.9193 -2.9720
 7206SOL     OW33079   0.644   2.433   2.959 -0.1186 -0.2054 -0.2946
 7206SOL    HW133080   0.616   2.401   3.045 -0.9423  1.7307  0.1528
 7206SOL    HW233081   0.606   2.520   2.963  0.6455  0.1138  0.1133
 7207SOL     OW33082   1.991   3.763   5.644 -0.3912  0.0029 -0.4752
 7207SOL    HW133083   2.069   3.766   5.700  0.3853  2.1355 -1.7167
 7207SOL    HW233084   2.023   3.761   5.554 -3.6446 -2.3980 -1.6147
 7208SOL     OW33085   0.250   0.100   5.068 -0.1908  0.2728  0.0954
 7208SOL    HW133086   0.162   0.120   5.037 -0.7590  0.1611  1.6559
 7208SOL    HW233087   0.233   0.031   5.132 -1.9615  2.0262  1.5082
 7209SOL     OW33088   1.127   2.331  11.544  0.5336  0.4556 -0.1720
 7209SOL    HW133089   1.195   2.344  11.610 -0.3497 -1.0661  1.0382
 7209SOL    HW233090   1.053   2.370  11.590  0.9659  1.6290 -0.4814
 7210SOL     OW33091   3.189   3.267  15.409 -0.3400  0.5367 -0.8451
 7210SOL    HW133092   3.190   3.350  15.456 -0.2056  1.3028 -2.2202
 7210SOL    HW233093   3.127   3.222  15.466  1.8616 -1.1619  0.2008
 7211SOL     OW33094   2.378   1.254  13.380 -0.0279 -0.3524 -0.1481
 7211SOL    HW133095   2.439   1.311  13.333  1.0742 -1.3851  0.0276
 7211SOL    HW233096   2.300   1.253  13.326  0.1574 -1.6626 -0.3868
 7212SOL     OW33097   0.961   3.975   3.572 -0.1333 -0.1409  0.2712
 7212SOL    HW133098   0.881   3.965   3.520 -1.0029  1.4320  1.3386
 7212SOL    HW233099   0.939   3.923   3.649 -0.2279  1.0344  1.0326
 7213SOL     OW33100   0.879   4.034  15.001  0.0169 -0.1978  0.1846
 7213SOL    HW133101   0.959   4.084  15.012  0.4799 -0.7539 -0.6712
 7213SOL    HW233102   0.812   4.102  15.012  0.8192  0.7688 -0.9656
 7214SOL     OW33103   0.460   1.608  14.433 -0.4519 -0.2421 -0.2827
 7214SOL    HW133104   0.403   1.680  14.404 -2.6143 -0.8064  2.5729
 7214SOL    HW233105   0.406   1.533  14.407 -3.4423  1.7827  0.0135
 7215SOL     OW33106   1.441   0.362   3.942  0.1832  0.2575 -0.0032
 7215SOL    HW133107   1.504   0.290   3.942 -1.1072 -0.8562 -0.5998
 7215SOL    HW233108   1.366   0.323   3.986  0.3491 -0.3369 -0.2522
 7216SOL     OW33109   0.697   4.395   7.465  0.0103  0.1707  0.1339
 7216SOL    HW133110   0.640   4.399   7.388 -1.7376  2.0344  1.5067
 7216SOL    HW233111   0.732   4.309   7.445  1.8623  0.1023  3.5998
 7217SOL     OW33112   4.541   3.160   5.361  0.1732 -0.0131  0.2752
 7217SOL    HW133113   4.547   3.252   5.336  1.4223 -0.7998 -2.2990
 7217SOL    HW233114   4.520   3.119   5.278 -0.2698 -0.7285  0.7390
 7218SOL     OW33115   0.566   1.663  13.159 -0.4963  0.1208  0.6014
 7218SOL    HW133116   0.610   1.669  13.243  0.0267  0.6969  0.2874
 7218SOL    HW233117   0.601   1.735  13.106 -1.6675  0.1135 -0.1777
 7219SOL     OW33118   2.963   2.076   2.152 -0.0474  0.1919 -0.0491
 7219SOL    HW133119   3.030   2.027   2.200  2.3188  3.5878  0.1237
 7219SOL    HW233120   2.914   2.002   2.116  1.2101  0.3658 -2.0768
 7220SOL     OW33121   4.403   0.623   3.096  0.1465  0.7484 -0.0376
 7220SOL    HW133122   4.455   0.605   3.175  0.7110  0.5360 -0.4524
 7220SOL    HW233123   4.421   0.714   3.073  0.5590  0.5844 -0.3733
 7221SOL     OW33124   2.852   4.211  10.240 -0.1293  0.3280 -0.1065
 7221SOL    HW133125   2.839   4.245  10.329  1.0165  2.5326 -0.7910
 7221SOL    HW233126   2.798   4.263  10.181  1.9919  1.8282 -0.6808
 7222SOL     OW33127   4.240   4.625   8.722  0.5403 -0.5609  0.1692
 7222SOL    HW133128   4.279   4.704   8.683  0.8486 -0.7314  0.1326
 7222SOL    HW233129   4.205   4.576   8.648 -0.2818  1.7306 -0.9592
 7223SOL     OW33130   4.585   4.610   6.171  0.4240  0.2645  0.0785
 7223SOL    HW133131   4.554   4.617   6.261 -1.1399  1.4710 -0.5505
 7223SOL    HW233132   4.675   4.639   6.187  1.0632 -2.6795  1.7636
 7224SOL     OW33133   0.532   2.263   2.550  0.1960 -0.6156  0.4151
 7224SOL    HW133134   0.544   2.358   2.547  0.6947 -0.6747  0.5518
 7224SOL    HW233135   0.520   2.248   2.456  0.6321  0.5329  0.1737
 7225SOL     OW33136   3.499   2.239   7.110  0.0182  0.3439 -0.0265
 7225SOL    HW133137   3.574   2.282   7.150  0.1758  0.7532 -0.7701
 7225SOL    HW233138   3.533   2.223   7.022  1.5721  0.7202  0.5089
 7226SOL     OW33139   2.865   4.300   5.213 -0.5760  0.4638  0.1854
 7226SOL    HW133140   2.816   4.225   5.182  0.2088 -0.0944  0.3010
 7226SOL    HW233141   2.803   4.360   5.255 -0.8268  0.8078 -0.6735
 7227SOL     OW33142   2.949   4.595   5.269  0.4418  0.2212  0.6488
 7227SOL    HW133143   2.940   4.652   5.346  0.5538  0.8922  0.1623
 7227SOL    HW233144   2.918   4.645   5.194  3.2765 -0.3111 -0.8609
 7228SOL     OW33145   2.295   2.255   2.213 -0.2634 -0.3589  0.3983
 7228SOL    HW133146   2.370   2.306   2.243 -0.0695  0.1285 -0.9126
 7228SOL    HW233147   2.224   2.287   2.268  0.3232  0.3213  0.7596
 7229SOL     OW33148   4.005   4.157   5.016  0.4487 -0.6449  0.5133
 7229SOL    HW133149   3.947   4.096   5.061 -1.1185  0.9015  0.6323
 7229SOL    HW233150   3.947   4.230   4.992 -2.1113 -2.1696  2.1336
 7230SOL     OW33151   3.537   4.386   4.979  0.2444  0.1236 -0.0639
 7230SOL    HW133152   3.535   4.372   4.884 -2.4334  1.3945 -0.1674
 7230SOL    HW233153   3.455   4.343   5.003  0.6923 -1.1553 -0.8044
 7231SOL     OW33154   1.157   3.128  14.354  0.4889  0.0572  0.2053
 7231SOL    HW133155   1.143   3.223  14.353 -3.8651 -0.5842 -0.4051
 7231SOL    HW233156   1.125   3.102  14.267 -3.1600 -1.5279  1.9928
 7232SOL     OW33157   1.258   0.641   4.474  0.0033  0.7720  0.5475
 7232SOL    HW133158   1.349   0.664   4.491  0.5958 -0.9158 -0.4210
 7232SOL    HW233159   1.247   0.715   4.415  0.8244  2.9247  3.0894
 7233SOL     OW33160   1.336   3.471   6.216  0.5482 -0.3112  0.0671
 7233SOL    HW133161   1.337   3.523   6.136 -2.2485 -1.0184 -0.4138
 7233SOL    HW233162   1.315   3.532   6.287  0.6336  0.3017 -0.4311
 7234SOL     OW33163   0.861   2.955   8.406  0.4641 -0.0006 -0.0631
 7234SOL    HW133164   0.910   2.875   8.387  1.1027  0.3941 -0.0591
 7234SOL    HW233165   0.790   2.949   8.342  0.7415  2.4846 -0.6031
 7235SOL     OW33166   3.896   1.799   7.985  0.5936 -0.2887 -0.1836
 7235SOL    HW133167   3.865   1.713   8.013 -0.7469 -0.0711 -1.0031
 7235SOL    HW233168   3.888   1.854   8.063 -0.9813 -2.2097  0.9889
 7236SOL     OW33169   1.969   0.919  10.786 -0.0278  0.2024 -0.5389
 7236SOL    HW133170   1.997   0.919  10.694  2.3109  1.8096  0.1835
 7236SOL    HW233171   1.879   0.888  10.772  0.1026  0.0127 -0.9519
 7237SOL     OW33172   3.348   0.504   2.225  0.3741  0.3057 -0.1130
 7237SOL    HW133173   3.354   0.435   2.291 -1.2630 -2.3394 -2.7224
 7237SOL    HW233174   3.273   0.560   2.249 -0.4596 -0.1275 -1.7166
 7238SOL     OW33175   1.151   2.514  16.117  0.4458  0.1178 -0.0326
 7238SOL    HW133176   1.215   2.491  16.185 -0.1811 -0.2189  0.4430
 7238SOL    HW233177   1.177   2.454  16.046  2.1269 -0.0276  0.7059
 7239SOL     OW33178   1.671   3.247   6.596  0.2531 -0.9352 -0.1036
 7239SOL    HW133179   1.636   3.224   6.682 -3.0557  0.0185 -1.1912
 7239SOL    HW233180   1.619   3.327   6.586  2.4529  0.6145  1.0033
 7240SOL     OW33181   0.602   2.497  11.144  0.0816  0.2595 -0.1308
 7240SOL    HW133182   0.643   2.582  11.156 -0.9617  0.5510  1.5186
 7240SOL    HW233183   0.515   2.516  11.181 -0.2117 -1.5359  0.1039
 7241SOL     OW33184   0.294   1.189   5.948 -0.4620 -0.8047  0.0545
 7241SOL    HW133185   0.342   1.112   5.979  0.7665  1.2693  3.3420
 7241SOL    HW233186   0.288   1.245   6.025  0.1788 -1.8277  0.8608
 7242SOL     OW33187   2.291   2.760   5.362  0.0381 -0.6598 -0.3213
 7242SOL    HW133188   2.291   2.792   5.271 -1.8868 -2.8245 -1.0636
 7242SOL    HW233189   2.384   2.769   5.386  0.0261 -0.1903 -0.4377
 7243SOL     OW33190   2.105   1.491   6.222 -0.1201 -0.1239 -0.4433
 7243SOL    HW133191   2.195   1.476   6.193 -0.6284 -2.4713 -0.8155
 7243SOL    HW233192   2.109   1.494   6.317  0.0912 -0.6315 -0.4397
 7244SOL     OW33193   2.208   1.291   3.308  0.1826 -0.1475  0.0104
 7244SOL    HW133194   2.291   1.244   3.306 -0.1232 -0.6748 -0.4469
 7244SOL    HW233195   2.191   1.306   3.401  1.3337 -0.2088  0.2317
 7245SOL     OW33196   4.404   0.643   9.108 -0.2182 -0.2853  0.5187
 7245SOL    HW133197   4.451   0.725   9.090  1.0743 -0.7664  1.6655
 7245SOL    HW233198   4.342   0.643   9.035  1.1646  0.8070 -0.6573
 7246SOL     OW33199   1.889   1.915   8.812 -0.2252 -0.1384  0.1313
 7246SOL    HW133200   1.919   1.824   8.811  2.3198  0.6976  0.4040
 7246SOL    HW233201   1.881   1.936   8.905  0.1479  0.2403  0.0777
 7247SOL     OW33202   3.255   0.783   6.013 -0.2324  0.4957  0.6396
 7247SOL    HW133203   3.199   0.727   5.958  1.0216 -0.1852  0.0563
 7247SOL    HW233204   3.203   0.806   6.090  1.6478  1.4356  1.6220
 7248SOL     OW33205   2.438   4.318   5.649 -0.3277  0.8535 -0.7453
 7248SOL    HW133206   2.373   4.264   5.604 -0.5945  0.3005  0.3040
 7248SOL    HW233207   2.399   4.405   5.642 -0.2818  0.9046 -0.3650
 7249SOL     OW33208   1.944   1.099   3.067 -0.1240  0.1165  0.3904
 7249SOL    HW133209   2.009   1.084   3.135 -0.9383 -0.2999  1.0870
 7249SOL    HW233210   1.888   1.021   3.070 -1.9557  1.4009 -0.2702
 7250SOL     OW33211   0.277   4.698   4.270 -0.5216  0.3300 -0.0814
 7250SOL    HW133212   0.305   0.043   4.335 -0.5269 -1.5584  1.8151
 7250SOL    HW233213   0.183   4.708   4.280 -0.1571  2.5816  1.2489
 7251SOL     OW33214   3.075   2.307  16.830  0.3194 -0.8145  0.5642
 7251SOL    HW133215   3.116   2.324  16.745 -0.3274  1.3041  0.6900
 7251SOL    HW233216   3.119   2.379  16.877 -0.8279  0.2444 -0.0030
 7252SOL     OW33217   1.342   3.501   5.290  0.2124  0.1437  0.4410
 7252SOL    HW133218   1.391   3.559   5.231  1.2326  0.0066  1.1565
 7252SOL    HW233219   1.413   3.443   5.318  0.7205  1.1602  1.2698
 7253SOL     OW33220   4.374   2.113   8.776  0.3053  0.2679  0.4251
 7253SOL    HW133221   4.294   2.122   8.725 -0.4302 -2.2333  1.1261
 7253SOL    HW233222   4.338   2.084   8.859  1.3952  0.3048  0.9166
 7254SOL     OW33223   3.348   4.264   4.197  0.1746  0.1014  0.6318
 7254SOL    HW133224   3.386   4.326   4.260 -0.9448 -0.7706  2.1799
 7254SOL    HW233225   3.410   4.269   4.125 -1.7813  0.4008 -1.0276
 7255SOL     OW33226   2.385   3.000   5.817  0.2773 -0.3598 -0.3797
 7255SOL    HW133227   2.451   2.931   5.812  0.3606 -0.4231  1.9842
 7255SOL    HW233228   2.425   3.060   5.880 -0.0582  1.4467 -1.9008
 7256SOL     OW33229   2.786   2.257   5.909 -0.6138 -0.1006  0.7556
 7256SOL    HW133230   2.827   2.187   5.859 -0.0728 -0.5694  1.8505
 7256SOL    HW233231   2.847   2.292   5.974 -1.5924  1.3709  0.9006
 7257SOL     OW33232   1.837   2.757   7.922 -0.2344 -0.4094  0.3254
 7257SOL    HW133233   1.809   2.799   8.003  2.2359  3.0407 -0.6038
 7257SOL    HW233234   1.892   2.682   7.946 -0.3369  0.1914  2.4359
 7258SOL     OW33235   3.295   3.514   5.183 -0.0333 -0.5271 -0.2942
 7258SOL    HW133236   3.314   3.597   5.227 -1.2282  0.5043 -1.6971
 7258SOL    HW233237   3.370   3.459   5.205 -0.1412 -1.5982 -2.5670
 7259SOL     OW33238   1.250   1.037   6.940  0.1383  0.4826 -0.0384
 7259SOL    HW133239   1.268   1.009   6.850  1.7749  1.9887 -0.1709
 7259SOL    HW233240   1.296   0.964   6.982 -0.0976 -0.5949 -1.6596
 7260SOL     OW33241   4.422   4.161   2.131  0.2401 -0.0656 -0.0371
 7260SOL    HW133242   4.429   4.251   2.161 -1.8312 -0.1728  0.8124
 7260SOL    HW233243   4.370   4.181   2.053 -2.4042 -0.9750  1.4568
 7261SOL     OW33244   0.527   3.908  11.651  0.1289 -0.2879 -0.2390
 7261SOL    HW133245   0.432   3.898  11.654 -0.0630  1.1781 -0.9537
 7261SOL    HW233246   0.524   3.919  11.556  2.6822  1.8065 -0.0886
 7262SOL     OW33247   2.583   0.956   8.321  0.2773 -0.4623  0.3281
 7262SOL    HW133248   2.601   0.898   8.395 -1.5279 -2.2154 -0.6138
 7262SOL    HW233249   2.658   1.014   8.337  0.1881  0.3611 -2.2627
 7263SOL     OW33250   2.602   2.005  11.802 -0.9437  0.2565  0.6843
 7263SOL    HW133251   2.520   2.025  11.757 -1.2431 -2.6185 -0.0468
 7263SOL    HW233252   2.637   2.094  11.800 -0.5142  0.0524 -0.4133
 7264SOL     OW33253   0.006   2.070   2.733  0.2785  0.3494  0.1615
 7264SOL    HW133254   4.704   2.160   2.756  4.2307  1.2052  0.6058
 7264SOL    HW233255   0.037   2.037   2.818  0.9454  1.1339  0.2210
 7265SOL     OW33256   0.260   3.095   4.672 -0.3505  0.4339  0.0496
 7265SOL    HW133257   0.276   3.097   4.577  2.1530  2.9755  0.5555
 7265SOL    HW233258   0.164   3.096   4.679 -0.4085  2.9416 -1.0211
 7266SOL     OW33259   3.093   1.607   3.444 -0.1935  0.3771  0.1427
 7266SOL    HW133260   3.059   1.583   3.531  1.5103  1.9264  1.2356
 7266SOL    HW233261   3.097   1.702   3.451  1.9889  0.1303  2.3986
 7267SOL     OW33262   1.726   4.378   4.960  0.1133 -0.7484  0.5852
 7267SOL    HW133263   1.749   4.443   4.894  0.9987 -2.5101 -0.8422
 7267SOL    HW233264   1.811   4.335   4.958 -0.1309 -1.0990 -1.9117
 7268SOL     OW33265   4.382   3.490   5.571  0.0469  0.0767 -0.1555
 7268SOL    HW133266   4.382   3.517   5.479  1.9857  2.5829  0.5721
 7268SOL    HW233267   4.295   3.528   5.587  0.6839  1.4072  0.1534
 7269SOL     OW33268   3.677   2.072  12.920  0.5839 -0.0928 -0.4203
 7269SOL    HW133269   3.601   2.118  12.883 -0.1625 -1.0077 -0.0223
 7269SOL    HW233270   3.674   2.097  13.012 -1.3548  0.7794 -0.7297
 7270SOL     OW33271   1.929   2.650   8.389  0.1997 -0.2972  0.7280
 7270SOL    HW133272   1.918   2.555   8.389 -0.1353 -0.2559 -2.1610
 7270SOL    HW233273   1.927   2.665   8.484  2.2804  0.4712  0.6450
 7271SOL     OW33274   1.429   1.194   4.343  0.2113  0.2193 -0.3146
 7271SOL    HW133275   1.423   1.151   4.258  1.0729  0.9071 -0.7267
 7271SOL    HW233276   1.490   1.266   4.328  1.5961 -0.3918  2.4251
 7272SOL     OW33277   2.467   4.676  14.688  0.4661 -0.4283 -0.3234
 7272SOL    HW133278   2.386   4.629  14.670 -0.8897  0.8745  2.2727
 7272SOL    HW233279   2.440   0.040  14.650 -0.8045 -0.3531  0.7517
 7273SOL     OW33280   3.675   0.721   7.224 -0.1214  0.1415 -0.6150
 7273SOL    HW133281   3.689   0.627   7.214 -0.8450  0.1314 -1.5728
 7273SOL    HW233282   3.734   0.746   7.153 -0.4594  1.9698 -0.2508
 7274SOL     OW33283   0.611   3.031   7.532 -0.6728 -0.0149 -0.0117
 7274SOL    HW133284   0.628   3.015   7.439  0.7092 -1.4291  0.4885
 7274SOL    HW233285   0.516   3.020   7.538 -0.9520  2.5674  0.3800
 7275SOL     OW33286   2.604   1.348   3.037 -0.0305 -0.1837 -0.4903
 7275SOL    HW133287   2.516   1.312   3.025  0.1062 -0.4767 -0.6143
 7275SOL    HW233288   2.581   1.432   2.997 -0.9921  0.1017  0.6810
 7276SOL     OW33289   3.106   3.592   6.588 -0.1743 -0.1717 -0.3333
 7276SOL    HW133290   3.176   3.544   6.632 -0.0684 -0.0665 -0.3844
 7276SOL    HW233291   3.068   3.515   6.547  1.7407 -1.0423 -0.5089
 7277SOL     OW33292   2.811   2.352   4.707  0.6077 -0.3176 -0.1093
 7277SOL    HW133293   2.806   2.443   4.736 -2.0747 -0.1921 -1.0185
 7277SOL    HW233294   2.846   2.307   4.784  1.2017 -3.5191 -2.2381
 7278SOL     OW33295   2.250   3.778   5.362 -0.2714 -0.1034  0.1334
 7278SOL    HW133296   2.270   3.827   5.442  0.2329  1.2963 -0.8539
 7278SOL    HW233297   2.155   3.784   5.350 -0.4044 -3.0461 -0.0898
 7279SOL     OW33298   2.864   0.785   2.303 -0.1387 -0.5594  0.5237
 7279SOL    HW133299   2.867   0.881   2.306 -1.5790 -0.5826  2.6537
 7279SOL    HW233300   2.809   0.756   2.231 -3.8472  0.0979  3.0417
 7280SOL     OW33301   2.114   1.212   1.658  0.2214  0.5183  0.3318
 7280SOL    HW133302   2.036   1.194   1.710 -0.7356 -0.5885 -1.4879
 7280SOL    HW233303   2.071   1.270   1.596 -0.0413  0.1700  0.1884
 7281SOL     OW33304   1.898   1.215  14.635  0.4678 -0.2693 -0.6190
 7281SOL    HW133305   1.834   1.235  14.567 -1.4107 -1.8375  0.7019
 7281SOL    HW233306   1.846   1.235  14.713  0.4261 -1.6987 -0.2699
 7282SOL     OW33307   0.462   0.044   9.440 -0.1426 -0.0620 -0.3412
 7282SOL    HW133308   0.430   4.680   9.474  1.9024 -0.4751  0.5683
 7282SOL    HW233309   0.541   0.063   9.491 -0.6572  1.6902 -0.1846
 7283SOL     OW33310   1.795   0.597  15.969  0.0507  0.0353  0.2238
 7283SOL    HW133311   1.766   0.594  15.878 -0.1661  1.2171  0.2455
 7283SOL    HW233312   1.785   0.506  15.995  2.6882 -0.1739  0.4203
 7284SOL     OW33313   2.040   1.705   8.906  0.5237  0.3496 -0.4611
 7284SOL    HW133314   2.024   1.612   8.894  2.6180 -0.2249  1.1974
 7284SOL    HW233315   2.011   1.723   8.996  2.1488 -2.0583  0.5380
 7285SOL     OW33316   1.175   2.006   4.973 -0.1691  0.1843  0.2511
 7285SOL    HW133317   1.096   1.957   4.996  0.3532 -1.2127 -0.9500
 7285SOL    HW233318   1.202   2.016   5.065  0.8527  0.6050 -0.0891
 7286SOL     OW33319   0.133   0.261  15.735  0.7716 -0.2808 -0.0349
 7286SOL    HW133320   0.087   0.189  15.693  1.2364 -1.3685  1.3300
 7286SOL    HW233321   0.091   0.341  15.704 -1.1832 -0.8225  1.1893
 7287SOL     OW33322   2.777   4.171   3.421 -0.5212 -0.2347  0.1505
 7287SOL    HW133323   2.808   4.119   3.347 -1.0163 -0.5310  0.1563
 7287SOL    HW233324   2.803   4.259   3.394  0.3071 -0.2406  0.9384
 7288SOL     OW33325   3.376   3.911   6.025  0.4189  0.0853  0.1307
 7288SOL    HW133326   3.369   3.850   6.099  1.7764 -0.2324  0.0074
 7288SOL    HW233327   3.400   3.857   5.950  1.6708  1.8517 -0.7381
 7289SOL     OW33328   3.317   4.155   5.831  0.3520  0.3303  0.0253
 7289SOL    HW133329   3.232   4.129   5.866  0.9274 -3.3391 -1.2422
 7289SOL    HW233330   3.338   4.229   5.888 -1.4747  0.5450  0.4091
 7290SOL     OW33331   3.195   3.012   7.461 -0.0328 -0.0989  0.1059
 7290SOL    HW133332   3.156   2.936   7.504  2.6647  0.0957  2.8251
 7290SOL    HW233333   3.170   3.081   7.523  0.8343 -0.4724  0.8587
 7291SOL     OW33334   0.918   2.059  16.600 -0.1540 -0.1974 -0.0410
 7291SOL    HW133335   0.944   2.011  16.679 -0.5250  1.8807  1.3513
 7291SOL    HW233336   1.002   2.059  16.554  1.4700  0.9103  2.8624
 7292SOL     OW33337   2.375   2.337  13.971  0.0260 -0.1271 -0.2874
 7292SOL    HW133338   2.300   2.327  14.030 -1.2973 -0.7678 -2.0682
 7292SOL    HW233339   2.352   2.287  13.893  0.0271  2.5175 -1.9832
 7293SOL     OW33340   2.972   3.617   1.284  0.0681 -0.1781  1.0167
 7293SOL    HW133341   2.977   3.525   1.309 -0.5949 -0.7207 -0.8291
 7293SOL    HW233342   3.011   3.614   1.196 -1.4986  0.4940  0.3101
 7294SOL     OW33343   2.807   1.145   7.694  0.5039  0.2029  0.7659
 7294SOL    HW133344   2.850   1.063   7.716 -1.9739 -1.3996 -0.3209
 7294SOL    HW233345   2.875   1.209   7.711  2.7725 -2.3083  1.0906
 7295SOL     OW33346   0.713   3.535   2.311 -0.6267  0.4948 -0.1271
 7295SOL    HW133347   0.740   3.613   2.359 -2.1594  0.6291  0.5193
 7295SOL    HW233348   0.619   3.537   2.328 -0.4122  1.4247  0.9336
 7296SOL     OW33349   4.631   3.855   7.666  0.5224 -0.0989  0.0869
 7296SOL    HW133350   0.007   3.852   7.659  0.5961  1.9793  0.4185
 7296SOL    HW233351   4.604   3.810   7.746  0.7263 -1.0201 -0.3521
 7297SOL     OW33352   4.614   1.697   4.402  0.4361  0.1870 -0.3104
 7297SOL    HW133353   4.700   1.706   4.443  0.6281  0.6647 -0.8285
 7297SOL    HW233354   4.577   1.625   4.454 -2.6308  0.7938 -1.6973
 7298SOL     OW33355   1.992   2.296  10.861  0.3201 -0.2442  0.4119
 7298SOL    HW133356   2.004   2.319  10.953  1.1532  2.1446 -0.2922
 7298SOL    HW233357   1.928   2.364  10.838  1.6465  1.5904  2.1895
 7299SOL     OW33358   1.158   3.907  14.419 -0.2389  0.3728 -0.0009
 7299SOL    HW133359   1.238   3.958  14.400  1.0417 -0.8763  2.0303
 7299SOL    HW233360   1.092   3.974  14.405 -0.8473  0.4349  3.1759
 7300SOL     OW33361   0.926   2.254   6.612 -0.2016  0.0181 -0.4841
 7300SOL    HW133362   0.881   2.171   6.594  0.2762 -0.7785  2.0222
 7300SOL    HW233363   0.998   2.239   6.550  0.3249 -1.9431  0.5913
 7301SOL     OW33364   1.980   0.325   2.256  0.0688 -0.4221  0.0064
 7301SOL    HW133365   1.948   0.409   2.289  1.0661  0.1153 -0.3795
 7301SOL    HW233366   1.980   0.341   2.161  0.2333 -2.2002 -0.2919
 7302SOL     OW33367   3.716   3.030   6.584 -0.4550  0.1134  0.4300
 7302SOL    HW133368   3.789   3.007   6.641  0.9391  0.3196 -1.2670
 7302SOL    HW233369   3.759   3.062   6.504 -2.5871  2.4696  0.2252
 7303SOL     OW33370   0.085   1.960   6.095 -0.3239  0.1029 -0.1318
 7303SOL    HW133371   0.092   1.960   5.999 -1.0317 -3.5840 -0.1890
 7303SOL    HW233372   0.097   2.053   6.110 -1.1491  0.3990 -1.3094
 7304SOL     OW33373   3.482   0.213   9.747 -0.2169 -0.3040 -0.7747
 7304SOL    HW133374   3.530   0.141   9.707  0.1623  0.8138 -2.3610
 7304SOL    HW233375   3.533   0.242   9.823 -0.5515  0.9993 -1.0389
 7305SOL     OW33376   4.045   2.887   2.198  0.0170 -0.1328 -0.2060
 7305SOL    HW133377   3.980   2.920   2.136  0.2755  1.2266  0.2325
 7305SOL    HW233378   4.026   2.795   2.184  1.7184 -0.6186  0.6651
 7306SOL     OW33379   1.314   1.320   8.802  0.0451 -0.2821 -0.2196
 7306SOL    HW133380   1.398   1.303   8.759 -0.2698 -4.2094  0.7631
 7306SOL    HW233381   1.340   1.309   8.894  0.5855 -1.0240 -0.4687
 7307SOL     OW33382   0.224   4.083   8.772 -0.7134  0.5180  0.2607
 7307SOL    HW133383   0.308   4.129   8.772  0.1983 -1.1391 -0.1730
 7307SOL    HW233384   0.163   4.149   8.807  1.1643  2.2261  0.3153
 7308SOL     OW33385   3.174   2.955   6.185 -0.2825  0.4094  0.1364
 7308SOL    HW133386   3.089   2.932   6.222 -0.3611 -0.3296 -0.5182
 7308SOL    HW233387   3.203   2.867   6.160 -2.0045  0.0693 -0.6806
 7309SOL     OW33388   4.058   0.113  10.182  0.2587  0.0594  0.5142
 7309SOL    HW133389   4.042   0.108  10.277  2.9031 -0.8654  0.9159
 7309SOL    HW233390   4.063   0.018  10.171  1.1373  0.0449  1.0689
 7310SOL     OW33391   4.510   4.114  15.297  0.0427  0.4001  0.1720
 7310SOL    HW133392   4.440   4.095  15.235  0.2791  0.9300 -0.2532
 7310SOL    HW233393   4.579   4.064  15.252  0.3414 -0.1435  1.2192
 7311SOL     OW33394   0.349   1.559   2.218 -0.1683  0.2364 -0.3996
 7311SOL    HW133395   0.380   1.540   2.130  0.0686 -0.1312 -0.2387
 7311SOL    HW233396   0.302   1.477   2.230 -0.6111  0.4185 -0.9060
 7312SOL     OW33397   4.600   4.448   7.023 -0.1005  0.2338  0.4182
 7312SOL    HW133398   4.530   4.446   6.957  1.3167 -1.4418 -1.0023
 7312SOL    HW233399   4.559   4.452   7.109 -0.0390  0.3133  0.4447
 7313SOL     OW33400   2.874   4.665   9.670 -0.1492 -0.1814 -0.3643
 7313SOL    HW133401   2.887   4.719   9.592  1.1156  0.4117  0.2495
 7313SOL    HW233402   2.857   4.582   9.624  2.0241 -1.2614  0.7701
 7314SOL     OW33403   4.229   2.583   7.958  0.0327 -0.3003 -0.6130
 7314SOL    HW133404   4.245   2.642   7.884  2.4218 -1.6727 -1.2029
 7314SOL    HW233405   4.311   2.577   8.008  0.8974  2.5252 -1.7279
 7315SOL     OW33406   0.292   1.355   6.573 -0.5675  0.4102 -0.3906
 7315SOL    HW133407   0.329   1.399   6.496 -1.0549  1.7443  0.1341
 7315SOL    HW233408   0.217   1.301   6.547 -1.0570 -0.5271  2.9827
 7316SOL     OW33409   3.627   2.186   9.978 -0.3567 -0.1163  0.2151
 7316SOL    HW133410   3.591   2.111   9.930  0.8493 -0.6240  0.1069
 7316SOL    HW233411   3.654   2.132  10.052  2.2872  1.0244  0.1068
 7317SOL     OW33412   2.355   1.267   4.727  0.1365 -0.9192 -0.5854
 7317SOL    HW133413   2.369   1.206   4.799  0.6922 -1.1898 -0.9285
 7317SOL    HW233414   2.272   1.306   4.757  1.5621  1.1553  0.6553
 7318SOL     OW33415   4.154   1.945   8.422 -0.1168 -0.1579  0.3529
 7318SOL    HW133416   4.152   1.929   8.327  0.8224 -2.5762  0.7385
 7318SOL    HW233417   4.219   1.883   8.454 -0.4279 -0.5671  0.1798
 7319SOL     OW33418   1.823   0.672  16.334 -0.6887  0.2088  0.1851
 7319SOL    HW133419   1.812   0.577  16.348  1.8664 -0.6238 -3.3950
 7319SOL    HW233420   1.737   0.703  16.361 -0.6318  0.2697  0.2962
 7320SOL     OW33421   2.371   0.211   4.197  0.7165  0.0628  0.4344
 7320SOL    HW133422   2.371   0.285   4.137 -0.0438 -0.9020 -0.7329
 7320SOL    HW233423   2.324   0.250   4.271  1.5873 -0.1409  1.1090
 7321SOL     OW33424   3.427   0.538  13.570 -0.5642  0.0630  0.1839
 7321SOL    HW133425   3.391   0.462  13.615 -1.0474 -0.4038 -0.9888
 7321SOL    HW233426   3.427   0.588  13.652  0.4098 -1.8926  1.3850
 7322SOL     OW33427   1.551   2.248   5.025 -0.5384  0.0316 -0.5597
 7322SOL    HW133428   1.517   2.306   4.956 -0.3406  2.0073  1.0167
 7322SOL    HW233429   1.576   2.170   4.974  0.2807  0.6875 -1.1676
 7323SOL     OW33430   1.615   4.510   6.413  0.3348 -0.1396  0.1110
 7323SOL    HW133431   1.533   4.556   6.431 -0.5013 -0.9665 -1.6010
 7323SOL    HW233432   1.662   4.523   6.495  0.7559  0.0915 -0.1626
 7324SOL     OW33433   3.584   1.314   2.254  0.4190 -0.2727  0.7339
 7324SOL    HW133434   3.492   1.311   2.229  0.6511  2.9726 -0.5554
 7324SOL    HW233435   3.597   1.223   2.279  1.5741 -0.4982 -0.6724
 7325SOL     OW33436   0.585   3.674   8.617  0.4372 -0.0108  0.1705
 7325SOL    HW133437   0.564   3.743   8.554 -1.9456 -0.6577  0.2640
 7325SOL    HW233438   0.502   3.677   8.664  0.1619 -0.7442 -0.2555
 7326SOL     OW33439   2.928   3.648   4.921 -0.1313 -0.0337  0.3736
 7326SOL    HW133440   2.993   3.719   4.922  0.3964 -0.5154 -0.4440
 7326SOL    HW233441   2.905   3.632   5.013  1.0780  0.7352  0.8100
 7327SOL     OW33442   1.892   1.343   8.422 -0.3788  0.0292  0.3636
 7327SOL    HW133443   1.975   1.296   8.410  0.3892  1.1957  1.1280
 7327SOL    HW233444   1.912   1.413   8.360 -3.4719  1.4510  1.0055
 7328SOL     OW33445   0.184   0.997   1.755 -0.9836 -0.0035 -0.2557
 7328SOL    HW133446   0.200   0.945   1.676 -0.1864 -1.6685  0.9950
 7328SOL    HW233447   0.169   0.930   1.821  0.6554 -0.9977 -0.8796
 7329SOL     OW33448   4.509   1.566   5.519 -0.3901 -0.3120 -0.1956
 7329SOL    HW133449   4.503   1.475   5.546 -0.6338 -0.3189 -0.2775
 7329SOL    HW233450   4.457   1.606   5.589 -1.5620 -1.9306 -0.1637
 7330SOL     OW33451   3.748   1.303   5.938  0.3847  0.3186  0.1032
 7330SOL    HW133452   3.728   1.214   5.967  1.4479  0.1142  0.2121
 7330SOL    HW233453   3.838   1.316   5.970  0.7353  0.3155 -0.8805
 7331SOL     OW33454   0.723   1.008   5.484  0.1315 -0.0803  0.2318
 7331SOL    HW133455   0.656   1.070   5.513 -0.5639  0.2968 -2.1590
 7331SOL    HW233456   0.790   1.077   5.484 -0.7141  0.7266 -1.6985
 7332SOL     OW33457   3.673   4.285   2.999  0.0366  0.0854  0.9398
 7332SOL    HW133458   3.645   4.285   3.090  0.9450  3.8556  1.1972
 7332SOL    HW233459   3.655   4.197   2.964  2.6867  0.4383 -1.3464
 7333SOL     OW33460   1.689   2.286   8.945  0.7593 -0.0582  0.2155
 7333SOL    HW133461   1.673   2.252   8.857  2.8426  0.0336 -0.2071
 7333SOL    HW233462   1.774   2.249   8.969 -0.1168 -0.6699  2.4319
 7334SOL     OW33463   3.273   3.621   9.235 -0.6587 -0.1157 -0.3289
 7334SOL    HW133464   3.246   3.622   9.143  0.6017  2.4912 -0.6955
 7334SOL    HW233465   3.208   3.684   9.267  0.4649  2.0814 -2.3250
 7335SOL     OW33466   4.248   2.555   8.256  0.2950  0.1791 -0.0675
 7335SOL    HW133467   4.218   2.625   8.314 -0.8868 -0.8340  0.5415
 7335SOL    HW233468   4.183   2.568   8.187  0.1294  1.2715  0.3005
 7336SOL     OW33469   1.525   2.727   3.162  0.1684 -0.8609  0.2859
 7336SOL    HW133470   1.458   2.725   3.230  1.4918 -3.4073  1.5326
 7336SOL    HW233471   1.550   2.819   3.164  0.3472 -0.8871 -0.7015
 7337SOL     OW33472   1.354   4.237  14.479 -0.2223  0.2456  0.1638
 7337SOL    HW133473   1.297   4.295  14.528  1.0669  0.1871  1.7386
 7337SOL    HW233474   1.325   4.259  14.390  0.3318 -0.3723 -0.1725
 7338SOL     OW33475   0.365   1.129   3.191 -0.1118  0.0217  0.1950
 7338SOL    HW133476   0.315   1.065   3.141 -1.2930  0.4697  0.7944
 7338SOL    HW233477   0.434   1.161   3.133 -0.0630  0.1495  0.3237
 7339SOL     OW33478   3.911   0.422   7.810  0.4165 -0.5493  0.8202
 7339SOL    HW133479   3.921   0.397   7.902 -0.0340 -0.3424  0.9258
 7339SOL    HW233480   3.874   0.342   7.774  0.6719 -0.5022  0.4613
 7340SOL     OW33481   1.712   2.380   7.807 -0.1161  0.0641 -0.0057
 7340SOL    HW133482   1.775   2.427   7.862 -0.4525  0.8299 -0.2740
 7340SOL    HW233483   1.664   2.342   7.880  0.2320 -1.5354 -0.5924
 7341SOL     OW33484   1.944   1.933   2.701  0.1754  0.6111 -0.4995
 7341SOL    HW133485   1.859   1.935   2.656 -0.3715  1.5219  0.5957
 7341SOL    HW233486   1.929   1.999   2.768 -2.1571  2.9196 -3.2746
 7342SOL     OW33487   3.171   0.926   5.322 -0.8064 -0.3243 -0.0090
 7342SOL    HW133488   3.089   0.944   5.368  0.3167  1.6006  1.2788
 7342SOL    HW233489   3.219   0.864   5.377  1.1402 -1.5922 -3.1178
 7343SOL     OW33490   0.212   0.840   6.160 -0.0148 -0.2077 -0.0113
 7343SOL    HW133491   0.200   0.796   6.244  0.6868 -1.7213 -0.7200
 7343SOL    HW233492   0.228   0.760   6.111 -0.1022 -0.4424  0.3400
 7344SOL     OW33493   0.648   2.804  16.792 -0.0841 -0.2725  0.2485
 7344SOL    HW133494   0.678   2.817  16.882  0.3523  0.2631  0.0271
 7344SOL    HW233495   0.556   2.781  16.800 -0.0362 -0.7226 -0.4708
 7345SOL     OW33496   1.047   4.583   6.745  0.2968 -0.0231  0.5120
 7345SOL    HW133497   1.125   4.562   6.797  1.6086  0.2917 -1.2933
 7345SOL    HW233498   1.052   4.506   6.687  4.4112  0.2071  0.5604
 7346SOL     OW33499   0.926   2.538   8.917  0.7300  0.7220 -0.3492
 7346SOL    HW133500   0.876   2.456   8.923 -0.1845  1.2923 -0.2664
 7346SOL    HW233501   0.921   2.566   9.008  2.0736 -0.0436 -0.0296
 7347SOL     OW33502   2.831   2.629  10.739 -0.0789  0.1605 -0.3392
 7347SOL    HW133503   2.914   2.659  10.774 -1.8675  0.1848  3.8087
 7347SOL    HW233504   2.823   2.539  10.771 -2.1528 -0.2276 -1.8885
 7348SOL     OW33505   1.984   1.759   4.128 -0.3519 -0.1392  0.5257
 7348SOL    HW133506   1.974   1.762   4.033 -1.1012  0.5392  0.6219
 7348SOL    HW233507   1.934   1.678   4.134 -1.9835  0.7495 -0.9238
 7349SOL     OW33508   0.608   0.163  13.727  0.2899 -0.4038 -0.0983
 7349SOL    HW133509   0.538   0.160  13.793 -0.4363  1.3036 -0.7840
 7349SOL    HW233510   0.633   0.255  13.727 -2.2759  0.2845 -1.3781
 7350SOL     OW33511   3.275   1.517   8.391 -0.2230  0.8729 -0.1687
 7350SOL    HW133512   3.360   1.520   8.434 -0.2316  2.6983 -0.2957
 7350SOL    HW233513   3.216   1.507   8.466  0.5859 -0.9511  0.2384
 7351SOL     OW33514   1.038   1.689  11.788  0.2486 -0.5927 -0.1942
 7351SOL    HW133515   1.107   1.716  11.727  0.1009  1.8673  0.7242
 7351SOL    HW233516   1.037   1.770  11.839 -1.0756 -0.8767  0.2155
 7352SOL     OW33517   2.880   2.043   7.447  0.9840 -0.5009  0.7725
 7352SOL    HW133518   2.845   2.125   7.412  1.1661 -1.9001 -2.6716
 7352SOL    HW233519   2.890   1.994   7.365  1.8076  0.6421  0.1844
 7353SOL     OW33520   2.326   3.078   1.442 -0.2535 -0.4166 -0.1292
 7353SOL    HW133521   2.297   2.993   1.409  0.8947 -0.0731 -2.0379
 7353SOL    HW233522   2.405   3.092   1.390  1.0796  1.7543  2.5227
 7354SOL     OW33523   4.434   0.095   4.251 -0.4499 -0.2975 -0.1195
 7354SOL    HW133524   4.398   0.183   4.238 -0.3623 -0.2041  0.2621
 7354SOL    HW233525   4.431   0.059   4.162 -1.6932 -1.2013  0.2925
 7355SOL     OW33526   1.639   1.950  14.449 -0.4860 -0.7217 -0.0335
 7355SOL    HW133527   1.566   1.972  14.508  0.0615  1.3043 -0.1299
 7355SOL    HW233528   1.614   2.012  14.382  3.0312 -0.0931 -0.7673
 7356SOL     OW33529   0.948   0.926   7.509  0.1443 -0.0120 -0.1240
 7356SOL    HW133530   1.000   0.968   7.578 -0.9324 -1.5803  1.6406
 7356SOL    HW233531   0.992   0.847   7.478 -0.7434 -0.5178 -0.0778
 7357SOL     OW33532   4.707   1.601   1.689  0.0866 -0.4223 -0.4717
 7357SOL    HW133533   4.655   1.546   1.747 -2.7369 -2.5691 -5.0022
 7357SOL    HW233534   4.640   1.655   1.646 -0.3460 -0.5287  0.0672
 7358SOL     OW33535   3.628   3.431  13.187 -0.6715  0.0816 -0.4704
 7358SOL    HW133536   3.630   3.395  13.099  0.3471 -0.3009 -0.2933
 7358SOL    HW233537   3.668   3.517  13.174 -1.2192  0.2959 -0.7147
 7359SOL     OW33538   3.977   3.395   1.323  0.1586  0.7619 -0.4234
 7359SOL    HW133539   4.044   3.428   1.263  1.3253  2.5443  1.8935
 7359SOL    HW233540   3.935   3.474   1.356  0.6340  0.3588  1.1561
 7360SOL     OW33541   0.835   2.773   5.582 -0.2249  0.1248 -0.2328
 7360SOL    HW133542   0.876   2.787   5.496  1.8201 -1.7759  0.4623
 7360SOL    HW233543   0.765   2.716   5.549 -0.7989  1.4820 -1.4085
 7361SOL     OW33544   3.084   3.055   8.145  0.6307  0.2781 -0.0059
 7361SOL    HW133545   3.048   2.970   8.121 -1.3993  1.1292  0.0339
 7361SOL    HW233546   3.024   3.079   8.215 -1.7494 -0.6018 -1.7744
 7362SOL     OW33547   2.046   4.371  14.682 -0.2171  0.1354 -0.5557
 7362SOL    HW133548   1.953   4.350  14.694 -0.8679  1.5625 -3.1502
 7362SOL    HW233549   2.082   4.312  14.616 -1.4855 -1.1504 -0.1107
 7363SOL     OW33550   0.916   4.516   2.043  0.3052 -0.0925  0.2914
 7363SOL    HW133551   0.953   4.495   1.957 -0.7629 -0.8903  0.0210
 7363SOL    HW233552   0.924   4.433   2.090  1.0827 -0.0081  0.3060
 7364SOL     OW33553   3.874   3.490   7.125  0.1640  0.3447  0.4618
 7364SOL    HW133554   3.790   3.463   7.086 -0.2363 -0.1010  1.6557
 7364SOL    HW233555   3.933   3.459   7.057 -0.9508  0.6089 -0.6448
 7365SOL     OW33556   0.790   0.661   3.730 -0.6093  0.1559  0.1165
 7365SOL    HW133557   0.830   0.650   3.816  0.6991 -0.8326 -0.6267
 7365SOL    HW233558   0.808   0.577   3.688 -1.9662 -0.5101  0.8532
 7366SOL     OW33559   2.958   1.776   2.715 -0.4141  0.4948 -0.3603
 7366SOL    HW133560   3.030   1.756   2.774 -0.5726 -0.8053 -0.6119
 7366SOL    HW233561   2.930   1.863   2.745 -1.3010 -0.0408  0.3681
 7367SOL     OW33562   2.911   2.650   4.321 -0.5889 -0.6443  0.3042
 7367SOL    HW133563   2.932   2.737   4.286  3.2093 -0.7464  2.2690
 7367SOL    HW233564   2.893   2.603   4.240 -0.9748  0.0577 -0.0142
 7368SOL     OW33565   1.812   4.277  13.980 -0.1753 -1.2655  0.2418
 7368SOL    HW133566   1.798   4.297  13.888 -3.2194  0.5025  1.0681
 7368SOL    HW233567   1.827   4.182  13.980  2.2395 -0.8504 -2.1233
 7369SOL     OW33568   1.079   2.039  11.547  0.6296 -0.0144  0.8545
 7369SOL    HW133569   1.079   2.135  11.554 -0.0271  0.1448 -1.4937
 7369SOL    HW233570   0.997   2.018  11.591  0.6557  0.3195  1.0668
 7370SOL     OW33571   0.790   3.787   7.147 -0.0451 -0.0978 -0.3534
 7370SOL    HW133572   0.720   3.744   7.196 -0.1015  2.1316  1.5104
 7370SOL    HW233573   0.777   3.738   7.065 -0.5616 -0.8658  0.1776
 7371SOL     OW33574   0.336   1.737   8.111 -0.3799 -0.3340 -0.1534
 7371SOL    HW133575   0.272   1.780   8.054 -1.5950 -0.7235  0.9232
 7371SOL    HW233576   0.291   1.653   8.125 -3.1658  1.0233 -0.9684
 7372SOL     OW33577   2.090   4.515   6.998  0.5286  0.4879 -0.1249
 7372SOL    HW133578   2.082   4.424   6.968  0.2042  0.0513  1.2642
 7372SOL    HW233579   2.165   4.546   6.948  0.7297  0.0428 -0.0981
 7373SOL     OW33580   4.387   2.040  14.322  0.8012  0.4051  0.0724
 7373SOL    HW133581   4.402   1.955  14.281  0.4071 -0.5327  1.8532
 7373SOL    HW233582   4.314   2.020  14.381  1.4750  1.8131  1.4030
 7374SOL     OW33583   3.666   2.551   2.208  0.2390 -0.2933 -0.2346
 7374SOL    HW133584   3.750   2.523   2.172  0.1917  1.5363 -1.8077
 7374SOL    HW233585   3.651   2.491   2.281  0.9627 -1.3503 -0.9757
 7375SOL     OW33586   1.264   0.209   8.868  0.4703 -0.0054 -0.2230
 7375SOL    HW133587   1.319   0.287   8.858 -1.2184  1.2601  0.4319
 7375SOL    HW233588   1.310   0.132   8.834  0.0682 -1.0163  1.5009
 7376SOL     OW33589   0.165   1.196   7.381 -0.1297 -0.1410  0.4041
 7376SOL    HW133590   0.224   1.176   7.309 -0.3336  1.3130 -0.1583
 7376SOL    HW233591   0.160   1.114   7.431  0.2450 -0.7075 -0.5024
 7377SOL     OW33592   2.805   3.870   9.441  0.2964 -1.1151 -0.0940
 7377SOL    HW133593   2.728   3.813   9.441 -0.1620 -0.4980  0.3372
 7377SOL    HW233594   2.783   3.933   9.372 -0.6855 -1.1757  0.1579
 7378SOL     OW33595   1.382   3.038   2.856  0.1030 -0.4639 -0.3968
 7378SOL    HW133596   1.290   3.057   2.842  0.1921  1.4540  1.7019
 7378SOL    HW233597   1.394   3.077   2.943 -0.1650 -1.1631 -0.0515
 7379SOL     OW33598   0.799   3.172   1.655  0.2077  0.2005 -0.0699
 7379SOL    HW133599   0.801   3.145   1.747  0.5633  0.2395 -0.0695
 7379SOL    HW233600   0.730   3.113   1.622  0.5570  0.8479 -1.9439
 7380SOL     OW33601   4.071   1.202   2.168  0.1751  0.2460  0.0656
 7380SOL    HW133602   4.104   1.247   2.090  0.9436  0.5721  0.5866
 7380SOL    HW233603   4.090   1.266   2.236  0.9765 -0.1896  0.2453
 7381SOL     OW33604   0.707   2.925   0.148  0.2490 -0.1893 -0.2184
 7381SOL    HW133605   0.627   2.927   0.096  0.5005 -0.6660 -0.6291
 7381SOL    HW233606   0.685   2.875   0.227  0.3087 -0.2045 -0.2115
 7382SOL     OW33607   1.182   2.729   4.129  0.2597 -0.0173 -0.8539
 7382SOL    HW133608   1.192   2.721   4.224 -2.5903  1.4754 -0.4402
 7382SOL    HW233609   1.094   2.765   4.129 -0.5226 -1.9622  1.2407
 7383SOL     OW33610   4.268   1.594   1.465 -0.7027 -0.0488  0.7273
 7383SOL    HW133611   4.301   1.507   1.444  0.1313  0.4190  0.0696
 7383SOL    HW233612   4.254   1.641   1.382 -1.0439 -3.6154 -1.2358
 7384SOL     OW33613   0.956   3.613  14.736 -0.4626 -1.2852  0.1878
 7384SOL    HW133614   0.938   3.529  14.693  0.2551 -1.2650 -0.1648
 7384SOL    HW233615   1.051   3.603  14.733 -0.2227  0.6778  1.5772
 7385SOL     OW33616   1.912   3.239   0.179  0.0080 -0.6104  0.4014
 7385SOL    HW133617   1.930   3.331   0.158  0.9799 -0.4749  1.8404
 7385SOL    HW233618   1.967   3.221   0.255  0.7394 -1.4195 -0.3179
 7386SOL     OW33619   0.504   1.726   8.337  0.0793 -0.0199  0.7674
 7386SOL    HW133620   0.553   1.645   8.321 -0.3310 -0.4448  1.6983
 7386SOL    HW233621   0.449   1.714   8.260  0.1583  1.3924  0.4867
 7387SOL     OW33622   3.825   4.373  12.446  0.1251 -0.2493  0.0044
 7387SOL    HW133623   3.829   4.305  12.514 -0.6157  0.3393  0.6317
 7387SOL    HW233624   3.897   4.329  12.401 -0.0560  0.5515 -1.0592
 7388SOL     OW33625   4.031   0.270   7.234 -0.1953  0.1630 -0.5212
 7388SOL    HW133626   4.025   0.282   7.329 -2.8616  1.1879 -0.8121
 7388SOL    HW233627   4.044   0.361   7.210  2.1024  0.1429  0.6280
 7389SOL     OW33628   4.566   3.159   4.022 -0.0917  0.6929  0.7984
 7389SOL    HW133629   4.612   3.102   3.960 -1.6995 -1.3305  1.4586
 7389SOL    HW233630   4.584   3.246   3.987  2.1694  0.7435  2.0473
 7390SOL     OW33631   1.547   2.611   6.703  0.1781 -0.1217 -1.0238
 7390SOL    HW133632   1.595   2.549   6.758  1.3538  1.8972  0.2669
 7390SOL    HW233633   1.615   2.662   6.657  0.4543 -0.5555 -1.0944
 7391SOL     OW33634   3.670   0.632  17.276 -0.0319  0.1643 -0.0927
 7391SOL    HW133635   3.729   0.650  17.349 -0.9480  0.9311  0.4631
 7391SOL    HW233636   3.709   0.560  17.227 -2.3180 -0.7030 -0.6161
 7392SOL     OW33637   2.185   4.624   2.941  0.4689 -0.4307 -0.1068
 7392SOL    HW133638   2.144   4.710   2.931 -1.6048 -1.6167 -1.6198
 7392SOL    HW233639   2.231   4.618   2.858 -0.5480  0.3850 -0.7351
 7393SOL     OW33640   1.226   0.727  12.179 -0.1023 -0.5654  0.0385
 7393SOL    HW133641   1.175   0.646  12.173 -1.7014  0.4801 -0.2746
 7393SOL    HW233642   1.232   0.751  12.086 -0.8413 -0.6276 -0.0271
 7394SOL     OW33643   1.715   1.695   4.675 -0.1523 -0.0090  0.2064
 7394SOL    HW133644   1.803   1.662   4.692  0.0853  1.0526  1.0380
 7394SOL    HW233645   1.737   1.786   4.653  0.5955 -0.5280 -1.1792
 7395SOL     OW33646   3.888   1.274   5.565 -0.8379 -0.3543 -0.1317
 7395SOL    HW133647   3.907   1.210   5.634  0.5439 -0.1304 -0.3066
 7395SOL    HW233648   3.932   1.234   5.490  1.9349  1.5510  0.5004
 7396SOL     OW33649   1.720   3.054  16.778  0.5897  0.1935  0.2086
 7396SOL    HW133650   1.631   3.019  16.769  0.7447 -0.5602  1.4810
 7396SOL    HW233651   1.736   3.086  16.690  0.7109 -1.3981 -0.3391
 7397SOL     OW33652   4.514   2.801   8.491 -0.6063  0.4741  0.2035
 7397SOL    HW133653   4.543   2.710   8.492  0.0703  0.6919  0.2173
 7397SOL    HW233654   4.498   2.810   8.585  1.0070  0.7013  0.4439
 7398SOL     OW33655   0.688   0.894   2.967 -0.4239  0.1717  0.0624
 7398SOL    HW133656   0.782   0.910   2.968 -0.4060  0.0963 -0.4160
 7398SOL    HW233657   0.660   0.942   2.889  2.4399 -0.0980 -1.1246
 7399SOL     OW33658   3.750   0.895  10.581 -0.1532 -0.1522 -0.3532
 7399SOL    HW133659   3.655   0.881  10.586 -0.1472 -0.2714 -0.5689
 7399SOL    HW233660   3.772   0.833  10.511  2.0092 -0.4966  0.6282
 7400SOL     OW33661   3.091   2.973   4.067 -0.7948  0.4819  0.0774
 7400SOL    HW133662   3.161   2.964   4.132 -1.2847 -1.3400  0.3527
 7400SOL    HW233663   3.141   2.982   3.986 -5.2946  0.6890 -2.6288
 7401SOL     OW33664   0.370   1.046  13.319 -0.5842 -0.2038 -0.1018
 7401SOL    HW133665   0.335   0.983  13.257 -0.0794 -3.2409  2.6896
 7401SOL    HW233666   0.385   0.987  13.393 -0.5119 -1.6716 -1.2816
 7402SOL     OW33667   4.498   4.310   5.792 -0.0887  0.0594  0.3064
 7402SOL    HW133668   4.564   4.316   5.861  1.1697 -1.0005 -0.8152
 7402SOL    HW233669   4.443   4.235   5.814 -0.4588  0.1923 -0.1801
 7403SOL     OW33670   2.455   3.314  14.565  0.6403  0.3739  0.3752
 7403SOL    HW133671   2.402   3.297  14.643 -1.0823 -0.8876 -1.0384
 7403SOL    HW233672   2.379   3.343  14.514  1.2351 -0.4610 -0.9995
 7404SOL     OW33673   1.258   1.193   4.530 -0.6213  0.6198 -0.8025
 7404SOL    HW133674   1.335   1.182   4.473 -0.7750  3.0495 -1.4818
 7404SOL    HW233675   1.282   1.133   4.600  0.1607  1.9391  0.0573
 7405SOL     OW33676   4.458   4.383   8.898 -0.1544  0.5579  0.1061
 7405SOL    HW133677   4.404   4.337   8.834 -0.1064  1.5330 -0.6381
 7405SOL    HW233678   4.499   4.445   8.838  0.0214  1.6623  1.3756
 7406SOL     OW33679   1.475   2.477   2.304  0.3304  0.3106  0.1152
 7406SOL    HW133680   1.459   2.410   2.237  0.9796 -0.3416  0.6175
 7406SOL    HW233681   1.437   2.553   2.259 -0.5552  0.6555  1.4542
 7407SOL     OW33682   2.740   3.837   6.119  0.4543 -0.6632 -0.1468
 7407SOL    HW133683   2.778   3.751   6.101 -2.8221 -2.1210 -0.1074
 7407SOL    HW233684   2.773   3.855   6.207  1.6360 -2.3474 -0.2338
 7408SOL     OW33685   4.371   3.182  11.337 -0.2990  0.5072  0.3804
 7408SOL    HW133686   4.394   3.100  11.381  3.0583  1.5636  0.5872
 7408SOL    HW233687   4.398   3.245  11.404 -0.3297  1.5813 -0.6102
 7409SOL     OW33688   2.744   1.191   8.288 -0.4865  0.3363  0.0348
 7409SOL    HW133689   2.727   1.223   8.377 -0.9287 -0.5713  0.2765
 7409SOL    HW233690   2.837   1.208   8.273 -0.3300 -0.6713 -0.1497
 7410SOL     OW33691   4.308   0.756   8.191 -0.1119  0.6488 -0.1114
 7410SOL    HW133692   4.299   0.822   8.122 -0.7956  1.3245  0.6319
 7410SOL    HW233693   4.351   0.797   8.266 -0.7129 -0.3111  0.7692
 7411SOL     OW33694   4.311   4.247   2.430  0.2652  0.0007 -0.7510
 7411SOL    HW133695   4.255   4.278   2.501  1.1624 -0.2541  0.0677
 7411SOL    HW233696   4.252   4.254   2.355  1.0225  0.0425 -1.3395
 7412SOL     OW33697   2.597   3.279  10.712  0.1405 -0.3155  0.2594
 7412SOL    HW133698   2.634   3.217  10.649  1.0206  0.8591 -0.3802
 7412SOL    HW233699   2.617   3.362  10.667  0.5790 -0.4815  0.1502
 7413SOL     OW33700   0.748   2.794   4.351  0.3399  0.4442 -0.3693
 7413SOL    HW133701   0.742   2.784   4.446  0.2377 -0.2850 -0.4581
 7413SOL    HW233702   0.832   2.840   4.342 -0.2870  1.2532 -2.0763
 7414SOL     OW33703   1.717   3.795   2.891 -0.7812  0.2859 -0.0148
 7414SOL    HW133704   1.737   3.705   2.865 -1.6419  0.2381 -0.5299
 7414SOL    HW233705   1.630   3.804   2.851 -1.7137 -0.1998  1.8986
 7415SOL     OW33706   0.552   3.705  14.588 -0.1732  0.3732 -0.6686
 7415SOL    HW133707   0.582   3.774  14.530 -0.3913  1.0908  0.0605
 7415SOL    HW233708   0.541   3.631  14.528 -1.2535 -0.9452  1.1374
 7416SOL     OW33709   2.371   2.630  13.971  0.1550  0.1007 -0.5010
 7416SOL    HW133710   2.362   2.632  13.876  0.4893  1.6432 -0.4939
 7416SOL    HW233711   2.380   2.534  13.975  0.3817  0.1955  1.1078
 7417SOL     OW33712   2.446   2.822   1.027  0.1029  0.1654 -0.3065
 7417SOL    HW133713   2.399   2.766   1.088 -0.8216  2.0151  0.6799
 7417SOL    HW233714   2.467   2.899   1.080  1.4879 -1.0312  0.8836
 7418SOL     OW33715   3.757   1.364  12.034 -0.4160  0.2019 -0.6203
 7418SOL    HW133716   3.686   1.414  11.995 -0.8380  0.4893  0.4978
 7418SOL    HW233717   3.799   1.435  12.082 -2.9580  2.7457 -2.1922
 7419SOL     OW33718   0.810   2.633   8.439  0.2736  0.4317  0.3796
 7419SOL    HW133719   0.745   2.645   8.509 -0.4233 -0.3650 -0.1356
 7419SOL    HW233720   0.753   2.606   8.367 -0.9277  2.9005  0.4080
 7420SOL     OW33721   2.972   1.896   6.089 -0.1433 -0.1402  0.1180
 7420SOL    HW133722   2.901   1.833   6.077 -0.7555  0.7856 -1.1484
 7420SOL    HW233723   3.000   1.922   6.001  0.4438  0.4077  0.4699
 7421SOL     OW33724   2.772   3.329   1.751  0.2269  0.5279  0.1698
 7421SOL    HW133725   2.740   3.305   1.839  1.0765 -1.5665 -0.1134
 7421SOL    HW233726   2.760   3.251   1.698 -0.9551 -0.3492  1.7197
 7422SOL     OW33727   1.974   3.192   3.326 -0.4462 -0.2827  0.6373
 7422SOL    HW133728   1.974   3.101   3.355  1.1693  0.3366  2.6201
 7422SOL    HW233729   1.969   3.234   3.412 -2.2193  0.8403 -0.0128
 7423SOL     OW33730   0.398   0.182   4.403  0.4273 -0.0142 -0.4439
 7423SOL    HW133731   0.489   0.170   4.432  0.3335  0.2873 -0.0302
 7423SOL    HW233732   0.421   0.257   4.347  0.2228  0.3113 -0.0867
 7424SOL     OW33733   0.981   2.730   2.278  0.2915  0.5225 -0.2773
 7424SOL    HW133734   0.947   2.686   2.199 -0.8563  0.2809  0.3568
 7424SOL    HW233735   1.034   2.659   2.314 -2.8150 -1.7624 -0.1324
 7425SOL     OW33736   3.412   2.920   9.773 -0.0113  0.2897 -0.2205
 7425SOL    HW133737   3.425   3.012   9.797  0.8845 -0.1343  0.8909
 7425SOL    HW233738   3.338   2.925   9.712  0.3513  2.0216 -0.5101
 7426SOL     OW33739   0.674   0.023   5.721  0.2370  0.3361 -0.0720
 7426SOL    HW133740   0.579   0.021   5.707  0.1606 -1.5789  0.6386
 7426SOL    HW233741   0.686   0.073   5.640  0.5066  0.7098  0.2017
 7427SOL     OW33742   3.937   2.825   9.838 -0.1019 -0.0274  0.0910
 7427SOL    HW133743   3.952   2.732   9.823 -2.2520 -0.5287  1.0152
 7427SOL    HW233744   3.880   2.824   9.915 -1.4253  0.1749 -0.8962
 7428SOL     OW33745   4.520   2.584   6.715  0.3284 -0.1474 -0.4994
 7428SOL    HW133746   4.567   2.653   6.761 -0.5832  0.9513 -1.2267
 7428SOL    HW233747   4.590   2.519   6.711  1.2564  0.8486 -0.4346
 7429SOL     OW33748   4.669   0.746   2.079 -0.2702  0.1784 -0.4481
 7429SOL    HW133749   4.663   0.733   2.174  4.1077  0.0802 -0.1918
 7429SOL    HW233750   4.689   0.659   2.043 -0.6529  1.1237 -2.9090
 7430SOL     OW33751   4.237   4.408  13.722  0.0237  0.5027 -0.2761
 7430SOL    HW133752   4.316   4.391  13.773 -0.6268  0.7726  0.8339
 7430SOL    HW233753   4.260   4.483  13.668  2.6866  0.5828  0.9944
 7431SOL     OW33754   0.044   3.027   7.124  0.4422 -0.0056 -0.2489
 7431SOL    HW133755   4.683   2.995   7.083  1.0701  0.3641 -1.7478
 7431SOL    HW233756   0.084   3.052   7.041  2.1187  1.3987  0.9960
 7432SOL     OW33757   0.880   0.988   9.553  0.1927  0.4782  0.0829
 7432SOL    HW133758   0.867   0.975   9.647  0.6330 -0.5333  0.0137
 7432SOL    HW233759   0.973   1.009   9.560  0.1714  0.8871 -0.9009
 7433SOL     OW33760   4.618   3.551   5.700  0.0377 -0.2470 -0.1944
 7433SOL    HW133761   4.576   3.609   5.764  1.7748 -0.4009  1.0842
 7433SOL    HW233762   4.537   3.538   5.650 -0.9649  1.3030  0.9919
 7434SOL     OW33763   0.530   3.559  14.820  0.2553  0.2204 -0.2405
 7434SOL    HW133764   0.489   3.481  14.784 -0.9885  0.0276  1.5557
 7434SOL    HW233765   0.534   3.615  14.743  2.1304  1.3932  0.7239
 7435SOL     OW33766   2.956   4.114   9.890  0.4101 -0.5591  0.1651
 7435SOL    HW133767   2.979   4.025   9.864  3.1850  0.7865 -2.0130
 7435SOL    HW233768   3.029   4.147   9.943  2.2358 -0.4502 -2.4513
 7436SOL     OW33769   0.434   2.062   9.581  0.2931 -0.4129 -0.0679
 7436SOL    HW133770   0.423   2.013   9.663  1.7249 -0.7736 -0.0787
 7436SOL    HW233771   0.455   2.150   9.612  0.3633 -0.0011 -1.2932
 7437SOL     OW33772   2.701   1.148   3.966  0.0816 -0.3652 -0.1636
 7437SOL    HW133773   2.650   1.067   3.967 -0.5777  0.0576  0.3276
 7437SOL    HW233774   2.658   1.200   4.034  1.7280 -0.9354  1.3002
 7438SOL     OW33775   3.038   1.278   3.522  0.4772  0.2848 -0.4280
 7438SOL    HW133776   3.034   1.351   3.584  2.1979 -1.2192  1.4498
 7438SOL    HW233777   3.046   1.202   3.580  1.1037 -0.7724 -1.9129
 7439SOL     OW33778   3.658   4.283   7.020 -0.4962  0.9738 -0.0979
 7439SOL    HW133779   3.607   4.269   6.940  1.6884  4.7776 -2.1569
 7439SOL    HW233780   3.589   4.314   7.078 -0.7688  2.6218 -1.2897
 7440SOL     OW33781   3.827   0.092  12.158 -0.2315  0.1282 -0.6382
 7440SOL    HW133782   3.841   0.006  12.118  0.4238 -0.3488  0.6173
 7440SOL    HW233783   3.859   0.151  12.091  2.0751  0.7576  1.0295
 7441SOL     OW33784   2.754   3.783   3.068 -0.1690  0.0518  0.6016
 7441SOL    HW133785   2.718   3.829   2.992  1.1762 -1.7347 -1.1234
 7441SOL    HW233786   2.824   3.730   3.030  2.1660  0.1876  4.6711
 7442SOL     OW33787   2.146   1.517   2.359  0.2209  0.0269 -0.1733
 7442SOL    HW133788   2.202   1.468   2.298 -0.3416 -1.3798  0.4282
 7442SOL    HW233789   2.150   1.461   2.436  1.4452  0.9369  0.4210
 7443SOL     OW33790   3.837   2.644  16.676  0.3769 -0.0167 -0.1270
 7443SOL    HW133791   3.819   2.730  16.638  0.3954 -0.3877 -0.9638
 7443SOL    HW233792   3.763   2.633  16.736  0.8545 -1.6278  0.1853
 7444SOL     OW33793   2.389   4.271   3.718 -0.7129  0.0535 -0.0993
 7444SOL    HW133794   2.392   4.215   3.640  1.1679 -2.7373  1.9676
 7444SOL    HW233795   2.316   4.326   3.690 -0.0650  2.0943  2.1539
 7445SOL     OW33796   1.604   0.154   3.909  0.2419 -0.1875  0.4144
 7445SOL    HW133797   1.691   0.170   3.946  0.4740  1.3322 -0.7927
 7445SOL    HW233798   1.599   0.060   3.923  1.1957 -0.2199  0.4935
 7446SOL     OW33799   0.661   2.177   4.238  0.3870  0.1638 -0.0119
 7446SOL    HW133800   0.616   2.099   4.268  1.0271 -0.2953 -0.2405
 7446SOL    HW233801   0.658   2.224   4.322 -1.6638  1.2603 -0.6984
 7447SOL     OW33802   4.406   2.794   9.082  0.0204 -0.0993  0.0770
 7447SOL    HW133803   4.499   2.817   9.087  0.1105  0.2959 -3.2888
 7447SOL    HW233804   4.394   2.768   9.173 -0.4428  0.2141  0.1084
 7448SOL     OW33805   3.347   1.632   3.095  0.6356  0.1735 -0.0670
 7448SOL    HW133806   3.360   1.542   3.125 -1.2255 -0.1141 -0.0927
 7448SOL    HW233807   3.251   1.629   3.086  0.6984 -1.6516 -0.1809
 7449SOL     OW33808   0.876   3.122  11.655  0.0593  0.2917  0.0117
 7449SOL    HW133809   0.841   3.150  11.739 -1.9504 -1.7378 -0.1530
 7449SOL    HW233810   0.812   3.057  11.627  0.4211  0.0656 -0.2908
 7450SOL     OW33811   2.812   2.990   2.347  0.0152 -0.3454  0.7945
 7450SOL    HW133812   2.871   2.930   2.392  1.2886  0.6106  0.3883
 7450SOL    HW233813   2.804   2.952   2.260 -1.0247  2.2151 -0.2129
 7451SOL     OW33814   1.760   3.815   8.542  0.2832 -0.0021 -0.3743
 7451SOL    HW133815   1.821   3.851   8.607 -0.9713  0.7898  0.3490
 7451SOL    HW233816   1.819   3.744   8.515 -0.4763 -0.6805 -0.2586
 7452SOL     OW33817   2.179   3.959   2.728 -0.2672 -0.2404  0.0321
 7452SOL    HW133818   2.170   3.889   2.664  0.3631  1.5386 -2.0099
 7452SOL    HW233819   2.103   3.940   2.784 -0.5579 -1.9117 -0.9287
 7453SOL     OW33820   1.507   2.986   1.376 -0.0201 -0.0878 -0.4157
 7453SOL    HW133821   1.475   3.041   1.304 -0.3609  1.6186  1.0504
 7453SOL    HW233822   1.464   2.903   1.356  0.7721 -0.8843  1.2575
 7454SOL     OW33823   2.782   3.957  17.133 -0.6393  0.2097  0.0340
 7454SOL    HW133824   2.813   3.884  17.080  1.3890  1.1175 -0.0504
 7454SOL    HW233825   2.857   4.013  17.110  0.0622 -1.7582 -2.5130
 7455SOL     OW33826   0.325   2.591   5.475  0.7079  0.0143 -0.0169
 7455SOL    HW133827   0.302   2.606   5.383  0.5515 -2.3857 -0.3613
 7455SOL    HW233828   0.419   2.607   5.478  0.2905  2.9158 -2.0432
 7456SOL     OW33829   0.988   0.086  14.674 -0.0477  0.0632  0.1423
 7456SOL    HW133830   1.059   0.137  14.633 -0.0766  0.4924  0.6308
 7456SOL    HW233831   1.049   0.019  14.704  1.6390  0.5842 -2.0951
 7457SOL     OW33832   4.176   4.508   5.726  0.1651  0.3006  0.0799
 7457SOL    HW133833   4.160   4.602   5.714  0.5881  0.4672  0.8453
 7457SOL    HW233834   4.148   4.471   5.642  0.1841  0.5507 -0.0385
 7458SOL     OW33835   2.951   0.557   0.282 -0.7924 -0.4319 -0.0616
 7458SOL    HW133836   2.991   0.643   0.284 -0.4358 -0.5647 -1.6722
 7458SOL    HW233837   2.877   0.564   0.343 -0.9526 -1.7805 -0.0984
 7459SOL     OW33838   3.947   2.637   4.223  0.1395  0.0148  0.1638
 7459SOL    HW133839   4.014   2.569   4.229 -0.3155 -0.3993  0.5284
 7459SOL    HW233840   4.004   2.707   4.188  2.0354 -1.1942  0.8132
 7460SOL     OW33841   0.556   1.357   7.023  0.8781 -0.2410  0.4580
 7460SOL    HW133842   0.549   1.441   7.069 -1.9237 -0.1981 -0.0486
 7460SOL    HW233843   0.554   1.305   7.103 -1.3051  0.3180  0.7649
 7461SOL     OW33844   1.284   3.784   5.226 -0.0242  0.9477 -0.3801
 7461SOL    HW133845   1.274   3.724   5.300  0.4226  0.7577 -0.4711
 7461SOL    HW233846   1.208   3.764   5.172 -0.9570  0.4549  1.1314
 7462SOL     OW33847   0.903   2.939   7.503 -0.1704  0.0157  0.1376
 7462SOL    HW133848   0.997   2.945   7.518 -0.2559  1.0401  0.2586
 7462SOL    HW233849   0.869   3.013   7.553 -2.2198 -0.8239  0.0110
 7463SOL     OW33850   4.161   2.963  10.129 -0.5063 -0.2580 -0.0390
 7463SOL    HW133851   4.079   2.915  10.142 -0.0391 -1.2503 -0.7921
 7463SOL    HW233852   4.150   2.988  10.037  3.2130 -0.1277 -0.4196
 7464SOL     OW33853   4.699   1.221   3.953  0.6560 -0.0900 -0.3380
 7464SOL    HW133854   4.693   1.206   4.047 -1.2212 -0.1218 -0.4720
 7464SOL    HW233855   4.654   1.305   3.941 -0.0886 -0.2777  1.2252
 7465SOL     OW33856   3.614   2.748   5.975 -0.0368  0.5616 -0.1110
 7465SOL    HW133857   3.668   2.671   5.956  0.9442  0.8359  1.5890
 7465SOL    HW233858   3.646   2.771   6.063  1.8767 -1.5464 -0.2559
 7466SOL     OW33859   1.881   0.251   4.815  0.0086  0.0706  0.2315
 7466SOL    HW133860   1.869   0.167   4.771  1.7569 -1.6267  3.0094
 7466SOL    HW233861   1.851   0.230   4.903  0.8130  0.4654  0.6021
 7467SOL     OW33862   0.849   0.614   6.450 -0.0053 -0.4440 -0.3987
 7467SOL    HW133863   0.820   0.560   6.524  0.8432  0.5587  0.6502
 7467SOL    HW233864   0.920   0.565   6.409  0.7408 -0.9811  1.5170
 7468SOL     OW33865   2.336   2.952   2.316 -0.0156  0.0360  0.5268
 7468SOL    HW133866   2.416   2.899   2.316  0.8314  1.3232  0.7828
 7468SOL    HW233867   2.375   3.039   2.325 -1.0723  0.6450 -0.7664
 7469SOL     OW33868   1.520   2.205  11.880 -1.0112 -0.1836  0.2948
 7469SOL    HW133869   1.575   2.138  11.920 -0.7391  1.1384  2.1204
 7469SOL    HW233870   1.551   2.288  11.915  1.7487 -1.3399  0.6316
 7470SOL     OW33871   3.790   4.028   8.499 -0.1867  0.1355 -0.6758
 7470SOL    HW133872   3.820   3.989   8.581  1.2543 -0.1321 -1.3301
 7470SOL    HW233873   3.704   3.987   8.490  0.0768 -0.1120 -2.1078
 7471SOL     OW33874   2.377   0.399   9.988 -0.8166 -0.6110  0.3108
 7471SOL    HW133875   2.297   0.393  10.040 -0.1875  1.2719  1.4754
 7471SOL    HW233876   2.426   0.316   9.996 -0.6469 -0.5547 -0.1296
 7472SOL     OW33877   1.163   3.670   1.590 -0.2267  0.2213  0.4763
 7472SOL    HW133878   1.233   3.721   1.631  1.1375  0.0923 -1.7376
 7472SOL    HW233879   1.209   3.613   1.528 -0.0054 -1.5718  2.2778
 7473SOL     OW33880   3.222   1.258   5.912  0.2777  0.1526  0.1666
 7473SOL    HW133881   3.155   1.313   5.953 -1.0548 -1.4926  0.2153
 7473SOL    HW233882   3.235   1.197   5.984  0.1117  0.0712  0.1271
 7474SOL     OW33883   0.232   2.769   6.914 -0.1410 -0.5288  0.1173
 7474SOL    HW133884   0.188   2.700   6.864 -0.7257 -0.7776  0.9806
 7474SOL    HW233885   0.316   2.774   6.868 -0.1327  0.0266  0.1935
 7475SOL     OW33886   0.002   0.722  11.238  0.6337 -0.1738  0.0060
 7475SOL    HW133887   0.008   0.642  11.185  2.5215  1.2328 -1.9007
 7475SOL    HW233888   4.653   0.706  11.302 -2.4365  1.1562 -3.0341
 7476SOL     OW33889   3.453   2.015   4.867  0.0858  0.3776 -0.3663
 7476SOL    HW133890   3.491   2.065   4.795 -0.2769 -0.8713 -1.4206
 7476SOL    HW233891   3.474   2.074   4.939  0.8643 -0.9883  0.5144
 7477SOL     OW33892   3.642   0.173   4.235  0.3519  0.7114 -0.5525
 7477SOL    HW133893   3.736   0.190   4.237  0.4656  0.3006 -2.1887
 7477SOL    HW233894   3.644   0.092   4.184 -2.1475 -0.9408  2.0318
 7478SOL     OW33895   3.149   3.187   2.998 -0.3989 -0.5626 -0.2393
 7478SOL    HW133896   3.216   3.203   2.931  0.6446 -3.9000  0.0259
 7478SOL    HW233897   3.084   3.139   2.946 -0.5708 -1.8038  1.1355
 7479SOL     OW33898   1.548   2.947   5.666 -0.4425  0.6610  0.4670
 7479SOL    HW133899   1.548   2.858   5.703 -1.1866  1.1403  1.6292
 7479SOL    HW233900   1.555   2.998   5.747  0.2395  1.8176 -0.3268
 7480SOL     OW33901   3.873   1.490  14.771  1.2477 -0.8269 -0.4030
 7480SOL    HW133902   3.957   1.456  14.804  0.5695 -1.7503  0.3677
 7480SOL    HW233903   3.835   1.414  14.727 -0.5737  0.0320 -0.2881
 7481SOL     OW33904   3.826   1.464   8.398 -0.0691  0.1102 -0.2937
 7481SOL    HW133905   3.884   1.500   8.465  1.9619 -2.0771 -0.8738
 7481SOL    HW233906   3.758   1.531   8.406  0.1221  0.2574  0.1063
 7482SOL     OW33907   2.626   4.399  16.213  0.1035 -0.1010 -0.1033
 7482SOL    HW133908   2.619   4.459  16.139  0.5236  2.3868  1.8719
 7482SOL    HW233909   2.716   4.422  16.237 -0.4799 -0.1197  2.0759
 7483SOL     OW33910   0.870   1.751   9.834  0.1532  0.5747  0.4398
 7483SOL    HW133911   0.932   1.723   9.902 -1.5936  0.3237  1.8986
 7483SOL    HW233912   0.858   1.842   9.862  1.5934  0.8280  0.2745
 7484SOL     OW33913   3.924   4.678   0.240  0.0740 -0.5355  0.1295
 7484SOL    HW133914   4.016   4.676   0.263 -0.2032  1.2315  1.3533
 7484SOL    HW233915   3.930   4.631   0.156 -0.9164  0.2075 -0.3639
 7485SOL     OW33916   0.196   2.914  10.160  0.0490 -0.1480 -0.2678
 7485SOL    HW133917   0.288   2.918  10.188  0.3831 -0.4327 -1.3318
 7485SOL    HW233918   0.178   2.992  10.108  1.9266 -0.5251 -1.4903
 7486SOL     OW33919   2.841   0.273  17.475 -0.3433  0.5520  0.0808
 7486SOL    HW133920   2.891   0.355  17.471  0.7571 -0.1236  0.1460
 7486SOL    HW233921   2.892   0.221  17.414 -0.2883  0.1646  0.4624
 7487SOL     OW33922   0.570   4.388   6.227  0.2096  0.0072 -0.7077
 7487SOL    HW133923   0.580   4.419   6.317  3.1012 -1.7101 -0.4406
 7487SOL    HW233924   0.552   4.295   6.237  0.2664 -0.1511 -2.1258
 7488SOL     OW33925   1.455   2.049  14.626 -0.0611  0.3277 -0.2251
 7488SOL    HW133926   1.442   2.070  14.718  0.5400  0.5134 -0.1814
 7488SOL    HW233927   1.363   2.046  14.598 -0.0843 -0.1487 -0.0808
 7489SOL     OW33928   2.989   3.978   2.741  0.2710 -0.2070 -0.3923
 7489SOL    HW133929   3.060   3.938   2.691  1.2690  1.2148 -0.1264
 7489SOL    HW233930   2.967   3.909   2.804 -0.5412 -0.4408 -0.9315
 7490SOL     OW33931   3.908   1.533  12.400  0.7030 -0.3396 -0.1691
 7490SOL    HW133932   3.884   1.612  12.447  0.5536 -1.3918  1.5443
 7490SOL    HW233933   3.843   1.530  12.331 -0.7117 -0.2015  1.1730
 7491SOL     OW33934   3.709   1.655  15.612  0.6239 -0.6628  0.0191
 7491SOL    HW133935   3.639   1.632  15.551 -1.8443  1.3938  2.1104
 7491SOL    HW233936   3.734   1.741  15.579  0.5750 -0.1176  1.4206
 7492SOL     OW33937   3.675   4.627   1.606  0.0493 -0.2620 -0.0347
 7492SOL    HW133938   3.645   4.697   1.548  0.2749 -0.2213 -0.1036
 7492SOL    HW233939   3.717   4.571   1.541 -0.4221 -1.6193  0.8355
 7493SOL     OW33940   0.358   2.975  10.406 -0.3968  0.3123 -0.1672
 7493SOL    HW133941   0.371   3.025  10.486  0.9283  0.7732 -0.6734
 7493SOL    HW233942   0.357   3.045  10.340 -1.5273 -0.0921 -0.5752
 7494SOL     OW33943   1.678   4.522  16.732 -0.2932 -0.7012  0.1238
 7494SOL    HW133944   1.675   4.426  16.737  0.5864 -0.8672 -2.5163
 7494SOL    HW233945   1.609   4.552  16.791 -0.6237 -0.9316 -0.1439
 7495SOL     OW33946   0.658   4.425   2.466 -0.8573 -0.9971 -0.2195
 7495SOL    HW133947   0.737   4.376   2.442  0.0833  0.9371 -1.0531
 7495SOL    HW233948   0.660   4.427   2.562  1.0257 -2.0147 -0.2503
 7496SOL     OW33949   1.587   3.751   0.764 -0.3408  0.0376 -0.6001
 7496SOL    HW133950   1.619   3.746   0.674  1.1288 -0.7940 -0.0306
 7496SOL    HW233951   1.652   3.694   0.805 -0.8752 -0.7917 -0.8942
 7497SOL     OW33952   1.432   0.249   5.903 -0.4388 -0.0012 -0.1440
 7497SOL    HW133953   1.430   0.238   5.998  1.3718 -2.4467 -0.3951
 7497SOL    HW233954   1.361   0.194   5.870  0.2079 -0.0318 -1.4581
 7498SOL     OW33955   2.629   2.621   7.141 -0.0792 -0.0298 -0.5680
 7498SOL    HW133956   2.722   2.612   7.160 -0.3709  1.8951  1.8208
 7498SOL    HW233957   2.587   2.600   7.224  2.3094  1.8324  1.0945
 7499SOL     OW33958   1.673   1.322   8.871  0.2763 -1.0089  0.1645
 7499SOL    HW133959   1.617   1.269   8.815  1.1579  0.5883 -2.2225
 7499SOL    HW233960   1.723   1.262   8.927  0.6734 -0.4776  0.3807
 7500SOL     OW33961   0.317   3.639   7.166  0.2384  0.0448 -0.2259
 7500SOL    HW133962   0.271   3.566   7.207 -1.3986 -0.6659 -3.4146
 7500SOL    HW233963   0.292   3.636   7.074  0.9024  2.5735 -0.4841
 7501SOL     OW33964   1.002   4.306   4.904  0.0871  0.4486  0.0266
 7501SOL    HW133965   1.027   4.255   4.981 -2.2165 -1.5773 -0.5978
 7501SOL    HW233966   0.989   4.235   4.842 -2.7103  1.5139 -0.5952
 7502SOL     OW33967   1.905   4.187   7.255  0.2669  0.1817 -0.1873
 7502SOL    HW133968   1.950   4.181   7.340 -0.1203 -1.5947 -0.1001
 7502SOL    HW233969   1.871   4.275   7.265 -0.6876 -0.0449 -1.5833
 7503SOL     OW33970   2.336   2.827  17.057  0.4585  0.1450  0.1187
 7503SOL    HW133971   2.321   2.756  17.120  1.6665  0.9621  1.3398
 7503SOL    HW233972   2.270   2.808  16.991  1.1517 -0.6709 -0.3417
 7504SOL     OW33973   4.060   1.734   6.323  0.2552 -0.4345 -0.3877
 7504SOL    HW133974   3.993   1.723   6.390 -1.3635  0.0975 -1.9049
 7504SOL    HW233975   4.104   1.649   6.328  0.8558 -0.1429 -0.6004
 7505SOL     OW33976   4.623   0.423   2.924 -0.6212  0.0121 -0.4519
 7505SOL    HW133977   4.624   0.512   2.959  3.2167 -0.1244 -0.1732
 7505SOL    HW233978   4.657   0.452   2.839 -1.9189 -0.6704 -1.2026
 7506SOL     OW33979   4.287   0.080   2.753  0.6616  0.1875  0.2809
 7506SOL    HW133980   4.270   0.021   2.826 -0.2693  1.1678  0.8518
 7506SOL    HW233981   4.205   0.128   2.739  0.4063 -0.4864 -0.5160
 7507SOL     OW33982   3.648   0.859  17.046 -0.2992 -0.1409 -0.4046
 7507SOL    HW133983   3.703   0.799  16.996  0.5090  1.7015 -1.7325
 7507SOL    HW233984   3.627   0.804  17.122 -0.7015  0.6320  0.0417
 7508SOL     OW33985   0.220   1.319   6.171  0.0853  0.3524  0.0811
 7508SOL    HW133986   0.212   1.367   6.253 -0.1911 -0.3575  0.4659
 7508SOL    HW233987   0.257   1.236   6.200  0.5384  0.0025 -1.5002
 7509SOL     OW33988   2.433   1.081   0.178 -0.2864  0.0793  0.1621
 7509SOL    HW133989   2.498   1.030   0.130 -2.8620 -0.5412 -2.6795
 7509SOL    HW233990   2.367   1.018   0.207  0.5858 -1.6452 -1.6171
 7510SOL     OW33991   2.335   2.820   1.350 -0.2311 -0.3586 -0.0742
 7510SOL    HW133992   2.335   2.733   1.310  0.6857  0.1219 -1.1130
 7510SOL    HW233993   2.251   2.850   1.314 -0.3614 -2.3283 -1.4389
 7511SOL     OW33994   3.935   1.814   6.693 -0.3947  0.5237  0.4685
 7511SOL    HW133995   4.005   1.873   6.667 -2.5339  2.0804 -1.8164
 7511SOL    HW233996   3.953   1.818   6.787 -1.1375 -1.8126  0.7350
 7512SOL     OW33997   4.351   4.295   4.611  0.5044 -0.3632 -0.5193
 7512SOL    HW133998   4.279   4.294   4.548  0.9272  0.7824 -1.0242
 7512SOL    HW233999   4.425   4.303   4.550  0.3847  1.0198 -0.4726
 7513SOL     OW34000   4.614   1.559  10.848 -0.0582 -0.3497 -0.0625
 7513SOL    HW134001   4.683   1.613  10.809 -0.5754 -1.6348 -2.7037
 7513SOL    HW234002   4.648   1.471  10.828 -0.1237 -0.0752 -1.3201
 7514SOL     OW34003   1.942   4.449   2.291 -0.3866  0.4817  0.1297
 7514SOL    HW134004   1.874   4.383   2.308  0.8959 -0.5704  1.2000
 7514SOL    HW234005   1.954   4.487   2.378 -0.3851 -0.5689  0.5867
 7515SOL     OW34006   0.527   0.521   3.346  0.4913 -0.0608 -0.1768
 7515SOL    HW134007   0.604   0.578   3.349 -0.5834  1.4511 -1.0597
 7515SOL    HW234008   0.477   0.571   3.411  1.7181  1.1360 -0.1571
 7516SOL     OW34009   1.031   1.284  14.965  0.4149 -0.3755 -0.9238
 7516SOL    HW134010   0.981   1.241  15.034  1.0176  1.7383  0.8609
 7516SOL    HW234011   1.021   1.227  14.889 -1.0463 -0.5708 -0.5844
 7517SOL     OW34012   3.513   1.731  12.200 -0.1107  0.4528 -0.2697
 7517SOL    HW134013   3.440   1.773  12.154 -0.6633  1.0574  1.1731
 7517SOL    HW234014   3.551   1.814  12.228  0.5248 -0.4113  1.3877
 7518SOL     OW34015   3.117   1.963   3.149  0.2761  0.1706  0.3915
 7518SOL    HW134016   3.201   1.959   3.194  1.6582  0.0919 -2.1551
 7518SOL    HW234017   3.079   2.022   3.214  0.5145  0.5682  0.1678
 7519SOL     OW34018   0.814   2.653  11.039  0.1842 -0.4956 -0.4899
 7519SOL    HW134019   0.840   2.745  11.030  0.0419 -0.5205 -1.1963
 7519SOL    HW234020   0.882   2.614  10.984 -0.5233 -3.0487  0.4935
 7520SOL     OW34021   2.416   0.029   7.755 -0.0708 -0.2753 -0.1400
 7520SOL    HW134022   2.417   0.111   7.805 -0.6035 -1.3054  1.5620
 7520SOL    HW234023   2.507   0.014   7.730 -0.2165 -0.7713 -0.3681
 7521SOL     OW34024   3.009   2.986   1.864 -0.7460  0.6509  0.2080
 7521SOL    HW134025   3.093   2.942   1.876 -1.6950 -1.7803 -2.1930
 7521SOL    HW234026   2.965   2.916   1.816  1.0378 -0.8915  0.7831
 7522SOL     OW34027   2.140   2.830   5.799  0.0088 -0.0790 -0.2601
 7522SOL    HW134028   2.141   2.857   5.707  1.0660  0.3404 -0.1269
 7522SOL    HW234029   2.230   2.850   5.825 -0.4499  2.7752 -0.9212
 7523SOL     OW34030   2.148   3.376   2.112 -0.0476  0.0805  0.2817
 7523SOL    HW134031   2.237   3.406   2.128 -1.4476  2.7317  3.0062
 7523SOL    HW234032   2.154   3.329   2.028 -1.4270  2.0935 -0.9404
 7524SOL     OW34033   4.626   4.177  10.285 -0.9477  0.9862 -0.3035
 7524SOL    HW134034   4.545   4.216  10.317 -0.8329  0.0586  1.1065
 7524SOL    HW234035   4.640   4.107  10.349 -2.6973  0.7639 -0.1639
 7525SOL     OW34036   3.909   2.358   6.669 -0.5609  0.0834 -0.3664
 7525SOL    HW134037   3.851   2.289   6.701  0.6033  0.0076  1.6287
 7525SOL    HW234038   3.993   2.325   6.700  0.4850  2.3872 -0.7000
 7526SOL     OW34039   0.760   1.168   1.928  0.4711  0.4434  0.2625
 7526SOL    HW134040   0.817   1.091   1.922  0.0277 -0.0347  2.2893
 7526SOL    HW234041   0.800   1.204   1.849 -0.1551  0.9305  0.1664
 7527SOL     OW34042   0.682   4.604   4.507 -0.1263 -0.0491 -0.3527
 7527SOL    HW134043   0.718   4.679   4.554  5.3247 -2.7254 -0.3064
 7527SOL    HW234044   0.610   4.648   4.461  0.1316 -1.4011 -2.0017
 7528SOL     OW34045   1.953   3.115  15.968  0.1245 -0.2177  0.1720
 7528SOL    HW134046   2.018   3.101  16.036 -0.3913 -0.0365  0.7043
 7528SOL    HW234047   1.971   3.208  15.956  1.1786 -0.2413  1.7075
 7529SOL     OW34048   2.116   1.283   2.535 -0.2813 -0.0285  0.0057
 7529SOL    HW134049   2.161   1.326   2.607 -1.3465  0.0939  0.5951
 7529SOL    HW234050   2.096   1.204   2.585 -0.2855 -0.6636 -0.9998
 7530SOL     OW34051   0.630   0.872  13.701  0.4700 -0.6043 -0.1646
 7530SOL    HW134052   0.568   0.912  13.761  0.9331 -1.1072  0.6583
 7530SOL    HW234053   0.655   0.806  13.766 -0.0645 -0.2152  0.4386
 7531SOL     OW34054   3.587   0.836   8.882 -0.1414 -0.1375  0.3692
 7531SOL    HW134055   3.536   0.762   8.914 -0.8694  0.7660  1.2848
 7531SOL    HW234056   3.573   0.896   8.955  2.7245  1.6046 -0.5149
 7532SOL     OW34057   2.106   2.015  15.864 -0.5325 -0.0093  0.2646
 7532SOL    HW134058   2.065   2.045  15.945  0.1906 -1.0177  1.0231
 7532SOL    HW234059   2.041   2.027  15.795 -0.4197  0.5245  0.2564
 7533SOL     OW34060   3.429   0.776  11.632 -0.0581  0.8849 -0.2221
 7533SOL    HW134061   3.410   0.781  11.538  1.4319 -0.2677 -0.5789
 7533SOL    HW234062   3.442   0.869  11.653  0.3770  0.9360 -0.7242
 7534SOL     OW34063   2.009   4.478  10.407  0.3378 -0.0271  0.1696
 7534SOL    HW134064   2.058   4.410  10.454 -2.7149 -1.2229  1.6444
 7534SOL    HW234065   2.081   4.540  10.396  1.2222 -1.1971 -0.6030
 7535SOL     OW34066   2.653   3.092   8.461 -0.3280  0.2144  0.0100
 7535SOL    HW134067   2.560   3.070   8.470 -0.0936 -0.3941  0.9700
 7535SOL    HW234068   2.676   3.115   8.551 -1.5700 -0.4268  0.5012
 7536SOL     OW34069   3.161   3.661  14.283  0.0090  0.0201 -0.2274
 7536SOL    HW134070   3.165   3.591  14.348 -0.7284  1.6222  1.5475
 7536SOL    HW234071   3.253   3.685  14.282  0.3978 -1.4468  1.1988
 7537SOL     OW34072   1.046   0.565  17.087  0.2075  0.1908  0.5720
 7537SOL    HW134073   1.014   0.475  17.083  1.6263 -0.2989  0.2737
 7537SOL    HW234074   0.985   0.609  17.146  0.7329  1.6577  0.0388
 7538SOL     OW34075   1.632   4.122   4.103 -0.1469 -0.1268 -0.0154
 7538SOL    HW134076   1.597   4.043   4.145  2.6044 -1.1899  0.2812
 7538SOL    HW234077   1.557   4.149   4.051  2.4358  1.6269 -2.8066
 7539SOL     OW34078   3.629   2.656   9.970 -0.4687 -0.0723 -0.1068
 7539SOL    HW134079   3.661   2.573   9.934 -3.1057 -1.2446  0.2685
 7539SOL    HW234080   3.682   2.663  10.050 -0.9333 -0.8946  0.2779
 7540SOL     OW34081   0.881   3.221   8.128 -0.1722  0.1315  0.4296
 7540SOL    HW134082   0.791   3.205   8.097 -1.0677  2.8861  1.6617
 7540SOL    HW234083   0.862   3.188   8.216  1.4262 -2.4587 -0.1993
 7541SOL     OW34084   1.300   2.915   7.813  0.3721 -0.2674 -0.2094
 7541SOL    HW134085   1.371   2.908   7.876  2.0178 -0.1248 -2.0462
 7541SOL    HW234086   1.297   3.010   7.803 -2.6218 -0.4315 -0.9450
 7542SOL     OW34087   0.217   3.597   6.908  0.4167 -0.4567  0.1544
 7542SOL    HW134088   0.280   3.559   6.847 -0.2053  0.1704 -0.8639
 7542SOL    HW234089   0.136   3.551   6.885  0.1923  0.1661 -0.2843
 7543SOL     OW34090   0.345   3.138   7.022 -0.0530  0.4714 -0.3599
 7543SOL    HW134091   0.409   3.127   6.952 -0.6209  0.7434 -0.9180
 7543SOL    HW234092   0.267   3.104   6.978 -0.3118  3.0530 -1.8859
 7544SOL     OW34093   1.794   0.941   2.808  0.4740 -0.1702 -0.1241
 7544SOL    HW134094   1.814   0.904   2.894  2.2445  1.3504  0.1338
 7544SOL    HW234095   1.720   0.997   2.828  0.6809 -1.1598  3.4209
 7545SOL     OW34096   2.414   1.824   6.056  0.7132 -0.2450  0.0519
 7545SOL    HW134097   2.354   1.794   5.987  0.0209  0.5818  0.2907
 7545SOL    HW234098   2.494   1.819   6.004 -0.4939  0.0890 -1.8677
 7546SOL     OW34099   2.562   0.966   3.433  0.0198  0.2539 -0.4804
 7546SOL    HW134100   2.575   1.031   3.365 -1.8299  0.7497 -0.3522
 7546SOL    HW234101   2.467   0.972   3.439  0.0503 -0.3075  0.6229
 7547SOL     OW34102   0.625   4.666   4.919 -0.3116  0.8743 -0.7630
 7547SOL    HW134103   0.685   4.705   4.983 -2.2813  2.5569  0.0758
 7547SOL    HW234104   0.694   4.615   4.878  0.2358  1.2896 -0.3642
 7548SOL     OW34105   3.944   3.083   8.071  0.3823 -0.2440  0.0031
 7548SOL    HW134106   3.996   3.163   8.073  0.0392 -0.0202  0.1038
 7548SOL    HW234107   3.857   3.119   8.090  1.0017  1.2159  0.1082
 7549SOL     OW34108   4.114   1.774   8.778 -0.1706 -0.6269  0.6918
 7549SOL    HW134109   4.030   1.812   8.756  1.0103  2.5304  1.6331
 7549SOL    HW234110   4.106   1.762   8.873  1.7660 -1.8126  0.7118
 7550SOL     OW34111   1.630   0.323   2.311 -0.1394 -0.1754 -1.1495
 7550SOL    HW134112   1.631   0.376   2.391 -0.6328 -0.3054 -1.0623
 7550SOL    HW234113   1.642   0.389   2.242  0.1374  0.6145 -0.3526
 7551SOL     OW34114   3.033   0.825   5.571  0.1079 -0.5545 -0.2690
 7551SOL    HW134115   3.033   0.897   5.635  1.0087 -0.0061 -0.8869
 7551SOL    HW234116   3.083   0.763   5.623 -0.0178 -2.4152 -2.3708
 7552SOL     OW34117   0.502   4.597   2.086 -0.3002  0.0721 -0.5003
 7552SOL    HW134118   0.527   4.557   2.003  0.8351  1.0888 -0.6498
 7552SOL    HW234119   0.544   4.682   2.075 -1.4556  1.0700  2.8958
 7553SOL     OW34120   2.507   3.123   2.514  0.3608  0.0249 -0.4511
 7553SOL    HW134121   2.441   3.191   2.501  1.0008  0.7743  0.2091
 7553SOL    HW234122   2.519   3.117   2.609 -0.2781  0.7187 -0.3280
 7554SOL     OW34123   3.870   1.782  13.473 -0.3237  0.0546 -0.0044
 7554SOL    HW134124   3.908   1.775  13.385  1.0442  0.3354  0.5753
 7554SOL    HW234125   3.947   1.821  13.514  0.7978 -0.5064 -1.5907
 7555SOL     OW34126   0.461   2.304  14.248 -0.1170  0.1732  0.1888
 7555SOL    HW134127   0.507   2.375  14.292 -0.3016  1.3419 -1.4736
 7555SOL    HW234128   0.391   2.360  14.214  0.1614  1.0331  1.0465
 7556SOL     OW34129   2.650   0.633   8.706  0.4549  0.4288  0.4056
 7556SOL    HW134130   2.737   0.666   8.729  0.0699  0.0132  2.5148
 7556SOL    HW234131   2.602   0.689   8.768 -1.1153 -0.3243 -0.1323
 7557SOL     OW34132   0.347   3.076   8.115 -0.2533 -0.0728 -0.1817
 7557SOL    HW134133   0.260   3.049   8.143  0.0554  0.4008  1.2833
 7557SOL    HW234134   0.329   3.145   8.052  0.8812 -0.5990 -1.0678
 7558SOL     OW34135   3.445   0.419   7.327  0.3392 -0.0761  0.1709
 7558SOL    HW134136   3.487   0.334   7.337  3.4097  1.1776 -2.0048
 7558SOL    HW234137   3.362   0.389   7.291 -0.2000  3.2814 -1.4115
 7559SOL     OW34138   1.431   1.897  15.642  0.5127  0.3108  0.4503
 7559SOL    HW134139   1.520   1.877  15.613  1.3937  0.4888  3.0344
 7559SOL    HW234140   1.404   1.806  15.659 -0.1574  0.3657 -0.2865
 7560SOL     OW34141   2.832   3.666   9.731 -0.3832  0.0455 -0.3484
 7560SOL    HW134142   2.909   3.718   9.754 -0.0018 -0.8035  0.2846
 7560SOL    HW234143   2.764   3.733   9.731 -0.3542  0.0797  0.2837
 7561SOL     OW34144   4.125   2.326   5.663  0.2146 -0.6622  0.2677
 7561SOL    HW134145   4.136   2.421   5.671 -0.7744 -0.4983 -0.4264
 7561SOL    HW234146   4.173   2.303   5.584  1.7088  0.8657  0.7212
 7562SOL     OW34147   1.914   4.107   3.914  0.3880  0.4636 -0.0706
 7562SOL    HW134148   1.866   4.135   3.991 -0.3556 -2.8094  0.6796
 7562SOL    HW234149   1.883   4.160   3.841  2.5282 -0.8939 -2.0094
 7563SOL     OW34150   0.808   0.044   2.450 -0.7636 -0.1619 -0.2119
 7563SOL    HW134151   0.787   4.670   2.452 -0.1377 -0.2540  2.4958
 7563SOL    HW234152   0.811   0.062   2.357  0.4449  1.6391  0.1767
 7564SOL     OW34153   2.908   0.736   8.763 -0.1560 -0.4236 -0.8014
 7564SOL    HW134154   2.969   0.809   8.768  1.5573 -2.0765  1.9817
 7564SOL    HW234155   2.948   0.677   8.826 -0.2169 -3.3058 -3.4964
 7565SOL     OW34156   2.110   2.689   6.104 -0.0192 -0.3970 -0.5603
 7565SOL    HW134157   2.033   2.723   6.059 -0.4549 -1.3174 -0.4994
 7565SOL    HW234158   2.118   2.761   6.167 -2.7750 -1.6228  1.1745
 7566SOL     OW34159   2.066   1.764  10.717  0.1386 -0.5575 -0.0771
 7566SOL    HW134160   2.002   1.777  10.787  0.7726  0.4743  0.3194
 7566SOL    HW234161   2.101   1.679  10.744  1.7742  0.7031  1.7390
 7567SOL     OW34162   2.613   3.139   9.328 -0.1001  0.0184 -0.7646
 7567SOL    HW134163   2.625   3.128   9.234  0.0722 -1.2778 -0.5954
 7567SOL    HW234164   2.533   3.192   9.334  0.2905  0.2272  2.4956
 7568SOL     OW34165   4.579   3.179  17.515  0.0322 -0.1613  0.2701
 7568SOL    HW134166   4.671   3.171  17.491 -0.1114 -2.9080  0.5706
 7568SOL    HW234167   4.556   3.266  17.482  1.0345  0.1965  0.5185
 7569SOL     OW34168   4.041   3.781   5.250  1.1633 -0.3641  0.4474
 7569SOL    HW134169   4.134   3.794   5.236  1.3958 -0.3325  2.0606
 7569SOL    HW234170   4.033   3.687   5.230  0.7022 -0.3159  0.4078
 7570SOL     OW34171   2.274   3.416   6.881  0.2537  0.1244 -0.0619
 7570SOL    HW134172   2.233   3.338   6.918 -0.0930  0.5895  0.5378
 7570SOL    HW234173   2.232   3.416   6.796  1.1937 -0.2222 -0.5310
 7571SOL     OW34174   2.040   1.067   5.456  0.4838  0.0571  0.5804
 7571SOL    HW134175   2.051   1.134   5.388 -1.6734  0.8652  1.0124
 7571SOL    HW234176   2.015   0.985   5.412 -1.8333  0.3536  1.3564
 7572SOL     OW34177   1.059   1.645   2.460 -0.3672 -0.1628  0.3771
 7572SOL    HW134178   1.038   1.716   2.521  2.2427  1.1151 -0.2071
 7572SOL    HW234179   1.104   1.699   2.394 -3.2415  1.5585 -0.2031
 7573SOL     OW34180   0.032   1.930   1.265 -0.2540  0.7714 -0.7072
 7573SOL    HW134181   0.062   1.868   1.198 -2.5262 -0.0555 -0.9540
 7573SOL    HW234182   4.680   1.972   1.217 -0.8720 -0.9401 -1.2538
 7574SOL     OW34183   1.657   0.220   3.653  0.0337 -0.2808 -0.3788
 7574SOL    HW134184   1.745   0.182   3.661 -0.1125 -0.2939  1.1070
 7574SOL    HW234185   1.625   0.204   3.741  1.3555 -2.3379 -0.2486
 7575SOL     OW34186   2.109   4.166  14.512  0.0493 -0.3022  0.4822
 7575SOL    HW134187   2.163   4.108  14.459 -0.1140  1.7835 -1.9301
 7575SOL    HW234188   2.122   4.137  14.603  1.7637 -0.6814  0.1229
 7576SOL     OW34189   4.618   1.258   4.761 -0.0369  0.4608 -0.7765
 7576SOL    HW134190   4.549   1.195   4.781 -1.1755  1.9773  0.0751
 7576SOL    HW234191   4.691   1.231   4.817  1.7055  1.4131 -2.5523
 7577SOL     OW34192   4.563   2.539   8.528  0.3201  0.5712 -0.0307
 7577SOL    HW134193   4.535   2.455   8.565  0.7871  0.8329  0.9111
 7577SOL    HW234194   4.645   2.517   8.485  0.7743 -0.1223  1.1886
 7578SOL     OW34195   0.573   1.404   6.237  0.6082 -0.8607 -0.0533
 7578SOL    HW134196   0.575   1.319   6.280 -0.8211 -1.0072 -0.2754
 7578SOL    HW234197   0.507   1.449   6.290  2.8149  0.0310  1.9401
 7579SOL     OW34198   3.939   4.238   4.315 -0.5638  0.0531 -0.2244
 7579SOL    HW134199   3.910   4.200   4.232 -0.3539  0.6414 -0.5715
 7579SOL    HW234200   3.873   4.203   4.375 -1.0017  0.3666 -0.5250
 7580SOL     OW34201   2.237   1.361   3.568 -0.0153 -0.2185 -0.2620
 7580SOL    HW134202   2.197   1.409   3.641 -0.8564  1.7671 -2.0060
 7580SOL    HW234203   2.321   1.406   3.561 -0.4436  0.7010  0.4384
 7581SOL     OW34204   0.238   1.699  17.431  0.5647  0.2102  0.3973
 7581SOL    HW134205   0.213   1.790  17.444 -0.1496 -0.1366  1.4248
 7581SOL    HW234206   0.318   1.698  17.483 -0.6404 -0.5746  2.2462
 7582SOL     OW34207   0.520   4.556   1.623  0.4636 -0.3184  0.3094
 7582SOL    HW134208   0.465   4.569   1.545  0.4484 -0.5052  0.2887
 7582SOL    HW234209   0.561   4.473   1.598 -0.7300 -0.6290 -0.6457
 7583SOL     OW34210   2.792   2.509   2.400 -0.6015  0.0464  0.1369
 7583SOL    HW134211   2.736   2.487   2.326 -1.0097  0.7093  0.2490
 7583SOL    HW234212   2.835   2.592   2.379 -1.8011  1.2522  2.3817
 7584SOL     OW34213   0.337   3.219   6.449 -0.3210 -0.0860  0.9916
 7584SOL    HW134214   0.301   3.270   6.376 -1.0320 -0.9355  0.7514
 7584SOL    HW234215   0.410   3.168   6.414 -1.4810  0.4393 -2.1474
 7585SOL     OW34216   4.560   3.320   7.530 -0.2223 -0.7421  0.2044
 7585SOL    HW134217   4.517   3.267   7.597 -2.5362  1.6304  0.5450
 7585SOL    HW234218   4.630   3.257   7.511  0.5537  1.1706 -3.2186
 7586SOL     OW34219   2.736   1.526   3.340 -0.0521  0.3462  0.0972
 7586SOL    HW134220   2.811   1.575   3.372 -0.0217 -0.3518  1.0861
 7586SOL    HW234221   2.774   1.439   3.324  0.6350  1.0757 -2.2072
 7587SOL     OW34222   2.104   2.792   8.195 -0.2274 -0.2950 -0.3953
 7587SOL    HW134223   2.050   2.721   8.231 -0.6638  0.4867  0.4697
 7587SOL    HW234224   2.059   2.871   8.223 -0.8780 -1.5163  1.9985
 7588SOL     OW34225   1.381   1.132  12.768  0.1350 -0.0592  0.4180
 7588SOL    HW134226   1.347   1.044  12.750 -0.9480  0.4192  0.1263
 7588SOL    HW234227   1.403   1.165  12.681  1.6115  2.0799  1.6137
 7589SOL     OW34228   3.900   0.415   5.483 -0.1696 -0.6610  0.6713
 7589SOL    HW134229   3.927   0.462   5.404 -1.1661 -0.5829  0.3768
 7589SOL    HW234230   3.981   0.397   5.530 -0.5235 -1.2411  1.0430
 7590SOL     OW34231   3.439   1.270   6.845 -0.3050 -0.0546  0.1470
 7590SOL    HW134232   3.492   1.327   6.901 -0.5861  1.5666 -1.2129
 7590SOL    HW234233   3.495   1.193   6.851  1.5688  1.4297  1.5296
 7591SOL     OW34234   1.304   1.831  11.740  0.5197  0.1316 -0.4866
 7591SOL    HW134235   1.276   1.836  11.648 -0.3339 -2.3460 -0.3736
 7591SOL    HW234236   1.388   1.786  11.734  0.1917 -0.1591 -2.8306
 7592SOL     OW34237   0.420   2.025   9.322 -0.4775  0.1990 -1.1416
 7592SOL    HW134238   0.403   1.932   9.304  1.5942 -0.5162  0.5581
 7592SOL    HW234239   0.431   2.027   9.417 -3.3318 -1.0688 -0.7857
 7593SOL     OW34240   1.363   3.592   3.032 -0.4691  0.0868 -0.5349
 7593SOL    HW134241   1.454   3.585   3.059 -0.4135 -3.0767 -1.5996
 7593SOL    HW234242   1.372   3.555   2.944 -0.9970 -0.8463 -0.1947
 7594SOL     OW34243   2.335   2.553   0.058 -0.3857  0.3821  0.0466
 7594SOL    HW134244   2.299   2.608  17.671  0.7847  0.5708 -0.3969
 7594SOL    HW234245   2.272   2.482   0.071 -0.5016  0.6295  0.8235
 7595SOL     OW34246   0.621   0.798   8.047 -0.2137  0.0639  0.3805
 7595SOL    HW134247   0.611   0.793   7.952  2.2267 -1.8115  0.2200
 7595SOL    HW234248   0.533   0.826   8.073  0.0655  0.7403  0.5972
 7596SOL     OW34249   3.183   2.200  14.603 -0.6239 -0.1366 -0.2843
 7596SOL    HW134250   3.206   2.129  14.662 -1.7874  1.3046  1.9400
 7596SOL    HW234251   3.143   2.163  14.524 -0.2989  3.7985 -2.3277
 7597SOL     OW34252   0.537   3.276  17.050  0.2735  0.1980  0.4840
 7597SOL    HW134253   0.623   3.238  17.030  0.1812  0.2957 -0.0979
 7597SOL    HW234254   0.526   3.261  17.144  2.0025  0.9560  0.8125
 7598SOL     OW34255   2.631   0.020   5.381  0.0718 -0.4682 -0.7022
 7598SOL    HW134256   2.577   0.031   5.459 -0.3357 -0.9281 -0.9171
 7598SOL    HW234257   2.619   4.645   5.373 -0.9310 -0.4588  0.5834
 7599SOL     OW34258   4.596   3.411   5.313  0.5301  0.0579 -0.0672
 7599SOL    HW134259   4.630   3.378   5.230  2.4275  0.2109  0.6451
 7599SOL    HW234260   4.563   3.497   5.287 -1.1571 -0.5625  0.0428
 7600SOL     OW34261   0.369   2.177   8.915 -0.0922  0.5929  0.1571
 7600SOL    HW134262   0.350   2.089   8.882 -0.3686  0.4773  0.6294
 7600SOL    HW234263   0.442   2.194   8.856 -0.3481  0.2695 -0.2568
 7601SOL     OW34264   3.462   1.058   7.912 -0.4918  0.3462 -0.9768
 7601SOL    HW134265   3.419   1.126   7.965 -2.0776 -0.0453 -1.7714
 7601SOL    HW234266   3.449   0.983   7.971  4.3787 -0.3273 -0.7506
 7602SOL     OW34267   2.727   4.473   7.662  0.3907 -0.1006  0.1160
 7602SOL    HW134268   2.737   4.551   7.608  0.3756 -1.0410 -1.2673
 7602SOL    HW234269   2.782   4.412   7.612 -0.1547  0.3855 -1.0807
 7603SOL     OW34270   2.769   3.705   0.340  0.1456  0.0550 -0.1919
 7603SOL    HW134271   2.699   3.749   0.290  0.6375  0.2618 -0.6972
 7603SOL    HW234272   2.786   3.767   0.411  0.3321  0.1456 -0.3160
 7604SOL     OW34273   1.709   1.592  12.196  0.0146  0.1338 -0.4951
 7604SOL    HW134274   1.743   1.592  12.286 -0.6737 -0.7008 -0.2451
 7604SOL    HW234275   1.648   1.519  12.204 -0.4874  0.7319  1.2096
 7605SOL     OW34276   0.822   2.371   0.086 -0.5432 -0.2067  0.0614
 7605SOL    HW134277   0.878   2.446   0.106 -2.3524  0.9087  0.9711
 7605SOL    HW234278   0.831   2.309   0.158 -2.7106  1.0606  1.4226
 7606SOL     OW34279   0.431   4.328   7.813  0.2987 -0.2541 -0.6859
 7606SOL    HW134280   0.375   4.395   7.776  0.6627  1.0766  1.2120
 7606SOL    HW234281   0.399   4.241   7.788 -1.5455 -0.0567  1.0049
 7607SOL     OW34282   2.468   3.556   5.045 -0.6205  0.4367 -0.6014
 7607SOL    HW134283   2.439   3.565   5.136 -1.6246  1.0501 -0.9928
 7607SOL    HW234284   2.472   3.460   5.050  0.7336  0.4029 -2.6534
 7608SOL     OW34285   3.003   3.848  12.319 -0.0421 -0.1393  0.2202
 7608SOL    HW134286   2.938   3.778  12.308  1.9548 -2.0397  0.6117
 7608SOL    HW234287   3.034   3.822  12.406  0.9456  0.7895  0.1450
 7609SOL     OW34288   2.615   4.411   7.897 -0.3417  0.1283  0.3426
 7609SOL    HW134289   2.667   4.434   7.820  0.1860 -0.9719  0.3815
 7609SOL    HW234290   2.525   4.420   7.863 -0.6825 -1.0018  0.9594
 7610SOL     OW34291   1.655   3.100   4.195  0.0752 -0.2148  0.2796
 7610SOL    HW134292   1.728   3.074   4.252  0.7349  2.1297  0.5051
 7610SOL    HW234293   1.662   3.195   4.190 -1.4546 -0.1272 -0.1950
 7611SOL     OW34294   1.446   2.546   2.792 -0.1704  0.4422 -0.1003
 7611SOL    HW134295   1.375   2.575   2.734 -0.1029 -1.4976 -1.1718
 7611SOL    HW234296   1.492   2.627   2.812 -1.6288  1.5785 -1.3188
 7612SOL     OW34297   2.757   4.059   2.635 -0.5422 -0.0683  0.3820
 7612SOL    HW134298   2.846   4.030   2.651  0.3129  1.6643 -1.2912
 7612SOL    HW234299   2.762   4.123   2.564  2.6646  0.1882  0.8634
 7613SOL     OW34300   4.487   2.570   8.052  0.0872  0.4009  0.0786
 7613SOL    HW134301   4.563   2.597   8.000 -0.6289 -2.4545 -2.4985
 7613SOL    HW234302   4.493   2.633   8.123  2.4510 -0.0307  0.2901
 7614SOL     OW34303   4.508   0.577   8.333 -0.3010 -0.8317  0.1209
 7614SOL    HW134304   4.479   0.666   8.352  1.9003  0.1075 -0.8894
 7614SOL    HW234305   4.436   0.530   8.374 -1.1287 -0.9674 -1.4846
 7615SOL     OW34306   3.155   2.543   4.406 -0.1874  0.4804  0.0723
 7615SOL    HW134307   3.149   2.553   4.501 -1.0222  0.8305 -0.0126
 7615SOL    HW234308   3.079   2.599   4.391 -0.5694 -0.0202  0.1539
 7616SOL     OW34309   3.722   2.063   4.273  0.4741  0.4375  0.3843
 7616SOL    HW134310   3.645   2.080   4.219  0.8864  2.0861  0.3112
 7616SOL    HW234311   3.780   2.130   4.237 -1.2259  1.6446 -0.1309
 7617SOL     OW34312   1.727   3.849   3.407 -0.4880  0.5756 -0.0885
 7617SOL    HW134313   1.813   3.885   3.428  0.1753 -1.4254  0.6677
 7617SOL    HW234314   1.695   3.913   3.343  0.4076  0.8152 -0.2908
 7618SOL     OW34315   1.127   2.451   5.470 -0.2614 -0.6377 -0.7479
 7618SOL    HW134316   1.108   2.503   5.393 -0.6815  0.9248  0.4276
 7618SOL    HW234317   1.071   2.488   5.538  2.4664 -0.5506  1.4989
 7619SOL     OW34318   4.644   2.632   7.840  0.1847  0.1016 -0.4469
 7619SOL    HW134319   4.654   2.580   7.761  2.1752  0.9918 -0.7798
 7619SOL    HW234320   0.015   2.659   7.855  0.2297 -0.7549  0.8374
 7620SOL     OW34321   1.402   2.782   9.118  0.1435 -0.1255  0.4590
 7620SOL    HW134322   1.388   2.874   9.095  2.0046 -0.0888 -0.5778
 7620SOL    HW234323   1.347   2.783   9.196  1.0802  0.8712  1.1114
 7621SOL     OW34324   2.350   1.469   4.984 -0.1438  0.5158 -0.2036
 7621SOL    HW134325   2.351   1.392   5.041 -0.8220  0.0494 -0.8211
 7621SOL    HW234326   2.329   1.537   5.048 -2.1397  0.5035 -0.8480
 7622SOL     OW34327   2.279   3.202   6.519  0.2469 -0.1397  0.7630
 7622SOL    HW134328   2.314   3.211   6.607 -2.8662  0.7565  1.9053
 7622SOL    HW234329   2.303   3.288   6.485 -0.0683 -0.7455 -1.0138
 7623SOL     OW34330   1.281   4.689   2.213  0.3647 -0.2697 -0.0911
 7623SOL    HW134331   1.372   4.663   2.221  0.0863 -0.7274  1.7017
 7623SOL    HW234332   1.297   0.063   2.225  1.6297 -0.4082 -0.7864
 7624SOL     OW34333   2.042   1.345   1.292 -0.2432  0.0843 -0.0017
 7624SOL    HW134334   1.967   1.300   1.251  0.0296  0.9643 -1.4788
 7624SOL    HW234335   2.017   1.437   1.299  1.3221  0.5218 -0.2120
 7625SOL     OW34336   1.836   0.178   7.694  0.0577 -0.1549 -0.4202
 7625SOL    HW134337   1.852   0.086   7.716  0.3779  0.0021  0.0026
 7625SOL    HW234338   1.917   0.224   7.719  0.7640 -1.5675 -0.1107
 7626SOL     OW34339   0.108   0.786  16.649  0.0387 -0.1132 -0.3680
 7626SOL    HW134340   0.054   0.707  16.648 -2.1957  1.4229 -0.8307
 7626SOL    HW234341   0.041   0.842  16.687  1.6603  1.1516  0.6754
 7627SOL     OW34342   4.511   4.181  14.842 -0.3980  0.8199 -0.9216
 7627SOL    HW134343   4.457   4.182  14.763 -0.8428  0.4430 -0.6230
 7627SOL    HW234344   4.586   4.122  14.829 -0.0924  0.8680  0.5373
 7628SOL     OW34345   2.888   0.263   3.838  0.4519  0.4797 -0.1481
 7628SOL    HW134346   2.895   0.192   3.901 -1.1921 -2.1896 -2.9164
 7628SOL    HW234347   2.968   0.313   3.847 -1.9394  4.1057  0.9174
 7629SOL     OW34348   3.363   4.253   7.470 -0.1518  0.0803 -0.1177
 7629SOL    HW134349   3.418   4.323   7.506 -1.7680  1.0687  0.4838
 7629SOL    HW234350   3.373   4.189   7.541 -1.8570 -2.0931 -1.8305
 7630SOL     OW34351   4.709   0.449   4.991  1.0301  0.1410  0.3412
 7630SOL    HW134352   4.656   0.528   4.990 -1.9104 -1.8555  0.9414
 7630SOL    HW234353   4.649   0.384   4.956  1.1688  0.4028 -0.3829
 7631SOL     OW34354   3.358   1.862   9.305  0.0275  0.1465  0.7924
 7631SOL    HW134355   3.385   1.946   9.341  1.1680  0.9798 -2.0347
 7631SOL    HW234356   3.294   1.895   9.243 -1.2547  0.6663  2.3861
 7632SOL     OW34357   4.421   2.353  17.002  0.0824  0.2734  0.2122
 7632SOL    HW134358   4.447   2.405  17.078 -2.7788  1.4412  0.4052
 7632SOL    HW234359   4.332   2.325  17.025 -1.4515  3.3832 -2.0199
 7633SOL     OW34360   2.297   0.627   8.670 -0.1147 -0.2872  0.2349
 7633SOL    HW134361   2.343   0.698   8.715 -1.8174  1.4568 -0.7551
 7633SOL    HW234362   2.280   0.567   8.742  0.2367 -0.4131  0.2154
 7634SOL     OW34363   2.863   2.945   5.244 -0.2564 -0.1698 -1.1358
 7634SOL    HW134364   2.879   2.916   5.154 -0.3466  0.9707 -1.5215
 7634SOL    HW234365   2.872   3.040   5.239 -1.5443 -0.0295 -0.5788
 7635SOL     OW34366   2.030   4.618   7.994  0.1069 -0.1615 -0.3059
 7635SOL    HW134367   2.060   4.689   8.050  0.2015  0.1066 -0.7032
 7635SOL    HW234368   2.067   4.642   7.909 -0.3651  1.2721 -0.0969
 7636SOL     OW34369   3.457   3.529   7.463  0.4581  0.1383 -0.2368
 7636SOL    HW134370   3.464   3.440   7.498 -1.3347  1.3706  3.1804
 7636SOL    HW234371   3.551   3.542   7.450  0.6029 -0.1750  0.4985
 7637SOL     OW34372   3.749   0.011   6.431 -0.8930 -0.6909 -0.4742
 7637SOL    HW134373   3.780   0.040   6.517 -0.6984  2.3311 -1.5528
 7637SOL    HW234374   3.658   0.036   6.446 -1.2014 -2.2630  0.2921
 7638SOL     OW34375   1.229   4.679  14.088  0.1985  0.4584  0.0805
 7638SOL    HW134376   1.190   4.593  14.102 -0.6718  0.4332 -2.3884
 7638SOL    HW234377   1.149   4.719  14.053  0.9616  0.9008 -1.1600
 7639SOL     OW34378   2.846   3.812   4.558 -0.3157 -0.1907 -0.3851
 7639SOL    HW134379   2.803   3.749   4.616  0.1319  0.2380  0.4272
 7639SOL    HW234380   2.772   3.866   4.531  0.3625  0.1227 -1.6189
 7640SOL     OW34381   0.577   3.507   5.463  0.5643 -0.3068 -0.2445
 7640SOL    HW134382   0.587   3.412   5.469 -0.4247 -0.3233  1.1642
 7640SOL    HW234383   0.493   3.521   5.507  0.7043  3.3354 -1.0580
 7641SOL     OW34384   4.452   1.744  13.365  0.1538 -0.1657  0.0086
 7641SOL    HW134385   4.388   1.672  13.372 -1.7495  1.6024  0.7256
 7641SOL    HW234386   4.462   1.746  13.270 -0.4804  0.1505 -0.0515
 7642SOL     OW34387   3.051   1.721   2.994 -0.1540  0.3964 -0.2900
 7642SOL    HW134388   3.056   1.655   3.063 -0.1909 -1.1375 -1.7386
 7642SOL    HW234389   3.076   1.803   3.036 -2.1878  1.2909 -0.8425
 7643SOL     OW34390   2.259   3.515  15.683 -0.0826 -1.0473  0.1607
 7643SOL    HW134391   2.214   3.472  15.755  1.0211  0.7229  1.9213
 7643SOL    HW234392   2.351   3.505  15.706 -0.2255 -0.3114  1.0708
 7644SOL     OW34393   1.748   1.699   3.714 -0.0893 -0.1933 -0.1139
 7644SOL    HW134394   1.780   1.676   3.627  1.4404 -0.6530  0.5843
 7644SOL    HW234395   1.704   1.618   3.740  0.6493 -0.6434 -0.2938
 7645SOL     OW34396   2.900   3.342   5.639  0.2528  0.6465  0.0525
 7645SOL    HW134397   2.951   3.261   5.653  1.2006  1.6667  2.6212
 7645SOL    HW234398   2.818   3.298   5.617 -1.2781  2.7800  1.5230
 7646SOL     OW34399   2.322   0.075   2.325 -0.4758 -0.1024 -0.0089
 7646SOL    HW134400   2.370   0.097   2.245 -2.0232  0.0174 -0.9176
 7646SOL    HW234401   2.234   0.101   2.299  0.5179  3.2301  0.0085
 7647SOL     OW34402   0.386   0.096   8.175  0.3618  0.0017 -0.0721
 7647SOL    HW134403   0.347   0.103   8.262  0.9715  1.3901  0.0918
 7647SOL    HW234404   0.373   0.183   8.137  2.2780 -0.0182 -0.7660
 7648SOL     OW34405   3.538   3.613   6.355  0.5401 -0.0974 -0.0603
 7648SOL    HW134406   3.495   3.536   6.393 -1.0772 -0.3291 -2.3912
 7648SOL    HW234407   3.610   3.635   6.415  0.7594  1.8204 -1.0175
 7649SOL     OW34408   2.950   2.918  15.000  0.2043 -0.4779  0.3851
 7649SOL    HW134409   2.954   3.001  14.953 -0.3947 -0.2048  0.8228
 7649SOL    HW234410   3.002   2.866  14.938 -1.3227 -0.3234 -1.0177
 7650SOL     OW34411   3.438   1.185   6.568  0.0897  0.4236  0.1124
 7650SOL    HW134412   3.358   1.140   6.544  1.7796 -2.7842  0.5325
 7650SOL    HW234413   3.427   1.179   6.663  0.5933  0.9777  0.2088
 7651SOL     OW34414   4.380   3.259   6.473  0.1020 -0.2063 -0.1507
 7651SOL    HW134415   4.339   3.277   6.388 -0.2000 -1.5062 -0.2736
 7651SOL    HW234416   4.303   3.241   6.527  0.6925  3.2616  1.8581
 7652SOL     OW34417   3.178   3.194   7.222 -0.4477  0.3603  0.3885
 7652SOL    HW134418   3.186   3.118   7.165 -0.9305 -0.3703  1.2825
 7652SOL    HW234419   3.221   3.144   7.292  2.7178  2.3666 -0.1108
 7653SOL     OW34420   3.581   4.473   5.585  0.3687  0.5805 -0.0592
 7653SOL    HW134421   3.579   4.563   5.551 -0.0248  1.6947  2.9437
 7653SOL    HW234422   3.624   4.424   5.515  1.9466 -1.9078  2.6630
 7654SOL     OW34423   0.419   0.607   7.624 -0.4883 -0.1268  0.7090
 7654SOL    HW134424   0.365   0.531   7.603 -2.8599  1.6236  0.4620
 7654SOL    HW234425   0.354   0.672   7.596  0.7744  0.7976 -0.0713
 7655SOL     OW34426   0.480   1.093   1.904 -0.7751  0.0846 -0.3652
 7655SOL    HW134427   0.494   1.065   1.814 -0.8734  1.6046 -0.8569
 7655SOL    HW234428   0.567   1.130   1.918  0.0140 -2.8461  2.6221
 7656SOL     OW34429   0.374   4.518   6.022  0.3987 -0.4027  0.1926
 7656SOL    HW134430   0.397   4.502   5.931 -0.2943 -0.8461  0.0988
 7656SOL    HW234431   0.439   4.470   6.074  0.9648  1.3522  1.1055
 7657SOL     OW34432   0.393   4.545   2.870  0.1899 -0.1507  0.4533
 7657SOL    HW134433   0.463   4.574   2.929  0.3763  0.3848 -0.0312
 7657SOL    HW234434   0.409   4.592   2.789 -1.3059 -1.7605 -0.7797
 7658SOL     OW34435   0.981   0.461  14.104 -0.2309  0.4149 -0.2300
 7658SOL    HW134436   1.005   0.514  14.180  0.7742 -3.3493  2.0786
 7658SOL    HW234437   0.892   0.489  14.082 -0.1153  0.1637 -1.0270
 7659SOL     OW34438   1.736   2.196  11.540  0.0106 -0.6108  0.6367
 7659SOL    HW134439   1.650   2.165  11.511  0.0892 -0.0126 -0.2071
 7659SOL    HW234440   1.772   2.110  11.563 -2.0559 -1.2920  1.3729
 7660SOL     OW34441   1.731   0.255  10.905 -0.6717 -0.4619  0.6002
 7660SOL    HW134442   1.778   0.315  10.848 -3.3327 -1.2962 -2.4734
 7660SOL    HW234443   1.730   0.173  10.856  0.2620  0.5483 -1.0802
 7661SOL     OW34444   4.129   1.139  13.882  0.0707  0.3794  0.0098
 7661SOL    HW134445   4.139   1.089  13.962  2.6158  2.9512  1.3162
 7661SOL    HW234446   4.039   1.170  13.898  1.0670  2.3578  1.8348
 7662SOL     OW34447   2.986   0.670  15.536 -0.0150  0.4251 -0.3304
 7662SOL    HW134448   3.016   0.727  15.465 -0.2607  0.6814 -0.2316
 7662SOL    HW234449   3.047   0.690  15.606  2.8781 -2.7967 -1.9684
 7663SOL     OW34450   0.678   2.781   2.547  0.2348 -0.2639 -0.1005
 7663SOL    HW134451   0.759   2.797   2.498  0.9614 -0.7715  0.9389
 7663SOL    HW234452   0.615   2.818   2.484 -0.2195 -1.3279 -0.2682
 7664SOL     OW34453   0.810   1.389   6.922  0.0376  0.4584 -0.4791
 7664SOL    HW134454   0.725   1.346   6.927  1.0698 -1.6525 -1.3594
 7664SOL    HW234455   0.852   1.349   6.998 -0.7934 -0.7641 -0.6769
 7665SOL     OW34456   0.141   1.695   8.421 -0.0251 -0.3771  0.5096
 7665SOL    HW134457   0.151   1.644   8.502 -1.2701  0.5156  1.2190
 7665SOL    HW234458   0.181   1.630   8.362  0.5101 -0.8708  1.4105
 7666SOL     OW34459   3.574   0.786   2.521 -0.1249  0.0558  0.3405
 7666SOL    HW134460   3.574   0.771   2.427 -0.8576  2.7788 -0.0957
 7666SOL    HW234461   3.480   0.800   2.529 -0.2013  0.5498 -1.4961
 7667SOL     OW34462   0.638   0.065   8.110 -0.3126 -0.2327  0.2082
 7667SOL    HW134463   0.648   0.016   8.028  2.5894 -0.5855  0.7871
 7667SOL    HW234464   0.543   0.082   8.113 -0.0277  1.4939 -0.9664
 7668SOL     OW34465   4.607   1.498   5.198 -0.1973 -0.0560 -0.0854
 7668SOL    HW134466   4.580   1.412   5.228  0.4068  0.2892  1.4366
 7668SOL    HW234467   4.540   1.554   5.238  0.7151  0.5861  0.5532
 7669SOL     OW34468   4.427   1.882   5.214  0.2173 -0.1101  0.3925
 7669SOL    HW134469   4.396   1.867   5.124  0.0331 -2.3327  0.8326
 7669SOL    HW234470   4.413   1.793   5.247 -0.6430 -0.1977 -0.1901
 7670SOL     OW34471   4.375   0.364   5.258  1.2054  0.5870  0.1647
 7670SOL    HW134472   4.470   0.375   5.257  1.3778 -0.8603 -0.5179
 7670SOL    HW234473   4.360   0.350   5.352  1.3443  1.4458  0.3117
 7671SOL     OW34474   1.502   4.015   6.025 -0.2413 -0.1983  0.1140
 7671SOL    HW134475   1.540   3.943   5.974  1.0603  0.9951 -0.6042
 7671SOL    HW234476   1.548   4.093   5.993  1.7641 -1.5559 -0.3293
 7672SOL     OW34477   4.641   2.765   0.771 -0.1327  0.0110 -0.4616
 7672SOL    HW134478   4.570   2.720   0.724 -0.2509 -0.9575  0.6542
 7672SOL    HW234479   4.589   2.817   0.833 -2.6924 -1.7243 -1.1319
 7673SOL     OW34480   2.504   3.407   3.489 -0.1117 -0.0605 -0.0405
 7673SOL    HW134481   2.470   3.496   3.496  0.1874  0.1283 -1.1448
 7673SOL    HW234482   2.428   3.356   3.462 -1.3544  2.0692 -0.5881
 7674SOL     OW34483   2.641   4.003  12.821 -0.0328  0.2867 -0.0695
 7674SOL    HW134484   2.585   4.038  12.752 -1.0533 -1.7599 -0.2804
 7674SOL    HW234485   2.692   3.937  12.774  0.3190 -0.1328  0.8907
 7675SOL     OW34486   4.180   4.640  11.871  0.1757  0.3161  0.1817
 7675SOL    HW134487   4.130   4.588  11.809 -1.3265  0.4122  1.3046
 7675SOL    HW234488   4.146   4.597  11.950  1.8461  0.6550  1.1148
 7676SOL     OW34489   1.895   2.027  13.871 -0.1817  0.3737  0.5676
 7676SOL    HW134490   1.839   1.962  13.829  0.5227  0.0472  0.1243
 7676SOL    HW234491   1.955   2.052  13.800 -1.4573  1.8507  0.0243
 7677SOL     OW34492   3.073   0.109   8.245 -0.4072 -0.2829  0.5104
 7677SOL    HW134493   3.159   0.146   8.265  0.3054 -1.4793 -0.3152
 7677SOL    HW234494   3.101   0.028   8.201  1.7790  0.1516  1.1136
 7678SOL     OW34495   4.249   3.813  11.780  0.2373 -0.1184  0.2549
 7678SOL    HW134496   4.224   3.755  11.707  3.5730 -1.0422 -0.1472
 7678SOL    HW234497   4.309   3.876  11.741 -0.4837  0.5819  0.2738
 7679SOL     OW34498   1.087   0.533   1.064 -0.4433 -0.5193  0.0705
 7679SOL    HW134499   1.182   0.519   1.067 -0.0973  2.0597  1.0025
 7679SOL    HW234500   1.062   0.526   1.156 -2.2333  0.0726 -0.3692
 7680SOL     OW34501   1.041   2.603  13.515  0.1179  0.5277 -0.4277
 7680SOL    HW134502   1.134   2.588  13.503  0.4314  1.1114  1.1842
 7680SOL    HW234503   1.017   2.523  13.561  1.2694 -0.0272 -0.7945
 7681SOL     OW34504   0.804   3.357   5.743  0.2512 -0.7627 -0.4937
 7681SOL    HW134505   0.774   3.447   5.756 -1.3239 -1.3175 -0.2288
 7681SOL    HW234506   0.898   3.369   5.755 -0.0872 -0.1795  1.5178
 7682SOL     OW34507   0.224   1.947   5.368 -0.3835  0.1430  0.7444
 7682SOL    HW134508   0.218   1.852   5.375 -1.3365  0.1359 -0.2732
 7682SOL    HW234509   0.313   1.947   5.331 -1.7883  2.4295 -2.6115
 7683SOL     OW34510   0.402   1.696   9.899 -0.6063 -0.2295 -0.2910
 7683SOL    HW134511   0.459   1.669   9.972  0.4373 -1.8993 -1.7377
 7683SOL    HW234512   0.448   1.665   9.821  4.2343  0.4132  2.2815
 7684SOL     OW34513   2.323   4.616   6.895 -0.0018 -0.3485  0.3201
 7684SOL    HW134514   2.320   4.620   6.799  1.0787 -0.2721  0.2835
 7684SOL    HW234515   2.350   4.706   6.916  0.4115 -0.3180 -0.3491
 7685SOL     OW34516   4.470   1.969   6.879  0.2146 -0.1774  0.4784
 7685SOL    HW134517   4.455   1.887   6.833 -0.0567 -0.5123  1.1597
 7685SOL    HW234518   4.432   2.031   6.816  0.3262 -1.1164 -0.5056
 7686SOL     OW34519   4.269   2.123   9.010  0.5879  0.1407  0.7798
 7686SOL    HW134520   4.269   2.219   9.010 -0.5513  0.1382  1.4963
 7686SOL    HW234521   4.311   2.101   9.093 -0.3309 -1.9415  0.6977
 7687SOL     OW34522   3.071   1.176   1.379  0.0671 -0.1808 -0.1323
 7687SOL    HW134523   3.098   1.255   1.427 -0.6836 -0.5553  0.8901
 7687SOL    HW234524   3.002   1.214   1.325 -0.0467 -0.8383 -0.4469
 7688SOL     OW34525   1.789   2.520   8.101  0.4960 -0.3576 -0.2439
 7688SOL    HW134526   1.743   2.601   8.126  0.0283  0.3737 -3.5597
 7688SOL    HW234527   1.712   2.465   8.115 -0.0694  0.2130 -1.1152
 7689SOL     OW34528   4.127   1.604   0.338 -0.4427  0.7892  0.0416
 7689SOL    HW134529   4.126   1.698   0.359  0.5320  0.7329  0.3240
 7689SOL    HW234530   4.040   1.590   0.300 -0.2826 -0.8481  0.3000
 7690SOL     OW34531   2.711   0.136   6.733  0.5120 -0.1485  0.1159
 7690SOL    HW134532   2.703   0.182   6.650  0.2809  0.6229  0.5702
 7690SOL    HW234533   2.689   0.046   6.707  0.7332 -0.1266 -0.1476
 7691SOL     OW34534   2.709   0.740  14.903 -0.1558  1.0181 -0.4539
 7691SOL    HW134535   2.714   0.732  14.808  1.9361  0.8348 -0.3150
 7691SOL    HW234536   2.757   0.821  14.919  0.0865  0.9353 -0.7831
 7692SOL     OW34537   3.160   1.506   4.198  0.3963  0.1856  0.2816
 7692SOL    HW134538   3.137   1.597   4.220 -1.2538  0.5558 -3.0267
 7692SOL    HW234539   3.150   1.454   4.278 -2.0171  0.5081  0.1820
 7693SOL     OW34540   1.923   3.383  13.682 -0.2130  0.0614  0.0032
 7693SOL    HW134541   1.841   3.344  13.650 -0.1080  1.6800 -2.2066
 7693SOL    HW234542   1.919   3.344  13.769 -1.8641  2.0227  0.8144
 7694SOL     OW34543   0.645   1.046  16.094 -0.1371 -0.3439 -0.3668
 7694SOL    HW134544   0.681   1.008  16.174  1.1105 -2.1052 -1.7552
 7694SOL    HW234545   0.551   1.056  16.110 -0.0121 -1.5690  1.0758
 7695SOL     OW34546   2.239   0.391   8.521 -0.0766  0.1615 -0.1187
 7695SOL    HW134547   2.270   0.477   8.551  0.0933  0.8846 -2.3871
 7695SOL    HW234548   2.270   0.335   8.592 -1.1923  1.0574  1.0888
 7696SOL     OW34549   2.524   0.720   5.245  0.1004  0.1685 -0.0732
 7696SOL    HW134550   2.575   0.797   5.271 -1.6504  1.3902 -0.2802
 7696SOL    HW234551   2.434   0.753   5.248 -0.2136 -0.7564  0.6126
 7697SOL     OW34552   1.408   3.520  17.320 -0.3253 -0.0906  0.4732
 7697SOL    HW134553   1.482   3.580  17.319 -0.1820 -0.2741 -0.3394
 7697SOL    HW234554   1.344   3.580  17.356  1.3487 -0.7912  4.5857
 7698SOL     OW34555   1.669   3.624   5.295 -0.0982 -0.6036  0.6445
 7698SOL    HW134556   1.630   3.612   5.209  0.2516  0.6947  0.3133
 7698SOL    HW234557   1.759   3.643   5.269 -0.6449 -0.0709 -0.8491
 7699SOL     OW34558   1.880   4.244   9.042 -0.1956  0.9372 -0.0055
 7699SOL    HW134559   1.928   4.186   9.101 -1.0634  0.2164 -0.0177
 7699SOL    HW234560   1.853   4.305   9.111 -1.0321 -1.8629  2.1243
 7700SOL     OW34561   0.071   1.180  12.468  0.2231 -0.3476 -0.2647
 7700SOL    HW134562   0.128   1.217  12.535  1.4922  0.0587 -1.5571
 7700SOL    HW234563   0.010   1.136  12.527  1.8231 -1.2872  0.6856
 7701SOL     OW34564   1.256   0.910   9.855 -0.1315  0.5023  0.4061
 7701SOL    HW134565   1.236   0.825   9.892  2.4785 -1.3014 -2.3352
 7701SOL    HW234566   1.191   0.911   9.785 -1.2871 -0.2416  1.4706
 7702SOL     OW34567   4.305   0.130   6.863 -0.4060  0.5721  0.2515
 7702SOL    HW134568   4.293   0.036   6.877 -1.3715  0.4028 -1.7491
 7702SOL    HW234569   4.280   0.147   6.772  1.1839  0.0013 -0.2870
 7703SOL     OW34570   3.271   4.626   4.296  0.0939  0.6590  0.4074
 7703SOL    HW134571   3.307   4.665   4.217 -0.6920 -0.7410 -0.6374
 7703SOL    HW234572   3.352   4.616   4.346  1.0809 -1.4512 -1.6069
 7704SOL     OW34573   0.547   1.766   1.499 -0.1042  0.2365 -0.8370
 7704SOL    HW134574   0.614   1.784   1.433 -1.9089  0.0329 -2.7530
 7704SOL    HW234575   0.474   1.748   1.440  0.7469 -0.9831 -1.4991
 7705SOL     OW34576   1.561   3.313  17.239  0.7675  0.4232  0.1099
 7705SOL    HW134577   1.613   3.353  17.309  0.6509 -3.0338  2.1763
 7705SOL    HW234578   1.493   3.381  17.242 -1.6372 -2.2278  5.3690
 7706SOL     OW34579   2.639   1.660   0.535 -0.0582 -0.0230 -0.0840
 7706SOL    HW134580   2.589   1.685   0.458  0.2624 -1.8743 -0.8891
 7706SOL    HW234581   2.610   1.719   0.605 -0.4204  1.4693 -1.4938
 7707SOL     OW34582   1.180   2.834   0.265  0.4702  0.4965 -0.0205
 7707SOL    HW134583   1.222   2.755   0.232  1.3861  1.1634 -0.4555
 7707SOL    HW234584   1.123   2.851   0.191  0.3778 -1.7048 -0.4542
 7708SOL     OW34585   1.761   2.440   6.459  0.0528  0.3279 -0.5674
 7708SOL    HW134586   1.764   2.528   6.497  1.6845  0.0332 -0.0009
 7708SOL    HW234587   1.758   2.469   6.368  0.4653  0.8923 -0.4023
 7709SOL     OW34588   0.306   1.205   3.426 -0.3049 -0.7710 -0.2051
 7709SOL    HW134589   0.319   1.164   3.340  3.2086  0.2534 -0.1754
 7709SOL    HW234590   0.219   1.240   3.410 -0.1371  1.2022  3.3298
 7710SOL     OW34591   4.360   2.784   4.159  0.5236 -0.1039  0.8000
 7710SOL    HW134592   4.266   2.802   4.159  0.3500 -0.9941  3.0534
 7710SOL    HW234593   4.405   2.866   4.139  0.7533 -0.1693  1.0375
 7711SOL     OW34594   4.133   0.335   6.364 -0.2384  0.3754 -0.1517
 7711SOL    HW134595   4.074   0.399   6.324 -0.6007  0.2358  0.1647
 7711SOL    HW234596   4.190   0.398   6.408  0.4505 -0.7624  0.5771
 7712SOL     OW34597   1.066   1.861   7.115  0.0570  0.0090  0.9577
 7712SOL    HW134598   1.090   1.812   7.036 -1.5488  1.1760 -0.2546
 7712SOL    HW234599   0.991   1.912   7.084  1.3359  1.2856 -0.0428
 7713SOL     OW34600   4.695   2.618   4.795  0.2619  0.2197  0.3651
 7713SOL    HW134601   4.648   2.558   4.736 -0.0435 -0.9639  1.7966
 7713SOL    HW234602   4.692   2.557   4.870  1.5454 -0.2312  0.0444
 7714SOL     OW34603   0.438   0.883   2.136  0.0118 -1.0881  0.1719
 7714SOL    HW134604   0.512   0.847   2.184  1.7087  1.7720 -0.3423
 7714SOL    HW234605   0.474   0.941   2.070 -0.3444 -3.4506 -2.0958
 7715SOL     OW34606   0.669   3.346   7.338  0.1267 -0.2782  0.5621
 7715SOL    HW134607   0.681   3.423   7.393 -0.4198  0.3640 -0.2143
 7715SOL    HW234608   0.752   3.302   7.357 -0.2264 -1.3815 -0.4332
 7716SOL     OW34609   1.718   3.178   1.134 -0.1512  0.1001  0.1477
 7716SOL    HW134610   1.747   3.100   1.181  0.6144 -0.3609 -1.1004
 7716SOL    HW234611   1.716   3.244   1.204  2.9160 -1.6950  1.9282
 7717SOL     OW34612   1.252   2.476   8.384  0.1613 -0.5740  0.0564
 7717SOL    HW134613   1.201   2.535   8.439  1.6426 -0.1186  0.9329
 7717SOL    HW234614   1.305   2.438   8.453 -1.4123 -0.4843  1.3096
 7718SOL     OW34615   3.564   3.491  15.676 -0.1400 -0.2969  0.5613
 7718SOL    HW134616   3.514   3.491  15.595  1.7503 -1.4866 -0.6022
 7718SOL    HW234617   3.502   3.530  15.738 -2.4766 -1.9256 -0.7353
 7719SOL     OW34618   2.280   1.513   5.592 -0.1519  0.2263  0.9037
 7719SOL    HW134619   2.264   1.602   5.623 -0.7071 -0.3871  2.3445
 7719SOL    HW234620   2.198   1.489   5.549 -0.0105  0.9860  0.2174
 7720SOL     OW34621   3.818   3.959  14.562  0.0802  0.2078  0.4986
 7720SOL    HW134622   3.903   3.991  14.592  1.8947 -3.0130 -1.1736
 7720SOL    HW234623   3.848   3.901  14.492  0.9478  3.0796 -1.5064
 7721SOL     OW34624   2.525   1.247   7.191 -0.9444  0.4144 -0.1747
 7721SOL    HW134625   2.498   1.270   7.281 -1.2926 -0.4363 -0.0650
 7721SOL    HW234626   2.480   1.166   7.167 -1.0973  0.1986  0.8372
 7722SOL     OW34627   0.482   1.225   3.991  0.4578  0.0189  0.1230
 7722SOL    HW134628   0.395   1.257   4.018  0.5633  1.3025 -1.0672
 7722SOL    HW234629   0.525   1.310   3.983 -1.4810  1.1926  1.9655
 7723SOL     OW34630   3.784   2.777   2.355 -0.2026  0.2135  0.4784
 7723SOL    HW134631   3.801   2.702   2.298  0.1075 -0.8690  1.9885
 7723SOL    HW234632   3.703   2.808   2.313 -0.2404 -0.9074 -0.2644
 7724SOL     OW34633   2.115   3.395   6.673 -0.5608 -0.1275 -0.1842
 7724SOL    HW134634   2.096   3.444   6.593 -0.3722  1.3416  0.6730
 7724SOL    HW234635   2.054   3.321   6.670 -0.9204  0.2810 -2.6777
 7725SOL     OW34636   0.851   4.487   1.007  0.0512 -0.2379  0.6155
 7725SOL    HW134637   0.804   4.521   1.082 -0.0401 -0.4948  0.6758
 7725SOL    HW234638   0.823   4.396   1.001  0.1529 -0.2275 -0.1123
 7726SOL     OW34639   0.040   3.885   2.534 -0.2519 -0.0653  0.9288
 7726SOL    HW134640   0.034   3.859   2.442 -0.3837  1.5451  0.4715
 7726SOL    HW234641   0.027   3.980   2.530  0.9855  0.0681  0.0707
 7727SOL     OW34642   0.296   2.090   4.266 -0.1171 -0.1691  0.0748
 7727SOL    HW134643   0.263   2.042   4.190  1.5294  1.4560 -1.6718
 7727SOL    HW234644   0.375   2.038   4.284  0.6653  1.4263  1.2387
 7728SOL     OW34645   4.299   3.710   7.698 -0.1340  0.4530  0.1448
 7728SOL    HW134646   4.319   3.719   7.792  0.4016  0.0045  0.0748
 7728SOL    HW234647   4.218   3.659   7.700 -0.2240  0.5989  0.2905
 7729SOL     OW34648   0.971   1.264   3.983 -0.0310 -0.7320 -0.8216
 7729SOL    HW134649   0.971   1.354   3.949  0.6453  0.2717  1.7748
 7729SOL    HW234650   0.885   1.228   3.964 -1.6363  2.1760  0.8875
 7730SOL     OW34651   4.333   3.470   4.682  0.1460  0.0832 -0.3953
 7730SOL    HW134652   4.349   3.556   4.722  3.1363  0.0607 -1.5210
 7730SOL    HW234653   4.332   3.498   4.591 -2.6528  0.8607 -0.1289
 7731SOL     OW34654   3.956   1.671   2.244  1.1409 -0.4028  0.4292
 7731SOL    HW134655   4.050   1.688   2.239  1.0414 -0.6316 -2.3663
 7731SOL    HW234656   3.962   1.575   2.243 -2.2928 -0.6003  0.1759
 7732SOL     OW34657   0.313   0.691   4.159 -0.4404  0.4249 -0.2042
 7732SOL    HW134658   0.358   0.757   4.107  0.2877 -1.3397 -1.8337
 7732SOL    HW234659   0.229   0.672   4.117 -1.0079  0.2164  1.0168
 7733SOL     OW34660   3.013   1.558  10.296  0.5260  0.0383  0.1571
 7733SOL    HW134661   2.950   1.630  10.294  0.2962 -0.2233 -2.0017
 7733SOL    HW234662   2.957   1.480  10.286 -1.4817  1.4011  0.7861
 7734SOL     OW34663   1.256   2.857   8.378 -0.3947  0.0067  0.0635
 7734SOL    HW134664   1.264   2.930   8.439  2.1651 -0.1933 -0.0304
 7734SOL    HW234665   1.203   2.799   8.432  0.1460  0.9170  1.5650
 7735SOL     OW34666   3.921   3.495   7.557  0.5603 -0.0320 -0.0020
 7735SOL    HW134667   3.986   3.457   7.498  0.7582  0.2607  0.0295
 7735SOL    HW234668   3.848   3.487   7.495 -1.1489  0.4207  1.9414
 7736SOL     OW34669   2.954   2.983   3.226 -0.7750 -0.2644  0.5895
 7736SOL    HW134670   2.922   2.989   3.136  1.7164 -0.2152 -0.2969
 7736SOL    HW234671   3.036   3.032   3.232 -1.1699  0.5436 -0.5075
 7737SOL     OW34672   4.472   2.281   8.602  0.3013  0.2157 -0.0047
 7737SOL    HW134673   4.553   2.231   8.611  2.2014  3.1986 -0.6706
 7737SOL    HW234674   4.436   2.246   8.683  0.1646  1.0935  0.3144
 7738SOL     OW34675   2.135   1.523   7.780 -0.3501 -0.1089 -0.1074
 7738SOL    HW134676   2.227   1.497   7.790 -0.4794  0.3179  2.0731
 7738SOL    HW234677   2.107   1.442   7.738 -0.0212 -0.3699  0.1747
 7739SOL     OW34678   3.442   0.436   1.979 -0.5061  0.2955 -0.2949
 7739SOL    HW134679   3.409   0.458   2.066  4.4709  0.1001  1.6161
 7739SOL    HW234680   3.397   0.499   1.922 -0.8193  0.6408  0.3360
 7740SOL     OW34681   0.029   1.626   9.244  0.4688 -0.0103  0.4535
 7740SOL    HW134682   0.091   1.554   9.235  0.8933  0.3090  0.7559
 7740SOL    HW234683   4.682   1.616   9.177  2.0367 -0.2003 -1.0814
 7741SOL     OW34684   3.380   1.755  15.921 -0.3248  0.2931 -0.1832
 7741SOL    HW134685   3.442   1.823  15.896 -1.5495  1.4291 -0.1689
 7741SOL    HW234686   3.371   1.755  16.016 -2.2388 -0.6090 -0.3574
 7742SOL     OW34687   2.338   1.009  13.209 -0.0052 -0.5238  0.0946
 7742SOL    HW134688   2.287   1.015  13.290 -0.1376  0.4229 -0.0570
 7742SOL    HW234689   2.282   1.051  13.144  2.1710  2.5893  0.2047
 7743SOL     OW34690   1.380   1.052   6.446  0.0899 -0.2958 -0.6076
 7743SOL    HW134691   1.452   1.064   6.509 -0.9765  1.0055  0.3749
 7743SOL    HW234692   1.418   1.114   6.384  0.2168  1.6728  1.3853
 7744SOL     OW34693   1.920   4.265  13.049 -0.1334 -0.3154 -0.4727
 7744SOL    HW134694   1.895   4.327  13.117  0.9158 -0.3208 -0.0888
 7744SOL    HW234695   1.875   4.306  12.975 -1.4744  1.7095  1.4688
 7745SOL     OW34696   0.989   3.542   7.044 -0.2412 -0.0885  0.1636
 7745SOL    HW134697   0.979   3.636   7.060  2.9029  0.1394  0.9080
 7745SOL    HW234698   1.055   3.513   7.108  0.3939  0.3276 -0.2940
 7746SOL     OW34699   2.824   0.624  16.841  0.0201  0.4408 -0.0979
 7746SOL    HW134700   2.736   0.608  16.875  1.2739 -3.8812  1.0801
 7746SOL    HW234701   2.872   0.610  16.922  0.0551 -2.3517 -0.5815
 7747SOL     OW34702   4.660   2.768   3.927 -0.4320  0.4862  0.3800
 7747SOL    HW134703   4.603   2.735   3.997  0.1216 -0.8516  0.1897
 7747SOL    HW234704   0.019   2.786   3.977  0.2009 -2.5259  0.4623
 7748SOL     OW34705   0.937   0.417  14.782  0.0970  0.0249 -0.0269
 7748SOL    HW134706   0.954   0.324  14.763 -1.7611 -0.3546  0.1266
 7748SOL    HW234707   0.976   0.450  14.701  1.5335  0.7734  0.9790
 7749SOL     OW34708   1.484   4.440   1.933  0.3483  0.4368 -0.6647
 7749SOL    HW134709   1.567   4.431   1.886  0.5536 -1.5957  0.0864
 7749SOL    HW234710   1.483   4.353   1.974 -0.2178  0.0418 -1.5107
 7750SOL     OW34711   4.619   4.662   6.667 -0.4259  0.2512  0.4681
 7750SOL    HW134712   4.685   0.011   6.674 -0.5170  0.5259 -1.1802
 7750SOL    HW234713   4.667   4.585   6.698  0.8305  1.5186  1.6452
 7751SOL     OW34714   0.987   2.743   1.144  0.3275 -0.0665  0.2047
 7751SOL    HW134715   0.937   2.667   1.115 -1.4995  1.4922 -0.7710
 7751SOL    HW234716   0.919   2.795   1.187 -1.1420 -0.4905 -1.6395
 7752SOL     OW34717   1.482   4.476   5.155  0.2026 -0.3574  0.1208
 7752SOL    HW134718   1.561   4.452   5.204  0.4762 -0.9671 -0.6177
 7752SOL    HW234719   1.491   4.423   5.075  2.5835 -0.5041  0.4980
 7753SOL     OW34720   0.023   3.872   8.846  0.0927 -0.6057  0.2329
 7753SOL    HW134721   0.046   3.790   8.803  1.2421 -0.0587 -0.1952
 7753SOL    HW234722   0.098   3.925   8.820 -1.4139  3.0044  3.3469
 7754SOL     OW34723   1.747   3.884  13.757  0.6475 -0.2082 -0.3438
 7754SOL    HW134724   1.778   3.794  13.769  0.8276 -0.0854  0.1360
 7754SOL    HW234725   1.793   3.918  13.681  2.5894 -2.6541 -0.2675
 7755SOL     OW34726   0.892   0.379   3.811  0.2894 -0.6007  0.5829
 7755SOL    HW134727   0.834   0.318   3.767 -0.2171  1.1764 -1.2376
 7755SOL    HW234728   0.866   0.358   3.900  1.4090 -0.2617  0.9892
 7756SOL     OW34729   1.506   1.911  13.080  0.3007 -0.1478 -0.1521
 7756SOL    HW134730   1.437   1.845  13.074  1.7422 -1.5128 -1.7329
 7756SOL    HW234731   1.548   1.914  12.995  0.4184 -2.5624 -0.1694
 7757SOL     OW34732   2.547   0.031   8.466  0.1053  0.0191  0.0778
 7757SOL    HW134733   2.492   4.678   8.494 -1.0745  0.2015 -1.7374
 7757SOL    HW234734   2.622   4.698   8.436 -0.4914 -1.3022  0.9038
 7758SOL     OW34735   3.610   1.677   3.194  0.0771 -0.1416 -0.2426
 7758SOL    HW134736   3.518   1.676   3.171 -0.4005  0.7234  1.6028
 7758SOL    HW234737   3.612   1.634   3.279  0.4175 -0.4590 -0.4118
 7759SOL     OW34738   0.883   2.752   4.070 -0.9707  0.2359  0.4783
 7759SOL    HW134739   0.888   2.656   4.079 -0.7572  0.3134  1.1656
 7759SOL    HW234740   0.823   2.766   4.144  0.5827  0.0571  1.7669
 7760SOL     OW34741   0.542   1.027   5.861  0.3184 -0.2115 -0.0694
 7760SOL    HW134742   0.527   1.019   5.767  0.8945 -0.4313 -0.1487
 7760SOL    HW234743   0.570   0.936   5.869 -1.1469 -0.6533  0.0451
 7761SOL     OW34744   2.896   2.145   4.887 -0.4434 -0.6133 -0.1295
 7761SOL    HW134745   2.808   2.110   4.903 -0.1437 -0.8443  1.0040
 7761SOL    HW234746   2.928   2.097   4.810  1.9617  2.5668 -1.0927
 7762SOL     OW34747   2.758   1.802   8.158 -0.4080  0.4440 -0.2882
 7762SOL    HW134748   2.830   1.749   8.191 -1.8340 -0.5084  1.3407
 7762SOL    HW234749   2.762   1.888   8.199  1.4194  0.9446 -1.5503
 7763SOL     OW34750   3.521   3.976   5.431 -0.4850 -0.7033  0.0681
 7763SOL    HW134751   3.467   4.052   5.409  1.5984  0.6125 -0.5231
 7763SOL    HW234752   3.529   3.984   5.526  2.4577  0.8629 -0.2899
 7764SOL     OW34753   1.470   2.810   6.873 -0.3311 -0.5819 -0.2697
 7764SOL    HW134754   1.505   2.724   6.850  1.0527  1.1139 -4.3873
 7764SOL    HW234755   1.470   2.806   6.969  2.2779  1.0614 -0.1888
 7765SOL     OW34756   1.693   2.802   6.304 -0.2731 -0.0382 -0.4371
 7765SOL    HW134757   1.731   2.737   6.363 -2.8694  0.5224  1.8599
 7765SOL    HW234758   1.691   2.878   6.361 -2.0200 -0.3186 -0.0952
 7766SOL     OW34759   2.561   3.415   3.014  0.0311  0.0856  0.3984
 7766SOL    HW134760   2.575   3.322   2.993 -2.7569  0.2500 -2.1091
 7766SOL    HW234761   2.577   3.454   2.929 -3.3620 -0.3118 -0.4168
 7767SOL     OW34762   3.407   3.777  14.342  0.4602 -0.1247  0.1871
 7767SOL    HW134763   3.468   3.838  14.299  0.5153 -0.6601 -0.5003
 7767SOL    HW234764   3.374   3.832  14.413  1.7147 -1.5750  1.8908
 7768SOL     OW34765   0.328   0.107   9.210  0.3822 -0.1253  0.0547
 7768SOL    HW134766   0.387   0.094   9.284 -0.4954  1.8873  1.1177
 7768SOL    HW234767   0.380   0.167   9.156  0.5090  0.9604  1.3832
 7769SOL     OW34768   4.323   2.498   6.228  0.0887  0.3883 -0.0785
 7769SOL    HW134769   4.339   2.518   6.321 -0.5263  1.6009 -0.2288
 7769SOL    HW234770   4.407   2.530   6.197 -0.3120  0.0176 -1.5356
 7770SOL     OW34771   1.336   0.272   0.593 -0.1001  0.0701  0.5274
 7770SOL    HW134772   1.428   0.283   0.617 -0.2276 -0.0297  1.0638
 7770SOL    HW234773   1.325   0.179   0.576  0.5954  0.0174  0.3748
 7771SOL     OW34774   1.803   4.446  13.529 -0.3002 -0.3615  0.2114
 7771SOL    HW134775   1.832   4.532  13.497 -0.7749 -0.0069  0.7509
 7771SOL    HW234776   1.816   4.383  13.459  3.2278 -0.7775  1.2041
 7772SOL     OW34777   2.239   1.939   2.784 -0.4298  0.3232 -0.0757
 7772SOL    HW134778   2.237   1.987   2.867  0.7388 -2.0780  1.3302
 7772SOL    HW234779   2.268   1.854   2.817  0.3274  0.9053  0.7648
 7773SOL     OW34780   2.057   1.031   6.136  0.1233  0.3202 -0.8551
 7773SOL    HW134781   2.000   0.955   6.122  0.9289 -0.1651 -1.5413
 7773SOL    HW234782   2.007   1.107   6.106  0.6735  1.3815  0.9184
 7774SOL     OW34783   4.122   3.170   9.011 -0.3517  0.0336 -0.1531
 7774SOL    HW134784   4.141   3.084   9.046  2.7126  0.3211 -1.1255
 7774SOL    HW234785   4.090   3.211   9.092 -1.5788  0.4313 -0.8332
 7775SOL     OW34786   1.013   3.354   6.271 -0.4976 -0.9970 -0.4268
 7775SOL    HW134787   0.917   3.350   6.273 -0.4862 -0.7695  0.5017
 7775SOL    HW234788   1.034   3.268   6.233  1.6647 -0.5042 -0.3315
 7776SOL     OW34789   3.263   3.673   7.914 -0.0085 -0.1286  0.3132
 7776SOL    HW134790   3.315   3.713   7.845 -1.8335 -0.6329 -1.3791
 7776SOL    HW234791   3.185   3.728   7.912  0.6992  0.8495 -0.4005
 7777SOL     OW34792   3.025   3.754   5.296  0.0651 -0.2432 -0.4708
 7777SOL    HW134793   3.110   3.728   5.261 -0.2741 -0.1881 -1.3399
 7777SOL    HW234794   3.013   3.842   5.260  1.0687 -0.1780 -0.6478
 7778SOL     OW34795   2.810   1.469   7.700  0.0554 -1.0549  0.2847
 7778SOL    HW134796   2.895   1.439   7.734 -0.1199 -1.6613  0.2003
 7778SOL    HW234797   2.758   1.465   7.780  0.2753 -2.4498  0.3652
 7779SOL     OW34798   1.656   0.081   4.453 -0.1209 -0.1450 -0.3437
 7779SOL    HW134799   1.574   0.130   4.444 -1.0069 -1.6301 -0.3427
 7779SOL    HW234800   1.652   0.033   4.370  1.0460  0.3215 -0.6693
 7780SOL     OW34801   2.265   2.218   5.851 -0.1522  0.6191  0.6356
 7780SOL    HW134802   2.358   2.198   5.858 -0.3992 -0.7472  0.0308
 7780SOL    HW234803   2.274   2.310   5.826  0.8804  0.2913 -0.1981
 7781SOL     OW34804   3.167   2.144   6.756  0.3111 -0.0987 -0.1382
 7781SOL    HW134805   3.121   2.065   6.728  0.5433  0.1430 -1.2037
 7781SOL    HW234806   3.260   2.121   6.754  0.3470 -0.0322  0.6125
 7782SOL     OW34807   1.516   0.001  15.416  0.1865 -0.1054 -0.0886
 7782SOL    HW134808   1.608   4.696  15.424 -0.7134 -3.3124  0.2941
 7782SOL    HW234809   1.486   4.655  15.354 -0.4602 -0.0114  0.1306
 7783SOL     OW34810   1.987   3.203   7.895 -0.0134  0.4485  0.1902
 7783SOL    HW134811   1.951   3.277   7.944 -2.9408  0.2178 -1.6082
 7783SOL    HW234812   1.916   3.140   7.908  0.9078 -0.3033  1.5417
 7784SOL     OW34813   4.043   4.579   9.393  0.4822 -0.1817 -0.1851
 7784SOL    HW134814   4.024   4.486   9.404  0.6844 -0.3052 -0.8830
 7784SOL    HW234815   4.058   4.587   9.298  3.3382 -0.6720  0.2349
 7785SOL     OW34816   3.821   2.858   3.985 -0.7912 -0.5410 -0.2644
 7785SOL    HW134817   3.817   2.763   3.999 -1.8418 -0.6086 -1.0563
 7785SOL    HW234818   3.796   2.862   3.893 -0.3624  1.3218 -0.3011
 7786SOL     OW34819   2.198   2.072   6.506  0.3649  0.0439 -0.0744
 7786SOL    HW134820   2.229   2.104   6.590  2.1212 -0.5520 -0.4893
 7786SOL    HW234821   2.197   2.145   6.445  1.8843  1.4678  1.6066
 7787SOL     OW34822   1.607   0.641   5.526  0.0024 -0.6651  0.2676
 7787SOL    HW134823   1.661   0.694   5.468 -1.5989 -0.5701 -1.1490
 7787SOL    HW234824   1.521   0.683   5.518  0.7144  0.6005 -0.5531
 7788SOL     OW34825   0.284   0.246  16.140 -0.1037  0.2618 -0.2463
 7788SOL    HW134826   0.263   0.186  16.211 -1.3602  1.1109  0.1003
 7788SOL    HW234827   0.311   0.322  16.190 -0.1486  0.4044 -0.4380
 7789SOL     OW34828   4.237   3.278   7.769  0.6173 -0.1945  0.2098
 7789SOL    HW134829   4.304   3.212   7.752  1.8986  0.9411  0.8190
 7789SOL    HW234830   4.153   3.232   7.762  0.5620 -0.1671  0.6539
 7790SOL     OW34831   3.528   4.300   8.481  0.4197  0.0882  0.3948
 7790SOL    HW134832   3.550   4.354   8.557 -0.4929 -1.5964  1.8423
 7790SOL    HW234833   3.451   4.248   8.503  0.4829 -0.0462  0.2993
 7791SOL     OW34834   2.371   1.256   3.015 -0.5189 -0.5124  0.2447
 7791SOL    HW134835   2.281   1.280   2.992 -1.5306 -1.8236  2.8201
 7791SOL    HW234836   2.396   1.193   2.947  0.8608  0.4502 -0.1401
 7792SOL     OW34837   0.395   3.009   9.234  0.3934 -0.2920 -0.3989
 7792SOL    HW134838   0.431   3.045   9.153  1.7208  2.2470  1.2989
 7792SOL    HW234839   0.474   2.992   9.286 -0.6806 -0.0897  1.3099
 7793SOL     OW34840   2.113   2.405  16.525 -0.3185 -0.1069 -0.1775
 7793SOL    HW134841   2.197   2.399  16.571 -0.1349 -1.1622 -0.6483
 7793SOL    HW234842   2.068   2.461  16.588  2.9174  2.3294 -0.0593
 7794SOL     OW34843   3.246   3.227   0.078 -0.6162  0.6068  0.0584
 7794SOL    HW134844   3.259   3.320   0.059 -0.9826  0.4348 -1.0388
 7794SOL    HW234845   3.268   3.178  17.681 -0.8847  0.8805 -0.1825
 7795SOL     OW34846   0.043   3.198  16.641  0.3888 -0.1023  0.0803
 7795SOL    HW134847   4.684   3.154  16.608  0.0764  1.4654 -1.2404
 7795SOL    HW234848   0.089   3.217  16.559  0.2881  0.5489  0.1788
 7796SOL     OW34849   3.652   3.995   8.772 -0.2601  0.2066 -0.4102
 7796SOL    HW134850   3.616   4.084   8.777  1.6467  0.9353  0.1960
 7796SOL    HW234851   3.586   3.944   8.820 -0.7148 -0.8138 -2.1230
 7797SOL     OW34852   1.242   4.255   6.370  0.1344  0.0545  0.5157
 7797SOL    HW134853   1.293   4.192   6.319  0.5202 -0.9348  2.1224
 7797SOL    HW234854   1.300   4.331   6.366  0.6692 -0.3966 -0.2007
 7798SOL     OW34855   4.031   0.341   7.491  0.1171  0.4736  0.5468
 7798SOL    HW134856   3.946   0.343   7.535 -0.1190 -0.6255  0.1280
 7798SOL    HW234857   4.067   0.258   7.521  0.5361  0.6793  0.6210
 7799SOL     OW34858   4.604   3.367   9.141  0.2779 -0.7419  0.3886
 7799SOL    HW134859   4.556   3.446   9.115  1.4121  1.2269  4.3570
 7799SOL    HW234860   4.540   3.339   9.206 -0.8155 -0.4560 -0.5623
 7800SOL     OW34861   0.346   0.199   6.090 -0.1457 -0.4089 -0.3276
 7800SOL    HW134862   0.434   0.176   6.057 -0.3153  0.9638 -1.7730
 7800SOL    HW234863   0.317   0.230   6.004  0.1117  0.8873  0.0369
 7801SOL     OW34864   2.152   3.743  17.388 -0.2610 -0.1662 -0.0124
 7801SOL    HW134865   2.103   3.674  17.343  0.9428 -1.0170 -0.0252
 7801SOL    HW234866   2.233   3.748  17.337 -0.4665 -1.0365 -0.4325
 7802SOL     OW34867   2.497   3.626   6.154  0.1030  0.3387 -0.2903
 7802SOL    HW134868   2.523   3.717   6.137 -0.2894  0.4153 -0.4803
 7802SOL    HW234869   2.578   3.594   6.193 -0.3365  0.1942  0.4940
 7803SOL     OW34870   0.586   2.864   6.170 -0.0002  0.1517  0.2933
 7803SOL    HW134871   0.606   2.783   6.123  0.9207  0.2131  0.5812
 7803SOL    HW234872   0.673   2.905   6.169 -0.1553  0.4451 -1.1726
 7804SOL     OW34873   4.316   3.406  11.075 -0.1877 -0.0348 -0.4034
 7804SOL    HW134874   4.367   3.340  11.122 -1.5589  1.1778  2.7722
 7804SOL    HW234875   4.325   3.378  10.984 -1.0808 -1.7920  0.0401
 7805SOL     OW34876   1.828   3.763  10.259  0.4300 -0.2039  0.0788
 7805SOL    HW134877   1.888   3.787  10.330  2.0488  1.9423 -2.0186
 7805SOL    HW234878   1.772   3.838  10.239 -1.2926 -1.2679  0.8520
 7806SOL     OW34879   2.616   4.603   6.679 -0.2644 -0.4720 -0.3729
 7806SOL    HW134880   2.644   4.513   6.661 -1.4158 -1.4402  2.7670
 7806SOL    HW234881   2.524   4.596   6.652 -0.2280 -1.1269 -0.3409
 7807SOL     OW34882   1.240   3.469   0.021  0.0290  0.2122  0.0162
 7807SOL    HW134883   1.241   3.534   0.092  0.9416 -0.1227  0.3042
 7807SOL    HW234884   1.164   3.502  17.654 -0.1137 -0.9753 -0.5522
 7808SOL     OW34885   1.937   2.890   2.438  0.1501 -0.4212  0.3465
 7808SOL    HW134886   2.008   2.905   2.375 -0.1863  0.5191  0.1762
 7808SOL    HW234887   1.853   2.900   2.393  0.6918 -0.4830 -0.6805
 7809SOL     OW34888   2.037   1.294   7.042  0.1505 -0.1077 -0.1826
 7809SOL    HW134889   2.078   1.276   7.127 -1.5059 -1.1249  0.3885
 7809SOL    HW234890   1.947   1.265   7.053 -0.7480  2.6215 -0.4153
 7810SOL     OW34891   0.699   2.656   9.648  0.4646  0.5140  0.2457
 7810SOL    HW134892   0.620   2.677   9.599  0.3969 -1.3402 -0.4250
 7810SOL    HW234893   0.675   2.696   9.731  0.5715  2.5954 -0.7306
 7811SOL     OW34894   1.521   4.597   6.164  0.0078 -0.9059 -0.0703
 7811SOL    HW134895   1.561   4.556   6.241 -0.1281 -0.0573  0.4446
 7811SOL    HW234896   1.453   4.531   6.147 -0.5892 -0.0618 -0.9180
 7812SOL     OW34897   2.342   0.064  10.626 -0.7176 -0.1477 -0.0228
 7812SOL    HW134898   2.391   4.705  10.649 -0.7109 -0.5023 -1.2766
 7812SOL    HW234899   2.326   0.095  10.716 -3.2229  1.7525 -1.1286
 7813SOL     OW34900   3.697   2.647  16.241 -0.0362  0.0696  0.3213
 7813SOL    HW134901   3.736   2.594  16.310 -0.0772  1.5495  1.4826
 7813SOL    HW234902   3.689   2.580  16.173 -1.0410 -0.2273  0.7299
 7814SOL     OW34903   2.999   4.010   5.247  0.4928 -0.3345  0.3440
 7814SOL    HW134904   3.040   4.075   5.304  1.0323 -0.8433  0.5393
 7814SOL    HW234905   2.913   4.051   5.243  0.4627 -0.2102  1.9978
 7815SOL     OW34906   1.311   4.449   6.072 -0.3503  0.8877 -0.3250
 7815SOL    HW134907   1.241   4.397   6.111  2.4514 -2.4705  0.3158
 7815SOL    HW234908   1.312   4.416   5.982 -1.6271 -2.3260  0.8308
 7816SOL     OW34909   0.376   0.338  15.838 -0.1072  0.7055 -0.3713
 7816SOL    HW134910   0.355   0.329  15.932 -0.9189 -0.6826 -0.6817
 7816SOL    HW234911   0.294   0.304  15.802 -0.9396 -0.7509  2.7945
 7817SOL     OW34912   0.778   2.403   0.561  0.1285  0.4841  0.2014
 7817SOL    HW134913   0.798   2.338   0.628  0.3530  0.4234  0.0765
 7817SOL    HW234914   0.835   2.369   0.493 -0.7774  0.1511 -0.3922
 7818SOL     OW34915   1.414   0.459  10.384 -0.2789 -0.3587 -0.2917
 7818SOL    HW134916   1.339   0.403  10.401  0.2833 -1.3604 -1.0881
 7818SOL    HW234917   1.456   0.457  10.470  1.1278 -1.8208 -0.9938
 7819SOL     OW34918   0.679   2.545   7.775 -0.1950 -0.3158  0.4124
 7819SOL    HW134919   0.715   2.456   7.775  0.3721 -0.0714 -4.1373
 7819SOL    HW234920   0.698   2.569   7.685  0.6303 -0.4884  0.5439
 7820SOL     OW34921   1.103   2.615   5.234 -0.6525  0.1829  0.5747
 7820SOL    HW134922   1.103   2.708   5.212 -2.1352  0.4531  1.7120
 7820SOL    HW234923   1.185   2.591   5.190 -0.8897  0.6164 -0.0945
 7821SOL     OW34924   4.453   4.694  11.948 -0.2405  0.1455  0.1168
 7821SOL    HW134925   4.450   4.652  12.034 -2.6490  2.1174  1.0043
 7821SOL    HW234926   4.402   4.638  11.889  1.5889  0.1631 -1.4974
 7822SOL     OW34927   3.582   1.278   7.259  0.0952  0.5484 -0.2632
 7822SOL    HW134928   3.570   1.218   7.332 -0.3437 -0.6237 -1.3061
 7822SOL    HW234929   3.650   1.235   7.208  1.2962  1.0441  0.9329
 7823SOL     OW34930   1.282   2.418  11.767  0.6508  0.3579 -0.3539
 7823SOL    HW134931   1.342   2.359  11.813  1.9585  2.3839  0.5072
 7823SOL    HW234932   1.239   2.470  11.836 -2.9402  0.3683 -2.5958
 7824SOL     OW34933   3.956   3.304   2.305 -0.1180  0.5848  0.4066
 7824SOL    HW134934   4.009   3.226   2.288 -0.4490  0.6117 -0.7200
 7824SOL    HW234935   3.867   3.268   2.306  0.3479 -0.5370  1.4241
 7825SOL     OW34936   4.611   3.861   5.751 -0.2303 -0.1140 -0.4589
 7825SOL    HW134937   4.600   3.822   5.837 -0.2309 -0.6486 -0.7037
 7825SOL    HW234938   4.523   3.900   5.746  0.5680  1.8621  0.9089
 7826SOL     OW34939   3.527   1.467  13.000  0.2350  0.0785 -0.0227
 7826SOL    HW134940   3.568   1.402  12.943  0.8952 -0.8481  1.4944
 7826SOL    HW234941   3.455   1.495  12.944 -1.2357 -1.3734  1.1714
 7827SOL     OW34942   4.472   2.297   2.168 -0.2158  0.5093 -0.2925
 7827SOL    HW134943   4.540   2.256   2.221  0.6551  0.6842 -1.2841
 7827SOL    HW234944   4.440   2.362   2.230  2.3520  0.2254  1.3133
 7828SOL     OW34945   3.324   0.855  12.926 -0.5118 -0.4232  0.5150
 7828SOL    HW134946   3.403   0.805  12.943  0.9443  1.1244 -1.7132
 7828SOL    HW234947   3.360   0.943  12.930 -0.7050 -0.2840 -0.5602
 7829SOL     OW34948   2.555   2.464   0.430 -0.4309  0.1016 -0.2641
 7829SOL    HW134949   2.514   2.388   0.388  0.0779  1.7381 -3.7330
 7829SOL    HW234950   2.515   2.540   0.388 -1.5515  0.4856  1.4868
 7830SOL     OW34951   4.526   2.927   7.530 -0.1229 -0.4219  0.6045
 7830SOL    HW134952   4.542   2.927   7.435  0.4746 -0.1132  0.7097
 7830SOL    HW234953   4.498   2.837   7.545 -1.7385  0.2644  1.6495
 7831SOL     OW34954   0.472   4.370  12.227  0.0629 -0.5627 -0.4743
 7831SOL    HW134955   0.550   4.323  12.257  0.3052  0.3512  0.3296
 7831SOL    HW234956   0.500   4.444  12.173  2.8864 -1.0140  0.3696
 7832SOL     OW34957   3.023   3.343  11.519  0.2359 -0.6304 -0.0009
 7832SOL    HW134958   3.076   3.360  11.597  3.2247 -2.1344 -1.7156
 7832SOL    HW234959   2.999   3.252  11.536  0.4674 -0.8820 -1.0608
 7833SOL     OW34960   0.111   1.773   4.547  0.0697 -0.0821  0.5571
 7833SOL    HW134961   0.141   1.864   4.552  0.0483 -0.0686  0.4460
 7833SOL    HW234962   0.080   1.750   4.635 -1.1077 -0.6875 -0.0187
 7834SOL     OW34963   3.529   2.764   3.788 -0.2121 -0.4930 -0.4045
 7834SOL    HW134964   3.529   2.739   3.696 -0.0529  1.0608 -0.8233
 7834SOL    HW234965   3.580   2.845   3.784 -1.9388  0.6647  0.9055
 7835SOL     OW34966   1.231   2.111   3.175 -0.1667  0.2301 -0.4782
 7835SOL    HW134967   1.262   2.056   3.104 -1.7344  0.7377 -1.5419
 7835SOL    HW234968   1.311   2.151   3.210 -0.1993 -0.1414  0.0262
 7836SOL     OW34969   2.968   0.637   2.955 -0.3242 -0.1263  0.1881
 7836SOL    HW134970   2.904   0.566   2.953 -2.2517  1.6734 -1.9131
 7836SOL    HW234971   2.913   0.712   2.932 -1.9083 -0.8324  1.6992
 7837SOL     OW34972   0.547   2.123   6.848 -0.3065  0.1455  0.4051
 7837SOL    HW134973   0.590   2.038   6.863 -1.3742 -0.2028  1.4948
 7837SOL    HW234974   0.561   2.124   6.753  3.8171  1.1481  1.0358
 7838SOL     OW34975   4.230   4.029   6.202  0.1777 -0.3620  0.1421
 7838SOL    HW134976   4.223   3.964   6.272  3.0759  0.7631  1.4909
 7838SOL    HW234977   4.148   4.032   6.154  0.1439  0.4179  0.2386
 7839SOL     OW34978   4.616   1.923  12.379 -0.0680 -0.3968 -1.2276
 7839SOL    HW134979   4.611   2.011  12.415 -0.4487  0.0036 -2.2568
 7839SOL    HW234980   4.573   1.935  12.294 -2.3613 -0.2415 -0.0309
 7840SOL     OW34981   2.262   3.681  14.133  0.0568  0.4519 -0.8246
 7840SOL    HW134982   2.352   3.657  14.156  0.4692  0.6167 -2.2328
 7840SOL    HW234983   2.226   3.689  14.221  0.6827 -0.3058 -0.4970
 7841SOL     OW34984   3.597   1.184   5.570 -0.7831  0.6771 -0.1250
 7841SOL    HW134985   3.548   1.176   5.488  1.6295  0.0958 -1.5192
 7841SOL    HW234986   3.668   1.123   5.548  0.0783  2.5242 -2.4279
 7842SOL     OW34987   4.720   0.014   0.115 -0.0324 -0.1270 -0.7015
 7842SOL    HW134988   4.676   4.653   0.089 -2.1324  0.6062  0.5176
 7842SOL    HW234989   4.714   0.069   0.038 -2.2562  0.0113 -0.4453
 7843SOL     OW34990   2.068   0.343   4.591 -0.0012  0.5089 -0.5515
 7843SOL    HW134991   2.040   0.315   4.678 -1.5542 -0.5189 -1.3738
 7843SOL    HW234992   1.986   0.343   4.541 -0.0944  3.2370 -0.3809
 7844SOL     OW34993   1.801   4.221  13.699  0.0749 -0.5718  0.7100
 7844SOL    HW134994   1.825   4.306  13.660 -2.4210 -0.3891 -0.4276
 7844SOL    HW234995   1.803   4.160  13.625  1.1664 -0.3741  0.5765
 7845SOL     OW34996   4.198   2.159   1.960 -0.0002  0.1525  0.2529
 7845SOL    HW134997   4.153   2.089   2.007 -2.3983  2.2830  1.1345
 7845SOL    HW234998   4.157   2.173   1.874  1.0275 -0.6172 -0.3602
 7846SOL     OW34999   0.493   1.927   5.371  0.6008  0.1235  0.3606
 7846SOL    HW135000   0.535   1.996   5.320 -0.8956  0.9552  0.2558
 7846SOL    HW235001   0.516   1.857   5.310 -1.9532 -1.6719  1.4755
 7847SOL     OW35002   0.922   2.414   3.157 -0.0011 -0.0418 -0.5661
 7847SOL    HW135003   0.919   2.507   3.137 -2.9994 -0.4340 -1.9423
 7847SOL    HW235004   0.858   2.397   3.227 -1.5306 -1.0760 -2.2086
 7848SOL     OW35005   0.345   3.811  10.282  0.6173 -0.2202 -0.2856
 7848SOL    HW135006   0.402   3.821  10.359 -0.6225  1.2924  0.4308
 7848SOL    HW235007   0.337   3.905  10.265 -0.2631  0.1690  2.2210
 7849SOL     OW35008   4.504   2.127   5.282 -0.4280 -0.0882  0.2266
 7849SOL    HW135009   4.480   2.039   5.250  0.6134 -0.4501  0.4385
 7849SOL    HW235010   4.600   2.129   5.283 -0.4281  0.5585 -0.5848
 7850SOL     OW35011   0.480   1.877   1.880 -0.3717  0.1152 -0.3982
 7850SOL    HW135012   0.494   1.816   1.808 -2.1000  0.2138 -0.8100
 7850SOL    HW235013   0.389   1.857   1.901 -1.2737  1.2836 -3.3078
 7851SOL     OW35014   1.826   2.265   5.603  0.9544 -0.1427  0.4620
 7851SOL    HW135015   1.876   2.282   5.522  1.1916 -0.1599  0.6034
 7851SOL    HW235016   1.842   2.347   5.651 -0.8360  0.4295  0.0751
 7852SOL     OW35017   0.297   1.581  15.452 -0.6951  0.1308 -0.2336
 7852SOL    HW135018   0.282   1.672  15.476  2.1562  1.0506 -1.8414
 7852SOL    HW235019   0.393   1.585  15.458 -0.6400  0.6196 -1.3987
 7853SOL     OW35020   1.281   4.233   4.346 -0.1761 -0.4447  0.3473
 7853SOL    HW135021   1.239   4.316   4.369  1.0069 -0.3033  2.0188
 7853SOL    HW235022   1.216   4.201   4.284  1.6690  0.9519 -2.3084
 7854SOL     OW35023   2.447   1.911   0.267 -0.0911 -0.5133  0.1797
 7854SOL    HW135024   2.362   1.867   0.277  0.2796 -1.2764 -0.0394
 7854SOL    HW235025   2.506   1.837   0.257 -1.4372 -1.7140  1.0822
 7855SOL     OW35026   1.275   1.392   8.214 -0.4347 -0.7718  0.3682
 7855SOL    HW135027   1.241   1.481   8.226 -0.1381 -0.3964 -1.5116
 7855SOL    HW235028   1.310   1.365   8.299 -0.0225 -0.1425  0.3979
 7856SOL     OW35029   3.147   3.459  10.479  0.5951 -0.2327  0.0353
 7856SOL    HW135030   3.147   3.430  10.570 -0.3362 -2.6036 -0.7345
 7856SOL    HW235031   3.207   3.397  10.438 -0.1133 -0.8618 -0.0484
 7857SOL     OW35032   3.928   1.103   3.566  0.3673 -0.7687 -0.3335
 7857SOL    HW135033   4.014   1.075   3.535  0.3783 -0.7847 -0.2888
 7857SOL    HW235034   3.879   1.021   3.552 -0.1353 -0.1758 -1.9433
 7858SOL     OW35035   1.871   2.376   2.338  0.0226  1.1505 -0.6155
 7858SOL    HW135036   1.934   2.436   2.298  0.7079  1.2247  0.5721
 7858SOL    HW235037   1.809   2.443   2.366 -1.9442 -0.9339  0.0119
 7859SOL     OW35038   4.485   1.639   1.194 -0.3169 -0.4827 -0.4464
 7859SOL    HW135039   4.577   1.646   1.219 -1.2866 -0.0435  2.9046
 7859SOL    HW235040   4.489   1.581   1.118  0.4913 -0.1853 -0.6328
 7860SOL     OW35041   1.350   2.681   4.650 -0.4086 -0.5725  0.4045
 7860SOL    HW135042   1.305   2.598   4.637 -0.8055 -0.4495  0.9938
 7860SOL    HW235043   1.391   2.697   4.565 -0.6439  1.2669  0.6413
 7861SOL     OW35044   4.693   1.472   2.163 -0.3280  0.2191  0.4299
 7861SOL    HW135045   4.622   1.480   2.227 -1.4243  3.3636 -1.2055
 7861SOL    HW235046   0.039   1.427   2.216  0.4068 -1.8532 -2.2637
 7862SOL     OW35047   3.600   0.203  13.415 -0.0197 -0.1088  0.6589
 7862SOL    HW135048   3.638   0.290  13.403 -1.9838  0.8257  1.1931
 7862SOL    HW235049   3.656   0.148  13.360  0.3128 -0.0555  0.9495
 7863SOL     OW35050   3.462   1.841   4.222 -0.3084 -0.4774 -0.9940
 7863SOL    HW135051   3.516   1.877   4.151  0.4706  0.0094 -0.1608
 7863SOL    HW235052   3.509   1.758   4.232 -2.0648 -1.4879 -1.2694
 7864SOL     OW35053   3.229   1.815   4.087 -0.0182 -0.0340  0.6306
 7864SOL    HW135054   3.238   1.903   4.050 -0.0321 -0.3916 -0.2115
 7864SOL    HW235055   3.307   1.814   4.143  0.7820  0.0354 -0.4743
 7865SOL     OW35056   2.936   4.694   6.580  0.3444 -0.4521  0.3054
 7865SOL    HW135057   2.968   0.032   6.649  0.9546 -1.0895  0.5632
 7865SOL    HW235058   2.993   4.617   6.582 -0.1538 -0.8252 -0.0321
 7866SOL     OW35059   2.988   2.543   9.828  0.3989  0.8938 -0.5005
 7866SOL    HW135060   3.022   2.457   9.854 -1.2253  0.2352 -0.5640
 7866SOL    HW235061   2.953   2.588   9.904 -0.1304 -0.6964  0.1983
 7867SOL     OW35062   2.089   1.308   3.005  0.5134  0.0761  0.1767
 7867SOL    HW135063   2.035   1.230   3.011 -0.7697  1.0706  1.3397
 7867SOL    HW235064   2.017   1.371   3.014  0.2254  0.0446 -1.8720
 7868SOL     OW35065   3.584   2.759   0.425  0.0940 -0.0607  0.0640
 7868SOL    HW135066   3.585   2.814   0.503  1.8194  2.2023 -1.5947
 7868SOL    HW235067   3.636   2.812   0.365  1.1205 -3.1799 -1.8195
 7869SOL     OW35068   3.627   2.374   8.657 -0.3976  0.6693 -0.6483
 7869SOL    HW135069   3.545   2.374   8.608  0.9682 -2.9020 -2.9740
 7869SOL    HW235070   3.650   2.286   8.688  0.0693  1.8214  2.2611
 7870SOL     OW35071   1.861   1.951   3.047 -0.4055 -0.5347 -0.2937
 7870SOL    HW135072   1.779   1.902   3.053  0.5472 -2.0088  0.6852
 7870SOL    HW235073   1.929   1.897   3.088  0.1620  0.0333 -0.4918
 7871SOL     OW35074   2.585   2.193   6.567  0.2482  0.8378 -0.4803
 7871SOL    HW135075   2.654   2.251   6.598 -1.9977  1.8604  2.5790
 7871SOL    HW235076   2.511   2.250   6.585 -1.0397 -1.1202  0.4811
 7872SOL     OW35077   3.383   2.893   9.046  0.0826  0.0683  0.0796
 7872SOL    HW135078   3.323   2.838   8.996  0.7155  1.4184 -2.1678
 7872SOL    HW235079   3.465   2.848   9.026  0.4095  0.7344 -0.0766
 7873SOL     OW35080   3.985   2.504   2.707 -0.3408 -0.0826  0.2001
 7873SOL    HW135081   4.029   2.535   2.628 -1.0480 -1.9852 -0.9485
 7873SOL    HW235082   3.899   2.540   2.683 -0.3014  0.8992  1.5733
 7874SOL     OW35083   0.869   1.861   1.911 -0.2282  0.3004 -0.3031
 7874SOL    HW135084   0.823   1.896   1.835 -0.5608 -0.1222 -0.2941
 7874SOL    HW235085   0.958   1.897   1.909 -0.4791  0.7322 -2.9845
 7875SOL     OW35086   0.659   0.156   3.813  0.0685  0.1935  0.6983
 7875SOL    HW135087   0.569   0.144   3.781  0.1694  0.8307  0.1484
 7875SOL    HW235088   0.644   0.138   3.905  0.3575 -0.6161  0.5833
 7876SOL     OW35089   1.110   0.445  12.990  0.1023 -0.0816  0.0434
 7876SOL    HW135090   1.075   0.392  12.918 -0.0402 -1.8509  1.3962
 7876SOL    HW235091   1.074   0.394  13.063  0.2451 -0.3951 -0.1016
 7877SOL     OW35092   1.796   1.369   7.670 -0.0206  0.0788  0.0095
 7877SOL    HW135093   1.832   1.457   7.658 -0.3169  0.4912  2.1143
 7877SOL    HW235094   1.871   1.310   7.669 -0.1892 -0.1148 -1.7626
 7878SOL     OW35095   3.347   4.182  17.621  0.8592  0.1480 -0.1516
 7878SOL    HW135096   3.279   4.240  17.656  0.9867  0.5327 -0.5444
 7878SOL    HW235097   3.294   4.107  17.593 -0.1904  0.0977  1.9736
 7879SOL     OW35098   3.993   3.080   4.685  0.3377 -0.2407  0.0782
 7879SOL    HW135099   3.997   3.176   4.676  1.6515 -0.2523  0.5124
 7879SOL    HW235100   4.035   3.057   4.602 -1.7152 -1.6568 -0.5549
 7880SOL     OW35101   3.276   1.532  10.951  0.3403 -0.2988 -0.3192
 7880SOL    HW135102   3.319   1.555  10.869 -0.2762 -0.5865 -0.7259
 7880SOL    HW235103   3.339   1.478  10.998  0.2777  0.4238  0.6039
 7881SOL     OW35104   2.741   2.894   6.529 -0.3016  0.6711 -0.2635
 7881SOL    HW135105   2.725   2.952   6.455  1.1965  1.3143 -0.0858
 7881SOL    HW235106   2.654   2.896   6.569  0.4192  0.5841  1.3295
 7882SOL     OW35107   4.030   2.297   8.484 -0.0845 -0.2081 -0.0459
 7882SOL    HW135108   3.953   2.258   8.443  0.6635 -0.5346 -1.1218
 7882SOL    HW235109   4.077   2.326   8.406 -0.4149  0.1429 -0.1118
 7883SOL     OW35110   0.625   3.013   8.815  0.5150 -0.0063 -0.1634
 7883SOL    HW135111   0.683   2.940   8.833  0.8168 -0.3308 -2.4393
 7883SOL    HW235112   0.560   2.972   8.759  1.5869 -0.8223 -0.8045
 7884SOL     OW35113   3.086   1.269   2.259 -0.5621  0.3388 -0.1919
 7884SOL    HW135114   3.056   1.285   2.348  2.6982  1.3296  0.7306
 7884SOL    HW235115   3.053   1.349   2.218 -1.6096  0.6350  1.2574
 7885SOL     OW35116   1.105   2.159   7.487  0.0027 -0.1110  0.2299
 7885SOL    HW135117   1.149   2.092   7.539 -2.5285 -1.0743  1.1405
 7885SOL    HW235118   1.016   2.124   7.490  0.9131 -2.5210 -0.1847
 7886SOL     OW35119   2.855   1.659   7.519  0.2922 -0.1184 -0.8914
 7886SOL    HW135120   2.769   1.702   7.519  1.7256  2.7947 -2.4670
 7886SOL    HW235121   2.849   1.598   7.592  0.5195 -0.8108 -1.4568
 7887SOL     OW35122   0.279   1.442  17.330  0.0505 -0.3225 -0.2216
 7887SOL    HW135123   0.347   1.423  17.395 -2.3338 -1.2750  1.9773
 7887SOL    HW235124   0.255   1.532  17.354  0.8610  0.2753 -1.6881
 7888SOL     OW35125   3.419   0.011   3.332  0.4157  0.3043 -0.2652
 7888SOL    HW135126   3.354   4.673   3.372  1.4077  0.8941  2.2138
 7888SOL    HW235127   3.461   4.686   3.259  1.6295 -0.5781  0.9835
 7889SOL     OW35128   3.689   1.675   8.512  0.1248 -0.1961  0.2514
 7889SOL    HW135129   3.637   1.724   8.575  0.1552  1.3802 -0.9385
 7889SOL    HW235130   3.773   1.720   8.519 -0.5676  0.9019  1.4769
 7890SOL     OW35131   3.628   1.666   2.915 -0.0331  0.1349 -0.1818
 7890SOL    HW135132   3.606   1.698   3.002 -0.8113 -0.0308 -0.3145
 7890SOL    HW235133   3.558   1.601   2.903 -0.4747  0.5519  0.1443
 7891SOL     OW35134   3.468   2.833  13.606 -0.3942  0.1109  0.2168
 7891SOL    HW135135   3.403   2.901  13.589 -2.3617 -1.2680  2.2548
 7891SOL    HW235136   3.535   2.879  13.656  0.0578  0.8154 -1.0093
 7892SOL     OW35137   0.581   3.484   7.631  0.3348  0.0489 -0.2045
 7892SOL    HW135138   0.610   3.461   7.719 -0.8743  1.5960  0.6044
 7892SOL    HW235139   0.660   3.525   7.596  0.3888  0.3999  0.3251
 7893SOL     OW35140   0.431   4.498   9.485  0.4363 -0.1512  0.1462
 7893SOL    HW135141   0.511   4.464   9.525  0.0873 -1.7837 -0.5104
 7893SOL    HW235142   0.387   4.413   9.476  1.1282 -0.5725  0.7988
 7894SOL     OW35143   0.514   4.253  13.419 -0.0788 -0.1912  0.1278
 7894SOL    HW135144   0.578   4.323  13.407 -1.3168  1.0871  1.0626
 7894SOL    HW235145   0.556   4.196  13.355  0.9129  1.1847 -0.4474
 7895SOL     OW35146   0.245   2.745   7.192 -0.1895 -0.0740  0.1525
 7895SOL    HW135147   0.266   2.735   7.099  1.4941  1.4378  0.3703
 7895SOL    HW235148   0.293   2.827   7.204  1.8486 -1.2032 -0.3256
 7896SOL     OW35149   3.735   0.692  13.038  0.0466 -0.0141 -0.3216
 7896SOL    HW135150   3.693   0.763  12.987 -1.4556  0.7249  1.9381
 7896SOL    HW235151   3.744   0.732  13.124 -2.1098 -1.6614  0.6743
 7897SOL     OW35152   3.314   3.113   5.151 -0.1189  0.1999 -0.1412
 7897SOL    HW135153   3.249   3.165   5.105 -1.5596 -0.0219  1.6521
 7897SOL    HW235154   3.350   3.052   5.086  1.3312 -0.4560  1.2761
 7898SOL     OW35155   1.529   1.209   8.653  0.3244 -0.4273 -0.3345
 7898SOL    HW135156   1.510   1.172   8.567 -0.8851 -0.7625  0.0828
 7898SOL    HW235157   1.559   1.297   8.629  1.0844 -1.2068 -2.2269
 7899SOL     OW35158   1.651   3.060  14.834  0.3020  0.3686  0.6308
 7899SOL    HW135159   1.640   3.150  14.864 -1.9982  0.2342  0.2119
 7899SOL    HW235160   1.563   3.031  14.812  2.3107 -3.1409 -2.7694
 7900SOL     OW35161   2.125   3.020   0.494  0.2039  0.0475  0.4548
 7900SOL    HW135162   2.155   3.056   0.577  0.6351  0.3880  0.1552
 7900SOL    HW235163   2.132   2.925   0.506 -1.3192  0.0624  1.3625
 7901SOL     OW35164   1.600   3.132   1.578 -0.3707  0.3358 -0.1295
 7901SOL    HW135165   1.542   3.206   1.559 -1.6548 -0.5351  0.4663
 7901SOL    HW235166   1.565   3.073   1.511  0.6382 -1.0323  0.5613
 7902SOL     OW35167   0.478   3.128   1.822 -0.0608 -0.0608 -0.2447
 7902SOL    HW135168   0.508   3.102   1.734  2.0106  0.5129  0.2937
 7902SOL    HW235169   0.563   3.152   1.858 -0.0076 -0.4955 -0.0764
 7903SOL     OW35170   1.010   2.209  13.890 -0.0251 -0.0966  0.0016
 7903SOL    HW135171   0.990   2.129  13.939 -0.7160  0.5454  0.7695
 7903SOL    HW235172   1.055   2.169  13.816 -1.0058 -3.0949  1.0186
 7904SOL     OW35173   4.234   2.125   4.585  0.0483 -0.4010 -0.3871
 7904SOL    HW135174   4.218   2.188   4.654 -4.9650 -0.8032 -1.1304
 7904SOL    HW235175   4.314   2.158   4.544  0.8219 -1.9250 -0.1254
 7905SOL     OW35176   1.942   3.238  14.447 -0.5234 -0.0056 -0.1807
 7905SOL    HW135177   1.889   3.292  14.389  0.1832  0.7598 -0.1089
 7905SOL    HW235178   1.889   3.159  14.436  0.1850 -0.6528  0.9719
 7906SOL     OW35179   1.107   1.804   1.357 -0.3279 -0.3025 -0.8167
 7906SOL    HW135180   1.013   1.790   1.346 -0.4276 -0.2789  0.0277
 7906SOL    HW235181   1.145   1.734   1.304  0.6922  0.9014 -1.6715
 7907SOL     OW35182   0.037   3.813   5.314 -0.3939  0.0413  0.2339
 7907SOL    HW135183   0.037   3.800   5.409 -1.4909  0.1076  0.2435
 7907SOL    HW235184   0.125   3.778   5.300 -0.9523 -1.4755  0.5554
 7908SOL     OW35185   3.431   1.715   1.979  0.1086  0.0355 -0.2503
 7908SOL    HW135186   3.469   1.635   1.942 -0.0131  1.5266 -3.6304
 7908SOL    HW235187   3.392   1.685   2.061 -2.4600  0.6129 -1.2727
 7909SOL     OW35188   2.506   4.618  10.279 -0.1046  0.1975  0.0942
 7909SOL    HW135189   2.583   4.671  10.298 -0.8045  1.6015 -1.0214
 7909SOL    HW235190   2.449   4.675  10.228  0.6981  1.5298  0.6667
 7910SOL     OW35191   1.121   2.809   8.950 -0.5328  0.1796 -0.5132
 7910SOL    HW135192   1.122   2.756   8.870 -1.1322 -0.5444 -0.0478
 7910SOL    HW235193   1.165   2.746   9.007 -2.7000  0.5103  1.4935
 7911SOL     OW35194   2.640   2.004  15.574 -0.5336 -0.2768  0.0429
 7911SOL    HW135195   2.600   1.920  15.552 -1.1715  0.0018  0.1569
 7911SOL    HW235196   2.606   2.059  15.503  1.8592  0.3364 -0.6395
 7912SOL     OW35197   3.466   2.680   5.220 -0.8161 -0.3373 -0.1364
 7912SOL    HW135198   3.522   2.756   5.233 -1.4264 -0.0359  0.7447
 7912SOL    HW235199   3.541   2.631   5.185  0.5359  0.5489  1.5337
 7913SOL     OW35200   3.487   0.917   1.425 -0.2350  0.0834  0.2633
 7913SOL    HW135201   3.481   0.866   1.344  0.9142  1.7325 -0.8621
 7913SOL    HW235202   3.394   0.916   1.450 -0.4699  0.2804 -0.5705
 7914SOL     OW35203   1.880   1.376   5.741 -0.3917 -0.3494 -0.4400
 7914SOL    HW135204   1.799   1.427   5.736  0.4186  1.2429  3.2661
 7914SOL    HW235205   1.850   1.285   5.752  0.4415 -0.7141 -1.1562
 7915SOL     OW35206   0.114   3.233   8.372  0.4359 -0.3474  0.1869
 7915SOL    HW135207   0.019   3.225   8.371  0.3901 -0.3442  3.4991
 7915SOL    HW235208   0.125   3.258   8.464 -2.9452 -0.6170  0.6563
 7916SOL     OW35209   0.356   1.915   8.774 -0.1685 -0.1522 -0.1848
 7916SOL    HW135210   0.322   1.842   8.825  2.5658 -1.2862  0.0010
 7916SOL    HW235211   0.278   1.936   8.722  0.6435  0.6245 -1.0887
 7917SOL     OW35212   1.497   4.216  15.501 -0.6177 -0.3080  0.4967
 7917SOL    HW135213   1.501   4.134  15.452  2.6973  0.0844  0.1076
 7917SOL    HW235214   1.537   4.177  15.579  1.1050  0.1698 -0.1512
 7918SOL     OW35215   3.250   0.350   3.491  0.1503  0.5817  0.3073
 7918SOL    HW135216   3.244   0.417   3.559  2.4734 -0.3648  1.4276
 7918SOL    HW235217   3.173   0.361   3.434  0.3859  1.2349  0.1186
 7919SOL     OW35218   1.449   0.519  17.320 -0.2527 -0.2047 -0.1504
 7919SOL    HW135219   1.459   0.570  17.400  1.1472  0.7607 -0.9250
 7919SOL    HW235220   1.422   0.582  17.253  1.9148 -0.0893 -0.9294
 7920SOL     OW35221   0.922   2.814   9.589 -0.0436 -0.7924 -0.3163
 7920SOL    HW135222   0.854   2.750   9.608  0.4402 -1.5931 -1.2266
 7920SOL    HW235223   0.924   2.808   9.493  3.7512 -2.7843 -0.1349
 7921SOL     OW35224   4.116   3.105  10.759  0.9998 -0.0581 -0.1862
 7921SOL    HW135225   4.129   3.059  10.675  0.8381 -0.5363  0.0484
 7921SOL    HW235226   4.168   3.181  10.734  0.0546  0.6992  0.1432
 7922SOL     OW35227   2.166   0.445   8.259 -0.3737 -0.3256 -0.6437
 7922SOL    HW135228   2.214   0.418   8.337 -0.7357 -0.0011 -0.3065
 7922SOL    HW235229   2.103   0.374   8.246 -0.8160 -0.0907  0.1681
 7923SOL     OW35230   2.027   0.465   4.966 -0.1025  0.1339 -0.3262
 7923SOL    HW135231   1.951   0.468   4.907  0.8175 -1.5411 -1.6292
 7923SOL    HW235232   2.039   0.370   4.961  0.4396  0.1756  0.2967
 7924SOL     OW35233   1.028   4.477  15.518  0.0504  0.7280 -0.0493
 7924SOL    HW135234   0.946   4.427  15.520  1.6300 -1.8658 -0.3091
 7924SOL    HW235235   0.996   4.544  15.458  0.2574  0.0829 -0.8706
 7925SOL     OW35236   3.573   1.174   7.697 -0.1182 -0.2929  0.1038
 7925SOL    HW135237   3.518   1.146   7.771 -1.1682 -1.4319 -1.1027
 7925SOL    HW235238   3.591   1.093   7.651  0.4338  0.4137 -0.9198
 7926SOL     OW35239   3.191   3.588  10.104  0.4454 -0.7703 -0.0089
 7926SOL    HW135240   3.203   3.668  10.053 -0.7870 -0.5392  0.0593
 7926SOL    HW235241   3.096   3.576  10.098  0.6384 -1.7334 -1.2514
 7927SOL     OW35242   0.604   0.719   6.544  0.6659  0.8195 -0.3427
 7927SOL    HW135243   0.698   0.704   6.550  0.9511  2.4150 -0.8813
 7927SOL    HW235244   0.589   0.809   6.570 -0.9287  0.6593 -0.6726
 7928SOL     OW35245   1.600   4.447  17.010  0.5261  0.4232  0.3943
 7928SOL    HW135246   1.669   4.380  17.001 -0.5516 -0.5725 -0.4876
 7928SOL    HW235247   1.535   4.393  17.056  0.2005 -0.0422 -0.6046
 7929SOL     OW35248   3.391   3.332   8.217  0.6164  0.0402  0.5663
 7929SOL    HW135249   3.383   3.254   8.271  1.1386  0.2511  0.9522
 7929SOL    HW235250   3.305   3.338   8.177  0.0592  0.5124  1.8449
 7930SOL     OW35251   3.639   2.833   4.845  0.0428  0.2951  0.7728
 7930SOL    HW135252   3.656   2.763   4.909  1.3459  0.9759  1.1696
 7930SOL    HW235253   3.644   2.777   4.768 -1.6489  1.8982 -0.4910
 7931SOL     OW35254   4.640   3.902   2.109 -0.5340  0.4202 -0.1004
 7931SOL    HW135255   4.667   3.884   2.019 -1.1593 -2.0446  0.2029
 7931SOL    HW235256   4.608   3.992   2.108  0.3544  0.7260 -1.3038
 7932SOL     OW35257   0.616   2.560   4.724  0.5289  0.0603  0.1727
 7932SOL    HW135258   0.563   2.538   4.647  1.8543  1.3387 -1.0830
 7932SOL    HW235259   0.648   2.647   4.703 -1.9538  0.7919 -0.6069
 7933SOL     OW35260   0.657   0.034   8.787  0.9151  0.0210  0.3081
 7933SOL    HW135261   0.651   0.127   8.767  0.7487 -0.0295  0.1180
 7933SOL    HW235262   0.752   0.024   8.777  0.3399 -1.9586 -3.2921
 7934SOL     OW35263   0.518   3.516   1.299 -0.1706  0.0035  0.6357
 7934SOL    HW135264   0.544   3.428   1.327 -1.0576 -1.1157 -2.0452
 7934SOL    HW235265   0.552   3.551   1.381 -0.6672  0.3334  0.7053
 7935SOL     OW35266   4.536   1.483   8.473 -0.0488  0.5822 -0.0305
 7935SOL    HW135267   4.544   1.521   8.561 -0.4963  0.6300 -0.0127
 7935SOL    HW235268   4.477   1.547   8.434 -1.1095 -0.3621  0.0397
 7936SOL     OW35269   3.905   3.550   2.361  0.2078 -0.0468 -0.0034
 7936SOL    HW135270   3.950   3.466   2.348  1.1195  0.2049  1.5493
 7936SOL    HW235271   3.843   3.530   2.430  0.6522  0.8787  0.6657
 7937SOL     OW35272   3.823   2.942  15.914  0.0954  0.1786  0.8383
 7937SOL    HW135273   3.791   3.024  15.951  0.6338  1.2795 -1.1467
 7937SOL    HW235274   3.742   2.901  15.883  0.7467 -1.2718  1.0451
 7938SOL     OW35275   1.948   2.550   3.517  0.3287 -0.3259  0.3505
 7938SOL    HW135276   1.884   2.563   3.446  0.5504  0.6887  0.3277
 7938SOL    HW235277   1.941   2.629   3.571 -0.0426  0.9319 -1.5201
 7939SOL     OW35278   3.401   2.467   9.299 -0.0569  0.6335 -0.4609
 7939SOL    HW135279   3.450   2.509   9.227 -0.9060  0.3005 -1.2324
 7939SOL    HW235280   3.390   2.536   9.364  2.7154  2.5801 -2.0424
 7940SOL     OW35281   1.704   1.146   8.373  0.2664  0.0754 -0.1750
 7940SOL    HW135282   1.704   1.152   8.277 -0.5397  2.8666 -0.0038
 7940SOL    HW235283   1.780   1.201   8.389  0.7339 -0.4089 -0.7262
 7941SOL     OW35284   2.958   3.455   0.342  0.0804 -0.0914  0.0419
 7941SOL    HW135285   2.934   3.383   0.284 -0.7301  1.2874 -1.3633
 7941SOL    HW235286   3.027   3.497   0.292  1.1914 -1.5648  0.3522
 7942SOL     OW35287   1.058   2.685   3.361 -0.2833 -0.2735 -0.2143
 7942SOL    HW135288   1.011   2.723   3.435  1.7770 -0.5346  1.2260
 7942SOL    HW235289   0.995   2.702   3.291  0.3173  1.9002 -0.2237
 7943SOL     OW35290   1.649   1.097   6.065  0.2140  0.6965  0.6590
 7943SOL    HW135291   1.698   1.035   6.011 -2.3698 -0.1588 -0.6908
 7943SOL    HW235292   1.628   1.168   6.005 -2.3780  0.3104  1.1262
 7944SOL     OW35293   2.726   4.136   8.260 -0.0718  0.2944 -0.2466
 7944SOL    HW135294   2.674   4.214   8.280  1.1884  1.0393  0.1628
 7944SOL    HW235295   2.694   4.124   8.171 -0.3868  0.6032 -0.1745
 7945SOL     OW35296   3.092   0.523   8.477 -0.0449  0.5115  0.1479
 7945SOL    HW135297   3.131   0.610   8.481 -0.6861  0.7899  0.3613
 7945SOL    HW235298   3.097   0.499   8.570 -0.6743 -0.2564 -0.0120
 7946SOL     OW35299   3.157   0.960   1.779  0.5088 -0.5086 -0.0971
 7946SOL    HW135300   3.225   0.936   1.715  1.4546  0.7715  0.4425
 7946SOL    HW235301   3.078   0.972   1.726  0.1311 -1.4029  0.2582
 7947SOL     OW35302   0.725   0.771   7.299  0.3269  0.1840  0.4296
 7947SOL    HW135303   0.770   0.795   7.217  1.0847  0.5371  0.9487
 7947SOL    HW235304   0.729   0.847   7.357 -0.3048  1.0785 -0.7013
 7948SOL     OW35305   4.005   1.795   7.735  0.5891 -0.1601 -0.6460
 7948SOL    HW135306   3.914   1.768   7.748  0.4840  0.4659 -0.0887
 7948SOL    HW235307   4.038   1.763   7.819  0.6723 -0.3517 -0.7516
 7949SOL     OW35308   0.262   1.371   4.076  0.2203  0.2423 -0.1930
 7949SOL    HW135309   0.238   1.448   4.024 -2.2343  0.0741  0.6627
 7949SOL    HW235310   0.200   1.377   4.149 -0.4212  1.3059 -0.8178
 7950SOL     OW35311   1.434   4.594   5.542  0.4959 -0.0509  0.3711
 7950SOL    HW135312   1.520   4.634   5.531  0.2383 -0.0321 -1.5039
 7950SOL    HW235313   1.391   4.621   5.461 -1.4809 -0.1389  1.3771
 7951SOL     OW35314   4.206   1.364  11.112 -0.6755 -0.0087 -0.4954
 7951SOL    HW135315   4.296   1.395  11.113 -1.1572  1.3974  0.0085
 7951SOL    HW235316   4.198   1.339  11.204 -1.0656  1.5756 -0.0946
 7952SOL     OW35317   2.027   3.064   1.295  0.2173  0.3295 -0.1651
 7952SOL    HW135318   1.932   3.070   1.300  0.4227  2.4148  1.4089
 7952SOL    HW235319   2.046   2.973   1.275  0.1333  0.4204 -0.6534
 7953SOL     OW35320   3.188   2.760   2.786 -0.3654  0.5511  0.1768
 7953SOL    HW135321   3.225   2.679   2.821 -0.9334 -0.4913 -1.6800
 7953SOL    HW235322   3.261   2.819   2.807 -1.4615  2.3377 -1.0888
 7954SOL     OW35323   1.472   2.700   7.378  0.1218  0.5089 -0.4537
 7954SOL    HW135324   1.405   2.643   7.415  1.1079  0.0534  0.6490
 7954SOL    HW235325   1.476   2.770   7.443 -0.7313 -0.0441  0.2041
 7955SOL     OW35326   3.046   4.679   6.021  0.4943 -0.3964  0.3376
 7955SOL    HW135327   3.123   4.690   5.965  0.8876  0.0617  0.9808
 7955SOL    HW235328   2.990   0.028   5.985  0.3169 -0.2678  0.8667
 7956SOL     OW35329   0.023   2.032   6.388 -0.2217  0.1748  0.4428
 7956SOL    HW135330   0.116   2.026   6.369 -0.2088 -2.6391  1.4710
 7956SOL    HW235331   4.714   1.943   6.368  1.0315 -0.1198 -0.0152
 7957SOL     OW35332   1.108   0.387   7.505 -0.0979 -0.7994  0.3301
 7957SOL    HW135333   1.201   0.392   7.524  0.3363 -0.1242 -2.0658
 7957SOL    HW235334   1.088   0.294   7.518  0.3507 -0.7434  1.4834
 7958SOL     OW35335   0.580   2.842  11.399  0.4591  0.1462  0.5344
 7958SOL    HW135336   0.550   2.752  11.406 -0.2822  0.3785  0.3581
 7958SOL    HW235337   0.499   2.893  11.395  0.7730  0.5112 -0.9389
 7959SOL     OW35338   2.063   0.947   8.840  0.1302 -0.4304  0.2572
 7959SOL    HW135339   2.007   0.955   8.917 -1.0884 -1.3782 -0.5195
 7959SOL    HW235340   2.138   0.901   8.877  0.8440 -1.9012 -2.9386
 7960SOL     OW35341   1.739   3.857   2.084  0.3387 -0.5240  0.2442
 7960SOL    HW135342   1.787   3.872   2.165 -0.3351 -2.8657  1.0635
 7960SOL    HW235343   1.807   3.807   2.040  1.5295 -0.3418  1.9003
 7961SOL     OW35344   2.788   3.318   7.623  0.9837 -0.6410 -0.2896
 7961SOL    HW135345   2.848   3.328   7.549  0.7061 -1.6055 -0.6370
 7961SOL    HW235346   2.838   3.254   7.673 -1.6683 -1.1303  1.7402
 7962SOL     OW35347   1.510   0.924   2.117 -0.4646  0.1220  0.8999
 7962SOL    HW135348   1.428   0.874   2.125  0.5203 -1.6642 -0.1706
 7962SOL    HW235349   1.578   0.868   2.154 -0.2557  1.1414  2.0587
 7963SOL     OW35350   0.449   2.068   4.631 -0.0540 -0.0155 -0.0541
 7963SOL    HW135351   0.356   2.059   4.608  0.0450  0.4100 -0.6073
 7963SOL    HW235352   0.464   1.975   4.650  2.1299  0.2673 -0.4471
 7964SOL     OW35353   2.779   2.362   6.668  0.5577 -0.4224 -0.6036
 7964SOL    HW135354   2.862   2.322   6.641  1.2639 -0.6507  1.9809
 7964SOL    HW235355   2.806   2.451   6.644  0.3518  0.0710  1.0109
 7965SOL     OW35356   3.080   0.885   6.196 -0.2696  0.0529  0.3577
 7965SOL    HW135357   3.032   0.830   6.259  0.3602  0.3352  1.0888
 7965SOL    HW235358   3.011   0.943   6.164 -1.5888 -2.4555 -1.3494
 7966SOL     OW35359   3.455   3.948   0.146  0.0929 -0.3574  0.1996
 7966SOL    HW135360   3.471   4.026   0.200  2.0627 -0.0539 -0.8048
 7966SOL    HW235361   3.426   3.993   0.066 -0.3834  0.2632  0.7271
 7967SOL     OW35362   3.952   3.042   0.108 -0.0249  0.0097  0.1361
 7967SOL    HW135363   3.929   3.108   0.173  0.5679 -3.5067  3.8510
 7967SOL    HW235364   3.925   3.102   0.038 -0.8008  0.2485  0.6394
 7968SOL     OW35365   0.155   0.586   6.730  0.2284  0.1637  0.0286
 7968SOL    HW135366   0.233   0.551   6.687  0.2431  0.3249 -0.0751
 7968SOL    HW235367   0.136   0.516   6.793  2.5601  0.1564  0.7209
 7969SOL     OW35368   3.577   3.915   4.606 -0.2183  0.0198 -0.6989
 7969SOL    HW135369   3.542   3.851   4.544 -0.6406 -1.0803  0.6879
 7969SOL    HW235370   3.641   3.867   4.658 -0.1623  0.2089 -0.5948
 7970SOL     OW35371   2.702   0.444   6.474 -0.2463  0.0679  0.0410
 7970SOL    HW135372   2.791   0.451   6.507 -0.0382  1.1764 -0.7542
 7970SOL    HW235373   2.689   0.353   6.447 -0.0990  0.1148 -0.1873
 7971SOL     OW35374   1.145   3.767   2.956  0.5188 -0.0989  0.6465
 7971SOL    HW135375   1.107   3.784   3.043  0.3237  0.5284  0.4346
 7971SOL    HW235376   1.215   3.706   2.979  1.1989  0.6276  0.5071
 7972SOL     OW35377   3.482   4.662   5.190 -0.4565 -0.9458  0.3185
 7972SOL    HW135378   3.435   0.004   5.134 -0.0942 -0.0635  0.9987
 7972SOL    HW235379   3.403   4.635   5.237  0.6399 -1.2789  1.9566
 7973SOL     OW35380   4.453   3.691   2.461  0.8503  0.3183 -0.2209
 7973SOL    HW135381   4.533   3.640   2.446  1.5943  0.7603  2.2608
 7973SOL    HW235382   4.493   3.769   2.423 -2.1171  0.2111 -3.6051
 7974SOL     OW35383   4.713   4.646   9.392 -0.0808 -0.0537  1.1308
 7974SOL    HW135384   4.709   0.015   9.427 -0.5806  1.3699 -2.4553
 7974SOL    HW235385   0.020   4.594   9.468 -0.8698  0.2336  1.5975
 7975SOL     OW35386   4.480   1.846   9.016 -0.0744 -0.9970  0.4660
 7975SOL    HW135387   4.548   1.779   9.008  1.1534  0.3330  0.0396
 7975SOL    HW235388   4.429   1.795   9.080  0.2510  2.7335  3.6558
 7976SOL     OW35389   1.210   1.836   1.604 -0.5523  0.2234  0.1491
 7976SOL    HW135390   1.223   1.745   1.631 -0.5166  0.3174  0.4565
 7976SOL    HW235391   1.171   1.824   1.518 -0.3497  0.1459  0.0688
 7977SOL     OW35392   3.553   1.782   7.007  0.4333 -0.7310 -0.1871
 7977SOL    HW135393   3.607   1.853   7.044 -0.7061 -1.5946  3.1220
 7977SOL    HW235394   3.613   1.732   6.952 -0.7970  0.4254 -2.5917
 7978SOL     OW35395   1.386   2.251   3.369  0.4332  0.2581 -0.3433
 7978SOL    HW135396   1.403   2.288   3.456 -1.1479  3.1768 -1.3021
 7978SOL    HW235397   1.295   2.278   3.355 -0.2600 -1.9932 -0.1883
 7979SOL     OW35398   0.781   1.045  15.376 -0.6507  0.0115 -0.0325
 7979SOL    HW135399   0.711   0.986  15.402 -0.6939  0.2868  0.4788
 7979SOL    HW235400   0.822   1.061  15.461  1.7947  0.9907 -1.3645
 7980SOL     OW35401   4.224   0.447   1.623 -0.3193  0.3506  0.4424
 7980SOL    HW135402   4.179   0.407   1.548  0.0946  0.0275  0.3638
 7980SOL    HW235403   4.187   0.534   1.612  0.1375  0.7091  1.7200
 7981SOL     OW35404   2.649   1.151   8.018  0.0795  0.4881  0.2523
 7981SOL    HW135405   2.718   1.152   7.952  1.2030  0.7941  1.4233
 7981SOL    HW235406   2.695   1.173   8.099  0.0107 -1.2588  0.7658
 7982SOL     OW35407   1.889   3.778   6.429 -0.2291  0.0776 -0.2137
 7982SOL    HW135408   1.863   3.736   6.511  2.1133 -1.2594 -0.1500
 7982SOL    HW235409   1.983   3.793   6.437 -0.5893  1.8471  0.7697
 7983SOL     OW35410   0.430   4.011   8.093 -0.6699  0.1362  0.2072
 7983SOL    HW135411   0.442   4.080   8.158 -0.5775  0.6353 -0.3443
 7983SOL    HW235412   0.522   3.986   8.092 -1.0778 -1.2088 -2.5436
 7984SOL     OW35413   4.703   0.935   0.881 -0.6139 -0.0227  0.1727
 7984SOL    HW135414   4.712   0.966   0.970 -1.4412  1.4370 -0.2614
 7984SOL    HW235415   4.642   0.998   0.844  2.1042  2.0697 -0.7925
 7985SOL     OW35416   4.431   0.510  17.578 -0.0424 -0.3235 -0.0018
 7985SOL    HW135417   4.416   0.556  17.661  0.3122 -1.6795  0.8209
 7985SOL    HW235418   4.439   0.421  17.612  0.5566 -0.3535 -0.2210
 7986SOL     OW35419   4.444   3.934  10.129  0.3226  0.4542  0.2794
 7986SOL    HW135420   4.486   3.848  10.132 -0.5930 -0.0030 -0.1073
 7986SOL    HW235421   4.397   3.927  10.045 -0.1643 -1.7681  0.7333
 7987SOL     OW35422   3.817   4.095  15.946 -0.2182  0.5273  0.3070
 7987SOL    HW135423   3.750   4.163  15.944 -2.4286 -1.6703  0.3081
 7987SOL    HW235424   3.885   4.140  15.997  0.4143  0.4460 -0.4761
 7988SOL     OW35425   2.897   2.885  15.262 -0.1426  0.7268  0.2867
 7988SOL    HW135426   2.855   2.970  15.272 -1.5509 -0.2171  2.5160
 7988SOL    HW235427   2.907   2.878  15.167 -0.2136 -0.3633  0.3538
 7989SOL     OW35428   4.520   3.596  10.689 -0.1692  0.6814  0.0448
 7989SOL    HW135429   4.492   3.646  10.612  0.3457 -1.4900 -1.5428
 7989SOL    HW235430   4.444   3.613  10.745 -1.4847  0.5776 -1.6801
 7990SOL     OW35431   0.979   4.177   3.087 -0.5421  0.0503 -0.0027
 7990SOL    HW135432   1.031   4.157   3.164  0.3203 -0.9240 -0.8448
 7990SOL    HW235433   0.952   4.266   3.112 -2.3548 -0.3967 -0.3606
 7991SOL     OW35434   1.880   3.234  12.106 -0.1360  0.0427  0.3156
 7991SOL    HW135435   1.971   3.239  12.077 -0.9140 -1.5538 -2.4260
 7991SOL    HW235436   1.874   3.289  12.184 -1.3823 -1.2469  1.1253
 7992SOL     OW35437   1.652   0.050   5.547  0.5736 -0.4891  0.0038
 7992SOL    HW135438   1.635   0.074   5.638  1.3076  1.5083 -0.4034
 7992SOL    HW235439   1.660   0.130   5.497 -2.6033 -0.4067 -0.4178
 7993SOL     OW35440   1.183   4.529   4.429 -0.3926  0.3745 -0.2685
 7993SOL    HW135441   1.187   4.623   4.447  0.5957  0.1464  0.6284
 7993SOL    HW235442   1.088   4.516   4.424 -0.3522  0.8655 -2.3195
 7994SOL     OW35443   1.283   3.761  15.832 -0.3528  0.0443 -0.1636
 7994SOL    HW135444   1.349   3.702  15.866 -0.4284  0.0521 -0.0053
 7994SOL    HW235445   1.209   3.745  15.890 -1.2509  1.8705 -0.7902
 7995SOL     OW35446   4.622   0.278  11.604 -0.3793  0.6777  0.2480
 7995SOL    HW135447   4.658   0.243  11.686  0.0905  0.6959  0.0463
 7995SOL    HW235448   4.547   0.329  11.635 -0.8238  0.2633 -0.1571
 7996SOL     OW35449   2.345   0.145   8.279 -0.3930  0.2568 -0.0808
 7996SOL    HW135450   2.380   0.208   8.216  1.9350 -1.3137 -0.3440
 7996SOL    HW235451   2.416   0.136   8.343 -0.8686 -0.9530  0.2876
 7997SOL     OW35452   2.502   1.364   5.684 -0.0208  0.6533  0.3011
 7997SOL    HW135453   2.447   1.441   5.674  1.4697  1.4927 -1.5116
 7997SOL    HW235454   2.441   1.296   5.712  1.1884 -0.2107  0.8477
 7998SOL     OW35455   1.496   0.726  17.570 -0.6179  0.1534 -0.3672
 7998SOL    HW135456   1.559   0.792  17.543  0.4922 -0.3736  0.9355
 7998SOL    HW235457   1.513   0.725  17.664 -0.6582 -0.0448 -0.3611
 7999SOL     OW35458   4.162   2.492   5.403  0.1835  0.4536  0.2095
 7999SOL    HW135459   4.244   2.442   5.404  1.3756  2.4173  0.5290
 7999SOL    HW235460   4.186   2.582   5.425 -0.8131  0.3618  1.6960
 8000SOL     OW35461   3.706   0.183   7.997  0.4520 -0.2872  0.4664
 8000SOL    HW135462   3.784   0.236   8.015 -0.2755  0.7805  0.4963
 8000SOL    HW235463   3.730   0.107   7.944  0.3915 -0.1245  0.2099
 8001SOL     OW35464   1.763   3.801   7.498 -0.4147  0.1394 -0.0010
 8001SOL    HW135465   1.684   3.783   7.550  0.1401  0.4032  0.9395
 8001SOL    HW235466   1.729   3.855   7.427  0.8685 -0.5527 -1.1347
 8002SOL     OW35467   2.645   1.599  16.042 -0.6387 -0.0132  0.5299
 8002SOL    HW135468   2.665   1.613  15.949  0.3072 -0.9412  0.5999
 8002SOL    HW235469   2.720   1.548  16.072  0.5113  2.2016  1.3728
 8003SOL     OW35470   1.017   0.722  16.709  0.9036  0.7261  0.1851
 8003SOL    HW135471   0.987   0.798  16.759 -1.9464 -1.3157  1.5613
 8003SOL    HW235472   1.080   0.692  16.774  2.1918 -0.2093 -1.4872
 8004SOL     OW35473   4.485   1.953   6.574 -0.2283  0.1682  0.4736
 8004SOL    HW135474   4.559   1.935   6.516 -0.7867 -0.7007  0.0372
 8004SOL    HW235475   4.408   1.939   6.519  0.9434  1.3483 -1.4525
 8005SOL     OW35476   0.589   2.821  13.621 -0.1808 -0.5604  0.6514
 8005SOL    HW135477   0.677   2.820  13.658  0.0104 -2.5463  0.1781
 8005SOL    HW235478   0.621   2.778  13.542  1.0853  0.4886  0.6103
 8006SOL     OW35479   0.616   3.506   5.177 -0.0480  0.2264 -0.0467
 8006SOL    HW135480   0.614   3.410   5.183  1.2840  0.1096 -1.4220
 8006SOL    HW235481   0.580   3.533   5.261 -1.1147  1.1267 -0.7945
 8007SOL     OW35482   3.458   3.192   7.414 -1.1102  0.4099 -0.6919
 8007SOL    HW135483   3.374   3.157   7.443 -0.9231 -0.0578 -0.7216
 8007SOL    HW235484   3.513   3.209   7.490 -0.6406 -2.0097 -0.5042
 8008SOL     OW35485   1.814   2.217  14.078  0.0535  0.3643  0.4870
 8008SOL    HW135486   1.864   2.142  14.047  1.3645  0.5070  2.2809
 8008SOL    HW235487   1.866   2.287  14.038  1.4551 -2.0864 -2.0459
 8009SOL     OW35488   2.477   1.994   3.858  0.1331 -0.7007 -0.4071
 8009SOL    HW135489   2.560   2.003   3.904 -1.1642 -0.7284  1.9493
 8009SOL    HW235490   2.413   2.008   3.928  1.3409 -1.1034  0.7651
 8010SOL     OW35491   4.013   1.080   4.731 -0.5170  0.8715 -0.3705
 8010SOL    HW135492   4.078   1.145   4.756  0.6862  0.7198 -3.1130
 8010SOL    HW235493   3.997   1.027   4.809 -1.6895  1.2328 -0.3665
 8011SOL     OW35494   1.316   2.872   2.500 -0.2404  0.0395  0.4464
 8011SOL    HW135495   1.260   2.851   2.574 -0.9083 -0.9853 -0.3454
 8011SOL    HW235496   1.391   2.911   2.544 -1.3218  2.4007  0.2118
 8012SOL     OW35497   1.627   0.178   8.448  0.2555 -0.4783 -0.2949
 8012SOL    HW135498   1.685   0.129   8.390 -1.5820 -1.1378 -1.5917
 8012SOL    HW235499   1.548   0.133   8.417 -0.4649  1.0560 -0.6914
 8013SOL     OW35500   1.860   2.425   0.370  0.2751 -0.1452  0.3471
 8013SOL    HW135501   1.875   2.519   0.355  1.4099 -0.4485 -0.3702
 8013SOL    HW235502   1.770   2.427   0.405 -0.3353  1.0414 -1.3072
 8014SOL     OW35503   1.624   1.448  15.565  0.7682 -0.0796 -0.5754
 8014SOL    HW135504   1.615   1.362  15.525  1.5757 -0.8538  0.9108
 8014SOL    HW235505   1.543   1.483  15.528  0.8590  1.7557  0.9394
 8015SOL     OW35506   2.948   3.724   2.849 -0.3805 -0.5236 -0.0040
 8015SOL    HW135507   3.043   3.721   2.836 -0.4045 -0.4753 -0.1826
 8015SOL    HW235508   2.912   3.707   2.762  0.0582  2.2795 -0.7354
 8016SOL     OW35509   2.158   1.555   8.313  0.5914 -0.0615 -0.3008
 8016SOL    HW135510   2.093   1.499   8.270  1.2794 -1.1608  0.0770
 8016SOL    HW235511   2.097   1.607   8.365  2.0218 -2.2049  3.5775
 8017SOL     OW35512   0.390   3.328   7.237 -0.0928  0.5511  0.0632
 8017SOL    HW135513   0.394   3.309   7.143 -1.1530  3.5502 -0.6075
 8017SOL    HW235514   0.483   3.321   7.255  0.0666  1.4846 -0.3876
 8018SOL     OW35515   1.095   2.369  17.461 -0.5057  0.4766  0.8948
 8018SOL    HW135516   1.046   2.287  17.456  1.0890 -0.4221 -0.1006
 8018SOL    HW235517   1.169   2.336  17.513  0.2971 -0.3451 -0.7667
 8019SOL     OW35518   1.745   3.732   7.181 -0.2078 -0.4245  0.1945
 8019SOL    HW135519   1.723   3.813   7.227 -0.8083 -0.0497 -0.7758
 8019SOL    HW235520   1.836   3.721   7.209  0.1990 -2.6320 -1.9965
 8020SOL     OW35521   2.205   0.928   0.157 -0.0381  0.0061 -0.1242
 8020SOL    HW135522   2.147   0.858   0.188 -2.2298  1.8673  0.0229
 8020SOL    HW235523   2.177   0.938   0.066  0.0293  0.9407 -0.0479
 8021SOL     OW35524   1.288   1.119  14.863 -0.2287 -0.0606 -0.0962
 8021SOL    HW135525   1.209   1.153  14.822 -0.3450 -0.0290  0.1549
 8021SOL    HW235526   1.359   1.157  14.810  1.1256  0.1760  1.8953
 8022SOL     OW35527   3.593   1.099   4.137  0.1663 -0.2031 -0.2330
 8022SOL    HW135528   3.639   1.177   4.105  2.4414 -1.0768  0.9301
 8022SOL    HW235529   3.583   1.121   4.229 -1.3719  0.7290 -0.6176
 8023SOL     OW35530   1.377   0.534   1.144  0.0039  0.1955 -0.5575
 8023SOL    HW135531   1.360   0.451   1.190  0.0284  0.9855  0.8837
 8023SOL    HW235532   1.450   0.511   1.087  0.8785 -0.1711  0.6941
 8024SOL     OW35533   3.971   2.542   7.962  0.3016 -0.0201  0.1448
 8024SOL    HW135534   4.063   2.571   7.962  0.0680  0.6771  2.2346
 8024SOL    HW235535   3.971   2.446   7.965 -0.4968 -0.0929 -1.9159
 8025SOL     OW35536   4.670   1.347   6.170  0.0556  0.4697  0.4049
 8025SOL    HW135537   4.649   1.369   6.079  0.4889 -2.7804 -0.4491
 8025SOL    HW235538   0.046   1.348   6.169  0.0240 -1.1945 -1.8820
 8026SOL     OW35539   1.758   2.123   6.316 -0.3783  0.1480  0.2498
 8026SOL    HW135540   1.810   2.169   6.250 -1.6686  0.5788 -0.4600
 8026SOL    HW235541   1.667   2.128   6.288 -0.9471  2.6763  2.4928
 8027SOL     OW35542   3.253   2.749   3.344 -0.1246 -0.4489 -0.1232
 8027SOL    HW135543   3.276   2.786   3.259 -0.0844 -0.5654 -0.1628
 8027SOL    HW235544   3.193   2.680   3.318 -2.3413  1.3991  0.0890
 8028SOL     OW35545   1.585   4.642   2.179 -0.5638  0.0894  0.4303
 8028SOL    HW135546   1.652   4.698   2.218 -0.4138  1.3088 -1.6096
 8028SOL    HW235547   1.583   4.689   2.096 -1.0910 -0.1846  0.2876
 8029SOL     OW35548   1.294   0.216   0.980  0.4299  0.2113  0.3720
 8029SOL    HW135549   1.342   0.135   0.997 -0.6814 -0.3843  0.7168
 8029SOL    HW235550   1.273   0.255   1.065 -0.2388  1.9082 -0.5611
 8030SOL     OW35551   4.349   3.570   6.837 -0.0336  0.9501  0.1091
 8030SOL    HW135552   4.267   3.616   6.819 -0.1570  1.0956  1.0755
 8030SOL    HW235553   4.406   3.632   6.881  1.1191  1.3980 -2.0165
 8031SOL     OW35554   3.596   4.072   6.113  0.3003 -0.4013  0.1733
 8031SOL    HW135555   3.689   4.048   6.111  0.6643  0.6917  3.4765
 8031SOL    HW235556   3.552   4.002   6.065  1.5892 -0.1761 -1.3542
 8032SOL     OW35557   3.633   2.281   4.091 -0.0378 -0.3008  0.0419
 8032SOL    HW135558   3.647   2.359   4.144 -0.4098 -0.9169  1.0574
 8032SOL    HW235559   3.723   2.258   4.071 -0.4737  0.5633 -2.8882
 8033SOL     OW35560   1.190   2.364   1.466  0.4038 -0.3658 -0.1903
 8033SOL    HW135561   1.263   2.302   1.470  1.4437  0.9114  0.7951
 8033SOL    HW235562   1.167   2.367   1.559  1.6634  0.8133  0.0766
 8034SOL     OW35563   4.226   2.145   5.101  0.3460  0.6706 -0.3670
 8034SOL    HW135564   4.289   2.148   5.173  1.0413 -1.2723 -0.8998
 8034SOL    HW235565   4.287   2.148   5.027  2.0017  1.0326  1.0121
 8035SOL     OW35566   2.991   1.149   6.039  0.0100 -0.6048 -0.2001
 8035SOL    HW135567   2.970   1.238   6.065 -0.2392 -0.7485  0.0885
 8035SOL    HW235568   3.061   1.132   6.102  0.9008 -0.5893 -1.1882
 8036SOL     OW35569   0.886   3.035  13.524  0.1480  0.5573  0.3192
 8036SOL    HW135570   0.910   3.016  13.615  3.2092 -0.7962 -0.7765
 8036SOL    HW235571   0.892   2.946  13.492 -1.1745  0.6025 -0.0469
 8037SOL     OW35572   4.070   3.485  11.187 -0.4841  0.5486 -0.0064
 8037SOL    HW135573   4.101   3.523  11.269  0.6822 -1.5972  0.5302
 8037SOL    HW235574   4.153   3.461  11.146 -0.4861 -0.9246  0.8652
 8038SOL     OW35575   4.698   0.276   1.192 -0.3968  0.1032  0.2034
 8038SOL    HW135576   0.063   0.286   1.235  0.5549 -0.1672 -1.5918
 8038SOL    HW235577   0.006   0.291   1.102  2.2351 -1.7641  0.7179
 8039SOL     OW35578   0.650   0.991   7.591  0.1215  0.0064  0.2044
 8039SOL    HW135579   0.629   1.083   7.573 -0.9314  0.0657  1.6833
 8039SOL    HW235580   0.734   1.015   7.629  0.9558 -1.2853 -0.8385
 8040SOL     OW35581   4.032   0.181   6.904 -0.4763  0.2241 -0.0315
 8040SOL    HW135582   4.119   0.146   6.919 -0.7735  0.1347  1.4232
 8040SOL    HW235583   4.036   0.272   6.933  1.4927  0.0511  0.2128
 8041SOL     OW35584   1.140   4.078   3.304  0.6955 -0.1273  0.2234
 8041SOL    HW135585   1.235   4.064   3.302  0.8399  0.7686  0.8088
 8041SOL    HW235586   1.118   4.093   3.396  2.0335 -1.9798  0.8450
 8042SOL     OW35587   4.189   4.633   0.358 -0.2537  0.4879  0.7261
 8042SOL    HW135588   4.226   4.620   0.445 -0.7284 -0.3626  0.8088
 8042SOL    HW235589   4.163   4.542   0.340 -0.2145  0.5071  0.5746
 8043SOL     OW35590   3.587   1.642  13.592  0.4918  0.1347 -0.3322
 8043SOL    HW135591   3.658   1.705  13.600 -0.0784  0.9395 -1.5733
 8043SOL    HW235592   3.631   1.558  13.605  0.6753  0.3817  0.6630
 8044SOL     OW35593   1.456   0.624   7.919  0.3792 -0.0805  0.6904
 8044SOL    HW135594   1.369   0.584   7.924 -0.6574  2.0204 -0.5170
 8044SOL    HW235595   1.511   0.566   7.972  0.6740  0.9574  1.5467
 8045SOL     OW35596   2.230   1.784   5.856 -0.2774  0.5147  0.4820
 8045SOL    HW135597   2.157   1.727   5.880  2.0364 -2.2118  0.9669
 8045SOL    HW235598   2.182   1.866   5.841 -4.0885 -1.9391 -0.6590
 8046SOL     OW35599   0.067   2.929   8.512 -0.1900  0.4079 -0.4846
 8046SOL    HW135600   4.699   2.891   8.505  0.1073 -0.2733 -0.4705
 8046SOL    HW235601   0.063   2.933   8.607 -2.3696 -0.4080 -0.5556
 8047SOL     OW35602   4.158   3.800   6.816 -0.4109 -0.6349 -0.3705
 8047SOL    HW135603   4.063   3.787   6.811 -0.8847  1.8721  2.0869
 8047SOL    HW235604   4.151   3.876   6.874 -0.8777 -0.1394 -1.0676
 8048SOL     OW35605   3.591   4.264   3.246  0.3653  0.0056  0.3942
 8048SOL    HW135606   3.510   4.306   3.272  0.1783 -1.1511  1.7126
 8048SOL    HW235607   3.557   4.177   3.224  1.1841 -0.0390 -0.7210
 8049SOL     OW35608   2.011   2.029   2.084  0.2567  0.1360  0.5924
 8049SOL    HW135609   2.096   2.002   2.048 -0.2780  0.4633 -0.9024
 8049SOL    HW235610   2.004   2.120   2.056  1.0093 -0.4177 -1.3995
 8050SOL     OW35611   2.124   2.771   4.614  0.6562 -0.6792 -0.5119
 8050SOL    HW135612   2.186   2.804   4.679 -1.7342  3.7543 -0.4830
 8050SOL    HW235613   2.109   2.852   4.567 -0.8876 -1.4487 -1.3565
 8051SOL     OW35614   1.596   0.006   0.375  0.7868 -0.1032  0.1262
 8051SOL    HW135615   1.639   0.083   0.414  1.1882  0.2317 -0.9857
 8051SOL    HW235616   1.583   4.666   0.448  2.5410 -0.5182  0.0805
 8052SOL     OW35617   0.168   3.628   1.729 -0.2114  0.4805 -0.2457
 8052SOL    HW135618   0.086   3.643   1.682  0.0177  1.0963 -0.4484
 8052SOL    HW235619   0.229   3.624   1.656  0.7819 -2.4421  0.7250
 8053SOL     OW35620   0.923   1.273   3.296  0.0479 -0.1242 -0.1117
 8053SOL    HW135621   0.834   1.300   3.274 -0.2354 -0.8802  0.0925
 8053SOL    HW235622   0.921   1.183   3.330 -1.0607 -0.0817 -0.0698
 8054SOL     OW35623   1.590   1.656  11.479 -0.4680 -0.4491  0.3582
 8054SOL    HW135624   1.561   1.699  11.560  1.7285  3.1793 -0.7941
 8054SOL    HW235625   1.603   1.567  11.513  1.2849 -0.5237 -0.4897
 8055SOL     OW35626   0.427   1.237   0.353  0.0783  0.2235 -0.0206
 8055SOL    HW135627   0.472   1.154   0.335 -1.5321 -0.3770 -1.2248
 8055SOL    HW235628   0.489   1.303   0.323  1.6231 -1.4457 -0.5519
 8056SOL     OW35629   4.410   1.279   2.075  0.7447  0.3940 -0.5110
 8056SOL    HW135630   4.360   1.350   2.115  0.9105 -0.1988  0.7592
 8056SOL    HW235631   4.446   1.229   2.149  0.1080  1.8575  0.7928
 8057SOL     OW35632   3.895   0.010  10.732 -0.0653 -0.1400 -0.0643
 8057SOL    HW135633   3.884   4.647  10.778 -0.2305 -2.5457 -4.5201
 8057SOL    HW235634   3.990   0.017  10.743 -0.4389  3.0976  1.3204
 8058SOL     OW35635   2.316   2.765  14.559  0.5346 -0.1503  0.2598
 8058SOL    HW135636   2.364   2.740  14.638  2.5904  1.6997 -0.4099
 8058SOL    HW235637   2.291   2.855  14.582  2.2038  0.2962  0.3537
 8059SOL     OW35638   3.511   4.344   3.988  0.1045 -0.0590  0.6169
 8059SOL    HW135639   3.557   4.427   3.993  0.4393 -0.3774  3.0039
 8059SOL    HW235640   3.542   4.295   3.912 -0.0684  0.4005  0.2577
 8060SOL     OW35641   0.931   0.267   5.479 -0.0990  0.5415  0.2320
 8060SOL    HW135642   0.938   0.347   5.427  0.9013 -0.1997 -0.7854
 8060SOL    HW235643   0.948   0.203   5.409  1.6479  2.3472 -1.0090
 8061SOL     OW35644   1.587   1.416   6.632 -0.0297  0.5505 -0.3375
 8061SOL    HW135645   1.620   1.395   6.545  1.6487  0.6401  0.2755
 8061SOL    HW235646   1.632   1.498   6.651 -1.3250  1.6157 -1.8734
 8062SOL     OW35647   3.930   4.401   3.096  0.2265  0.5022  0.3579
 8062SOL    HW135648   3.977   4.439   3.022  0.0050  1.2502  0.5967
 8062SOL    HW235649   3.837   4.403   3.072  1.1547 -0.1986 -3.2971
 8063SOL     OW35650   3.895   0.262   4.246 -0.2802 -0.3432 -0.4877
 8063SOL    HW135651   3.942   0.273   4.329  0.6375  1.1944 -1.2018
 8063SOL    HW235652   3.923   0.346   4.209 -0.1510  0.1845  0.8129
 8064SOL     OW35653   1.882   0.615   1.109 -0.4582  0.8219  0.8604
 8064SOL    HW135654   1.949   0.624   1.041  0.2869  0.3595  1.5199
 8064SOL    HW235655   1.929   0.622   1.193 -1.0930 -0.8827  1.3380
 8065SOL     OW35656   2.537   3.705  10.231 -0.3820 -0.3630 -0.0188
 8065SOL    HW135657   2.549   3.706  10.327  3.5224  0.1301 -0.4957
 8065SOL    HW235658   2.476   3.632  10.224 -0.3103 -0.6648  2.3149
 8066SOL     OW35659   2.008   1.200  10.652 -0.2516  0.2899 -0.6706
 8066SOL    HW135660   1.919   1.233  10.643 -0.4606 -0.5623 -1.7806
 8066SOL    HW235661   2.057   1.254  10.590  1.7036 -1.8186 -0.9925
 8067SOL     OW35662   2.523   1.364   3.802 -0.2801 -0.4840  0.7439
 8067SOL    HW135663   2.492   1.278   3.775  1.0601 -0.8544  0.3810
 8067SOL    HW235664   2.460   1.375   3.873 -1.3510  0.4321 -0.3429
 8068SOL     OW35665   2.327   4.330   2.297  0.1217 -0.6415  0.5459
 8068SOL    HW135666   2.269   4.358   2.368  0.3346  1.1525  0.0177
 8068SOL    HW235667   2.406   4.377   2.324 -0.6405 -0.1813  1.9910
 8069SOL     OW35668   0.640   2.609   5.994 -0.0779 -0.1065  0.3925
 8069SOL    HW135669   0.548   2.606   5.967 -0.3531 -0.3411  1.3675
 8069SOL    HW235670   0.673   2.567   5.914  0.3439 -2.3983  1.7605
 8070SOL     OW35671   4.283   2.583   2.764 -1.1650  0.0285 -0.3435
 8070SOL    HW135672   4.307   2.630   2.684 -1.2287 -0.0491 -0.4070
 8070SOL    HW235673   4.197   2.617   2.789 -0.4680  0.4143  1.5228
 8071SOL     OW35674   1.519   2.777   8.340 -0.0191 -0.5700 -0.0282
 8071SOL    HW135675   1.435   2.794   8.383  0.1088 -0.9892  0.3886
 8071SOL    HW235676   1.558   2.720   8.406  0.0941 -0.4154  0.0388
 8072SOL     OW35677   2.231   2.198   6.264 -0.3241 -0.0346  0.1338
 8072SOL    HW135678   2.202   2.282   6.230 -0.1693  0.1981  0.5777
 8072SOL    HW235679   2.325   2.198   6.245  0.0734  0.5246  2.1123
 8073SOL     OW35680   0.892   3.252   2.819  0.3719 -0.0646  0.8090
 8073SOL    HW135681   0.834   3.177   2.806  0.4290 -0.1767  1.1842
 8073SOL    HW235682   0.840   3.324   2.783  1.3997  2.1703  3.7616
 8074SOL     OW35683   0.242   3.589   8.145 -0.5773  0.7269 -0.0025
 8074SOL    HW135684   0.266   3.498   8.165  1.3866  1.4119  0.7784
 8074SOL    HW235685   0.196   3.612   8.225 -2.3014  4.0483 -1.9910
 8075SOL     OW35686   3.026   0.192  16.589 -0.2747  0.7472 -0.1692
 8075SOL    HW135687   3.044   0.184  16.683 -2.5674 -1.2553  0.0980
 8075SOL    HW235688   2.964   0.265  16.592 -1.0341  0.0903  0.4224
 8076SOL     OW35689   2.585   0.866   9.093  0.1477  0.2706  0.0876
 8076SOL    HW135690   2.669   0.821   9.099  0.4159  0.7421 -0.1062
 8076SOL    HW235691   2.543   0.857   9.178  1.1821  1.2924  0.7187
 8077SOL     OW35692   0.208   3.897   2.018 -0.0229 -0.2530  0.0623
 8077SOL    HW135693   0.144   3.870   1.953 -1.9947 -1.5408  2.5178
 8077SOL    HW235694   0.289   3.905   1.968 -2.0551 -0.6405 -3.2350
 8078SOL     OW35695   2.849   2.879   7.344  0.3979  0.3077  0.0062
 8078SOL    HW135696   2.873   2.900   7.435 -1.8202  1.8669  0.2239
 8078SOL    HW235697   2.938   2.848   7.327  0.4262  1.1184 -1.3183
 8079SOL     OW35698   2.838   2.281   7.306 -0.5424 -0.0736 -0.0269
 8079SOL    HW135699   2.800   2.358   7.348  0.0531  1.8626 -2.9839
 8079SOL    HW235700   2.914   2.317   7.260 -1.3529 -0.2641 -1.5191
 8080SOL     OW35701   1.961   2.008  13.481 -0.1587 -0.4821  0.0737
 8080SOL    HW135702   2.008   2.016  13.563 -2.5653  2.1614  1.2075
 8080SOL    HW235703   1.892   1.947  13.507  1.1710 -2.9591 -2.1828
 8081SOL     OW35704   1.999   2.973  17.069 -0.2179  0.0164 -0.1527
 8081SOL    HW135705   1.959   2.974  17.156  0.7080  2.1208  0.2649
 8081SOL    HW235706   1.985   2.879  17.058  0.8101 -0.1034 -0.3537
 8082SOL     OW35707   2.877   0.885   1.436 -0.6091  0.4822 -0.7475
 8082SOL    HW135708   2.944   0.891   1.368 -1.5139  0.0108 -1.6716
 8082SOL    HW235709   2.923   0.839   1.506  0.9215  1.8587 -0.8199
 8083SOL     OW35710   0.599   2.315   7.511  0.0889 -0.0667 -0.2086
 8083SOL    HW135711   0.608   2.297   7.605 -1.8436  1.5070  0.2737
 8083SOL    HW235712   0.539   2.389   7.511  1.2796  0.8954 -0.4306
 8084SOL     OW35713   3.238   2.777  15.948  0.8078 -0.2368  0.2764
 8084SOL    HW135714   3.252   2.738  16.035 -0.9061  0.6217  0.9349
 8084SOL    HW235715   3.240   2.696  15.898  3.1248 -1.0082  1.5964
 8085SOL     OW35716   2.170   3.216   1.864  0.5926  0.4179 -0.1619
 8085SOL    HW135717   2.111   3.147   1.836 -1.7021  2.6070 -0.7549
 8085SOL    HW235718   2.204   3.263   1.788 -0.2441  0.5315 -0.4533
 8086SOL     OW35719   1.580   3.563   0.324  0.2726  0.1756  0.0788
 8086SOL    HW135720   1.508   3.620   0.295 -0.7926  0.6664  3.6697
 8086SOL    HW235721   1.540   3.477   0.336 -1.2876  0.8931  0.0983
 8087SOL     OW35722   2.150   2.926   1.950  0.4114 -0.1447 -0.5914
 8087SOL    HW135723   2.109   2.946   1.866 -0.0860 -0.8207 -0.5030
 8087SOL    HW235724   2.128   2.834   1.964  0.3475 -0.1268 -0.5767
 8088SOL     OW35725   2.183   1.956   6.922 -0.2788  0.4867 -0.2121
 8088SOL    HW135726   2.238   2.032   6.903  0.2779  0.0894 -0.1898
 8088SOL    HW235727   2.230   1.895   6.979 -1.8649 -1.8014 -1.3551
 8089SOL     OW35728   4.095   4.718   7.164  0.7685  0.0217 -0.8172
 8089SOL    HW135729   4.091   0.094   7.172 -2.0950 -0.3303  1.9253
 8089SOL    HW235730   4.034   4.699   7.236  2.1397  1.1288  0.6510
 8090SOL     OW35731   4.083   2.292   7.571 -0.0345  0.3795  0.4237
 8090SOL    HW135732   4.099   2.224   7.505 -1.1622  2.3061 -1.8298
 8090SOL    HW235733   4.130   2.276   7.652  1.7720 -1.1148 -0.9151
 8091SOL     OW35734   1.314   0.278   4.809 -0.0718 -0.1193  0.2475
 8091SOL    HW135735   1.333   0.184   4.812 -1.0700 -0.2923  1.1483
 8091SOL    HW235736   1.304   0.300   4.716  0.2960 -2.8348 -0.4412
 8092SOL     OW35737   3.922   2.258  11.235  0.1523 -0.1677  0.0839
 8092SOL    HW135738   3.892   2.344  11.263 -3.3666 -1.4274  0.1914
 8092SOL    HW235739   3.850   2.249  11.173  1.2414 -1.3048 -1.0243
 8093SOL     OW35740   0.962   3.560  17.560  0.0809  0.0093  0.4125
 8093SOL    HW135741   0.929   3.522  17.479 -1.8580  0.9290  0.7680
 8093SOL    HW235742   0.960   3.490  17.625  3.1420  0.6766  1.2289
 8094SOL     OW35743   4.093   0.694   9.730 -0.2812 -0.4775 -0.3962
 8094SOL    HW135744   4.139   0.611   9.719  1.1421  0.2843 -0.1882
 8094SOL    HW235745   4.135   0.732   9.807 -2.4835  3.1195 -0.9878
 8095SOL     OW35746   2.771   0.100   7.054  0.1332 -0.6562  0.3197
 8095SOL    HW135747   2.711   0.050   6.998  1.1530 -0.4012 -1.0071
 8095SOL    HW235748   2.742   0.188   7.029 -2.3492 -1.1147  1.5547
 8096SOL     OW35749   0.473   2.434  16.769  0.1613  0.1247  0.5456
 8096SOL    HW135750   0.434   2.442  16.856 -0.7757  1.6169 -0.0127
 8096SOL    HW235751   0.395   2.417  16.717  0.4570 -1.7594  0.7506
 8097SOL     OW35752   4.505   1.058   0.575  0.0917  1.0345  0.0407
 8097SOL    HW135753   4.529   1.037   0.666 -2.0955 -2.7493 -0.2890
 8097SOL    HW235754   4.586   1.108   0.563  0.7157 -0.0581 -0.3037
 8098SOL     OW35755   0.094   0.647   8.900 -0.3559 -0.1322  0.5159
 8098SOL    HW135756   0.089   0.631   8.805 -2.5405 -3.0211  1.1509
 8098SOL    HW235757   0.010   0.682   8.928  0.4135  1.2209  1.1300
 8099SOL     OW35758   1.432   2.836  14.265  0.0041 -0.4106 -0.1248
 8099SOL    HW135759   1.447   2.741  14.262 -2.4033 -0.7450 -1.1178
 8099SOL    HW235760   1.392   2.860  14.182  1.0423  0.9523 -0.2350
 8100SOL     OW35761   4.066   1.209   6.812 -0.3604  0.2758 -0.0944
 8100SOL    HW135762   4.041   1.205   6.904 -1.5720 -1.7827 -0.5098
 8100SOL    HW235763   4.079   1.115   6.796 -1.5957  0.0337  0.3439
 8101SOL     OW35764   1.933   1.002  14.136  0.4422  0.0922 -0.4560
 8101SOL    HW135765   1.961   1.036  14.220 -0.5238 -2.3790  0.8623
 8101SOL    HW235766   1.999   0.933  14.130  2.7837  2.3870 -1.1824
 8102SOL     OW35767   1.102   2.252   9.083  0.1431 -0.1622 -0.0437
 8102SOL    HW135768   1.081   2.342   9.109 -1.4280 -0.6003  0.1501
 8102SOL    HW235769   1.184   2.240   9.131 -1.4259  1.5509  3.0219
 8103SOL     OW35770   1.774   1.798  16.090  0.1362  0.3373  0.0431
 8103SOL    HW135771   1.818   1.797  16.005  2.8818  0.1907  1.4356
 8103SOL    HW235772   1.694   1.760  16.055 -1.2586  2.4784  0.8647
 8104SOL     OW35773   3.274   2.957   7.113  0.0867 -0.3724 -0.7115
 8104SOL    HW135774   3.226   2.953   7.031  2.1543  1.4035 -1.9891
 8104SOL    HW235775   3.259   2.867   7.144 -0.7219  0.0241  0.0665
 8105SOL     OW35776   4.023   0.641   7.939  0.4826 -0.1223  0.3198
 8105SOL    HW135777   4.000   0.720   7.890  0.1364  0.3983  1.3063
 8105SOL    HW235778   4.009   0.561   7.890  1.1769  0.8496 -1.4478
 8106SOL     OW35779   4.041   4.257  13.587  0.6290 -0.3187  0.0185
 8106SOL    HW135780   3.988   4.213  13.654  1.9472 -0.0943  1.2028
 8106SOL    HW235781   4.119   4.288  13.632  0.2133  1.6430 -0.6214
 8107SOL     OW35782   1.464   1.419   2.392  0.0894 -0.0625  0.4647
 8107SOL    HW135783   1.551   1.392   2.364  0.2179 -0.3347  1.1230
 8107SOL    HW235784   1.458   1.515   2.395  0.2915 -0.0303 -0.3836
 8108SOL     OW35785   4.591   0.299   1.997 -0.1603  0.5080  0.4144
 8108SOL    HW135786   4.636   0.219   1.968 -0.2348  0.1379  1.3305
 8108SOL    HW235787   4.502   0.288   1.964  0.4012  2.2464 -1.7584
 8109SOL     OW35788   2.787   0.767  14.011  0.5789 -0.4017 -0.5830
 8109SOL    HW135789   2.831   0.730  14.088  0.5155 -0.5862 -0.6343
 8109SOL    HW235790   2.812   0.858  14.025 -0.0962 -0.4466  0.9250
 8110SOL     OW35791   4.496   3.669   9.005  0.5247  0.3171 -0.2919
 8110SOL    HW135792   4.434   3.737   8.979 -2.3536 -0.8424  3.4574
 8110SOL    HW235793   4.453   3.590   8.972  0.1513 -1.5372  4.6822
 8111SOL     OW35794   1.035   1.942   5.898 -0.5691  0.2093 -0.3100
 8111SOL    HW135795   1.074   1.860   5.868  0.3315 -0.2544  2.1088
 8111SOL    HW235796   0.948   1.926   5.862  0.0154 -1.4332 -0.9748
 8112SOL     OW35797   0.952   2.189   5.973 -0.6953  0.3693 -0.1273
 8112SOL    HW135798   0.991   2.113   5.930 -1.9811 -0.7788  0.7590
 8112SOL    HW235799   1.032   2.238   5.993  0.3888 -1.5433  0.2562
 8113SOL     OW35800   0.839   2.900   6.012  0.3567 -0.2443  0.3355
 8113SOL    HW135801   0.897   2.824   6.015  0.4654 -0.2509 -1.9793
 8113SOL    HW235802   0.801   2.912   5.925 -0.7371  1.0156  0.9941
 8114SOL     OW35803   1.519   2.456  12.298 -0.3545  0.3458 -0.0783
 8114SOL    HW135804   1.489   2.520  12.363 -1.2169  0.2956 -0.4360
 8114SOL    HW235805   1.614   2.465  12.304 -0.1495 -0.9970 -1.4107
 8115SOL     OW35806   0.019   4.601  14.913  0.1051  0.3042 -0.2595
 8115SOL    HW135807   0.038   4.628  14.823  2.9253 -0.9007 -0.0091
 8115SOL    HW235808   0.093   4.557  14.954 -0.7067 -0.1159  0.7280
 8116SOL     OW35809   4.157   2.858  12.110 -0.5957  0.3349 -0.1749
 8116SOL    HW135810   4.082   2.828  12.060 -1.3447  0.5969  0.7935
 8116SOL    HW235811   4.189   2.774  12.143  0.8048  0.7753 -0.3953
 8117SOL     OW35812   2.298   2.034   3.028  0.7506  0.0267 -0.0725
 8117SOL    HW135813   2.330   1.976   3.098 -0.7531 -0.0305  0.5633
 8117SOL    HW235814   2.239   2.091   3.077  0.8535 -0.2251  0.3430
 8118SOL     OW35815   3.980   4.243  16.099 -0.2556 -0.6871 -0.3799
 8118SOL    HW135816   3.999   4.222  16.191 -0.4566  0.1348 -0.1544
 8118SOL    HW235817   3.932   4.324  16.117 -0.2610 -0.1107 -3.0213
 8119SOL     OW35818   1.127   3.968   1.957 -0.2928 -0.6980 -0.1094
 8119SOL    HW135819   1.054   3.938   1.903 -1.2406  1.1080  0.1611
 8119SOL    HW235820   1.136   3.888   2.009 -0.6835 -0.0816  0.9037
 8120SOL     OW35821   1.226   0.177   3.062  0.0069  0.5503 -0.6730
 8120SOL    HW135822   1.149   0.132   3.026 -0.4455  0.8232 -0.0598
 8120SOL    HW235823   1.244   0.137   3.147 -0.0646 -0.4290 -1.1186
 8121SOL     OW35824   1.259   3.950   8.344  0.4061  0.0622  0.2039
 8121SOL    HW135825   1.326   3.934   8.409  0.5885  0.6473  0.1645
 8121SOL    HW235826   1.201   4.014   8.385  2.2949 -1.5442  5.3203
 8122SOL     OW35827   2.474   0.834   7.718  0.4292  0.4675  0.5490
 8122SOL    HW135828   2.470   0.787   7.635  1.3953 -0.2081  0.8757
 8122SOL    HW235829   2.566   0.811   7.732  0.4448  1.7608  2.6062
 8123SOL     OW35830   4.623   3.419   2.832  0.3247  0.2320  0.0402
 8123SOL    HW135831   4.621   3.387   2.922 -1.0663 -0.8613 -0.3832
 8123SOL    HW235832   4.638   3.512   2.849 -0.1175  0.3125 -0.0201
 8124SOL     OW35833   2.477   2.836   4.247 -0.2567 -0.1642 -0.3313
 8124SOL    HW135834   2.479   2.830   4.342  0.2236 -1.6517 -0.4440
 8124SOL    HW235835   2.382   2.848   4.238  0.0930  1.0948 -2.4851
 8125SOL     OW35836   1.968   2.002   3.659  0.1760  0.6867 -0.6570
 8125SOL    HW135837   2.006   2.078   3.616 -0.3404  0.0471 -2.2822
 8125SOL    HW235838   1.874   2.007   3.640 -0.3256 -1.3418  1.3653
 8126SOL     OW35839   0.842   4.253  16.356 -0.1244 -0.2604 -0.1224
 8126SOL    HW135840   0.937   4.255  16.342 -0.0962 -0.5526  0.0269
 8126SOL    HW235841   0.838   4.178  16.416 -1.8979 -1.5213 -1.8327
 8127SOL     OW35842   3.191   2.049   2.693 -0.0612  0.4136  0.3363
 8127SOL    HW135843   3.109   2.038   2.741 -0.4898 -1.0723 -0.7401
 8127SOL    HW235844   3.233   1.967   2.721 -0.0034 -0.0391 -1.0646
 8128SOL     OW35845   0.854   2.644   0.170  0.0329  0.0209  0.0537
 8128SOL    HW135846   0.893   2.709   0.112 -0.0290 -0.7337 -0.8269
 8128SOL    HW235847   0.815   2.692   0.243  1.0135 -0.2559  0.7603
 8129SOL     OW35848   3.263   2.140   7.726  0.1293 -0.0075 -0.3912
 8129SOL    HW135849   3.174   2.170   7.709 -0.1780 -0.7353 -0.0451
 8129SOL    HW235850   3.301   2.123   7.639  1.8845  0.2064  0.3300
 8130SOL     OW35851   1.933   0.787   7.078  0.3884 -0.1558  0.0159
 8130SOL    HW135852   1.840   0.767   7.088  0.8566 -1.0845  2.6077
 8130SOL    HW235853   1.941   0.876   7.112 -0.3901  0.7232 -2.0884
 8131SOL     OW35854   4.708   3.321  15.219  0.7587  0.1865  0.0092
 8131SOL    HW135855   4.696   3.370  15.300 -1.7262  0.7543 -0.6764
 8131SOL    HW235856   0.020   3.390  15.161  1.9988 -0.3883  0.0134
 8132SOL     OW35857   2.998   2.484   5.553 -0.1058  0.1573 -0.2377
 8132SOL    HW135858   3.077   2.521   5.513 -0.1269  1.7454  1.1650
 8132SOL    HW235859   2.944   2.487   5.473 -0.9194 -2.3795  0.2321
 8133SOL     OW35860   4.508   3.547   4.420 -0.1713 -0.4005 -0.2023
 8133SOL    HW135861   4.420   3.512   4.431  0.0121 -1.0098 -0.6623
 8133SOL    HW235862   4.526   3.535   4.326 -1.3985 -0.4709 -0.4292
 8134SOL     OW35863   1.203   3.145  14.963 -0.1149  0.3425  0.1257
 8134SOL    HW135864   1.202   3.120  14.871 -0.0796  2.1049 -0.3630
 8134SOL    HW235865   1.297   3.141  14.980 -0.5365 -1.1500  2.1164
 8135SOL     OW35866   1.431   4.107   3.911 -0.0298  1.1197  0.2215
 8135SOL    HW135867   1.343   4.137   3.935 -1.1211 -0.4543 -1.8164
 8135SOL    HW235868   1.412   4.018   3.883 -0.8398  1.8183 -1.4934
 8136SOL     OW35869   3.349   2.920   3.548  0.3209  0.3471 -0.3506
 8136SOL    HW135870   3.435   2.880   3.560 -0.5778 -2.0610 -2.0016
 8136SOL    HW235871   3.323   2.874   3.468  2.3819 -2.3501  0.5461
 8137SOL     OW35872   0.026   2.060   7.408  0.0950  0.5731 -0.0553
 8137SOL    HW135873   0.024   2.101   7.321  0.8929  1.2729  0.2464
 8137SOL    HW235874   0.088   2.117   7.454  1.7107  0.2875 -1.8271
 8138SOL     OW35875   3.039   0.699   1.584 -0.2821  0.0962  0.2480
 8138SOL    HW135876   3.015   0.617   1.540  2.7494 -0.2962 -0.6776
 8138SOL    HW235877   3.068   0.661   1.667 -2.0644 -0.4768  0.6131
 8139SOL     OW35878   3.546   1.728   9.604  0.2578  0.0504  0.4892
 8139SOL    HW135879   3.596   1.688   9.675  0.6514  0.1352  0.2600
 8139SOL    HW235880   3.600   1.806   9.595  1.1890 -0.6356  0.1134
 8140SOL     OW35881   4.665   4.275   2.461 -0.1466  0.0781 -0.4325
 8140SOL    HW135882   0.029   4.230   2.464  0.2239  0.6665 -1.7714
 8140SOL    HW235883   4.696   4.358   2.423 -0.2301  0.4194  0.2497
 8141SOL     OW35884   1.885   2.737   3.251 -0.0152 -0.0104  0.1005
 8141SOL    HW135885   1.942   2.739   3.174 -0.4999 -0.4932 -0.2713
 8141SOL    HW235886   1.809   2.700   3.206 -0.5377  0.2821  0.7569
 8142SOL     OW35887   3.898   1.866   3.977 -0.0039  0.1738 -0.0860
 8142SOL    HW135888   3.973   1.858   4.036 -0.2518  0.9138  0.3367
 8142SOL    HW235889   3.923   1.847   3.886  0.2794  1.8787 -0.3758
 8143SOL     OW35890   1.889   3.096   2.629  0.1031 -0.2039 -0.0068
 8143SOL    HW135891   1.875   3.067   2.720 -3.6362  2.4739  0.2714
 8143SOL    HW235892   1.922   3.014   2.594  0.3777 -0.2341  0.3161
 8144SOL     OW35893   4.275   3.803   4.586  0.0657  0.1754 -0.5878
 8144SOL    HW135894   4.182   3.799   4.563 -0.2965  1.6036  0.6099
 8144SOL    HW235895   4.283   3.898   4.581 -0.1233  0.3063  1.3750
 8145SOL     OW35896   0.565   0.058  14.406 -0.3003 -0.0251 -0.3451
 8145SOL    HW135897   0.660   0.060  14.420 -0.1953 -4.2338 -0.3420
 8145SOL    HW235898   0.533   0.081  14.493 -2.0867  2.2770 -1.6363
 8146SOL     OW35899   3.312   4.074   7.669  0.4177  0.0390 -0.1856
 8146SOL    HW135900   3.218   4.086   7.683  0.0036 -1.0724 -1.9200
 8146SOL    HW235901   3.302   3.979   7.659  1.3674  0.0928 -1.6429
 8147SOL     OW35902   1.089   1.347   8.004  0.4385  0.0580  0.3245
 8147SOL    HW135903   1.138   1.335   7.923 -0.1650  0.2232 -0.0694
 8147SOL    HW235904   1.152   1.373   8.070  1.2942 -2.4203  0.5008
 8148SOL     OW35905   2.251   2.529  15.136 -0.2073  0.2981  0.0275
 8148SOL    HW135906   2.167   2.490  15.111 -0.4737  1.5998 -1.0660
 8148SOL    HW235907   2.316   2.460  15.123  0.2706  0.5857  0.8776
 8149SOL     OW35908   1.244   0.860   3.347  0.7794  0.1785  0.6061
 8149SOL    HW135909   1.276   0.949   3.335  1.5522  0.0373  1.6121
 8149SOL    HW235910   1.306   0.823   3.285  0.2126 -1.8209  1.2163
 8150SOL     OW35911   3.538   3.948  14.610 -0.1514 -0.2549  0.2270
 8150SOL    HW135912   3.491   4.030  14.593 -1.4213 -0.9995  0.1285
 8150SOL    HW235913   3.623   3.972  14.574  0.6599 -0.8744  1.7225
 8151SOL     OW35914   0.357   3.414   3.723  0.3330 -0.4014  0.0168
 8151SOL    HW135915   0.360   3.338   3.665  0.3535  0.9693 -1.7614
 8151SOL    HW235916   0.449   3.441   3.719 -0.2243  1.5804  0.7903
 8152SOL     OW35917   1.721   3.084  17.095  0.3899 -0.5496  0.1457
 8152SOL    HW135918   1.761   3.051  17.015  0.8560  0.4216 -0.0349
 8152SOL    HW235919   1.800   3.087  17.150  0.7378 -2.1652 -0.2970
 8153SOL     OW35920   1.774   0.608   5.099 -0.5109  0.5032 -0.3850
 8153SOL    HW135921   1.777   0.596   5.004 -0.4592 -0.9695 -0.1939
 8153SOL    HW235922   1.824   0.531   5.124  0.3256  0.4621 -2.1349
 8154SOL     OW35923   4.572   2.481   3.547 -0.3256 -0.4970  0.0923
 8154SOL    HW135924   4.595   2.499   3.456  2.1656  1.5070  1.0912
 8154SOL    HW235925   4.587   2.572   3.573  1.2089 -1.0401  1.1030
 8155SOL     OW35926   2.458   0.807  13.059  0.3355 -0.4576 -0.0881
 8155SOL    HW135927   2.510   0.740  13.103  2.6090  1.4318  0.1023
 8155SOL    HW235928   2.405   0.843  13.130  0.1596 -1.6476  0.3790
 8156SOL     OW35929   4.676   1.456  12.485  0.0644 -0.3812  0.1328
 8156SOL    HW135930   0.024   1.424  12.544  0.1386 -0.4764 -0.0024
 8156SOL    HW235931   4.671   1.382  12.424  1.2186  2.0681 -2.9489
 8157SOL     OW35932   3.641   1.051   6.869  0.3723  0.1642 -0.2238
 8157SOL    HW135933   3.623   0.958   6.878 -0.4326  0.1780 -1.6347
 8157SOL    HW235934   3.686   1.046   6.784 -0.9384  0.1044 -0.9149
 8158SOL     OW35935   3.802   4.010  10.680  0.0643  0.0321 -0.2980
 8158SOL    HW135936   3.719   3.990  10.638 -0.1888  0.0117  0.2044
 8158SOL    HW235937   3.857   3.936  10.655 -2.7147 -2.6441  1.4525
 8159SOL     OW35938   4.575   2.892   7.889  0.3525 -0.1129 -0.0089
 8159SOL    HW135939   4.498   2.896   7.945 -1.2942  1.5830 -2.4349
 8159SOL    HW235940   4.566   2.798   7.874 -0.8746  0.1562 -0.8819
 8160SOL     OW35941   0.192   3.867   7.675 -0.3346 -0.4686  0.2933
 8160SOL    HW135942   0.266   3.918   7.709  0.5562  0.1785 -2.6574
 8160SOL    HW235943   0.213   3.787   7.724 -2.2134 -1.1174  0.0281
 8161SOL     OW35944   1.910   3.754   1.717  0.1926 -0.2536  0.2901
 8161SOL    HW135945   1.925   3.762   1.811  0.0556 -2.1545  0.4760
 8161SOL    HW235946   1.930   3.662   1.702  2.0419  0.0664  0.8661
 8162SOL     OW35947   4.512   0.077   8.302 -0.2928  0.1911 -0.0360
 8162SOL    HW135948   4.567   0.037   8.369 -1.3347 -2.5107 -0.8148
 8162SOL    HW235949   4.548   0.166   8.310 -1.8798  0.8221  0.2156
 8163SOL     OW35950   4.393   0.532   8.707 -0.2923 -0.3289 -0.6716
 8163SOL    HW135951   4.425   0.618   8.736  0.6171 -1.5024  1.7942
 8163SOL    HW235952   4.469   0.475   8.719 -1.0634 -1.3150 -0.4755
 8164SOL     OW35953   0.890   1.629   9.327 -0.0085 -0.2181  0.3312
 8164SOL    HW135954   0.893   1.660   9.418 -1.0342 -1.5202  0.8010
 8164SOL    HW235955   0.817   1.681   9.293 -1.5621 -3.4336 -1.1980
 8165SOL     OW35956   2.782   0.180  13.102 -0.1895  0.3251 -0.0384
 8165SOL    HW135957   2.823   0.097  13.125  1.4884  0.9861 -0.5988
 8165SOL    HW235958   2.864   0.226  13.082  0.0200 -0.6214 -1.2831
 8166SOL     OW35959   3.837   4.579  16.643 -0.0758  0.3754 -0.2152
 8166SOL    HW135960   3.791   4.497  16.625 -0.2611 -0.2355  2.9415
 8166SOL    HW235961   3.919   4.573  16.594 -0.6929 -0.2565 -1.1687
 8167SOL     OW35962   2.690   4.475   8.707  0.2740  0.2920 -0.7290
 8167SOL    HW135963   2.595   4.475   8.698  0.4089  0.4697 -2.1752
 8167SOL    HW235964   2.699   4.480   8.802 -1.1577  1.1291 -0.6322
 8168SOL     OW35965   1.977   2.179   2.903 -0.0894 -1.0537 -0.1570
 8168SOL    HW135966   1.943   2.111   2.962 -0.4836 -0.0879  0.7278
 8168SOL    HW235967   1.949   2.256   2.952  2.2121  0.0480 -0.5796
 8169SOL     OW35968   2.860   1.081   2.570  0.3722 -0.1047 -0.3665
 8169SOL    HW135969   2.805   1.127   2.633 -2.2579 -0.2462 -2.5854
 8169SOL    HW235970   2.826   1.114   2.487 -0.5380  0.6244  0.3047
 8170SOL     OW35971   2.475   1.738  13.896  0.0787 -0.2907 -0.3757
 8170SOL    HW135972   2.526   1.715  13.819 -0.9567 -2.8038 -0.3081
 8170SOL    HW235973   2.462   1.832  13.888  0.0885 -0.1677  1.0160
 8171SOL     OW35974   4.680   3.494   7.288 -0.0707  0.0600 -0.0844
 8171SOL    HW135975   4.648   3.416   7.334 -1.9596 -0.9656 -3.1979
 8171SOL    HW235976   4.682   3.459   7.199  0.3394  4.1409 -1.6386
 8172SOL     OW35977   4.545   2.634   0.418  0.7157 -0.0676 -0.3387
 8172SOL    HW135978   4.503   2.693   0.481  2.9839  0.2612  0.8455
 8172SOL    HW235979   4.529   2.685   0.339 -0.8185  1.5152  0.9788
 8173SOL     OW35980   4.206   4.625   6.423  0.6102 -0.9415 -1.0193
 8173SOL    HW135981   4.186   4.632   6.330 -2.7071  0.3001 -0.2330
 8173SOL    HW235982   4.148   4.552   6.445 -1.4306  0.8111 -0.5676
 8174SOL     OW35983   2.587   0.685  17.243  0.6996  0.7375  0.2724
 8174SOL    HW135984   2.571   0.779  17.229  0.3762  0.5474 -0.6153
 8174SOL    HW235985   2.675   0.669  17.209  0.7470  0.6471  0.4351
 8175SOL     OW35986   2.447   0.983   6.280 -0.0159 -0.2406 -0.1390
 8175SOL    HW135987   2.397   0.940   6.210  1.1696 -0.5880 -0.7654
 8175SOL    HW235988   2.375   1.030   6.322  0.5297  1.3863 -1.0349
 8176SOL     OW35989   2.045   0.563  11.165 -0.3145 -0.0306  0.6981
 8176SOL    HW135990   1.950   0.565  11.154 -0.2921  3.2855  0.8871
 8176SOL    HW235991   2.079   0.636  11.113 -1.1489  0.2590  0.5660
 8177SOL     OW35992   0.014   2.621   9.511 -0.0447 -0.7898  0.4651
 8177SOL    HW135993   4.690   2.634   9.427  0.5117  0.6121  0.3962
 8177SOL    HW235994   0.098   2.666   9.497 -0.6393  0.3565  0.5771
 8178SOL     OW35995   0.366   2.591   6.548  0.0648  0.0859  0.2890
 8178SOL    HW135996   0.451   2.604   6.507 -0.8395  1.1283 -1.2514
 8178SOL    HW235997   0.345   2.510   6.502  0.4277  1.5867 -2.5487
 8179SOL     OW35998   0.980   0.893   3.027  0.1370 -0.6217 -0.0643
 8179SOL    HW135999   1.032   0.973   3.022 -1.8130  0.6906  1.1883
 8179SOL    HW236000   0.989   0.859   3.116 -3.4006 -0.3093  0.3805
 8180SOL     OW36001   1.534   1.136   3.507  0.6653 -0.2822 -0.5437
 8180SOL    HW136002   1.465   1.074   3.532  0.5592 -0.2299 -0.7112
 8180SOL    HW236003   1.561   1.102   3.422  0.6594  1.9174 -1.4265
 8181SOL     OW36004   3.838   1.558   4.039  0.6340  1.0604  0.0885
 8181SOL    HW136005   3.861   1.621   3.971  3.1277 -0.1987 -0.2051
 8181SOL    HW236006   3.907   1.581   4.101  2.0299  0.9825 -1.4451
 8182SOL     OW36007   0.560   4.284  10.343  0.0687 -0.4344  0.1875
 8182SOL    HW136008   0.489   4.228  10.375 -0.0706 -0.7595 -0.6940
 8182SOL    HW236009   0.545   4.369  10.385  1.2037  0.4767 -1.1993
 8183SOL     OW36010   2.439   3.598   1.803  0.6012 -0.0193 -0.0333
 8183SOL    HW136011   2.490   3.657   1.748  2.0090 -1.2113  0.0105
 8183SOL    HW236012   2.440   3.521   1.746 -0.9609 -0.6185  0.7403
 8184SOL     OW36013   2.134   0.519  12.009  0.0953 -1.0006 -0.5681
 8184SOL    HW136014   2.158   0.580  12.078 -4.4327 -1.8669  1.7851
 8184SOL    HW236015   2.042   0.494  12.021 -0.4318  0.8050 -0.9313
 8185SOL     OW36016   2.348   3.829   2.451 -1.0069  0.1313  0.2988
 8185SOL    HW136017   2.300   3.802   2.373 -0.5555  1.9089 -0.6169
 8185SOL    HW236018   2.350   3.924   2.438 -0.0010  0.2527  1.3680
 8186SOL     OW36019   2.306   1.383  10.661  0.4800  0.0621 -0.4114
 8186SOL    HW136020   2.352   1.303  10.687  2.8121  1.7076  0.5285
 8186SOL    HW236021   2.321   1.382  10.566  0.3369 -1.5721 -0.4233
 8187SOL     OW36022   4.451   4.653   4.794 -0.3313  0.4637  0.0139
 8187SOL    HW136023   4.468   4.563   4.768 -1.3044  0.3562 -0.2496
 8187SOL    HW236024   4.446   4.633   4.887 -3.1500  1.0945  0.0125
 8188SOL     OW36025   1.703   0.064   2.525  0.6569  0.4021  0.0077
 8188SOL    HW136026   1.739   0.065   2.436  0.2107  0.2381 -0.1742
 8188SOL    HW236027   1.781   0.077   2.578  1.7626  0.9872 -1.7541
 8189SOL     OW36028   1.330   2.167  15.686  0.3355 -0.3968  0.2493
 8189SOL    HW136029   1.284   2.138  15.765 -2.5472  2.2103 -0.4703
 8189SOL    HW236030   1.400   2.102  15.685  0.2820 -0.4432 -0.3035
 8190SOL     OW36031   1.794   4.642   8.156  0.0831 -0.2064 -0.2240
 8190SOL    HW136032   1.859   4.597   8.103 -0.2722 -0.6438 -0.2797
 8190SOL    HW236033   1.776   0.001   8.105 -1.3662 -1.6834 -1.9561
 8191SOL     OW36034   0.674   1.395   5.483  0.2163  0.2669  0.0721
 8191SOL    HW136035   0.755   1.344   5.480 -1.7900 -3.1070  2.5674
 8191SOL    HW236036   0.670   1.436   5.397  0.6085  1.6715  0.7232
 8192SOL     OW36037   2.141   4.442  10.656  1.1552  0.4076 -0.8511
 8192SOL    HW136038   2.145   4.519  10.712 -0.7336 -0.4976  0.5392
 8192SOL    HW236039   2.224   4.442  10.607  3.6845 -0.7210  3.4079
 8193SOL     OW36040   0.333   1.350  10.222  0.7519  0.3610 -0.2316
 8193SOL    HW136041   0.368   1.408  10.289  2.7909  0.2255 -1.1738
 8193SOL    HW236042   0.390   1.276  10.240  2.3970  1.0255 -2.6883
 8194SOL     OW36043   0.281   3.912   4.032  0.2587 -0.5241 -0.4900
 8194SOL    HW136044   0.212   3.873   3.977 -0.5159  1.8819 -1.2479
 8194SOL    HW236045   0.236   3.894   4.114  0.2804 -0.4994 -0.4730
 8195SOL     OW36046   4.392   2.192  16.793  0.1963  0.3551 -0.0541
 8195SOL    HW136047   4.411   2.242  16.872  2.0037  1.5217 -1.2358
 8195SOL    HW236048   4.407   2.259  16.726 -1.2001  0.0250 -0.7020
 8196SOL     OW36049   1.832   3.325  13.051 -0.0384 -0.1774  0.7968
 8196SOL    HW136050   1.766   3.291  12.990  0.5138  0.3618 -0.1008
 8196SOL    HW236051   1.883   3.246  13.067  4.1757  2.0142 -1.9893
 8197SOL     OW36052   4.275   3.835   9.512 -0.0560 -0.6246  0.4771
 8197SOL    HW136053   4.254   3.742   9.504  1.7433 -1.0712  0.8919
 8197SOL    HW236054   4.300   3.842   9.420  0.3042  0.7484  0.6794
 8198SOL     OW36055   4.533   3.482   7.918 -0.3435  0.0598 -0.2014
 8198SOL    HW136056   4.582   3.489   7.836 -1.5400 -0.9551 -1.0035
 8198SOL    HW236057   4.594   3.429   7.970  0.3299 -0.4919 -1.5468
 8199SOL     OW36058   0.816   0.993   4.127 -0.5223 -0.7466  0.3432
 8199SOL    HW136059   0.803   1.040   4.045  0.8888  0.3796  0.7552
 8199SOL    HW236060   0.770   1.048   4.190 -0.3745  0.7416 -0.8349
 8200SOL     OW36061   3.135   2.717   7.971 -0.0085 -0.3608 -0.5936
 8200SOL    HW136062   3.210   2.736   8.029  0.9513 -0.6857 -1.7244
 8200SOL    HW236063   3.136   2.789   7.908  2.1540  1.2687  1.2636
 8201SOL     OW36064   1.170   3.640   5.479 -0.3693  0.7290 -0.3335
 8201SOL    HW136065   1.093   3.583   5.479 -1.0245  1.6272  1.2574
 8201SOL    HW236066   1.231   3.594   5.420 -0.6805 -0.2559  0.1097
 8202SOL     OW36067   2.167   2.510   7.252  0.0777 -0.6534  0.0271
 8202SOL    HW136068   2.076   2.537   7.243  0.7434  0.8708 -2.2879
 8202SOL    HW236069   2.183   2.528   7.345  0.1161 -0.2848 -0.0521
 8203SOL     OW36070   4.395   2.525  10.616  0.0961  0.3828 -0.5827
 8203SOL    HW136071   4.392   2.435  10.586  0.6349  0.2477 -0.2246
 8203SOL    HW236072   4.482   2.535  10.656 -0.4167 -1.8598  1.0727
 8204SOL     OW36073   2.703   3.124  10.488  0.2021  0.4021 -0.2433
 8204SOL    HW136074   2.795   3.106  10.467  0.1651  2.0045 -1.7786
 8204SOL    HW236075   2.671   3.151  10.403 -1.5047 -0.1995  0.1972
 8205SOL     OW36076   4.258   2.241  16.491  0.3986 -0.0849  0.6367
 8205SOL    HW136077   4.292   2.305  16.553 -0.3506  1.4214 -0.5173
 8205SOL    HW236078   4.315   2.167  16.510 -0.2261 -0.8275 -0.3821
 8206SOL     OW36079   2.775   0.065   7.323  0.3771  0.0756 -0.1751
 8206SOL    HW136080   2.681   0.051   7.329  0.3209 -0.1779 -1.7890
 8206SOL    HW236081   2.788   0.072   7.229  1.0943  1.5497  0.0384
 8207SOL     OW36082   0.668   1.335  13.081 -0.0095 -0.6099 -0.1840
 8207SOL    HW136083   0.754   1.340  13.122 -0.0433 -0.9904 -0.0682
 8207SOL    HW236084   0.668   1.401  13.011 -1.1066 -2.9232 -2.3776
 8208SOL     OW36085   2.138   2.808  17.330 -0.2100 -0.2275 -0.4359
 8208SOL    HW136086   2.208   2.757  17.288  2.0786  3.4388 -1.0893
 8208SOL    HW236087   2.108   2.743  17.393 -0.0687  0.9932  0.8675
 8209SOL     OW36088   3.194   2.777  13.182 -0.2805  0.2393 -0.1549
 8209SOL    HW136089   3.190   2.764  13.087  0.3824  2.0960 -0.4520
 8209SOL    HW236090   3.288   2.778  13.199 -0.1474  0.8254 -0.8895
 8210SOL     OW36091   4.445   3.640  13.880  0.2272 -0.3040 -0.6496
 8210SOL    HW136092   4.448   3.644  13.785  0.2130  0.9755 -0.6000
 8210SOL    HW236093   4.423   3.730  13.905  0.2218 -1.0162  1.9783
 8211SOL     OW36094   0.885   1.831   2.581  0.0389  0.4904 -0.2567
 8211SOL    HW136095   0.837   1.792   2.508 -0.5055  1.7374 -0.5665
 8211SOL    HW236096   0.871   1.925   2.567  2.3774  0.8800  0.0616
 8212SOL     OW36097   4.697   4.214   9.436 -0.2956 -0.0871 -0.4896
 8212SOL    HW136098   4.613   4.194   9.396  0.4632 -0.6543 -1.7841
 8212SOL    HW236099   4.675   4.195   9.528 -0.5649  0.9500 -0.3356
 8213SOL     OW36100   0.976   4.403   5.834 -0.0044  0.7127 -0.4059
 8213SOL    HW136101   1.015   4.363   5.913 -0.3232 -0.1311 -0.6791
 8213SOL    HW236102   0.904   4.344   5.816 -0.1912  0.4773  1.0569
 8214SOL     OW36103   2.763   4.481   8.146 -0.5470 -0.7462 -0.3728
 8214SOL    HW136104   2.745   4.438   8.063  1.2036 -1.2562 -0.4871
 8214SOL    HW236105   2.680   4.522   8.170  0.1040  0.2708  0.1595
 8215SOL     OW36106   3.874   0.837   5.375  0.2068  0.0663 -0.3919
 8215SOL    HW136107   3.792   0.820   5.420 -0.5956  0.6897 -1.6191
 8215SOL    HW236108   3.827   0.836   5.291  0.2404  0.3389 -0.4117
 8216SOL     OW36109   1.176   3.646   2.002 -0.3699  0.4823 -0.3303
 8216SOL    HW136110   1.260   3.628   1.958 -0.4311  1.7461 -0.9780
 8216SOL    HW236111   1.216   3.665   2.086  1.2774 -2.5493 -0.4294
 8217SOL     OW36112   0.593   4.183   5.396 -0.4019  0.3936  0.1675
 8217SOL    HW136113   0.646   4.262   5.386 -1.0811  1.0981  2.0660
 8217SOL    HW236114   0.503   4.209   5.414 -1.1347 -2.6540  0.7982
 8218SOL     OW36115   4.147   1.390   1.691  0.1195  0.5303  0.2786
 8218SOL    HW136116   4.128   1.296   1.691 -2.7267  1.1122 -2.0299
 8218SOL    HW236117   4.108   1.418   1.608  1.2689  2.6863  0.4779
 8219SOL     OW36118   0.600   3.228  17.327 -0.3062 -0.3076 -0.1536
 8219SOL    HW136119   0.572   3.289  17.395  1.0766  2.0309 -1.6679
 8219SOL    HW236120   0.533   3.160  17.337  0.9952 -2.0529 -3.1878
 8220SOL     OW36121   2.330   3.897   5.633 -0.2209 -0.6382 -0.3529
 8220SOL    HW136122   2.362   3.950   5.706 -0.3008  0.0256 -0.8090
 8220SOL    HW236123   2.304   3.821   5.685 -2.7305  1.3885  1.3721
 8221SOL     OW36124   1.683   0.987   8.789  0.0520  0.0795 -0.3509
 8221SOL    HW136125   1.631   1.054   8.746 -1.2898 -1.2643 -0.8080
 8221SOL    HW236126   1.760   0.971   8.734  0.8509 -1.7336  1.2750
 8222SOL     OW36127   0.746   3.894  14.698 -0.6173 -0.5004 -0.1982
 8222SOL    HW136128   0.819   3.951  14.674 -1.3199  0.2205 -0.6303
 8222SOL    HW236129   0.716   3.873  14.609 -2.7417  0.7077  0.2406
 8223SOL     OW36130   3.299   3.116   8.389  0.4409 -0.0013  0.5211
 8223SOL    HW136131   3.217   3.166   8.386  0.8719  0.8240  2.6952
 8223SOL    HW236132   3.264   3.032   8.418  0.0638  0.1422  0.4819
 8224SOL     OW36133   4.299   3.158   8.041 -0.5129 -0.2106 -0.7210
 8224SOL    HW136134   4.351   3.181   8.118 -1.2785  1.5153 -0.7130
 8224SOL    HW236135   4.332   3.225   7.981  0.4465 -1.5833 -1.7477
 8225SOL     OW36136   4.328   3.974  11.028 -0.2689 -0.2868 -0.5599
 8225SOL    HW136137   4.392   4.035  10.991 -0.1600 -0.9808 -1.5240
 8225SOL    HW236138   4.391   3.917  11.071  0.0963 -1.2693 -2.3790
 8226SOL     OW36139   4.230   1.068   1.408  0.4849 -0.6782 -0.1226
 8226SOL    HW136140   4.222   1.011   1.331 -0.2955  0.1000 -0.6121
 8226SOL    HW236141   4.176   1.019   1.471 -1.3678  1.5681  0.0306
 8227SOL     OW36142   2.565   3.862  15.536  0.6035 -0.5796 -0.1972
 8227SOL    HW136143   2.489   3.895  15.584  1.6008 -1.5185  2.0212
 8227SOL    HW236144   2.589   3.937  15.481  1.3667  0.3529  1.4028
 8228SOL     OW36145   1.171   3.040   7.523  0.1013  0.4652 -0.1940
 8228SOL    HW136146   1.209   3.072   7.441 -1.3290 -1.2202 -1.5162
 8228SOL    HW236147   1.199   3.113   7.577  0.0630  1.0388 -0.9544
 8229SOL     OW36148   0.895   2.087   6.980  0.5677 -0.1689  0.2108
 8229SOL    HW136149   0.806   2.056   6.996  0.9738 -1.5603 -0.1702
 8229SOL    HW236150   0.909   2.146   7.054  0.2117 -0.2158  0.3156
 8230SOL     OW36151   1.496   1.875   7.678 -0.1872 -0.6671 -0.1104
 8230SOL    HW136152   1.545   1.876   7.596  1.2897 -0.3709  0.7763
 8230SOL    HW236153   1.554   1.823   7.734  1.5341  0.3548 -0.9618
 8231SOL     OW36154   0.908   1.696   5.228 -0.1599 -0.4727  0.3560
 8231SOL    HW136155   0.974   1.707   5.160 -1.1367 -0.4667 -0.5813
 8231SOL    HW236156   0.880   1.788   5.229 -0.2055 -0.4744 -2.0298
 8232SOL     OW36157   4.449   3.954  14.639  0.5537  0.3023 -0.1229
 8232SOL    HW136158   4.435   3.907  14.721 -1.3284 -0.9907 -1.1656
 8232SOL    HW236159   4.363   3.994  14.632 -0.1315 -0.9762  0.9605
 8233SOL     OW36160   0.543   0.028  13.326 -0.5879 -0.5566 -0.1233
 8233SOL    HW136161   0.504   0.080  13.256 -1.5422 -0.5015  0.4505
 8233SOL    HW236162   0.491   4.668  13.314 -1.5141 -0.3177  2.1207
 8234SOL     OW36163   1.309   2.568  14.141 -0.6215 -0.5441 -0.6335
 8234SOL    HW136164   1.288   2.474  14.144 -0.6877 -0.5296 -0.6453
 8234SOL    HW236165   1.225   2.608  14.118 -0.7186 -0.7441 -0.6274
 8235SOL     OW36166   4.447   1.914  16.783 -0.6776 -0.1837  0.3711
 8235SOL    HW136167   4.438   2.003  16.750 -2.0567 -0.1307  0.9185
 8235SOL    HW236168   4.360   1.888  16.812  0.0722 -2.8782  0.2276
 8236SOL     OW36169   1.471   1.976   2.331  0.0717  0.1805  0.3108
 8236SOL    HW136170   1.548   2.032   2.327 -0.6267  1.1480  0.5090
 8236SOL    HW236171   1.471   1.954   2.238 -0.8863 -2.1355  0.8520
 8237SOL     OW36172   2.811   0.672   9.075 -0.2609  0.6282  0.2423
 8237SOL    HW136173   2.843   0.752   9.118 -1.6124  1.2869  0.0116
 8237SOL    HW236174   2.884   0.650   9.017 -3.8097  0.7937 -4.2619
 8238SOL     OW36175   4.670   4.540   2.394  0.4918 -0.1007  0.0676
 8238SOL    HW136176   4.585   4.533   2.437 -0.3158  0.2143 -1.4638
 8238SOL    HW236177   4.652   4.593   2.317  0.9286 -0.9432 -0.6271
 8239SOL     OW36178   1.118   2.546   0.270 -0.5930  0.1357 -0.5219
 8239SOL    HW136179   1.100   2.595   0.351 -1.7729 -1.0391 -0.0823
 8239SOL    HW236180   1.034   2.556   0.226 -0.6590  1.0635 -0.1847
 8240SOL     OW36181   0.058   2.978   8.188  0.2887  0.5147  0.7928
 8240SOL    HW136182   0.035   3.030   8.112  0.3306  1.1506  1.2158
 8240SOL    HW236183   0.042   3.039   8.260 -2.3581  0.5246  0.1987
 8241SOL     OW36184   0.654   3.165   7.777  0.1796 -0.0384  0.0753
 8241SOL    HW136185   0.582   3.102   7.775  1.1116 -1.0813 -0.3286
 8241SOL    HW236186   0.687   3.156   7.688  0.2911 -0.4976  0.1630
 8242SOL     OW36187   3.887   2.469   6.278 -0.0470  0.0159  0.0176
 8242SOL    HW136188   3.820   2.496   6.340 -1.2836 -0.0465 -1.3034
 8242SOL    HW236189   3.965   2.461   6.333 -1.8570  0.6450  2.6830
 8243SOL     OW36190   3.371   1.169   8.965  0.4159  0.0818  0.3932
 8243SOL    HW136191   3.430   1.235   9.002  0.1330  0.5824 -0.0675
 8243SOL    HW236192   3.390   1.158   8.872  1.0552 -0.0739  0.5350
 8244SOL     OW36193   1.114   4.625   6.313  0.0662 -0.6733  0.0766
 8244SOL    HW136194   1.071   4.543   6.287  0.0195 -0.5513 -0.2332
 8244SOL    HW236195   1.066   4.695   6.269  0.7226  0.4548  1.1483
 8245SOL     OW36196   2.653   0.886   4.280 -0.3692  0.3313  0.1637
 8245SOL    HW136197   2.655   0.978   4.307  0.9359  0.3790 -0.1018
 8245SOL    HW236198   2.698   0.843   4.352  0.8082  0.1954 -0.6547
 8246SOL     OW36199   3.603   1.952  12.364 -0.0655 -0.0679  0.3709
 8246SOL    HW136200   3.673   2.015  12.380 -0.2912 -0.4141  2.7405
 8246SOL    HW236201   3.625   1.881  12.424 -1.4037  0.1025  1.0844
 8247SOL     OW36202   1.616   2.678   5.675  0.8367  0.1812  0.1013
 8247SOL    HW136203   1.626   2.588   5.708  1.2293 -0.6492 -2.3310
 8247SOL    HW236204   1.697   2.723   5.699  0.0917  0.4074  2.2114
 8248SOL     OW36205   4.484   2.807   8.764  0.3586 -0.4442  0.0678
 8248SOL    HW136206   4.476   2.712   8.773 -0.5470 -0.0351  3.3403
 8248SOL    HW236207   4.484   2.833   8.856  1.2187  0.5151 -0.2011
 8249SOL     OW36208   4.522   0.872   3.020 -1.0997 -0.7425 -0.1871
 8249SOL    HW136209   4.616   0.870   3.032 -0.8835 -0.9863 -1.8468
 8249SOL    HW236210   4.491   0.868   3.110 -0.4240  2.1549  0.1555
 8250SOL     OW36211   4.367   4.479   7.977 -0.3151 -0.1195 -0.5847
 8250SOL    HW136212   4.324   4.397   7.951  0.8809 -1.0733  0.4187
 8250SOL    HW236213   4.342   4.493   8.069  0.9600  0.8386 -0.3909
 8251SOL     OW36214   4.538   3.835  17.243  0.2259 -0.3003 -0.1785
 8251SOL    HW136215   4.558   3.764  17.304 -1.4353 -0.8501 -0.2874
 8251SOL    HW236216   4.566   3.805  17.157  1.0597 -0.5377  0.1778
 8252SOL     OW36217   1.641   0.969   7.151  0.1343 -0.2427 -0.3428
 8252SOL    HW136218   1.550   0.989   7.176 -0.0731 -1.3702 -0.2329
 8252SOL    HW236219   1.650   0.884   7.194  0.2476  0.1744  0.4697
 8253SOL     OW36220   3.097   0.716   0.834  0.5772 -0.1999 -0.9293
 8253SOL    HW136221   3.034   0.773   0.878 -0.7298 -2.2332 -0.1675
 8253SOL    HW236222   3.164   0.783   0.821 -0.9042  1.1534 -1.6058
 8254SOL     OW36223   1.604   1.824   3.073 -0.1494 -0.2280  0.3203
 8254SOL    HW136224   1.622   1.778   3.155 -0.3487 -1.4301 -0.3090
 8254SOL    HW236225   1.612   1.744   3.021 -0.7040  0.3671 -0.6917
 8255SOL     OW36226   3.876   1.023  10.977 -0.2251  0.4083 -0.1665
 8255SOL    HW136227   3.903   1.107  10.939 -0.3559 -0.3968 -2.0320
 8255SOL    HW236228   3.849   0.977  10.898  1.2682  0.3544 -0.6408
 8256SOL     OW36229   1.434   4.315  11.759  0.1175  0.4923 -0.8162
 8256SOL    HW136230   1.452   4.345  11.848 -0.4136  1.5517 -1.0720
 8256SOL    HW236231   1.491   4.238  11.766  0.6437  0.8483 -1.1019
 8257SOL     OW36232   3.554   3.928   8.499  0.4218 -0.0874  0.6717
 8257SOL    HW136233   3.561   3.951   8.591  0.6372  1.0230  0.3808
 8257SOL    HW236234   3.495   3.853   8.501  0.3829 -0.0811 -0.3425
 8258SOL     OW36235   1.481   3.616   9.826  0.6347  0.7772  0.2325
 8258SOL    HW136236   1.489   3.662   9.742  1.4610  0.4804  0.1501
 8258SOL    HW236237   1.439   3.538   9.788  0.9512  0.2982  0.8794
 8259SOL     OW36238   1.719   3.322  14.874  0.1023 -0.1889 -0.3078
 8259SOL    HW136239   1.680   3.353  14.792 -1.5665 -1.3313  0.0387
 8259SOL    HW236240   1.673   3.386  14.928 -0.1388 -0.0528 -0.6704
 8260SOL     OW36241   2.272   3.272   3.708  0.7188  0.0304 -0.2972
 8260SOL    HW136242   2.265   3.325   3.787 -1.0206  0.1924 -0.5427
 8260SOL    HW236243   2.266   3.185   3.749 -0.7866 -0.2231 -1.0320
 8261SOL     OW36244   4.696   2.631   5.510 -0.3452 -0.3748  0.4746
 8261SOL    HW136245   0.048   2.634   5.573 -1.5242  0.9252  1.7688
 8261SOL    HW236246   4.631   2.592   5.569 -0.2497 -1.8918 -0.4329
 8262SOL     OW36247   1.160   2.507   2.373 -0.1136  0.2905  0.2563
 8262SOL    HW136248   1.187   2.416   2.384 -0.9145 -0.0260 -0.3878
 8262SOL    HW236249   1.199   2.531   2.289  0.4010 -0.0152  0.4099
 8263SOL     OW36250   0.538   0.276   7.711 -0.4280  0.0348 -0.3301
 8263SOL    HW136251   0.464   0.321   7.670  0.3483  1.1598 -0.5166
 8263SOL    HW236252   0.571   0.352   7.759  1.9571  0.4937 -2.7297
 8264SOL     OW36253   1.547   1.921  13.633  0.4073  0.0984  0.0837
 8264SOL    HW136254   1.523   1.997  13.579  2.0110  1.2002  0.9336
 8264SOL    HW236255   1.478   1.942  13.696 -0.0254 -0.4009 -0.2237
 8265SOL     OW36256   2.495   2.909   6.633  0.1894 -0.4368 -0.0345
 8265SOL    HW136257   2.480   2.994   6.676  1.6012 -0.1416 -0.1292
 8265SOL    HW236258   2.485   2.845   6.704 -1.6942  2.3267  2.2179
 8266SOL     OW36259   1.193   3.522   8.119 -0.1334  0.1897  0.6035
 8266SOL    HW136260   1.106   3.555   8.143 -1.3058 -2.4173 -0.1163
 8266SOL    HW236261   1.242   3.594   8.159 -0.8670  1.5393 -0.9108
 8267SOL     OW36262   3.013   3.043   2.812  0.0712  0.1262  0.5487
 8267SOL    HW136263   3.029   2.953   2.783  0.0062  0.2144  0.2376
 8267SOL    HW236264   2.940   3.022   2.870 -1.0247  1.1856 -0.4433
 8268SOL     OW36265   4.631   4.151   9.108 -0.3861  0.1187 -0.1824
 8268SOL    HW136266   4.704   4.090   9.120 -0.2599  0.5543  1.2305
 8268SOL    HW236267   4.667   4.228   9.151 -0.8249  0.8101 -1.0650
 8269SOL     OW36268   3.232   1.045   6.473 -0.0995 -0.2959 -0.0609
 8269SOL    HW136269   3.153   1.035   6.421 -1.2061 -1.4661  1.8938
 8269SOL    HW236270   3.235   0.962   6.519  0.7726  0.1620  0.7053
 8270SOL     OW36271   4.498   1.077   7.591  0.2227 -0.2747  1.1950
 8270SOL    HW136272   4.559   1.102   7.521  0.6453 -0.8285  1.3607
 8270SOL    HW236273   4.538   0.997   7.625 -0.0375 -0.5384  0.8861
 8271SOL     OW36274   3.159   0.886  14.625 -0.3109  0.1081 -0.4640
 8271SOL    HW136275   3.108   0.924  14.553 -1.0693  0.0693  0.0613
 8271SOL    HW236276   3.229   0.856  14.567 -1.7917 -1.3508 -1.5143
 8272SOL     OW36277   3.190   0.691  13.161  0.7058  0.2591  0.1322
 8272SOL    HW136278   3.274   0.681  13.117  0.4261 -0.9534 -0.1204
 8272SOL    HW236279   3.204   0.673  13.254  0.0038 -0.8433  0.0159
 8273SOL     OW36280   2.368   4.149  16.492 -0.0056  0.4181  0.2742
 8273SOL    HW136281   2.360   4.104  16.407 -0.7930  2.4566 -0.7259
 8273SOL    HW236282   2.386   4.235  16.455 -0.4539  0.5553  0.3826
 8274SOL     OW36283   2.939   1.093   4.135  0.0112 -0.4159 -0.1232
 8274SOL    HW136284   2.921   1.182   4.106  1.0676  0.4614  1.9515
 8274SOL    HW236285   3.015   1.072   4.081  0.1809 -1.1416  0.3936
 8275SOL     OW36286   2.488   3.033   6.950 -0.5836 -0.0086  0.2474
 8275SOL    HW136287   2.557   3.042   7.016  1.1066  0.5566 -1.5794
 8275SOL    HW236288   2.432   2.968   6.992 -0.5815  1.0447  1.8622
 8276SOL     OW36289   4.354   0.108   6.176 -0.2623 -0.2527  0.0660
 8276SOL    HW136290   4.295   0.034   6.162 -0.2886 -0.2336  0.0747
 8276SOL    HW236291   4.419   0.069   6.234 -0.1407 -1.4066 -0.8533
 8277SOL     OW36292   2.489   4.127   1.221  0.1353  0.3671 -0.0079
 8277SOL    HW136293   2.494   4.032   1.224 -1.0678  0.3574  1.6928
 8277SOL    HW236294   2.429   4.147   1.148 -0.0068  0.1274  0.0462
 8278SOL     OW36295   4.145   0.919   6.432  0.6255 -0.2538 -0.1246
 8278SOL    HW136296   4.180   1.004   6.461  1.1279  0.1306 -1.8761
 8278SOL    HW236297   4.110   0.937   6.345  1.0268  1.7573  0.1328
 8279SOL     OW36298   4.527   3.978   7.287 -0.2246 -0.0030  0.2060
 8279SOL    HW136299   4.555   4.013   7.372 -2.0305  0.8698  0.4363
 8279SOL    HW236300   4.590   3.906   7.281 -0.0135  0.1071  1.1034
 8280SOL     OW36301   3.435   3.693   5.842 -0.0019  0.2472  0.6879
 8280SOL    HW136302   3.433   3.603   5.875 -0.5637  0.1041  0.2669
 8280SOL    HW236303   3.528   3.700   5.821  0.3324 -1.6470  1.5830
 8281SOL     OW36304   1.199   0.139   5.160 -0.0245  0.1168  0.4139
 8281SOL    HW136305   1.269   0.146   5.224  0.8535  0.7413 -0.6096
 8281SOL    HW236306   1.237   0.075   5.100 -0.5317 -0.9751  1.2550
 8282SOL     OW36307   3.939   4.452   6.789 -0.1025  0.1469  0.3906
 8282SOL    HW136308   3.943   4.543   6.820 -0.3269  0.5423 -0.7132
 8282SOL    HW236309   3.847   4.443   6.763 -0.0307  0.0703  0.1588
 8283SOL     OW36310   1.049   4.245   0.390  0.6603  0.7442 -0.1593
 8283SOL    HW136311   1.112   4.312   0.413  0.5518  0.7546  0.1122
 8283SOL    HW236312   0.968   4.289   0.415  0.4278 -0.5139  1.3194
 8284SOL     OW36313   1.430   4.143   1.780 -0.1387 -0.0249  0.5139
 8284SOL    HW136314   1.504   4.194   1.747 -0.0714 -1.2277 -1.1851
 8284SOL    HW236315   1.431   4.165   1.873 -0.5659 -2.5380  1.0973
 8285SOL     OW36316   2.080   1.274   7.666  0.0593 -0.0147  0.6011
 8285SOL    HW136317   2.167   1.243   7.691  0.3920  0.7523  0.3943
 8285SOL    HW236318   2.032   1.191   7.662  0.7740 -0.4429  0.7863
 8286SOL     OW36319   3.652   2.393   2.465  0.4769 -0.1572  0.6294
 8286SOL    HW136320   3.595   2.371   2.538  1.4818 -0.3994  1.3383
 8286SOL    HW236321   3.698   2.310   2.450  2.0142  0.8227 -0.1481
 8287SOL     OW36322   3.267   2.609   5.392  1.0137  0.0265  0.1617
 8287SOL    HW136323   3.264   2.694   5.437  0.3826 -0.2068  0.5679
 8287SOL    HW236324   3.321   2.631   5.316 -1.3268  1.0249 -1.2395
 8288SOL     OW36325   2.583   3.418  14.822 -0.4141 -0.0084 -0.0460
 8288SOL    HW136326   2.635   3.344  14.853 -1.3620 -0.4300  0.5511
 8288SOL    HW236327   2.496   3.378  14.822  0.5166 -2.0147 -2.7222
 8289SOL     OW36328   2.534   1.872   0.719 -0.1686  0.3307  0.0953
 8289SOL    HW136329   2.487   1.879   0.801  0.6712  0.5725  0.5587
 8289SOL    HW236330   2.476   1.916   0.657  0.6651  1.8564  0.3886
 8290SOL     OW36331   0.603   1.728   4.495  0.5932  0.3622 -0.6657
 8290SOL    HW136332   0.687   1.684   4.478 -0.5373 -2.1266  0.1207
 8290SOL    HW236333   0.551   1.653   4.524 -1.3327  0.3879 -4.0314
 8291SOL     OW36334   1.203   1.503   0.930 -0.0959  0.4703 -0.0107
 8291SOL    HW136335   1.215   1.531   1.020  0.5631  1.2983 -0.3632
 8291SOL    HW236336   1.120   1.456   0.940 -0.7635  1.1165 -2.4043
 8292SOL     OW36337   4.062   3.627   8.935 -0.0345 -0.0731  0.0872
 8292SOL    HW136338   4.114   3.547   8.921  1.4066  0.5804  1.7233
 8292SOL    HW236339   3.983   3.605   8.886 -0.4055  1.0671  0.1851
 8293SOL     OW36340   1.142   1.320   1.845 -0.0814  0.1924 -0.2903
 8293SOL    HW136341   1.148   1.373   1.924  0.9842 -1.8246  0.9920
 8293SOL    HW236342   1.173   1.235   1.877 -1.2216 -0.2290 -0.3102
 8294SOL     OW36343   2.746   3.305   0.241 -0.2286 -0.1492 -0.4424
 8294SOL    HW136344   2.689   3.235   0.208 -0.3838 -0.8788  1.3722
 8294SOL    HW236345   2.752   3.355   0.159  0.0228  1.0450  0.3166
 8295SOL     OW36346   4.178   0.656   6.704 -0.4695 -0.4860 -0.0096
 8295SOL    HW136347   4.163   0.688   6.615  1.4926  0.9749  0.1943
 8295SOL    HW236348   4.268   0.686   6.718 -1.3472  1.9398  0.4616
 8296SOL     OW36349   1.309   1.700   2.767  0.2276 -0.4003 -0.4970
 8296SOL    HW136350   1.293   1.638   2.696  2.6407 -0.3755 -1.0541
 8296SOL    HW236351   1.363   1.765   2.723 -1.3811  0.3688 -1.3321
 8297SOL     OW36352   3.934   3.054   4.136 -0.4917  0.0749  0.7001
 8297SOL    HW136353   3.894   3.133   4.099 -0.3136 -0.0131  0.3291
 8297SOL    HW236354   3.899   2.996   4.069  1.5835  1.6692 -1.7634
 8298SOL     OW36355   3.981   0.640   0.238  0.1339  0.2365  0.0461
 8298SOL    HW136356   4.013   0.588   0.164  1.1665  1.1297 -0.1264
 8298SOL    HW236357   4.064   0.660   0.282 -1.1362  1.7488  1.7224
 8299SOL     OW36358   4.566   0.168  15.544  0.1888 -0.6101  0.2685
 8299SOL    HW136359   4.623   0.096  15.569 -0.3150 -1.4176 -0.9638
 8299SOL    HW236360   4.507   0.175  15.620  0.0727 -0.0681  0.1304
 8300SOL     OW36361   1.099   2.142  13.640  0.4953  0.1493 -0.0046
 8300SOL    HW136362   1.113   2.136  13.545  1.5671  3.7551 -0.0636
 8300SOL    HW236363   1.135   2.055  13.654  1.4598  0.4250 -0.7594
 8301SOL     OW36364   3.268   0.052  12.777  0.0789 -0.1216  0.0072
 8301SOL    HW136365   3.322   0.131  12.784 -0.9437  0.6495 -0.7309
 8301SOL    HW236366   3.222   0.047  12.861 -1.8086  0.0845 -1.0217
 8302SOL     OW36367   4.429   0.223  15.275 -0.6413 -0.3181 -0.1625
 8302SOL    HW136368   4.360   0.178  15.226  0.6454 -1.6036 -0.7960
 8302SOL    HW236369   4.439   0.159  15.346 -0.9176  0.6441  0.7396
 8303SOL     OW36370   0.024   1.877   9.347  0.1963 -0.0933 -0.1637
 8303SOL    HW136371   4.704   1.796   9.317 -0.7745 -0.2857  1.7146
 8303SOL    HW236372   0.106   1.847   9.386  0.0797 -0.0964  0.0808
 8304SOL     OW36373   3.819   2.966  15.049 -0.0448  0.2645 -0.3298
 8304SOL    HW136374   3.768   2.910  15.107  2.0616 -0.0262  1.2482
 8304SOL    HW236375   3.749   3.019  15.011  0.9423  2.6311  1.1284
 8305SOL     OW36376   4.394   3.091  15.072  0.6042 -0.2546  0.2948
 8305SOL    HW136377   4.389   3.096  14.977  3.6030  0.1457  0.1402
 8305SOL    HW236378   4.336   3.159  15.104  0.8002 -0.5756  1.3406
 8306SOL     OW36379   3.232   0.362   8.959 -0.3508  0.1563 -0.2349
 8306SOL    HW136380   3.320   0.324   8.953 -0.8132 -1.2680  2.4339
 8306SOL    HW236381   3.181   0.288   8.991  0.5291 -0.1995  0.3322
 8307SOL     OW36382   2.626   1.435  14.964 -0.0237 -0.0216  0.4491
 8307SOL    HW136383   2.642   1.453  14.871 -1.6202 -0.3069  0.1087
 8307SOL    HW236384   2.702   1.471  15.008 -0.6191  1.8192 -0.0250
 8308SOL     OW36385   1.117   4.066  12.132  0.1472  0.0680 -0.4911
 8308SOL    HW136386   1.104   4.134  12.198  0.5024 -1.3753  1.0630
 8308SOL    HW236387   1.207   4.083  12.105  0.5941  0.9970  1.5817
 8309SOL     OW36388   1.713   1.666   6.671 -0.3614 -0.3802  0.0888
 8309SOL    HW136389   1.787   1.667   6.610 -0.6523 -2.2862 -0.2799
 8309SOL    HW236390   1.654   1.727   6.627 -0.4769 -1.7461 -1.6404
 8310SOL     OW36391   0.002   3.911   1.839  0.6635  0.3193  0.4377
 8310SOL    HW136392   0.016   3.842   1.774 -1.3367  1.9741 -1.7378
 8310SOL    HW236393   4.681   3.982   1.791  0.0062 -1.9478 -2.3420
 8311SOL     OW36394   0.622   2.069   0.985  0.6330  0.3262  0.4475
 8311SOL    HW136395   0.547   2.045   0.932  0.8642 -0.5715  0.5230
 8311SOL    HW236396   0.691   2.007   0.963 -1.0411 -1.0736 -0.7825
 8312SOL     OW36397   2.286   1.354   1.172  0.0894 -0.0613  0.3715
 8312SOL    HW136398   2.200   1.324   1.201 -1.0132  0.4551 -2.3014
 8312SOL    HW236399   2.272   1.447   1.153  2.2352  0.5791  1.9771
 8313SOL     OW36400   2.858   2.981   1.567 -0.5681  0.2754 -0.4821
 8313SOL    HW136401   2.889   2.899   1.604  1.1615  1.4137  0.5941
 8313SOL    HW236402   2.787   2.993   1.629  1.0698  1.5995  1.1377
 8314SOL     OW36403   0.711   3.999   3.859 -0.3604 -0.7044 -0.7235
 8314SOL    HW136404   0.720   4.092   3.879 -1.8212 -0.5758 -0.6887
 8314SOL    HW236405   0.788   3.969   3.908 -1.1784 -1.2325  0.2323
 8315SOL     OW36406   0.330   0.702   5.800 -0.4972 -0.0648 -0.0703
 8315SOL    HW136407   0.424   0.702   5.817 -0.7057 -0.4099  1.1023
 8315SOL    HW236408   0.282   0.682   5.881  0.2675  1.0160  0.6625
 8316SOL     OW36409   0.359   1.812  17.154  0.3421  0.1712 -0.0293
 8316SOL    HW136410   0.340   1.848  17.241 -1.9969 -1.7205  0.2275
 8316SOL    HW236411   0.284   1.832  17.098  0.6911 -0.7669 -0.8432
 8317SOL     OW36412   0.269   2.792   9.838  0.5872 -0.3695  0.2616
 8317SOL    HW136413   0.252   2.778   9.744 -0.9067 -0.1299  0.4868
 8317SOL    HW236414   0.305   2.881   9.833 -2.0139  0.7050  0.3743
 8318SOL     OW36415   2.584   2.273   4.981 -0.2649 -0.1134 -0.7195
 8318SOL    HW136416   2.589   2.223   4.900  1.2089  0.4105 -0.9525
 8318SOL    HW236417   2.540   2.351   4.946 -1.0368  0.1934  0.9638
 8319SOL     OW36418   2.618   0.489  15.636  0.5131  0.6701  0.5304
 8319SOL    HW136419   2.679   0.474  15.565  0.8648 -0.4335  1.0639
 8319SOL    HW236420   2.681   0.478  15.707  1.7595 -0.9746 -0.8252
 8320SOL     OW36421   1.031   2.161   5.248  0.2010 -0.2043 -0.3987
 8320SOL    HW136422   1.113   2.115   5.230  1.6382  2.1139  0.2443
 8320SOL    HW236423   0.968   2.089   5.241  1.8271 -1.6221 -0.4953
 8321SOL     OW36424   3.446   4.269  11.279 -0.4094 -0.2072 -0.0438
 8321SOL    HW136425   3.379   4.244  11.216  0.1230 -1.1691 -0.2238
 8321SOL    HW236426   3.453   4.360  11.252  2.1244 -0.8303 -1.4894
 8322SOL     OW36427   0.911   2.801  13.362 -0.4773 -0.0575  0.3186
 8322SOL    HW136428   0.934   2.774  13.273 -0.4528 -0.2179  0.3744
 8322SOL    HW236429   0.959   2.738  13.415  0.9750  1.5054  0.8825
 8323SOL     OW36430   0.104   2.032  11.778 -0.1908  0.0700 -0.1188
 8323SOL    HW136431   0.057   2.084  11.713  0.7217  0.1822 -0.7016
 8323SOL    HW236432   0.048   1.955  11.768 -2.3836  1.8312 -1.2777
 8324SOL     OW36433   4.677   4.423   1.609  0.4195 -0.2881 -0.0665
 8324SOL    HW136434   4.646   4.514   1.608 -2.3649 -1.2452 -2.2374
 8324SOL    HW236435   0.000   4.417   1.694 -0.6952 -0.1531  0.5123
 8325SOL     OW36436   1.885   2.844   6.029  0.3298  0.5872 -0.0617
 8325SOL    HW136437   1.921   2.925   5.994  0.6513  0.7792  0.6919
 8325SOL    HW236438   1.865   2.868   6.120 -0.7619  1.4171 -0.5160
 8326SOL     OW36439   2.801   0.051  12.256 -0.0208  0.1198 -0.3452
 8326SOL    HW136440   2.839   0.004  12.330  0.5049 -1.7842 -1.8411
 8326SOL    HW236441   2.729   0.105  12.287 -0.0742  0.5282 -1.1795
 8327SOL     OW36442   1.265   0.942  17.122 -0.3817  0.3274  0.3088
 8327SOL    HW136443   1.173   0.966  17.111 -0.6961 -0.6797  0.7907
 8327SOL    HW236444   1.293   1.032  17.101  0.7888 -0.2922 -0.7832
 8328SOL     OW36445   3.078   2.298   9.112 -0.6249  0.0479  0.1257
 8328SOL    HW136446   3.050   2.358   9.181 -1.1019 -1.1488  0.9853
 8328SOL    HW236447   2.995   2.273   9.071 -1.1606 -0.4525  1.5229
 8329SOL     OW36448   1.700   2.320   8.655  0.1781 -0.2111 -0.0721
 8329SOL    HW136449   1.772   2.383   8.651 -0.3535  0.3882 -0.1877
 8329SOL    HW236450   1.627   2.371   8.620  0.8325  0.6630 -0.1589
 8330SOL     OW36451   1.109   0.864   4.680  0.3368 -0.4042  0.1552
 8330SOL    HW136452   1.133   0.775   4.706  0.5016 -0.2618  0.4890
 8330SOL    HW236453   1.014   0.872   4.676  0.3039 -0.7828  0.2280
 8331SOL     OW36454   3.043   2.337   4.248  0.2133  0.0407  0.6886
 8331SOL    HW136455   3.096   2.398   4.300  0.0644  0.4931  0.3159
 8331SOL    HW236456   2.984   2.317   4.321 -0.7864  1.5310  0.3109
 8332SOL     OW36457   3.901   3.118  15.632 -0.6401 -0.4011  0.5054
 8332SOL    HW136458   3.840   3.190  15.646 -0.8281 -0.6189  0.8126
 8332SOL    HW236459   3.960   3.133  15.707  1.6817 -0.8428 -1.2297
 8333SOL     OW36460   3.302   2.555   3.787  0.0715  0.7696  0.2673
 8333SOL    HW136461   3.390   2.593   3.791  0.2057  0.3892  0.8510
 8333SOL    HW236462   3.302   2.511   3.703 -2.7829  1.4076 -0.0760
 8334SOL     OW36463   1.558   0.280  15.632 -0.1106 -0.0309 -0.0541
 8334SOL    HW136464   1.560   0.372  15.660  1.6181 -0.1989  0.3843
 8334SOL    HW236465   1.647   0.249  15.646 -0.0359  0.1033 -0.2237
 8335SOL     OW36466   1.447   1.604  16.956 -0.1910 -0.1705 -0.2681
 8335SOL    HW136467   1.440   1.699  16.967  2.0715  0.2837 -2.6178
 8335SOL    HW236468   1.387   1.610  16.881  0.9634  0.3904 -1.1446
 8336SOL     OW36469   2.138   1.910   6.139 -0.3920 -0.5545 -0.3494
 8336SOL    HW136470   2.219   1.891   6.092 -0.4544  1.7074 -1.3699
 8336SOL    HW236471   2.154   2.002   6.159 -0.5327 -0.8226  0.9791
 8337SOL     OW36472   1.984   2.276   5.895  0.1063  0.0964 -0.3757
 8337SOL    HW136473   1.956   2.323   5.816 -1.2723 -1.1402 -0.6263
 8337SOL    HW236474   2.076   2.263   5.870  0.4767 -1.7117  1.9506
 8338SOL     OW36475   4.312   2.860   6.637 -0.2485 -0.5191 -0.6524
 8338SOL    HW136476   4.225   2.874   6.676 -0.4640 -2.7064 -0.3796
 8338SOL    HW236477   4.368   2.887   6.710 -0.8542  1.0320 -0.7582
 8339SOL     OW36478   1.328   3.172   7.698  0.3910  0.6008 -0.2005
 8339SOL    HW136479   1.421   3.195   7.691  0.4666  0.6539  0.9624
 8339SOL    HW236480   1.297   3.223   7.772 -0.5562  0.6671 -0.6367
 8340SOL     OW36481   2.079   1.392  10.456  0.2548  0.1396  0.0258
 8340SOL    HW136482   2.153   1.444  10.427 -0.8787  0.2343 -2.7093
 8340SOL    HW236483   2.008   1.456  10.457  2.8559  2.9127  3.6021
 8341SOL     OW36484   0.870   1.527  16.278 -0.9620  0.0893  0.2286
 8341SOL    HW136485   0.889   1.620  16.264 -0.0930 -0.2455 -0.8648
 8341SOL    HW236486   0.956   1.488  16.293 -1.3092 -0.1675  1.5506
 8342SOL     OW36487   3.978   0.828   2.440  0.0952  0.0651 -0.3021
 8342SOL    HW136488   4.039   0.806   2.370 -0.8599  2.0330 -1.7390
 8342SOL    HW236489   3.975   0.749   2.494 -2.0610  0.0216 -0.4759
 8343SOL     OW36490   2.836   0.626  17.192  0.2812 -0.4430  0.4189
 8343SOL    HW136491   2.889   0.547  17.204  0.7358 -0.7445 -3.6966
 8343SOL    HW236492   2.894   0.690  17.233  1.8541 -0.6877 -1.4675
 8344SOL     OW36493   0.739   4.648   1.190 -0.0257  0.9733  0.6566
 8344SOL    HW136494   0.745   0.017   1.155 -1.3048  0.9610  0.3806
 8344SOL    HW236495   0.734   4.662   1.284 -2.2762  1.0375  0.5228
 8345SOL     OW36496   0.714   4.655   6.176 -0.4616  0.0478  0.1850
 8345SOL    HW136497   0.657   4.592   6.219 -0.7849 -0.4642 -0.9916
 8345SOL    HW236498   0.707   4.605   6.095 -1.5520 -0.5790  0.6655
 8346SOL     OW36499   2.600   3.758   2.623 -0.0734  0.0243 -0.3303
 8346SOL    HW136500   2.558   3.816   2.561  1.0638 -0.1417 -1.2464
 8346SOL    HW236501   2.538   3.685   2.621  0.5689 -0.5062 -1.0680
 8347SOL     OW36502   3.534   0.969  10.262  0.0623 -0.3066 -0.3852
 8347SOL    HW136503   3.482   0.917  10.324 -0.3020  1.3637  0.6980
 8347SOL    HW236504   3.628   0.956  10.272  0.4763  0.8116 -2.7988
 8348SOL     OW36505   4.363   3.035   3.387 -0.0710 -0.0820  0.6558
 8348SOL    HW136506   4.366   3.128   3.410  2.1673 -0.1808  0.7844
 8348SOL    HW236507   4.375   2.995   3.473  0.3784  1.7684  1.4460
 8349SOL     OW36508   2.540   2.429   5.976  0.1819 -0.8835  0.1072
 8349SOL    HW136509   2.529   2.351   6.030  2.1083 -1.0591  0.2181
 8349SOL    HW236510   2.452   2.462   5.958  1.6993  4.0770  1.7473
 8350SOL     OW36511   2.527   3.431  12.022  0.2134  0.4928  0.2876
 8350SOL    HW136512   2.596   3.497  12.025  0.0588  0.6873 -0.4629
 8350SOL    HW236513   2.554   3.383  12.101 -0.8546  1.1160  1.0366
 8351SOL     OW36514   2.019   2.349   4.276  0.8745 -0.0595  0.1846
 8351SOL    HW136515   2.102   2.306   4.257  0.0853 -0.9413 -1.2919
 8351SOL    HW236516   2.042   2.423   4.331 -0.5666  0.8208 -0.3961
 8352SOL     OW36517   2.822   3.470   0.885  0.1218 -0.1213 -0.4649
 8352SOL    HW136518   2.909   3.460   0.924 -0.6042  1.4111  1.4957
 8352SOL    HW236519   2.799   3.387   0.843 -0.4561  0.5561 -1.4979
 8353SOL     OW36520   3.135   0.741  16.355 -0.6579 -0.0651 -0.2910
 8353SOL    HW136521   3.159   0.666  16.409 -1.9111 -1.5209 -1.7245
 8353SOL    HW236522   3.193   0.735  16.279  2.5003  0.2812  2.1126
 8354SOL     OW36523   3.552   2.526  12.921 -0.1107 -0.5171 -0.3298
 8354SOL    HW136524   3.500   2.541  13.001 -2.5953  0.1963 -2.0864
 8354SOL    HW236525   3.598   2.447  12.951  2.9769  0.9275 -1.2565
 8355SOL     OW36526   3.622   2.288  16.369 -0.1965 -0.4161  0.2264
 8355SOL    HW136527   3.691   2.329  16.422  0.5954 -0.0740 -1.0422
 8355SOL    HW236528   3.670   2.249  16.296  0.3610 -1.5840  1.2204
 8356SOL     OW36529   4.646   0.438   0.876 -0.5086  0.1355 -0.6185
 8356SOL    HW136530   4.693   0.514   0.843  0.5770  0.1355  0.8940
 8356SOL    HW236531   4.565   0.468   0.919  0.5754  0.0515  1.4955
 8357SOL     OW36532   2.321   4.061   4.577 -0.1037 -0.0716  0.0997
 8357SOL    HW136533   2.253   4.050   4.511 -0.1000 -0.5701  0.1830
 8357SOL    HW236534   2.284   4.130   4.632 -0.5665  0.1435 -0.4900
 8358SOL     OW36535   1.771   2.875   0.332 -0.2844 -0.4914 -0.1604
 8358SOL    HW136536   1.806   2.811   0.394 -0.8928 -0.6599  0.0093
 8358SOL    HW236537   1.686   2.840   0.307  0.0537 -3.3267  2.7003
 8359SOL     OW36538   1.080   0.551   2.172  0.0648  0.1198  0.2479
 8359SOL    HW136539   0.994   0.518   2.143  0.6504 -1.5101  0.3607
 8359SOL    HW236540   1.106   0.499   2.248  1.7932 -2.1608 -1.9077
 8360SOL     OW36541   0.044   2.327   8.060 -0.5039  0.0776 -0.6965
 8360SOL    HW136542   0.091   2.305   7.980  3.2364  0.6301  1.3337
 8360SOL    HW236543   4.674   2.304   8.036 -0.3876 -0.7011 -0.3930
 8361SOL     OW36544   0.677   3.722  14.960 -0.1796  0.3109  0.0360
 8361SOL    HW136545   0.611   3.770  15.010 -0.3562 -0.1561  0.2403
 8361SOL    HW236546   0.633   3.667  14.896 -1.0225 -1.6117  2.3056
 8362SOL     OW36547   4.220   3.630   2.350 -0.7735  0.5418  0.0962
 8362SOL    HW136548   4.309   3.658   2.369 -0.8358  0.1490  0.9664
 8362SOL    HW236549   4.229   3.544   2.390  2.0408  0.6985 -0.1809
 8363SOL     OW36550   0.649   3.641  17.095  0.4489  0.5118  0.0274
 8363SOL    HW136551   0.589   3.715  17.093 -0.7444 -0.4705 -0.7317
 8363SOL    HW236552   0.712   3.668  17.162  1.3995  2.0853 -1.5046
 8364SOL     OW36553   3.828   0.671   8.566  0.4226 -0.3374 -0.1891
 8364SOL    HW136554   3.778   0.647   8.488 -0.0100 -0.6941  0.2054
 8364SOL    HW236555   3.910   0.624   8.549  0.1194 -0.8628 -0.1993
 8365SOL     OW36556   0.287   1.483  13.600 -0.2885  0.8799  0.2240
 8365SOL    HW136557   0.312   1.428  13.525 -1.9625  0.1108  0.2323
 8365SOL    HW236558   0.206   1.448  13.638 -0.4007  0.9255  0.0284
 8366SOL     OW36559   3.094   1.750  13.224  0.5246  0.6557  0.5361
 8366SOL    HW136560   3.143   1.732  13.304  0.3833 -2.2744 -0.0527
 8366SOL    HW236561   3.148   1.695  13.168 -0.0237  2.3320 -1.6490
 8367SOL     OW36562   4.180   2.017   3.846 -0.3911 -0.2260 -0.2094
 8367SOL    HW136563   4.194   2.109   3.827  0.2253 -0.8708 -2.8012
 8367SOL    HW236564   4.222   1.978   3.769  2.4794 -0.0168  1.2400
 8368SOL     OW36565   3.666   1.172   2.551  0.4051 -0.4020 -0.0701
 8368SOL    HW136566   3.712   1.140   2.473  0.3769 -1.1947  0.2358
 8368SOL    HW236567   3.732   1.145   2.614 -2.2719 -0.7178  2.5829
 8369SOL     OW36568   3.523   0.698  12.428 -0.1980  0.5619  0.2338
 8369SOL    HW136569   3.562   0.776  12.388 -2.0450  1.8881  1.0241
 8369SOL    HW236570   3.591   0.639  12.459 -0.6444 -0.6619 -1.1115
 8370SOL     OW36571   0.946   2.785   6.878  0.2415  0.4895 -0.4683
 8370SOL    HW136572   0.990   2.707   6.912 -0.2504  1.0151  1.3862
 8370SOL    HW236573   1.023   2.839   6.865 -0.0402  0.5762 -1.7834
 8371SOL     OW36574   4.069   3.452   5.539  0.6495  0.2252  0.3041
 8371SOL    HW136575   3.995   3.506   5.510  0.2687 -2.0776 -3.0028
 8371SOL    HW236576   4.095   3.406   5.460  1.6894 -0.2016  0.9014
 8372SOL     OW36577   0.819   4.150   9.247  0.0068  0.6747 -0.2805
 8372SOL    HW136578   0.837   4.159   9.341 -1.7702  0.1488  0.1223
 8372SOL    HW236579   0.868   4.068   9.241  0.0735  0.6633  0.4270
 8373SOL     OW36580   0.453   1.836   7.299  0.2496  0.0748  0.1350
 8373SOL    HW136581   0.425   1.924   7.272 -0.4956 -0.1642  0.1265
 8373SOL    HW236582   0.386   1.784   7.256 -1.3568  2.8981 -0.7689
 8374SOL     OW36583   1.098   1.733   5.749 -0.2929  0.5729  0.4052
 8374SOL    HW136584   1.083   1.739   5.655 -0.3892  1.7085  0.4976
 8374SOL    HW236585   1.050   1.651   5.762 -2.7503  2.2003  1.6803
 8375SOL     OW36586   1.491   0.500   3.698 -0.2950 -0.2319  0.1745
 8375SOL    HW136587   1.445   0.478   3.778 -1.1801 -0.1794 -0.3160
 8375SOL    HW236588   1.565   0.555   3.726 -0.7056 -0.6506  2.0643
 8376SOL     OW36589   2.357   2.517   5.168  0.6809  0.5642 -0.5234
 8376SOL    HW136590   2.420   2.489   5.234 -0.8351  0.2538  0.7817
 8376SOL    HW236591   2.270   2.510   5.207  0.4827  2.3873 -0.6004
 8377SOL     OW36592   1.244   4.355   3.146 -0.3367 -0.6485  0.0811
 8377SOL    HW136593   1.148   4.361   3.146 -0.3926 -1.5870 -0.2487
 8377SOL    HW236594   1.258   4.355   3.241 -2.2661  2.4799  0.3848
 8378SOL     OW36595   0.901   4.295  11.783  0.1978  0.0804  0.1105
 8378SOL    HW136596   0.903   4.200  11.767 -0.0018  0.3751 -1.6474
 8378SOL    HW236597   0.809   4.306  11.806 -0.4897 -1.9044 -1.5994
 8379SOL     OW36598   0.507   0.342   1.785 -0.0961 -0.1140  0.1650
 8379SOL    HW136599   0.579   0.330   1.847 -0.2991  0.9149  0.5966
 8379SOL    HW236600   0.479   0.432   1.798 -2.9031 -1.1924  1.5713
 8380SOL     OW36601   2.928   0.885   3.651 -0.0959  0.4955  0.7308
 8380SOL    HW136602   3.006   0.910   3.701  2.0792 -0.5058 -2.2000
 8380SOL    HW236603   2.959   0.872   3.562  0.0689  3.2052  0.3771
 8381SOL     OW36604   4.321   0.163   0.311 -0.0784  0.5665 -0.4132
 8381SOL    HW136605   4.306   0.138   0.402 -0.1877  3.9497  0.4784
 8381SOL    HW236606   4.301   0.075   0.278  1.7499  0.3804 -1.0110
 8382SOL     OW36607   4.205   3.942   4.940 -0.2914  0.0084  0.3884
 8382SOL    HW136608   4.199   4.027   4.985 -0.6428  0.4436 -0.4935
 8382SOL    HW236609   4.211   3.974   4.850 -1.0301 -0.3600  0.2082
 8383SOL     OW36610   1.169   1.443  14.329  0.0350  0.4268 -0.2668
 8383SOL    HW136611   1.168   1.347  14.337  1.3086  0.4702  0.4271
 8383SOL    HW236612   1.089   1.459  14.279  0.0565 -0.6979 -0.6516
 8384SOL     OW36613   1.535   4.185   4.864 -0.3913  0.3927  0.1474
 8384SOL    HW136614   1.458   4.241   4.870 -0.9652 -0.2118 -1.5866
 8384SOL    HW236615   1.599   4.249   4.895  0.9199 -0.2847 -1.1145
 8385SOL     OW36616   1.829   2.237  10.083  0.5480 -0.1164  0.3047
 8385SOL    HW136617   1.914   2.281  10.077  0.8478 -0.4168  2.3233
 8385SOL    HW236618   1.823   2.190  10.000 -0.2444  0.1024  0.2397
 8386SOL     OW36619   4.014   3.763   7.490  0.5933 -0.0882  0.3039
 8386SOL    HW136620   4.014   3.685   7.546  0.0065  0.5598  1.2165
 8386SOL    HW236621   4.035   3.727   7.404 -1.7738  0.7409 -0.6389
 8387SOL     OW36622   3.280   0.219   2.481 -0.2704 -0.4045 -0.1507
 8387SOL    HW136623   3.298   0.170   2.401  3.2558 -3.2315  2.3633
 8387SOL    HW236624   3.207   0.171   2.519  1.9683 -3.8674 -0.2397
 8388SOL     OW36625   3.712   0.287   3.296 -0.3727  0.3588  0.0427
 8388SOL    HW136626   3.712   0.210   3.353  2.6145 -0.8211 -1.5609
 8388SOL    HW236627   3.620   0.294   3.272  0.1350  1.4076 -1.5853
 8389SOL     OW36628   1.689   0.470  11.284  0.5083 -0.1991  0.5210
 8389SOL    HW136629   1.683   0.453  11.379 -0.8851 -0.3729  0.4037
 8389SOL    HW236630   1.636   0.549  11.275  1.7633  0.4823 -0.7868
 8390SOL     OW36631   2.471   2.675   8.095  0.2620 -0.2141 -0.3591
 8390SOL    HW136632   2.487   2.664   8.001 -2.3470  0.3438 -0.8901
 8390SOL    HW236633   2.420   2.596   8.117 -2.1574  1.4615  0.0891
 8391SOL     OW36634   1.706   1.599   8.858 -0.2566  0.3327  0.3798
 8391SOL    HW136635   1.713   1.546   8.778 -1.6727  0.1615  0.3787
 8391SOL    HW236636   1.682   1.533   8.923 -1.8185  1.1950  0.6640
 8392SOL     OW36637   1.857   4.163   6.481  0.0075 -0.2950  0.3520
 8392SOL    HW136638   1.943   4.197   6.508  0.5430 -0.7868 -0.7449
 8392SOL    HW236639   1.841   4.104   6.555  0.3583 -0.2161  0.4960
 8393SOL     OW36640   3.497   1.010  11.740 -0.0834 -0.1601  0.2214
 8393SOL    HW136641   3.461   0.998  11.828 -0.4763 -0.6920 -0.0138
 8393SOL    HW236642   3.582   1.052  11.750 -0.1160 -0.8328  3.3945
 8394SOL     OW36643   2.684   1.866  14.725  0.6517  0.3773 -0.0331
 8394SOL    HW136644   2.725   1.936  14.674 -0.5262 -0.6191 -2.3541
 8394SOL    HW236645   2.721   1.795  14.673  0.3823  1.4563 -1.7044
 8395SOL     OW36646   3.397   4.070  16.812  0.5053 -0.3437 -0.0508
 8395SOL    HW136647   3.477   4.044  16.858  1.2070  0.8432 -0.6056
 8395SOL    HW236648   3.360   4.137  16.869  2.5474  0.0111  0.8701
 8396SOL     OW36649   4.009   0.837   9.119 -0.1749 -0.3759 -0.0667
 8396SOL    HW136650   4.030   0.748   9.144 -0.6242  0.2574  2.5628
 8396SOL    HW236651   4.012   0.882   9.203  0.2767 -3.2830  1.4706
 8397SOL     OW36652   2.614   0.171  10.083 -0.1407 -0.1362 -0.2491
 8397SOL    HW136653   2.652   0.146   9.999  2.2666 -0.9977  1.0814
 8397SOL    HW236654   2.676   0.136  10.147  1.7187 -0.5184 -2.2761
 8398SOL     OW36655   1.118   2.640   7.046  0.4850  0.4690  0.2444
 8398SOL    HW136656   1.100   2.597   7.130  0.2850 -4.2655 -2.2428
 8398SOL    HW236657   1.207   2.670   7.063  0.4298  0.5057  0.4736
 8399SOL     OW36658   3.064   4.261   6.180 -0.5457  0.2579  0.5467
 8399SOL    HW136659   3.027   4.260   6.091  0.3099  1.7892  0.1733
 8399SOL    HW236660   3.140   4.204   6.165 -1.1866  0.0852 -2.0762
 8400SOL     OW36661   4.697   0.751   0.412 -0.0745  0.2146  0.2161
 8400SOL    HW136662   0.051   0.691   0.403  0.2914  0.4650  1.5421
 8400SOL    HW236663   4.657   0.712   0.490  2.5005 -1.0327  0.9183
 8401SOL     OW36664   1.800   3.253   9.653 -0.3555 -0.4669  0.1471
 8401SOL    HW136665   1.847   3.200   9.718 -0.3244 -0.1642  0.3739
 8401SOL    HW236666   1.782   3.336   9.698 -2.3679 -1.5335  1.3454
 8402SOL     OW36667   1.576   1.029   2.945  0.6426 -0.0272 -0.0362
 8402SOL    HW136668   1.621   1.093   3.001 -1.7823  2.0509 -0.5168
 8402SOL    HW236669   1.486   1.060   2.944  0.5661 -0.2463  0.1358
 8403SOL     OW36670   1.216   2.074  15.914  0.3588  0.0148 -0.3995
 8403SOL    HW136671   1.286   2.084  15.979 -0.6289 -0.4465  0.7295
 8403SOL    HW236672   1.228   1.983  15.887 -4.6405 -0.8817  0.5103
 8404SOL     OW36673   1.092   0.385   9.659 -0.0297 -0.0167  0.1995
 8404SOL    HW136674   1.094   0.358   9.751 -0.1954  1.6025  0.6628
 8404SOL    HW236675   1.004   0.352   9.639  0.2434 -0.7342  0.1587
 8405SOL     OW36676   0.023   2.273   4.944  0.2119 -0.0282 -0.4246
 8405SOL    HW136677   0.109   2.252   4.981  0.7152  1.2232 -0.8856
 8405SOL    HW236678   4.686   2.297   5.018  0.5288 -0.7654  0.0562
 8406SOL     OW36679   1.893   4.476  12.571  0.2903 -0.4781  0.3220
 8406SOL    HW136680   1.937   4.392  12.584  0.6623 -0.5688 -1.5381
 8406SOL    HW236681   1.935   4.503  12.489 -0.6435 -3.0722 -1.0136
 8407SOL     OW36682   3.173   3.396  12.705  0.0934  0.5790 -0.0063
 8407SOL    HW136683   3.096   3.375  12.756  1.3028 -1.1306  1.1121
 8407SOL    HW236684   3.134   3.443  12.631 -0.0993  0.5373  0.0713
 8408SOL     OW36685   3.720   1.860   9.040  0.3062  0.0686  0.3827
 8408SOL    HW136686   3.693   1.951   9.042  1.4742  0.4462 -0.9193
 8408SOL    HW236687   3.639   1.821   9.008  0.4703  0.7210 -0.8456
 8409SOL     OW36688   0.550   2.578   4.989  0.0877 -0.1306 -0.1629
 8409SOL    HW136689   0.586   2.583   4.900 -1.3252  0.8751 -0.6695
 8409SOL    HW236690   0.501   2.660   4.994  0.9539  0.4384 -0.9225
 8410SOL     OW36691   0.616   3.124   8.052  0.2144 -0.3107 -0.0315
 8410SOL    HW136692   0.538   3.075   8.079 -0.4326  1.1195  0.7198
 8410SOL    HW236693   0.634   3.092   7.964 -2.5172 -1.9707  0.0035
 8411SOL     OW36694   3.220   3.013  10.547 -0.2236 -0.3912 -0.3230
 8411SOL    HW136695   3.289   2.951  10.571 -1.1371 -1.6780 -1.0455
 8411SOL    HW236696   3.249   3.035  10.458 -0.3968  2.3005  0.2947
 8412SOL     OW36697   1.451   0.246  14.031  0.2701 -0.1200  0.5832
 8412SOL    HW136698   1.438   0.209  13.944  0.3131  3.0222 -0.7744
 8412SOL    HW236699   1.543   0.273  14.030  0.5483 -1.0375  1.3138
 8413SOL     OW36700   0.383   4.606  12.358  0.2196  0.0245 -0.0681
 8413SOL    HW136701   0.392   4.516  12.326 -0.8140  0.3084 -1.1294
 8413SOL    HW236702   0.467   4.617  12.403  0.4752  4.3363 -1.6363
 8414SOL     OW36703   2.451   0.355   8.088  0.3774  0.2614 -0.0728
 8414SOL    HW136704   2.504   0.365   8.009 -1.4140  3.7471 -0.8340
 8414SOL    HW236705   2.511   0.305   8.144  0.2585  1.8825  1.4817
 8415SOL     OW36706   4.630   2.724   3.655  0.5280  0.0616 -0.0212
 8415SOL    HW136707   4.641   2.697   3.746 -2.5102 -1.0815  0.0004
 8415SOL    HW236708   4.718   2.724   3.619  0.4855  0.1032 -0.1250
 8416SOL     OW36709   0.991   0.457   3.493 -0.3901 -0.2046 -0.4194
 8416SOL    HW136710   1.001   0.439   3.586  0.2818  0.0320 -0.4447
 8416SOL    HW236711   1.071   0.506   3.476 -0.7427 -0.2148 -2.1754
 8417SOL     OW36712   2.596   0.211   8.708 -0.6217 -0.2681  0.3475
 8417SOL    HW136713   2.542   0.163   8.647  1.1600 -1.1265 -0.5637
 8417SOL    HW236714   2.559   0.299   8.705  1.3650  0.4726 -2.4074
 8418SOL     OW36715   1.516   2.794   2.884 -0.2329 -0.1516 -0.4771
 8418SOL    HW136716   1.487   2.761   2.969  0.5511 -1.5961 -0.7732
 8418SOL    HW236717   1.475   2.880   2.871  0.1000  0.3938  1.9836
 8419SOL     OW36718   0.599   1.846  15.782  0.2039 -0.0442 -0.0391
 8419SOL    HW136719   0.605   1.768  15.727 -1.4402 -1.3604  1.6128
 8419SOL    HW236720   0.584   1.919  15.723  0.8801  0.0022 -0.1511
 8420SOL     OW36721   3.739   1.766   7.683  0.1676  0.7120 -0.4519
 8420SOL    HW136722   3.709   1.779   7.594 -1.6607  1.0506  0.2220
 8420SOL    HW236723   3.698   1.839   7.730  0.9972 -0.6375  2.4050
 8421SOL     OW36724   3.176   2.058   7.435  0.7857 -0.0732  0.1574
 8421SOL    HW136725   3.206   2.132   7.383 -1.6059  1.6174  1.1988
 8421SOL    HW236726   3.086   2.089   7.442  0.4479 -0.8201 -0.7893
 8422SOL     OW36727   4.621   0.281  13.278  0.1965  0.3320  0.1166
 8422SOL    HW136728   4.539   0.322  13.307 -0.0069  0.1059 -0.1360
 8422SOL    HW236729   4.620   0.193  13.316 -3.0322 -0.5176 -1.9381
 8423SOL     OW36730   1.253   0.328  17.184  0.1340  0.5112 -0.3932
 8423SOL    HW136731   1.328   0.367  17.230  1.0739 -0.7515 -0.8760
 8423SOL    HW236732   1.184   0.363  17.240 -0.2293 -2.0247  0.7619
 8424SOL     OW36733   2.530   0.998   5.921  0.5582  0.0712 -0.4808
 8424SOL    HW136734   2.466   0.958   5.980  0.1115  1.0639 -0.2956
 8424SOL    HW236735   2.592   1.049   5.974 -0.5961 -0.6500  1.5687
 8425SOL     OW36736   3.333   3.557   1.361 -0.4152  0.0607 -0.2995
 8425SOL    HW136737   3.339   3.577   1.454  1.1240  0.3002 -0.4488
 8425SOL    HW236738   3.238   3.553   1.361 -0.4315  0.3165 -2.2626
 8426SOL     OW36739   0.314   3.069   8.566  0.2950  0.2866  0.4851
 8426SOL    HW136740   0.247   3.075   8.499  1.8502  1.3545 -0.9922
 8426SOL    HW236741   0.268   3.105   8.641  0.2512 -2.3584  1.7241
 8427SOL     OW36742   2.711   2.135   3.307  0.1189 -0.1442  0.4057
 8427SOL    HW136743   2.754   2.083   3.375  2.5020  0.6624 -0.5065
 8427SOL    HW236744   2.686   2.071   3.241  0.6826 -1.4409  1.4633
 8428SOL     OW36745   4.579   2.361  11.078 -0.4785 -0.0784  0.1918
 8428SOL    HW136746   4.574   2.274  11.117 -1.4805  0.3718  1.0742
 8428SOL    HW236747   4.608   2.408  11.156 -2.0259 -0.9177  1.2771
 8429SOL     OW36748   0.026   2.460   7.627  0.4387 -0.5341  0.2083
 8429SOL    HW136749   0.066   2.530   7.576 -0.4776  1.0701  1.6658
 8429SOL    HW236750   4.680   2.418   7.573 -0.8342  1.3708  0.2886
 8430SOL     OW36751   4.293   1.689   4.078  0.4793 -0.1457 -0.7137
 8430SOL    HW136752   4.280   1.683   3.983  0.9326  0.4455 -0.8113
 8430SOL    HW236753   4.200   1.676   4.097 -0.1394  1.6874 -2.4839
 8431SOL     OW36754   1.110   2.418   4.280  0.2794 -0.1997 -0.0353
 8431SOL    HW136755   1.083   2.335   4.319  0.6818 -0.0250  0.6326
 8431SOL    HW236756   1.073   2.405   4.193 -1.1501 -0.2424  0.5610
 8432SOL     OW36757   0.365   2.484   8.152 -0.1188  0.4874  0.0698
 8432SOL    HW136758   0.318   2.559   8.114  1.1194  2.6478  2.7942
 8432SOL    HW236759   0.295   2.430   8.188  2.3659 -3.2921 -0.8136
 8433SOL     OW36760   0.872   1.144  15.130 -0.1453 -0.2107  0.3464
 8433SOL    HW136761   0.829   1.117  15.211  1.1249 -0.3759  0.9757
 8433SOL    HW236762   0.790   1.159  15.084  0.5856 -0.1949 -0.9609
 8434SOL     OW36763   1.112   0.810   8.086 -0.7880  0.4646  0.3593
 8434SOL    HW136764   1.050   0.741   8.110  0.6286 -0.0939  2.4718
 8434SOL    HW236765   1.154   0.767   8.012  1.9322  0.7552  1.7255
 8435SOL     OW36766   0.979   1.754   5.503  0.4452  0.2856  0.1066
 8435SOL    HW136767   0.911   1.822   5.500 -0.0916 -0.2948 -0.7890
 8435SOL    HW236768   0.961   1.710   5.420 -1.3087 -0.3748  0.8226
 8436SOL     OW36769   3.393   3.220   8.633 -0.3755 -0.3200  0.6050
 8436SOL    HW136770   3.448   3.161   8.685  0.7817  1.4697  1.4015
 8436SOL    HW236771   3.376   3.180   8.547  0.2104 -0.7345  0.6823
 8437SOL     OW36772   4.552   3.544   8.570  0.0541  0.2468  0.4998
 8437SOL    HW136773   4.492   3.574   8.501  0.5132  1.1267  0.4863
 8437SOL    HW236774   4.632   3.546   8.518  0.5071  1.6507  1.2632
 8438SOL     OW36775   0.498   3.242   0.020  0.1204 -0.0773  0.0062
 8438SOL    HW136776   0.427   3.259   0.083  0.8409 -0.8095  1.0230
 8438SOL    HW236777   0.469   3.299  17.631 -0.4562  0.6188  0.7948
 8439SOL     OW36778   0.531   2.785   9.475 -0.2992  0.4456 -0.3963
 8439SOL    HW136779   0.608   2.828   9.438  1.3710 -1.1064  1.2856
 8439SOL    HW236780   0.524   2.705   9.424  0.2445  0.6443 -0.7827
 8440SOL     OW36781   2.691   3.968   1.985  0.0830  0.2125 -0.1450
 8440SOL    HW136782   2.601   3.941   2.003 -0.3207  1.6431 -0.0790
 8440SOL    HW236783   2.747   3.911   2.038 -0.6114  0.0563  0.4175
 8441SOL     OW36784   1.670   0.921   3.925 -0.5697  0.4304  0.0292
 8441SOL    HW136785   1.742   0.934   3.986 -0.2046  1.0182 -0.5151
 8441SOL    HW236786   1.672   1.006   3.881  0.2068  0.6837  0.5544
 8442SOL     OW36787   2.359   0.318   5.389 -0.2318 -0.0134 -0.1358
 8442SOL    HW136788   2.427   0.380   5.413 -1.0373 -0.1340  2.4941
 8442SOL    HW236789   2.277   0.367   5.387 -0.9744 -1.2387  0.1226
 8443SOL     OW36790   2.804   2.282   9.025  0.0937  0.2295 -0.4189
 8443SOL    HW136791   2.765   2.201   8.994 -1.5266 -0.0565  2.3915
 8443SOL    HW236792   2.759   2.306   9.106  0.6304 -0.4420  0.0828
 8444SOL     OW36793   4.559   0.909   2.630  0.2406 -0.7683 -0.3273
 8444SOL    HW136794   4.511   0.875   2.554 -0.5257  1.9905 -1.0847
 8444SOL    HW236795   4.645   0.916   2.587  1.5738 -0.3795  2.4164
 8445SOL     OW36796   3.329   2.539   8.937 -0.1205  0.3736 -0.1769
 8445SOL    HW136797   3.399   2.577   8.990  0.7164 -0.6880 -0.4967
 8445SOL    HW236798   3.294   2.612   8.887 -0.4741  0.8667  0.7908
 8446SOL     OW36799   3.762   4.627   3.195  0.1770 -0.2125  0.2362
 8446SOL    HW136800   3.799   4.548   3.236  2.1764  0.2580 -0.6618
 8446SOL    HW236801   3.828   4.660   3.134 -0.7875  0.2289 -0.5559
 8447SOL     OW36802   3.112   3.494   4.639  0.1587  0.0645  0.0105
 8447SOL    HW136803   3.056   3.517   4.565 -0.5064  0.3569  0.6019
 8447SOL    HW236804   3.104   3.568   4.698  1.4977  1.6814 -1.8545
 8448SOL     OW36805   0.040   3.855   6.884 -0.1172  0.3942  0.0397
 8448SOL    HW136806   0.110   3.820   6.829 -0.4413 -0.5175  0.2029
 8448SOL    HW236807   0.089   3.884   6.961 -0.1145 -0.8016  0.4939
 8449SOL     OW36808   4.232   0.223   0.979 -0.2877  0.0799  0.5680
 8449SOL    HW136809   4.168   0.295   0.981 -1.4422 -0.9525  1.3023
 8449SOL    HW236810   4.249   0.206   1.072  0.4603  2.6603  0.9208
 8450SOL     OW36811   2.950   2.196   5.501  0.2666 -0.3183 -0.0647
 8450SOL    HW136812   2.979   2.286   5.487 -0.8466 -0.2201 -1.6778
 8450SOL    HW236813   3.013   2.152   5.444 -1.7591 -0.9023 -1.8618
 8451SOL     OW36814   1.557   0.728   2.814  0.2064 -0.1416 -0.0314
 8451SOL    HW136815   1.573   0.744   2.721  0.2349  0.6092  0.1061
 8451SOL    HW236816   1.541   0.816   2.847  0.1771  0.4146 -1.5288
 8452SOL     OW36817   1.641   2.497   9.895  0.3896  0.0771 -0.3114
 8452SOL    HW136818   1.577   2.564   9.921  0.9541  0.8712 -0.9535
 8452SOL    HW236819   1.607   2.436   9.960 -1.8252 -0.7829 -2.2728
 8453SOL     OW36820   2.575   0.994   2.436 -0.2593 -0.3353 -0.5309
 8453SOL    HW136821   2.509   0.974   2.370 -0.6881  2.6751 -1.0262
 8453SOL    HW236822   2.649   1.016   2.379 -0.1585 -0.9382 -0.6335
 8454SOL     OW36823   1.141   3.116   4.801 -0.2464 -0.1913 -0.0523
 8454SOL    HW136824   1.096   3.137   4.883 -0.5495 -2.2483  0.3194
 8454SOL    HW236825   1.230   3.093   4.826  0.4314  0.9246 -1.4702
 8455SOL     OW36826   2.517   2.149   0.156  0.5765  0.2818 -0.6284
 8455SOL    HW136827   2.477   2.221   0.204  2.1713 -0.7712  2.2806
 8455SOL    HW236828   2.500   2.079   0.219  1.8237  0.8736  0.3641
 8456SOL     OW36829   0.988   4.265   6.939  0.5118 -0.1062  0.4586
 8456SOL    HW136830   0.946   4.285   6.855 -0.7239  3.6513  1.9555
 8456SOL    HW236831   0.985   4.170   6.946 -2.4813 -0.0680 -0.3991
 8457SOL     OW36832   4.452   0.340   4.531 -0.3280  0.2288  0.9424
 8457SOL    HW136833   4.488   0.253   4.548 -1.1755 -0.3810 -0.3511
 8457SOL    HW236834   4.448   0.350   4.435 -3.7499  4.7376  1.5557
 8458SOL     OW36835   4.441   1.104   9.984 -0.7838 -0.8078 -0.3911
 8458SOL    HW136836   4.359   1.152   9.985 -2.2396 -3.2770 -1.4267
 8458SOL    HW236837   4.506   1.172   9.966  1.0216 -1.8353  2.2330
 8459SOL     OW36838   3.263   0.165   3.891  0.2359 -0.1424  0.6573
 8459SOL    HW136839   3.229   0.250   3.864 -0.9927 -0.5461  0.9352
 8459SOL    HW236840   3.188   0.107   3.883 -0.0166  0.4508 -1.1635
 8460SOL     OW36841   2.172   4.403   6.284  0.4589  0.0797  0.2627
 8460SOL    HW136842   2.151   4.372   6.196  1.5267  3.2965 -1.1231
 8460SOL    HW236843   2.102   4.468   6.290  0.2108 -0.2478  0.9713
 8461SOL     OW36844   2.982   3.479  15.135 -0.5217  0.3897  0.5601
 8461SOL    HW136845   2.908   3.429  15.169 -0.5568  0.3883  0.4821
 8461SOL    HW236846   2.962   3.561  15.181 -3.0332 -0.7565  1.5357
 8462SOL     OW36847   2.518   1.234   8.839  0.3278 -0.4545  0.2761
 8462SOL    HW136848   2.602   1.275   8.861 -0.7463  1.8438  0.1064
 8462SOL    HW236849   2.478   1.246   8.925 -0.2327  0.3982 -0.1070
 8463SOL     OW36850   2.391   3.357   5.905  0.7208 -0.3494 -0.0253
 8463SOL    HW136851   2.350   3.341   5.990  2.1670 -0.2774  0.6990
 8463SOL    HW236852   2.477   3.316   5.920 -0.8407 -3.5567  0.2027
 8464SOL     OW36853   1.551   4.658   2.725 -0.3860  0.2837  0.2484
 8464SOL    HW136854   1.494   4.620   2.658  1.6503  0.8262 -1.7753
 8464SOL    HW236855   1.622   4.691   2.671 -1.6097  0.1189 -1.4540
 8465SOL     OW36856   2.322   4.570   5.624 -0.3141 -0.0626 -0.4822
 8465SOL    HW136857   2.231   4.597   5.641 -0.7384 -2.8857  1.7596
 8465SOL    HW236858   2.337   4.630   5.550  0.9026 -0.9575 -0.9558
 8466SOL     OW36859   0.323   2.915   6.062  0.4539  0.4253 -0.1868
 8466SOL    HW136860   0.416   2.939   6.059  0.8458 -1.0804  0.0547
 8466SOL    HW236861   0.291   3.005   6.068  0.1608  0.3587 -0.7619
 8467SOL     OW36862   1.103   2.277   2.717 -0.2895  0.1000 -0.3859
 8467SOL    HW136863   1.168   2.305   2.782 -0.2616 -2.1825  0.5903
 8467SOL    HW236864   1.019   2.306   2.754 -0.5698 -0.3617 -0.6468
 8468SOL     OW36865   1.563   1.276  13.169 -0.1548  0.2021 -0.5649
 8468SOL    HW136866   1.590   1.193  13.207  0.1950  1.4884  2.0315
 8468SOL    HW236867   1.583   1.255  13.078  0.5122  0.2525 -0.4313
 8469SOL     OW36868   2.428   2.670   7.824 -0.5172 -0.3388  0.2779
 8469SOL    HW136869   2.411   2.742   7.763  2.7720 -0.1961 -0.4485
 8469SOL    HW236870   2.490   2.617   7.773 -1.1793 -1.0539  0.2162
 8470SOL     OW36871   1.443   4.285  10.944 -0.1856 -0.1943  0.5732
 8470SOL    HW136872   1.536   4.305  10.953  0.4866 -1.9887 -2.3421
 8470SOL    HW236873   1.409   4.375  10.944  0.0143 -0.1115 -0.8744
 8471SOL     OW36874   3.171   1.866   5.821  0.4937  0.2618  0.3009
 8471SOL    HW136875   3.201   1.848   5.732 -2.4015  1.2476 -0.8734
 8471SOL    HW236876   3.182   1.781   5.863  2.3306 -0.2775 -1.2456
 8472SOL     OW36877   0.922   1.368   4.813  0.2374 -0.7166  0.1338
 8472SOL    HW136878   0.894   1.310   4.743 -2.0507 -1.7251  1.8867
 8472SOL    HW236879   0.996   1.414   4.773 -0.0265  0.6790  1.2232
 8473SOL     OW36880   1.822   3.168  16.500  0.0728 -0.4333  0.0210
 8473SOL    HW136881   1.814   3.247  16.552 -1.0416 -2.2811  2.6457
 8473SOL    HW236882   1.773   3.196  16.422  1.0983 -1.0994 -0.8693
 8474SOL     OW36883   0.955   2.306  10.917 -0.2402  0.3470 -0.7755
 8474SOL    HW136884   0.946   2.218  10.955  1.4361  0.0796 -1.0002
 8474SOL    HW236885   0.861   2.318  10.906 -0.7324 -1.6945  1.2059
 8475SOL     OW36886   4.213   0.271   4.215 -0.5948 -0.0009  0.2297
 8475SOL    HW136887   4.145   0.293   4.151 -0.1642 -0.4405 -0.3759
 8475SOL    HW236888   4.170   0.270   4.300 -0.3548 -1.1983  0.3336
 8476SOL     OW36889   1.421   0.523   5.740 -0.1303 -0.2668 -0.3338
 8476SOL    HW136890   1.422   0.428   5.738 -1.5987 -0.2970  0.8397
 8476SOL    HW236891   1.496   0.546   5.685 -0.6616  2.6860  0.1671
 8477SOL     OW36892   1.160   1.618   9.366 -0.0502  0.3257  0.1566
 8477SOL    HW136893   1.178   1.711   9.377 -0.3904  0.4092 -0.0209
 8477SOL    HW236894   1.066   1.620   9.380  0.2991  0.0921  2.5425
 8478SOL     OW36895   1.713   3.314  11.864  0.0417  0.2941  0.3609
 8478SOL    HW136896   1.757   3.272  11.938  1.0922  1.9546  0.6722
 8478SOL    HW236897   1.789   3.337  11.810  1.3071 -0.8326  1.6794
 8479SOL     OW36898   3.770   0.995   4.622 -0.1896  0.7489 -0.2977
 8479SOL    HW136899   3.862   1.021   4.609 -0.0679  1.2369  1.6149
 8479SOL    HW236900   3.716   1.059   4.575 -2.6049  0.1357  1.6718
 8480SOL     OW36901   0.903   2.333   5.713 -0.1707  0.0470 -0.2664
 8480SOL    HW136902   0.912   2.277   5.791  0.0923 -0.2289 -0.4911
 8480SOL    HW236903   0.966   2.401   5.739 -0.9363 -0.0591  1.8746
 8481SOL     OW36904   0.286   1.713   3.997 -0.4815  0.0707  0.0974
 8481SOL    HW136905   0.359   1.727   4.059 -0.7750  1.4539  0.1331
 8481SOL    HW236906   0.221   1.679   4.059  0.0721 -1.0227  0.0899
 8482SOL     OW36907   0.408   4.461  14.736  0.6881  0.3077 -0.7609
 8482SOL    HW136908   0.389   4.381  14.687 -0.9325  0.8483 -1.0328
 8482SOL    HW236909   0.365   4.525  14.678  0.7230  0.0361 -1.0888
 8483SOL     OW36910   2.095   0.323   8.003 -0.0171  0.2670  0.6876
 8483SOL    HW136911   2.075   0.235   8.034 -1.7818  0.1141 -0.8531
 8483SOL    HW236912   2.007   0.356   7.985  0.1247 -0.0843 -0.6682
 8484SOL     OW36913   4.425   0.786   6.651  0.0589  0.0898 -0.3347
 8484SOL    HW136914   4.456   0.850   6.716  0.6444 -0.1565 -0.3685
 8484SOL    HW236915   4.503   0.737   6.625 -0.3005 -0.2455 -0.7750
 8485SOL     OW36916   3.872   3.177  16.780  0.1629 -0.1407  0.4613
 8485SOL    HW136917   3.918   3.255  16.748 -1.9714  1.1598  0.5823
 8485SOL    HW236918   3.794   3.194  16.728 -0.6277 -1.4320  1.2337
 8486SOL     OW36919   1.481   2.882   6.124  0.2402  0.0038 -0.2654
 8486SOL    HW136920   1.423   2.809   6.104  0.6554 -0.7555  1.3257
 8486SOL    HW236921   1.547   2.844   6.181  1.5909  1.9147 -0.5497
 8487SOL     OW36922   0.189   3.986   9.846 -0.1212  0.1275  0.1020
 8487SOL    HW136923   0.263   3.955   9.897  0.8121 -0.4231 -1.6066
 8487SOL    HW236924   0.117   3.980   9.909 -1.9875  0.2937 -2.0110
 8488SOL     OW36925   1.236   1.339  15.151  0.5928  0.4856 -0.1289
 8488SOL    HW136926   1.245   1.276  15.080 -1.1323  0.5880 -0.4380
 8488SOL    HW236927   1.143   1.361  15.147  0.5258  0.4520  1.1660
 8489SOL     OW36928   2.520   4.447   3.208 -0.2801 -0.0366  0.8500
 8489SOL    HW136929   2.574   4.370   3.223  0.2081 -0.0481 -0.9978
 8489SOL    HW236930   2.500   4.413   3.121 -0.4570  1.7709  0.1706
 8490SOL     OW36931   4.445   0.428   4.234  0.0279 -0.4085 -0.1616
 8490SOL    HW136932   4.484   0.427   4.147  1.0079  1.8670  0.2497
 8490SOL    HW236933   4.358   0.389   4.225 -1.2766  2.5760 -0.6574
 8491SOL     OW36934   3.627   0.260   6.825 -0.5196 -0.2611 -0.5199
 8491SOL    HW136935   3.625   0.355   6.814 -0.4355 -0.1421  0.5275
 8491SOL    HW236936   3.682   0.252   6.903 -2.6994  0.2090  1.0725
 8492SOL     OW36937   1.985   3.788   5.374 -0.0215 -0.0876  0.2430
 8492SOL    HW136938   1.926   3.860   5.351 -0.5764  0.5038  3.6185
 8492SOL    HW236939   1.973   3.738   5.293 -1.1206 -1.7233  1.4008
 8493SOL     OW36940   4.479   0.680   4.038 -0.0399 -0.0636  0.7550
 8493SOL    HW136941   4.503   0.587   4.031 -0.3464  0.1481 -2.6633
 8493SOL    HW236942   4.512   0.703   4.125  1.7925 -2.7145  0.7688
 8494SOL     OW36943   4.384   1.628   5.283  0.0129  0.5868 -0.5782
 8494SOL    HW136944   4.296   1.654   5.312 -1.4069 -2.5481 -2.1073
 8494SOL    HW236945   4.417   1.607   5.371  0.6529 -1.9393 -1.4350
 8495SOL     OW36946   4.496   1.313   2.867  0.0135 -1.1015  0.6176
 8495SOL    HW136947   4.518   1.220   2.860 -2.3466 -1.4718 -1.7796
 8495SOL    HW236948   4.481   1.339   2.776  1.3089  0.0215  0.7226
 8496SOL     OW36949   1.331   0.409  12.635  0.0423  0.1089 -0.1624
 8496SOL    HW136950   1.281   0.432  12.714  1.7696 -2.9908  1.8675
 8496SOL    HW236951   1.385   0.486  12.619  0.0005  0.4845  1.5029
 8497SOL     OW36952   0.025   2.250   5.810  0.0036 -0.2973  0.5422
 8497SOL    HW136953   0.023   2.341   5.840  1.3511 -0.4328  1.0276
 8497SOL    HW236954   4.651   2.239   5.792 -0.0899  1.0875  0.2085
 8498SOL     OW36955   4.339   1.773  12.786 -0.7143 -0.0657 -0.4356
 8498SOL    HW136956   4.368   1.693  12.742 -1.5195  0.1417 -1.3546
 8498SOL    HW236957   4.391   1.777  12.866 -0.0010 -2.2817 -0.8044
 8499SOL     OW36958   4.067   4.415   4.496  0.2565 -0.0601  0.3261
 8499SOL    HW136959   4.062   4.503   4.458  0.7079 -1.1538 -2.2736
 8499SOL    HW236960   4.001   4.376   4.439  0.1211 -0.0152  0.4515
 8500SOL     OW36961   3.674   4.448   6.721  0.2969  0.6034  0.0191
 8500SOL    HW136962   3.615   4.498   6.777 -0.8656 -3.3385  2.2903
 8500SOL    HW236963   3.660   4.489   6.636 -0.2343  0.8564  0.2284
 8501SOL     OW36964   3.258   0.165   5.617  0.8327 -0.1727  0.0174
 8501SOL    HW136965   3.321   0.113   5.568  0.7684  0.2641 -0.5233
 8501SOL    HW236966   3.309   0.242   5.640  2.0784 -1.8418  2.9078
 8502SOL     OW36967   4.680   3.827   9.318 -0.1984 -0.6001 -0.5533
 8502SOL    HW136968   4.677   3.766   9.245  1.1351  0.6950 -1.6843
 8502SOL    HW236969   0.037   3.875   9.289 -0.0341  1.1768  2.7588
 8503SOL     OW36970   3.138   2.104   5.339 -0.0986  0.5399  0.6000
 8503SOL    HW136971   3.128   2.150   5.256  0.3574 -2.2117 -0.9656
 8503SOL    HW236972   3.200   2.037   5.311 -1.8339 -1.3206  1.2564
 8504SOL     OW36973   0.597   0.052   6.982  0.0906  0.6397 -0.3165
 8504SOL    HW136974   0.676   0.066   6.930 -0.2010 -1.4945 -1.3247
 8504SOL    HW236975   0.609   0.106   7.060  0.3262  0.6184 -0.3384
 8505SOL     OW36976   1.889   4.415   9.250 -0.3329 -0.5005 -0.3482
 8505SOL    HW136977   1.953   4.485   9.235  3.1375 -3.1551  2.0139
 8505SOL    HW236978   1.932   4.352   9.309 -0.4913 -0.4479 -0.1741
 8506SOL     OW36979   1.153   3.884   4.311 -0.2209  0.1780 -0.3545
 8506SOL    HW136980   1.188   3.839   4.234  0.7629 -0.1201  0.2569
 8506SOL    HW236981   1.223   3.860   4.372  0.3993 -0.8295 -1.4424
 8507SOL     OW36982   0.866   2.269   7.191 -0.5974 -0.7037  0.3772
 8507SOL    HW136983   0.841   2.360   7.176 -1.7244 -1.0689  0.0007
 8507SOL    HW236984   0.783   2.230   7.219 -1.0949  0.0070 -0.1101
 8508SOL     OW36985   0.435   1.445  13.091 -0.4448 -0.1450  0.0315
 8508SOL    HW136986   0.504   1.379  13.087  0.0871  0.3827  0.4166
 8508SOL    HW236987   0.489   1.522  13.108  1.9855 -1.6436 -0.7424
 8509SOL     OW36988   4.272   4.211   8.716  0.2263 -0.0556  0.5375
 8509SOL    HW136989   4.262   4.141   8.780 -0.1872 -1.0630 -0.6199
 8509SOL    HW236990   4.182   4.227   8.688  0.0210 -0.7186  0.8366
 8510SOL     OW36991   0.008   3.093   3.199 -0.4279 -0.1489  0.2845
 8510SOL    HW136992   0.030   3.092   3.292  0.5332  1.5132  0.0782
 8510SOL    HW236993   0.087   3.069   3.151 -0.7377 -1.9507  0.7001
 8511SOL     OW36994   4.564   1.442   4.497 -0.3467 -0.3591  0.3167
 8511SOL    HW136995   4.588   1.355   4.527 -4.3157 -2.1498 -1.7678
 8511SOL    HW236996   4.558   1.414   4.406  0.5020 -0.8562  0.4141
 8512SOL     OW36997   4.084   0.166   9.772 -0.3334 -0.3980 -0.1247
 8512SOL    HW136998   4.052   0.199   9.855 -0.3719 -0.7000 -0.0181
 8512SOL    HW236999   4.142   0.098   9.805  0.9303  0.4314 -0.6570
 8513SOL     OW37000   1.971   3.010   8.248 -0.2721  0.4404 -0.5916
 8513SOL    HW137001   1.964   3.105   8.261  0.8529  0.4100  0.2469
 8513SOL    HW237002   1.898   2.991   8.306 -0.0368 -1.3574 -0.8864
 8514SOL     OW37003   2.997   1.880   4.864  0.3411  0.3501  0.3706
 8514SOL    HW137004   2.930   1.828   4.909 -0.4543  1.1032  0.0525
 8514SOL    HW237005   2.945   1.936   4.807 -0.3856 -0.9988 -0.3036
 8515SOL     OW37006   3.123   0.481   2.730 -0.2421 -0.4915  0.0934
 8515SOL    HW137007   3.210   0.486   2.689  0.1931  0.1111  1.0679
 8515SOL    HW237008   3.159   0.502   2.817 -0.6918 -0.2909  0.2333
 8516SOL     OW37009   3.141   1.605   0.886 -0.0957  0.1229  0.1513
 8516SOL    HW137010   3.142   1.564   0.973 -0.1589 -2.5757 -1.1151
 8516SOL    HW237011   3.091   1.546   0.829 -1.7063  1.4119  0.2245
 8517SOL     OW37012   2.188   3.746   2.991 -0.3143  0.3807  0.4024
 8517SOL    HW137013   2.147   3.724   2.907  0.6829 -0.1835  0.0581
 8517SOL    HW237014   2.238   3.667   3.013 -0.9003  0.1133  0.7813
 8518SOL     OW37015   0.058   0.624   3.163  0.0135  0.0666  0.0666
 8518SOL    HW137016   0.055   0.690   3.093 -3.4210  0.1741  0.3556
 8518SOL    HW237017   0.124   0.663   3.221  1.2677 -0.6351 -0.8780
 8519SOL     OW37018   1.379   1.013   5.329  0.3447  0.2307 -0.4449
 8519SOL    HW137019   1.423   1.034   5.412 -1.1408 -1.6678  0.8091
 8519SOL    HW237020   1.291   0.992   5.360  0.1762  3.1867  1.1073
 8520SOL     OW37021   1.093   4.394  12.163 -0.2232  0.1595 -0.2259
 8520SOL    HW137022   1.104   4.440  12.246 -1.1138  1.6440 -0.9101
 8520SOL    HW237023   1.153   4.322  12.181 -0.6054  0.2338  1.3327
 8521SOL     OW37024   2.249   3.002   3.807  0.4005  0.5044  0.2096
 8521SOL    HW137025   2.171   2.956   3.840  0.3111  1.5685  1.4764
 8521SOL    HW237026   2.246   2.977   3.715 -2.2698 -0.3597  0.5089
 8522SOL     OW37027   2.799   4.496   7.111  0.3011 -0.2047  0.3358
 8522SOL    HW137028   2.798   4.530   7.022 -0.2935  1.1176  0.8452
 8522SOL    HW237029   2.722   4.440   7.111  2.4079 -3.1333  4.8540
 8523SOL     OW37030   3.268   4.016   6.480  0.0410  0.7837 -0.1682
 8523SOL    HW137031   3.187   4.046   6.521  0.4866  2.6268 -0.6293
 8523SOL    HW237032   3.233   3.936   6.439  2.3483 -0.5020  0.3593
 8524SOL     OW37033   3.581   1.457   1.140 -0.1374 -0.2073  0.2534
 8524SOL    HW137034   3.604   1.524   1.076  2.1709  0.2356  1.5303
 8524SOL    HW237035   3.488   1.462   1.162 -0.9746  0.4269 -3.4135
 8525SOL     OW37036   1.296   2.052   5.214 -0.1351  0.1452  0.0132
 8525SOL    HW137037   1.275   1.991   5.285  4.3156  0.9609  2.0478
 8525SOL    HW237038   1.392   2.056   5.223  0.0759 -1.1285 -1.6718
 8526SOL     OW37039   2.768   2.526   6.050 -0.0307 -0.8961  0.2001
 8526SOL    HW137040   2.691   2.477   6.025  0.1742 -2.4941  2.7457
 8526SOL    HW237041   2.823   2.528   5.971  0.3109  0.1191  0.4578
 8527SOL     OW37042   2.668   0.253   5.855  0.0207  0.5036  0.5176
 8527SOL    HW137043   2.616   0.271   5.934 -0.8678 -1.1149  0.3158
 8527SOL    HW237044   2.607   0.207   5.797  2.0746 -2.6892  0.8449
 8528SOL     OW37045   0.872   2.382  16.426  0.0382 -0.7557 -0.7049
 8528SOL    HW137046   0.916   2.311  16.474  1.2497  0.0344 -0.6490
 8528SOL    HW237047   0.789   2.394  16.472  0.3161 -0.9988 -0.1323
 8529SOL     OW37048   1.089   3.129   6.628 -0.2706  0.5160 -0.1717
 8529SOL    HW137049   1.072   3.201   6.688 -0.7571 -0.7450  1.2215
 8529SOL    HW237050   1.067   3.051   6.679  1.7555  0.4043  0.5246
 8530SOL     OW37051   0.284   1.164  16.588  0.2663  0.2692  0.3937
 8530SOL    HW137052   0.196   1.186  16.556 -0.1577 -1.9693  0.0141
 8530SOL    HW237053   0.341   1.232  16.551  1.7962 -1.9571 -1.3764
 8531SOL     OW37054   2.593   1.262   5.208  0.5551 -0.0160 -0.4217
 8531SOL    HW137055   2.516   1.311   5.236  1.4223  1.4946 -0.6970
 8531SOL    HW237056   2.660   1.306   5.259  0.8836 -1.5586  0.5100
 8532SOL     OW37057   2.247   1.168   6.005  0.2534  0.6469  0.2716
 8532SOL    HW137058   2.193   1.120   6.069  0.0550  0.5082 -0.0001
 8532SOL    HW237059   2.192   1.240   5.977 -2.0613 -0.2854  2.3638
 8533SOL     OW37060   1.722   0.602   8.105 -0.3116  1.0042  0.3795
 8533SOL    HW137061   1.648   0.563   8.152  1.2741 -1.9015  0.4756
 8533SOL    HW237062   1.720   0.695   8.128 -3.4262  1.0090  0.1460
 8534SOL     OW37063   4.359   4.271   0.730 -0.4473  0.3285 -0.6717
 8534SOL    HW137064   4.446   4.240   0.704  0.3438  0.9438  1.2498
 8534SOL    HW237065   4.316   4.193   0.765  0.8302 -0.0684  0.0335
 8535SOL     OW37066   1.620   2.120  15.627 -0.5222  0.3882  0.9036
 8535SOL    HW137067   1.668   2.043  15.656 -0.1953  0.5642  0.8284
 8535SOL    HW237068   1.582   2.094  15.543 -1.1454  0.9671  1.0028
 8536SOL     OW37069   1.122   1.438   0.234 -0.1225  0.5955  1.0579
 8536SOL    HW137070   1.164   1.451   0.319  2.3479 -0.2169 -0.0260
 8536SOL    HW237071   1.037   1.402   0.260  0.0747 -1.7319 -1.5121
 8537SOL     OW37072   2.615   3.305   3.261 -0.1327  0.1477  0.1895
 8537SOL    HW137073   2.614   3.380   3.203 -0.1989 -0.4960 -0.6415
 8537SOL    HW237074   2.584   3.346   3.342  1.5045  1.2785  0.2557
 8538SOL     OW37075   3.168   0.498   4.122  0.2974  0.0347 -0.3010
 8538SOL    HW137076   3.074   0.510   4.133  0.4453 -0.9262  2.0260
 8538SOL    HW237077   3.203   0.535   4.203 -1.1470  1.8323 -0.4827
 8539SOL     OW37078   0.289   0.691   8.378 -0.0268 -0.7357 -0.1714
 8539SOL    HW137079   0.336   0.764   8.419  2.1246 -1.4281 -1.4163
 8539SOL    HW237080   0.215   0.686   8.439 -0.5728  1.2699 -0.6740
 8540SOL     OW37081   1.642   1.974   7.168 -0.4007  0.5295  0.9139
 8540SOL    HW137082   1.591   1.896   7.189  0.9781 -0.6273 -0.0668
 8540SOL    HW237083   1.718   1.936   7.125 -1.6883  0.1997 -1.0985
 8541SOL     OW37084   1.214   4.007   6.523 -0.2774 -0.4996  0.6404
 8541SOL    HW137085   1.307   4.015   6.500 -0.9884  0.2708 -1.9646
 8541SOL    HW237086   1.197   4.096   6.555  0.1481 -0.5395  0.9738
 8542SOL     OW37087   3.111   2.585   1.845  0.0768 -0.2469 -0.3968
 8542SOL    HW137088   3.094   2.529   1.922  2.8617  0.2039  0.5297
 8542SOL    HW237089   3.157   2.532   1.780  1.5703  2.1482 -1.2656
 8543SOL     OW37090   4.707   4.519   4.532  0.9818 -0.5056  0.5521
 8543SOL    HW137091   0.006   4.429   4.508  1.1678  0.0403 -1.3456
 8543SOL    HW237092   0.067   4.546   4.576  0.5645 -0.4290  1.2678
 8544SOL     OW37093   4.669   4.419   5.292  0.1291 -0.5659 -0.1094
 8544SOL    HW137094   4.609   4.462   5.354 -2.9994 -2.0724 -2.1359
 8544SOL    HW237095   0.036   4.450   5.317 -1.2033  0.6642  3.1088
 8545SOL     OW37096   1.276   3.697   5.767 -0.3498 -0.2602 -1.1083
 8545SOL    HW137097   1.237   3.663   5.686 -0.7575  0.5482 -1.2517
 8545SOL    HW237098   1.358   3.739   5.739 -1.1434  2.4203  0.6218
 8546SOL     OW37099   1.103   1.741   7.393  0.0034  0.0864 -0.6761
 8546SOL    HW137100   1.155   1.822   7.398 -0.4451  0.4109 -1.3608
 8546SOL    HW237101   1.065   1.749   7.306 -1.0078  0.9147 -0.1659
 8547SOL     OW37102   4.339   4.685   7.311  0.3220  0.7156  0.2394
 8547SOL    HW137103   4.247   4.686   7.286 -0.5091 -0.6123  3.2960
 8547SOL    HW237104   4.367   0.053   7.286  2.3451 -1.0824 -3.8458
 8548SOL     OW37105   2.839   3.395   4.030 -0.1324  0.3760 -0.5410
 8548SOL    HW137106   2.808   3.482   4.006 -3.1506 -0.8048 -0.8716
 8548SOL    HW237107   2.879   3.384   3.943 -0.6532 -0.7401 -0.6433
 8549SOL     OW37108   1.665   0.272   8.699 -0.0747  0.3514  0.0842
 8549SOL    HW137109   1.673   0.234   8.611 -1.5393  0.9509 -0.2930
 8549SOL    HW237110   1.749   0.317   8.703 -0.3536  0.9380 -0.7245
 8550SOL     OW37111   1.758   1.685   8.069 -0.3153 -0.1560  0.0863
 8550SOL    HW137112   1.777   1.742   8.143  1.1607  0.0398 -0.4376
 8550SOL    HW237113   1.845   1.693   8.029 -0.1416  1.8786  0.8732
 8551SOL     OW37114   1.218   0.583   5.327 -0.7868 -0.6047  0.0573
 8551SOL    HW137115   1.174   0.506   5.289  1.4486 -0.2361 -3.3022
 8551SOL    HW237116   1.185   0.583   5.417 -0.5492  1.2684  0.1481
 8552SOL     OW37117   1.174   2.753   5.884 -0.8137 -0.1124  0.3338
 8552SOL    HW137118   1.181   2.817   5.813 -3.6406 -0.0159  0.1240
 8552SOL    HW237119   1.181   2.803   5.966 -0.4426  1.9792 -0.9906
 8553SOL     OW37120   2.574   2.820  11.418  0.3387 -0.0593 -0.1217
 8553SOL    HW137121   2.602   2.877  11.346  0.2492 -0.4474 -0.4603
 8553SOL    HW237122   2.648   2.780  11.464  0.8448  2.5005  1.3104
 8554SOL     OW37123   1.625   3.485  14.684  0.2582 -0.4235 -0.1779
 8554SOL    HW137124   1.684   3.544  14.732  0.6858  0.2816 -1.5959
 8554SOL    HW237125   1.618   3.525  14.598 -0.8728  0.6028  0.3870
 8555SOL     OW37126   2.939   0.504   6.604 -0.2468  0.0002  0.0960
 8555SOL    HW137127   2.923   0.549   6.687  1.8714  1.4579 -0.3154
 8555SOL    HW237128   3.017   0.550   6.576 -0.6590 -0.0920 -1.1825
 8556SOL     OW37129   2.424   4.113   3.500  0.4853  0.1757 -0.2940
 8556SOL    HW137130   2.516   4.090   3.506  0.8148  1.9252  1.4327
 8556SOL    HW237131   2.408   4.119   3.406  0.5947  0.5860 -0.2865
 8557SOL     OW37132   4.706   1.237   8.786 -0.1067 -0.2396  0.1839
 8557SOL    HW137133   4.659   1.277   8.859  2.4287  1.3229  0.9645
 8557SOL    HW237134   4.713   1.317   8.733  0.9860 -1.4523 -1.4706
 8558SOL     OW37135   1.806   4.008   6.258 -0.5478 -0.5144 -0.3046
 8558SOL    HW137136   1.856   3.946   6.310  0.4325 -1.0555 -1.8767
 8558SOL    HW237137   1.814   4.089   6.308  2.1316 -1.2171  0.4183
 8559SOL     OW37138   4.673   2.901   9.076 -0.1809 -0.0627  0.1909
 8559SOL    HW137139   0.008   2.962   9.124 -1.7617 -0.2038  2.1679
 8559SOL    HW237140   0.016   2.830   9.062  0.9662  0.0934  4.5602
 8560SOL     OW37141   1.701   1.099  12.519  0.5685 -0.1831 -0.3716
 8560SOL    HW137142   1.710   1.188  12.485 -1.6566  0.1445 -0.0649
 8560SOL    HW237143   1.606   1.093  12.515  0.7339 -2.4133 -0.6403
 8561SOL     OW37144   2.912   4.331   5.678 -0.0101 -0.0343 -0.2481
 8561SOL    HW137145   2.961   4.355   5.599  0.3782 -0.1342 -0.0351
 8561SOL    HW237146   2.879   4.254   5.631 -1.1819  1.2188 -1.4942
 8562SOL     OW37147   3.211   2.909   4.766 -0.4132 -0.2433 -0.5543
 8562SOL    HW137148   3.166   2.844   4.712  0.1707 -0.9026 -0.2456
 8562SOL    HW237149   3.190   2.982   4.708  0.1256  1.4953  1.4597
 8563SOL     OW37150   3.690   0.303   2.726 -0.5507  0.1264  0.6017
 8563SOL    HW137151   3.668   0.377   2.669  1.4092  1.0040  0.9978
 8563SOL    HW237152   3.607   0.256   2.737 -1.4195  1.4658 -0.2880
 8564SOL     OW37153   4.460   0.154   8.048 -0.3126  0.5649  0.2091
 8564SOL    HW137154   4.526   0.222   8.049 -0.1894  0.4809 -1.5742
 8564SOL    HW237155   4.465   0.118   8.137 -0.0780 -0.6171 -0.2765
 8565SOL     OW37156   4.689   0.622  16.437  0.2619  0.2873 -0.0670
 8565SOL    HW137157   0.035   0.691  16.428  1.4467 -0.7200  0.8191
 8565SOL    HW237158   4.604   0.666  16.447  0.9535  1.1607  1.9879
 8566SOL     OW37159   1.458   1.490   2.096 -0.3377 -0.0513 -0.8950
 8566SOL    HW137160   1.527   1.537   2.144 -0.2503 -0.9424 -0.1519
 8566SOL    HW237161   1.491   1.401   2.104  1.5351  0.6436 -0.6855
 8567SOL     OW37162   3.289   1.375   5.669 -0.0611 -0.3291 -0.0306
 8567SOL    HW137163   3.252   1.349   5.753 -0.0643  0.8400  0.3324
 8567SOL    HW237164   3.381   1.381   5.692 -1.2246  1.1352  4.2466
 8568SOL     OW37165   2.856   1.587   6.828  0.1693 -0.3892  0.0300
 8568SOL    HW137166   2.948   1.614   6.831  0.1233 -0.0943 -1.8533
 8568SOL    HW237167   2.836   1.638   6.750  0.0827  0.1300  0.3940
 8569SOL     OW37168   1.437   4.263   9.056  0.7017  0.1792 -0.0216
 8569SOL    HW137169   1.348   4.263   9.092  0.0216 -3.4607 -1.7876
 8569SOL    HW237170   1.475   4.346   9.087 -0.6015  0.4825  0.8183
 8570SOL     OW37171   1.336   4.554  14.362  0.3158 -0.5580 -0.3018
 8570SOL    HW137172   1.379   4.624  14.312  1.1002  0.7599  2.2049
 8570SOL    HW237173   1.366   4.479  14.310  0.8172 -1.1809  0.8916
 8571SOL     OW37174   1.118   1.919   1.861 -0.2101  0.3533 -0.3591
 8571SOL    HW137175   1.136   1.887   1.773  0.5313 -0.0820 -0.0448
 8571SOL    HW237176   1.185   1.873   1.912  1.5957  1.0360 -2.1397
 8572SOL     OW37177   1.132   4.020  11.614 -0.4606 -0.0389 -0.5570
 8572SOL    HW137178   1.157   4.112  11.603 -2.0735  0.4375 -0.1935
 8572SOL    HW237179   1.049   4.029  11.660 -0.1741  2.1438 -0.4379
 8573SOL     OW37180   2.904   0.178   2.186  0.4829  0.0316  0.0376
 8573SOL    HW137181   2.859   0.156   2.105 -0.5943 -0.4263  0.7570
 8573SOL    HW237182   2.891   0.095   2.232 -1.9985 -0.5805 -1.7840
 8574SOL     OW37183   0.605   1.222   8.197  0.0584 -0.1898  0.0279
 8574SOL    HW137184   0.630   1.198   8.287 -1.1972  0.4580  0.5387
 8574SOL    HW237185   0.671   1.177   8.143  0.2828 -2.0789  1.8418
 8575SOL     OW37186   1.260   4.628   6.902  0.5907  0.3781  0.0209
 8575SOL    HW137187   1.254   4.549   6.956  0.5269 -0.2487 -0.9034
 8575SOL    HW237188   1.200   4.684   6.952  0.1730 -1.2446  1.3535
 8576SOL     OW37189   1.404   0.007   8.406 -0.1487  0.1603 -0.2030
 8576SOL    HW137190   1.436   4.670   8.477 -1.1293 -0.3087 -0.1359
 8576SOL    HW237191   1.363   4.665   8.346  1.0329 -1.5246  0.7144
 8577SOL     OW37192   2.517   4.327   6.381  0.1614  0.4621  0.2080
 8577SOL    HW137193   2.596   4.287   6.417  1.3405  2.4436 -0.1701
 8577SOL    HW237194   2.532   4.307   6.289  0.1753  0.8515  0.1266
 8578SOL     OW37195   1.253   0.206  15.734 -0.1157 -0.0849 -0.0129
 8578SOL    HW137196   1.238   0.122  15.778  1.5545 -0.0660  0.5907
 8578SOL    HW237197   1.222   0.263  15.804  1.6296  0.7421  0.0617
 8579SOL     OW37198   3.691   1.608   9.848 -0.3067 -0.2465  0.3991
 8579SOL    HW137199   3.658   1.600   9.938 -2.2819 -1.5282 -0.4351
 8579SOL    HW237200   3.784   1.597   9.867 -0.0420  1.5440  0.1084
 8580SOL     OW37201   1.751   3.525  15.917  0.4059  0.4278  0.3229
 8580SOL    HW137202   1.783   3.480  15.839  0.4693  1.5515 -0.2884
 8580SOL    HW237203   1.830   3.544  15.967  1.4929  1.5809 -1.8592
 8581SOL     OW37204   0.414   2.113   7.096  0.4984 -0.3237  0.7737
 8581SOL    HW137205   0.343   2.105   7.033 -0.0196 -3.4433  1.7750
 8581SOL    HW237206   0.485   2.124   7.033  0.3615 -2.6624  0.2159
 8582SOL     OW37207   0.415   4.313   8.512  0.0300 -0.4431  0.4208
 8582SOL    HW137208   0.327   4.291   8.480 -0.6817  0.9058  1.4368
 8582SOL    HW237209   0.413   4.306   8.608 -0.7759 -0.5666  0.3962
 8583SOL     OW37210   1.410   0.817   2.576  0.2678  0.4148  0.0876
 8583SOL    HW137211   1.368   0.903   2.581 -1.7749 -0.4684 -2.2895
 8583SOL    HW237212   1.340   0.771   2.623 -1.2791  1.1147 -1.5286
 8584SOL     OW37213   4.363   1.152   2.454  0.0437 -0.6627  0.0826
 8584SOL    HW137214   4.287   1.202   2.423  1.5118 -0.3825 -3.0381
 8584SOL    HW237215   4.317   1.074   2.486 -1.4849  0.5174  0.8064
 8585SOL     OW37216   0.655   0.003   6.603 -0.4161 -0.7598  0.0725
 8585SOL    HW137217   0.707   0.079   6.577 -2.2356  0.2705 -0.5485
 8585SOL    HW237218   0.693   4.706   6.689 -1.6235 -2.2198  0.3253
 8586SOL     OW37219   1.786   2.401  12.359 -0.6771 -0.2663  0.1671
 8586SOL    HW137220   1.857   2.387  12.421 -0.3230  0.9698  0.0527
 8586SOL    HW237221   1.839   2.391  12.279 -0.6723 -1.1890  0.2927
 8587SOL     OW37222   1.528   3.414   3.901  0.3045 -0.4281  0.4064
 8587SOL    HW137223   1.607   3.454   3.863  0.0405  0.7004  1.0382
 8587SOL    HW237224   1.461   3.444   3.839 -1.2845 -2.0787  1.3399
 8588SOL     OW37225   1.252   1.600   5.394  0.4839  0.4596 -0.2160
 8588SOL    HW137226   1.234   1.513   5.358  0.7901 -0.9491  3.1114
 8588SOL    HW237227   1.290   1.575   5.478  1.4317  0.9205 -0.5154
 8589SOL     OW37228   1.042   0.376   4.934 -0.5704 -0.3037  0.0456
 8589SOL    HW137229   1.121   0.322   4.931  0.5139  1.2064  1.1255
 8589SOL    HW237230   0.980   0.304   4.920 -0.7286 -0.1912  0.1679
 8590SOL     OW37231   1.953   0.756   6.396 -0.2174  0.2210  0.1087
 8590SOL    HW137232   2.009   0.764   6.473  0.2262  0.3621 -0.2260
 8590SOL    HW237233   1.888   0.819   6.428  1.7412  2.9297 -1.2483
 8591SOL     OW37234   3.405   2.252  12.925  0.0475  0.1088  0.4973
 8591SOL    HW137235   3.326   2.238  12.978  0.9032 -0.4607  1.6100
 8591SOL    HW237236   3.362   2.259  12.840 -2.4355 -1.9493  1.5866
 8592SOL     OW37237   0.581   2.771  10.723 -0.1020 -0.2318  0.0519
 8592SOL    HW137238   0.502   2.824  10.712 -0.3151 -0.4556  0.5136
 8592SOL    HW237239   0.629   2.854  10.733  1.3905 -1.3696  2.3036
 8593SOL     OW37240   4.009   0.426   2.840 -0.0877  0.1408 -0.3320
 8593SOL    HW137241   3.952   0.486   2.888  0.9465  1.4655 -0.7423
 8593SOL    HW237242   4.091   0.433   2.889 -0.6192 -0.1115  0.5700
 8594SOL     OW37243   4.226   3.837   5.943  0.0122  0.3737  0.5736
 8594SOL    HW137244   4.179   3.755   5.934 -0.5804  0.6795  0.9205
 8594SOL    HW237245   4.270   3.832   6.028  1.8536 -2.1436 -0.5257
 8595SOL     OW37246   1.099   1.745   3.341  0.6878 -0.1700  0.1624
 8595SOL    HW137247   1.124   1.834   3.367 -2.4187  1.2492 -1.6229
 8595SOL    HW237248   1.171   1.716   3.285  1.5184  1.3488  0.4307
 8596SOL     OW37249   3.369   1.366   7.462 -0.1696  0.6080 -0.2443
 8596SOL    HW137250   3.390   1.368   7.369 -1.0181 -2.8845 -0.5351
 8596SOL    HW237251   3.427   1.432   7.501 -1.8581  1.9010  0.0526
 8597SOL     OW37252   3.159   2.612   4.012 -0.3834  0.4143 -0.6217
 8597SOL    HW137253   3.199   2.682   4.064 -1.7836  0.0055  1.0158
 8597SOL    HW237254   3.221   2.601   3.940 -1.5999 -1.1434 -1.4332
 8598SOL     OW37255   3.080   0.398  14.858 -0.3062 -0.4661 -0.4855
 8598SOL    HW137256   3.106   0.332  14.794  1.2244 -0.0516 -0.2998
 8598SOL    HW237257   3.073   0.478  14.806 -0.8379  0.7854  1.4912
 8599SOL     OW37258   2.630   1.802  14.974  0.2098 -0.1109 -0.2382
 8599SOL    HW137259   2.542   1.770  14.952 -0.7382  0.9359  2.0295
 8599SOL    HW237260   2.651   1.834  14.886 -1.6560  0.7050 -0.3912
 8600SOL     OW37261   0.664   4.287   3.264 -0.2944  0.2600 -0.1994
 8600SOL    HW137262   0.712   4.365   3.291 -1.9616  0.4517  2.1994
 8600SOL    HW237263   0.573   4.316   3.256 -0.1125  0.8667 -0.1237
 8601SOL     OW37264   2.090   0.749   3.045 -0.0585 -0.1162 -0.2064
 8601SOL    HW137265   2.162   0.750   3.108 -0.2003 -2.5462  0.0035
 8601SOL    HW237266   2.111   0.834   3.007 -2.7100  0.3549 -0.6215
 8602SOL     OW37267   2.534   1.380   0.184  0.1112 -0.2111 -0.9434
 8602SOL    HW137268   2.583   1.383   0.102 -1.6480  2.5869 -1.8700
 8602SOL    HW237269   2.460   1.324   0.161 -0.1608 -0.6414  0.9711
 8603SOL     OW37270   2.988   3.670  16.349 -0.3465  0.3371  0.0492
 8603SOL    HW137271   2.994   3.747  16.405 -0.1908  0.2713  0.1246
 8603SOL    HW237272   3.031   3.611  16.411  0.1987  1.1643  0.4662
 8604SOL     OW37273   1.590   1.118   6.612  0.0977  0.7312  0.4606
 8604SOL    HW137274   1.595   1.072   6.696 -0.8616  0.4774  0.3781
 8604SOL    HW237275   1.569   1.210   6.630  1.1734  1.3514 -1.5079
 8605SOL     OW37276   3.616   0.771   6.092 -0.1615 -0.4110  0.1968
 8605SOL    HW137277   3.632   0.678   6.080  2.9977 -0.0430  1.4303
 8605SOL    HW237278   3.569   0.789   6.010 -0.5371 -1.1377  0.2554
 8606SOL     OW37279   4.353   2.217   6.371  0.0150  0.4058 -0.1076
 8606SOL    HW137280   4.292   2.156   6.330 -1.3862  2.5141 -1.1628
 8606SOL    HW237281   4.404   2.253   6.298  0.8336  1.2545  0.8796
 8607SOL     OW37282   2.073   0.871   4.296 -0.0344  0.3039  0.0601
 8607SOL    HW137283   1.994   0.892   4.247  0.0800  1.7740  0.5178
 8607SOL    HW237284   2.043   0.890   4.385  1.0774  1.2170  0.2394
 8608SOL     OW37285   2.440   3.999  13.936 -0.6450  0.1898  0.3628
 8608SOL    HW137286   2.519   4.013  13.988 -0.2017  2.1417 -0.8179
 8608SOL    HW237287   2.454   3.918  13.887 -1.1934 -0.4467  1.2568
 8609SOL     OW37288   0.415   2.525   4.557  0.6678  0.0734 -0.3354
 8609SOL    HW137289   0.350   2.534   4.627 -0.9622 -2.2664 -1.5186
 8609SOL    HW237290   0.360   2.559   4.486  2.6136  0.5921 -1.5687
 8610SOL     OW37291   2.039   2.597  17.528  0.3346  0.0521  0.5045
 8610SOL    HW137292   2.082   2.531  17.473 -1.6143 -1.7147  1.1383
 8610SOL    HW237293   2.041   2.557  17.615 -1.3368 -2.7971 -0.7631
 8611SOL     OW37294   1.891   4.500   4.754  0.8265 -0.2833 -0.5790
 8611SOL    HW137295   1.828   4.460   4.694 -0.6058 -0.3366  0.9482
 8611SOL    HW237296   1.883   4.588   4.717  0.6833  0.6885  1.7818
 8612SOL     OW37297   3.621   0.197   7.112 -0.5396 -0.1873  0.1860
 8612SOL    HW137298   3.575   0.144   7.177 -0.6885  0.3042  0.4784
 8612SOL    HW237299   3.636   0.122   7.053  0.1428  1.9930 -2.3998
 8613SOL     OW37300   2.791   1.365   4.845 -0.0901  0.2508  0.1827
 8613SOL    HW137301   2.708   1.412   4.847  0.1572  0.6575  0.6982
 8613SOL    HW237302   2.856   1.414   4.895 -2.5500  2.0354  1.5868
 8614SOL     OW37303   0.056   3.226   3.469  0.1475 -0.5073 -0.2919
 8614SOL    HW137304   4.716   3.265   3.405 -0.1606  1.0817  0.9426
 8614SOL    HW237305   0.008   3.233   3.552  3.1249 -0.2088  1.4142
 8615SOL     OW37306   0.438   3.225  10.122  0.6404  0.0132 -0.6136
 8615SOL    HW137307   0.429   3.314  10.087 -0.3251  0.3569  0.5245
 8615SOL    HW237308   0.481   3.240  10.206 -0.6537  1.1129 -0.1527
 8616SOL     OW37309   2.318   2.193   6.801  1.0818 -0.2401  1.0093
 8616SOL    HW137310   2.389   2.209   6.863  1.1542 -4.5702  2.0870
 8616SOL    HW237311   2.342   2.246   6.725 -1.1483 -2.1285 -0.9850
 8617SOL     OW37312   1.635   0.673   7.185 -0.0671  0.0099 -0.4036
 8617SOL    HW137313   1.641   0.578   7.185  1.2018  0.0799  3.9721
 8617SOL    HW237314   1.551   0.678   7.231 -0.7418 -3.0267 -1.3408
 8618SOL     OW37315   2.896   1.712   5.839 -0.8822  0.4333  0.1774
 8618SOL    HW137316   2.903   1.733   5.746 -1.1261 -3.6048 -0.7749
 8618SOL    HW237317   2.934   1.624   5.834 -0.1258  0.7760 -0.1311
 8619SOL     OW37318   3.362   1.382   3.192 -0.2707 -0.2336 -0.1400
 8619SOL    HW137319   3.456   1.363   3.198 -0.0777  0.6487 -0.4010
 8619SOL    HW237320   3.334   1.307   3.139  0.0543 -0.4138 -0.0594
 8620SOL     OW37321   1.271   4.076   5.321  0.5352  0.1735  0.4241
 8620SOL    HW137322   1.345   4.038   5.273  0.5372 -0.3864  0.8809
 8620SOL    HW237323   1.287   4.053   5.412  1.2347  1.2001  0.5617
 8621SOL     OW37324   1.006   1.664   7.900 -0.0981  0.2919 -0.0897
 8621SOL    HW137325   1.074   1.597   7.900 -0.5786 -0.1919  1.3831
 8621SOL    HW237326   0.938   1.633   7.959  0.5931  1.0195  1.0726
 8622SOL     OW37327   3.195   0.112   6.363 -0.4280  0.2561  0.6431
 8622SOL    HW137328   3.156   0.175   6.302  1.2403  0.8707  0.1888
 8622SOL    HW237329   3.227   0.042   6.306 -2.3741 -0.0695 -0.0356
 8623SOL     OW37330   4.389   1.395   7.027  0.4820  0.0741 -0.2866
 8623SOL    HW137331   4.316   1.457   7.026 -2.3827 -3.2306  0.4424
 8623SOL    HW237332   4.455   1.441   6.977  0.1157  0.6883 -0.2011
 8624SOL     OW37333   1.688   0.813   1.046 -0.1389 -0.2538 -0.0050
 8624SOL    HW137334   1.752   0.754   1.087 -0.7750 -1.0373 -0.1343
 8624SOL    HW237335   1.719   0.898   1.078  1.0109 -0.8975  0.5737
 8625SOL     OW37336   3.485   4.324   4.704 -0.0484  0.1668  0.1332
 8625SOL    HW137337   3.414   4.384   4.680 -1.1959 -1.9198 -1.6925
 8625SOL    HW237338   3.536   4.334   4.624 -0.5668 -0.5170 -0.2858
 8626SOL     OW37339   0.424   3.875   7.013  0.4079 -0.1767  0.0245
 8626SOL    HW137340   0.353   3.909   7.069  1.9314  0.3726  1.6223
 8626SOL    HW237341   0.410   3.783   7.037  2.1421 -0.3696  0.2884
 8627SOL     OW37342   2.982   1.631   8.240 -0.6772  0.1883 -0.4573
 8627SOL    HW137343   2.974   1.538   8.220  1.0766 -0.0335 -0.1379
 8627SOL    HW237344   2.964   1.629   8.334 -1.7447  0.3999 -0.6571
 8628SOL     OW37345   0.286   3.198   5.753 -0.1508 -0.8500  0.5732
 8628SOL    HW137346   0.345   3.129   5.783  0.0284 -0.1851  1.7461
 8628SOL    HW237347   0.259   3.168   5.666  1.4760  2.3015 -1.0223
 8629SOL     OW37348   2.513   0.883   9.701  0.2626  0.2643  0.3062
 8629SOL    HW137349   2.549   0.956   9.651 -1.5124  0.3301 -0.8950
 8629SOL    HW237350   2.485   0.932   9.779  2.0413 -0.1069  1.1717
 8630SOL     OW37351   1.451   4.295  13.469 -0.3296 -0.1576  0.7554
 8630SOL    HW137352   1.474   4.225  13.408 -3.2038 -1.3285  1.0597
 8630SOL    HW237353   1.526   4.312  13.526 -0.7483  0.4921  1.1106
 8631SOL     OW37354   1.106   2.969  16.077  0.1818 -0.2555 -1.1725
 8631SOL    HW137355   1.166   3.037  16.046  0.6385  0.1984  0.6950
 8631SOL    HW237356   1.168   2.906  16.113  0.9590  1.1067 -0.1162
 8632SOL     OW37357   1.680   3.597   0.058 -0.3511  0.0257 -0.3494
 8632SOL    HW137358   1.663   3.572   0.149 -0.2533  1.9593  0.1968
 8632SOL    HW237359   1.692   3.511   0.019 -0.5277 -0.3193  0.3542
 8633SOL     OW37360   3.455   3.170   7.119  0.0427 -0.2915  0.1422
 8633SOL    HW137361   3.459   3.178   7.215 -0.7427  0.2161  0.1330
 8633SOL    HW237362   3.382   3.109   7.112  0.5420 -0.9361  0.5848
 8634SOL     OW37363   3.593   0.291   6.201 -0.2201 -0.8120  0.1290
 8634SOL    HW137364   3.534   0.303   6.275  0.2289 -1.9742  0.6798
 8634SOL    HW237365   3.668   0.329   6.247 -2.3727  3.1087  0.3713
 8635SOL     OW37366   1.514   4.301   0.714  0.2419  0.3768 -0.1651
 8635SOL    HW137367   1.608   4.286   0.707  0.6747  2.6928  0.4257
 8635SOL    HW237368   1.480   4.240   0.649 -0.0157 -0.3246  0.6228
 8636SOL     OW37369   1.582   1.466  15.839  0.3145  0.8240 -0.6785
 8636SOL    HW137370   1.608   1.445  15.749 -1.5081  2.1095 -1.5125
 8636SOL    HW237371   1.654   1.422  15.884 -0.2623  0.0148 -0.5484
 8637SOL     OW37372   1.403   2.771   7.130  0.1870 -0.2536  0.6585
 8637SOL    HW137373   1.442   2.857   7.145 -1.2190  0.2995  1.2267
 8637SOL    HW237374   1.424   2.739   7.217  0.4605 -0.5941  0.4647
 8638SOL     OW37375   4.530   2.478   5.641 -0.3645  0.3549 -0.0068
 8638SOL    HW137376   4.537   2.388   5.673  0.0385  0.2061 -0.5232
 8638SOL    HW237377   4.473   2.507   5.713 -1.6964  4.0062 -2.5239
 8639SOL     OW37378   3.596   0.576   3.274  0.2967  0.3322 -0.6765
 8639SOL    HW137379   3.541   0.514   3.227 -0.4515  0.6106 -0.1783
 8639SOL    HW237380   3.621   0.517   3.346 -1.0399  0.0984 -0.4043
 8640SOL     OW37381   1.123   3.703   0.952 -0.5062 -0.0424 -0.2804
 8640SOL    HW137382   1.077   3.779   0.915 -0.4219 -0.5004 -1.3272
 8640SOL    HW237383   1.216   3.712   0.933 -0.3211 -1.4175 -0.0231
 8641SOL     OW37384   2.822   1.436  16.984 -0.3726  0.5840  0.0359
 8641SOL    HW137385   2.783   1.491  16.915  0.8499  0.2212 -0.9456
 8641SOL    HW237386   2.772   1.472  17.057  0.4888  0.9648  0.4376
 8642SOL     OW37387   0.911   1.645  17.330 -0.2058  0.4796  0.2842
 8642SOL    HW137388   0.963   1.663  17.409 -1.2190  2.7135  0.4468
 8642SOL    HW237389   0.977   1.632  17.262  0.3481 -0.7768  1.0790
 8643SOL     OW37390   3.415   4.468   3.706  0.2236 -0.3634 -0.1634
 8643SOL    HW137391   3.334   4.484   3.659  0.3982 -0.3238 -0.4516
 8643SOL    HW237392   3.385   4.490   3.794 -0.6569  2.3004 -1.1450
 8644SOL     OW37393   1.215   1.651   6.657 -0.4726 -0.1858  0.0765
 8644SOL    HW137394   1.126   1.671   6.627 -0.1696  0.9312 -0.0750
 8644SOL    HW237395   1.259   1.731   6.629  1.5735 -0.6102  2.0408
 8645SOL     OW37396   3.177   3.481   6.222  0.1594 -0.2167  0.2344
 8645SOL    HW137397   3.106   3.438   6.268  1.1202 -0.5900  1.3820
 8645SOL    HW237398   3.168   3.451   6.132  0.2477 -0.4321  0.2978
 8646SOL     OW37399   4.447   1.887   4.500 -0.1985 -0.1035  0.7566
 8646SOL    HW137400   4.517   1.827   4.479  0.7778  1.0920  0.5761
 8646SOL    HW237401   4.505   1.955   4.537 -0.6560 -0.6574  2.5100
 8647SOL     OW37402   2.086   0.983   4.798  0.1386  0.3690 -0.1986
 8647SOL    HW137403   2.121   0.909   4.848  0.3731  0.0738 -0.7966
 8647SOL    HW237404   2.014   0.931   4.763 -0.8937  1.0649  0.8634
 8648SOL     OW37405   4.543   3.257   5.865 -0.4359 -0.2522  0.0136
 8648SOL    HW137406   4.597   3.179   5.878  1.0897  0.8137  0.0273
 8648SOL    HW237407   4.557   3.266   5.771 -1.7070 -1.8961 -0.3224
 8649SOL     OW37408   4.115   2.440   6.454  0.7826 -0.5531 -0.3266
 8649SOL    HW137409   4.067   2.490   6.519 -0.3398  0.4115 -1.9137
 8649SOL    HW237410   4.191   2.499   6.458  0.2719  0.1060 -0.3207
 8650SOL     OW37411   3.200   0.290   1.872 -0.5226 -0.2231 -0.0527
 8650SOL    HW137412   3.186   0.385   1.870 -4.8871 -0.8287  0.5360
 8650SOL    HW237413   3.263   0.281   1.943 -0.8024  0.4771  0.2884
 8651SOL     OW37414   0.811   4.213   4.469 -0.1884 -0.0143 -0.8861
 8651SOL    HW137415   0.840   4.134   4.423  1.4438  0.8124 -1.2848
 8651SOL    HW237416   0.723   4.227   4.434 -0.5850 -0.2154  0.0185
 8652SOL     OW37417   1.297   0.659   8.810  0.2156  0.4557 -0.2678
 8652SOL    HW137418   1.291   0.689   8.719 -0.7713 -2.1601 -1.0782
 8652SOL    HW237419   1.333   0.737   8.852  0.3669  0.6178 -0.6893
 8653SOL     OW37420   3.497   4.518   0.950 -0.1824 -0.4393 -0.4820
 8653SOL    HW137421   3.479   4.612   0.945  0.9699 -0.1889  0.1094
 8653SOL    HW237422   3.421   4.483   0.997 -1.2229 -1.1468 -2.6741
 8654SOL     OW37423   1.836   3.888   1.171 -0.0098  0.1522 -0.1836
 8654SOL    HW137424   1.848   3.849   1.258  0.8649 -0.4097 -0.5527
 8654SOL    HW237425   1.927   3.895   1.142  1.0688 -1.5536  2.7017
 8655SOL     OW37426   3.954   1.768  12.859  0.2165 -0.1985 -0.0286
 8655SOL    HW137427   4.017   1.840  12.846 -1.0263  0.7896 -0.6335
 8655SOL    HW237428   3.896   1.797  12.929 -1.1488 -1.1467 -0.7810
 8656SOL     OW37429   4.209   2.656   4.376 -0.3038  0.1850 -0.4593
 8656SOL    HW137430   4.226   2.730   4.435  1.8441 -0.1996 -0.6212
 8656SOL    HW237431   4.266   2.680   4.303  1.0545 -2.9836 -0.4311
 8657SOL     OW37432   1.689   1.501  16.909 -0.2876  0.1649 -0.1186
 8657SOL    HW137433   1.678   1.478  16.816  0.6332  0.6221 -0.3404
 8657SOL    HW237434   1.601   1.536  16.918 -1.3197 -1.8847 -1.9532
 8658SOL     OW37435   1.380   0.279   8.309 -0.0992 -0.3116  0.1468
 8658SOL    HW137436   1.381   0.187   8.334  1.9683 -0.0725  0.9370
 8658SOL    HW237437   1.285   0.288   8.301 -0.2163  1.3220  3.0723
 8659SOL     OW37438   3.175   1.550   2.053  1.1043  0.0130  0.0430
 8659SOL    HW137439   3.235   1.478   2.070  0.5956 -0.0113  1.7308
 8659SOL    HW237440   3.161   1.542   1.958 -0.7335 -0.0997  0.3086
 8660SOL     OW37441   2.736   2.459  15.627 -0.6165 -0.4858  0.0161
 8660SOL    HW137442   2.725   2.530  15.564  1.3842 -0.6926 -0.5685
 8660SOL    HW237443   2.647   2.433  15.649 -0.2441  0.3610  2.5052
 8661SOL     OW37444   3.615   2.254   5.770  0.2471  0.2566  0.0455
 8661SOL    HW137445   3.600   2.321   5.703 -1.5115  1.5148  1.7323
 8661SOL    HW237446   3.547   2.191   5.744  0.6604  1.9172 -5.2101
 8662SOL     OW37447   4.349   1.448  12.848  0.3978  0.3979 -0.0358
 8662SOL    HW137448   4.383   1.373  12.896  1.3744  0.2435 -0.9647
 8662SOL    HW237449   4.387   1.448  12.760  0.4589  1.5236 -0.0081
 8663SOL     OW37450   2.428   0.284   5.054  0.5911  0.4371 -0.2577
 8663SOL    HW137451   2.353   0.259   5.000 -0.4644  0.3851  1.2108
 8663SOL    HW237452   2.383   0.269   5.137 -1.3692  0.7258 -1.2664
 8664SOL     OW37453   1.805   2.770   7.080  0.1897  0.3086 -0.5862
 8664SOL    HW137454   1.802   2.846   7.022  2.6415  0.7988 -0.0690
 8664SOL    HW237455   1.745   2.798   7.150  0.2282  0.8390 -0.7647
 8665SOL     OW37456   4.716   1.381   7.953  0.0634 -0.2217  0.3427
 8665SOL    HW137457   4.639   1.439   7.950  0.4536  0.2623 -0.2318
 8665SOL    HW237458   4.711   1.341   7.867  1.6449  2.1762 -0.8575
 8666SOL     OW37459   1.997   2.926   3.415  0.4233  0.0378 -0.2497
 8666SOL    HW137460   1.940   2.906   3.489  1.1486 -2.5160 -0.3905
 8666SOL    HW237461   1.963   2.856   3.360 -0.0315 -0.0387  0.1258
 8667SOL     OW37462   0.753   3.258   8.781  0.1830  0.2073  0.2184
 8667SOL    HW137463   0.699   3.179   8.782 -2.0547  1.7764  0.7490
 8667SOL    HW237464   0.833   3.226   8.824 -0.0560  0.0419  0.5332
 8668SOL     OW37465   1.466   0.299  10.003 -0.4412 -0.7729  0.1743
 8668SOL    HW137466   1.460   0.348   9.921  0.4573 -1.2596 -0.1889
 8668SOL    HW237467   1.545   0.246   9.991 -0.2789 -0.2201 -1.1858
 8669SOL     OW37468   4.631   4.619   2.930  0.2063  0.4672 -0.2570
 8669SOL    HW137469   4.624   4.675   3.008 -0.6895  1.6244 -1.1746
 8669SOL    HW237470   4.613   4.684   2.862  2.5445  1.0766 -0.3014
 8670SOL     OW37471   0.768   3.864  16.382 -0.3063  0.3022  0.1821
 8670SOL    HW137472   0.764   3.794  16.448  1.4773 -0.3988 -0.4587
 8670SOL    HW237473   0.696   3.921  16.410 -0.1924  0.3865  0.3015
 8671SOL     OW37474   3.053   3.599   2.361  0.1476 -0.3001  0.0102
 8671SOL    HW137475   2.995   3.621   2.288  1.0538  0.3893 -0.4956
 8671SOL    HW237476   3.049   3.504   2.348 -0.9087  0.2178 -3.4212
 8672SOL     OW37477   4.039   0.719  17.200 -0.4488  0.2673 -0.0952
 8672SOL    HW137478   4.133   0.723  17.216 -0.6624 -1.1320  1.5911
 8672SOL    HW237479   4.012   0.678  17.282 -3.0294 -2.0848 -2.1418
 8673SOL     OW37480   3.970   4.536   0.756  0.2700 -0.0931 -0.0209
 8673SOL    HW137481   3.881   4.524   0.721  0.4825 -1.3665 -0.1188
 8673SOL    HW237482   3.984   4.445   0.780  0.4410  1.0076  4.1814
 8674SOL     OW37483   0.918   2.673  11.483  0.7695  0.6127 -0.1795
 8674SOL    HW137484   0.884   2.719  11.406  0.6087 -1.3002 -1.2554
 8674SOL    HW237485   0.885   2.583  11.472  1.0571  0.7265 -2.0172
 8675SOL     OW37486   3.057   3.830  12.595  0.1562 -0.2563  0.7106
 8675SOL    HW137487   3.115   3.758  12.573 -0.5610 -0.5671 -0.2102
 8675SOL    HW237488   3.117   3.904  12.598  1.6801 -1.4513 -0.3190
 8676SOL     OW37489   2.025   2.861   3.852 -0.1491  0.3863  0.1164
 8676SOL    HW137490   1.949   2.866   3.795  0.2731  1.0123 -0.4025
 8676SOL    HW237491   1.981   2.909   3.921 -0.1968  0.5032  0.0048
 8677SOL     OW37492   2.417   0.714   6.884 -0.1667 -0.4164  0.3295
 8677SOL    HW137493   2.382   0.713   6.973 -0.6262 -3.1801  0.1225
 8677SOL    HW237494   2.356   0.767   6.834  0.6889  0.2418 -0.0138
 8678SOL     OW37495   0.752   4.224  11.486 -0.6344  0.2305 -0.1927
 8678SOL    HW137496   0.752   4.144  11.540  1.5348  0.2400 -0.1505
 8678SOL    HW237497   0.696   4.192  11.415  1.9562 -0.3275 -1.9863
 8679SOL     OW37498   3.885   1.594   1.952  0.4332 -0.0874  0.3323
 8679SOL    HW137499   3.809   1.537   1.958  1.4039 -1.6671 -2.6538
 8679SOL    HW237500   3.887   1.622   2.044 -0.0134  4.0952 -0.9206
 8680SOL     OW37501   3.391   0.500   0.271 -0.1353 -0.0323 -0.0531
 8680SOL    HW137502   3.318   0.496   0.332  1.0558 -0.0116  1.3741
 8680SOL    HW237503   3.418   0.408   0.273 -1.9873 -0.5794 -0.0592
 8681SOL     OW37504   1.604   1.693  14.483 -0.0852  0.2388  0.1751
 8681SOL    HW137505   1.641   1.769  14.438  1.5872 -1.0620 -0.6277
 8681SOL    HW237506   1.673   1.631  14.458 -0.2630 -0.3300  1.1004
 8682SOL     OW37507   4.315   0.904   4.194 -0.0428  0.2279 -0.4600
 8682SOL    HW137508   4.228   0.939   4.213 -0.3278 -0.0969 -1.1557
 8682SOL    HW237509   4.334   0.846   4.267 -2.5793  1.6183  1.3203
 8683SOL     OW37510   2.961   0.518   8.217  0.0605  0.4529 -0.1784
 8683SOL    HW137511   2.996   0.501   8.304  0.1642  1.4592 -0.0191
 8683SOL    HW237512   2.867   0.526   8.235  0.1309  0.7932  0.0389
 8684SOL     OW37513   4.452   0.787   8.753  0.1909 -0.3547 -0.3341
 8684SOL    HW137514   4.533   0.814   8.708  0.3358 -1.9971 -1.0594
 8684SOL    HW237515   4.403   0.868   8.739  0.9543 -0.0103 -1.0469
 8685SOL     OW37516   1.670   2.072  16.095 -0.1005 -0.4963 -0.5358
 8685SOL    HW137517   1.732   2.001  16.112 -1.0043 -1.6056 -1.7954
 8685SOL    HW237518   1.699   2.107  16.011 -0.8461 -0.9066 -0.9691
 8686SOL     OW37519   1.717   3.457  17.027  0.5937  0.5076 -0.3520
 8686SOL    HW137520   1.702   3.385  17.089  1.8804 -1.1230 -1.9279
 8686SOL    HW237521   1.801   3.433  16.987  0.7281 -0.7290  0.6750
 8687SOL     OW37522   1.876   2.514   7.154 -0.2899 -0.6464 -0.4167
 8687SOL    HW137523   1.819   2.525   7.231  1.1128 -0.5429  0.6160
 8687SOL    HW237524   1.853   2.596   7.111  1.0914  0.3722  0.7695
 8688SOL     OW37525   2.100   0.100   8.158 -0.0164 -0.3383 -0.6066
 8688SOL    HW137526   2.027   0.127   8.214  0.2451 -0.0705 -0.3939
 8688SOL    HW237527   2.174   0.103   8.219 -1.8631  0.7835  1.5327
 8689SOL     OW37528   4.284   0.163  10.063 -0.1726  0.3459  0.5634
 8689SOL    HW137529   4.284   0.092   9.998  0.5685  1.0997 -0.2577
 8689SOL    HW237530   4.196   0.141  10.096  0.0114  0.0054  0.8292
 8690SOL     OW37531   1.601   3.562  15.320 -0.4798  0.4452  0.1024
 8690SOL    HW137532   1.573   3.652  15.306 -0.8876 -0.2851 -3.7837
 8690SOL    HW237533   1.696   3.563  15.327 -0.4053 -2.5324 -0.2073
 8691SOL     OW37534   0.927   0.098   4.897 -0.3561 -0.3297 -0.5471
 8691SOL    HW137535   0.982   0.042   4.951  0.9384  2.4568  1.0411
 8691SOL    HW237536   0.859   0.119   4.961 -0.9915  0.6084 -1.5356
 8692SOL     OW37537   0.263   4.217   2.178 -0.0000  0.2637  0.0863
 8692SOL    HW137538   0.348   4.246   2.144  0.6120 -1.4134  0.1972
 8692SOL    HW237539   0.207   4.289   2.148 -0.5358 -1.0954 -2.2114
 8693SOL     OW37540   0.178   0.111   2.681 -0.5753  0.3129 -0.4324
 8693SOL    HW137541   0.214   0.070   2.602 -0.4762 -1.3220  0.4545
 8693SOL    HW237542   0.085   0.100   2.660 -1.2907  0.2104  2.7504
 8694SOL     OW37543   3.536   0.066   3.765  0.9179  0.2137 -0.4263
 8694SOL    HW137544   3.492   0.117   3.833 -2.9499 -2.6564 -0.7506
 8694SOL    HW237545   3.493   0.115   3.695  0.2541 -0.1549 -0.2743
 8695SOL     OW37546   4.647   0.427   3.365  1.1375 -0.2988 -0.5281
 8695SOL    HW137547   4.624   0.357   3.425  0.7454  0.1985 -0.0948
 8695SOL    HW237548   4.709   0.384   3.306  0.4758 -2.3178  0.2458
 8696SOL     OW37549   3.453   3.749  15.784 -0.0771 -0.1227 -0.2245
 8696SOL    HW137550   3.514   3.784  15.719  0.0653  0.7051  0.3502
 8696SOL    HW237551   3.501   3.771  15.864  1.4121  1.6013 -1.5797
 8697SOL     OW37552   0.512   4.611   3.675  0.7170 -0.1196  0.1394
 8697SOL    HW137553   0.574   4.632   3.606  0.8941 -0.7470  0.1019
 8697SOL    HW237554   0.457   4.547   3.629  0.2667  0.0940  0.3761
 8698SOL     OW37555   0.320   0.245  15.473 -0.6029 -0.3338  0.1784
 8698SOL    HW137556   0.338   0.236  15.567  0.3507 -0.1126  0.0193
 8698SOL    HW237557   0.369   0.323  15.450  3.4514 -2.2166  2.4069
 8699SOL     OW37558   4.631   0.395  14.582  0.5079 -0.0757  0.4180
 8699SOL    HW137559   4.691   0.366  14.514  1.4681 -1.0234  1.6772
 8699SOL    HW237560   4.542   0.387  14.547 -0.1796 -0.3243  2.2311
 8700SOL     OW37561   1.732   2.574   7.379  0.1884  0.0562  0.2980
 8700SOL    HW137562   1.671   2.509   7.416  0.1088  0.0866  0.2210
 8700SOL    HW237563   1.673   2.648   7.366  2.4716  1.9061  0.4347
 8701SOL     OW37564   0.796   0.232   6.477  0.3863 -0.3441  0.2858
 8701SOL    HW137565   0.872   0.178   6.496  0.6083 -0.4839 -0.9893
 8701SOL    HW237566   0.814   0.251   6.384  1.6624 -0.2047  0.5658
 8702SOL     OW37567   2.898   1.556  12.803 -0.3782 -0.2970  0.1129
 8702SOL    HW137568   2.851   1.499  12.865 -0.2257 -0.1469  0.3652
 8702SOL    HW237569   2.879   1.504  12.726 -0.1021  0.2000 -0.2894
 8703SOL     OW37570   1.037   4.087  10.247  0.7397 -0.2472 -0.2091
 8703SOL    HW137571   1.107   4.128  10.299 -0.2289  1.3280 -0.1332
 8703SOL    HW237572   0.974   4.059  10.313 -0.4653 -2.2885 -2.2619
 8704SOL     OW37573   2.313   4.552   3.913  0.1718  0.1528  0.0152
 8704SOL    HW137574   2.338   4.598   3.993  0.0554  1.5742 -0.7625
 8704SOL    HW237575   2.220   4.572   3.912 -0.1419 -1.2887  0.3479
 8705SOL     OW37576   2.945   1.389   6.161 -0.3463  0.2522  0.4746
 8705SOL    HW137577   2.963   1.339   6.241 -1.7804  0.5967  1.0093
 8705SOL    HW237578   3.028   1.435   6.153  1.1834 -2.3459  1.2412
 8706SOL     OW37579   4.076   3.399   4.745  0.2616 -0.0856  0.8425
 8706SOL    HW137580   4.057   3.434   4.659 -1.9594  2.6227  2.4497
 8706SOL    HW237581   4.171   3.390   4.741  0.2572 -0.1085  0.7849
 8707SOL     OW37582   4.620   4.080   7.518  0.6340  0.1676 -0.7488
 8707SOL    HW137583   4.609   3.994   7.558 -2.0629  0.2191 -1.3517
 8707SOL    HW237584   4.707   4.107   7.546  0.8036 -1.1314 -0.0531
 8708SOL     OW37585   1.643   1.368   3.430 -0.4404  0.1777 -0.0405
 8708SOL    HW137586   1.600   1.285   3.450  0.4361  0.0131  1.1187
 8708SOL    HW237587   1.606   1.436   3.486  0.9007 -0.3849  1.5129
 8709SOL     OW37588   2.574   2.837   5.898  0.2550  0.2296  0.0731
 8709SOL    HW137589   2.597   2.765   5.839 -1.3961  0.1646 -0.4782
 8709SOL    HW237590   2.565   2.796   5.984  2.4641  0.9047  0.6354
 8710SOL     OW37591   2.036   4.526   8.909  0.0620  0.4737  0.0326
 8710SOL    HW137592   1.998   4.577   8.980  0.5812  0.7175  0.1314
 8710SOL    HW237593   2.100   4.466   8.948 -2.2540 -0.5263  2.2935
 8711SOL     OW37594   0.506   0.134   5.215  0.0562 -0.4228 -0.5094
 8711SOL    HW137595   0.439   0.098   5.156 -0.8373  1.5680 -0.7154
 8711SOL    HW237596   0.462   0.212   5.248 -4.4479 -2.8891 -0.6376
 8712SOL     OW37597   1.616   3.048  17.465 -0.3499  0.9539  0.0060
 8712SOL    HW137598   1.608   2.959  17.499  0.0147  0.7803 -0.3670
 8712SOL    HW237599   1.639   3.101  17.542 -2.3979 -0.8940  1.8875
 8713SOL     OW37600   0.021   0.587   5.483  0.0881  0.3380  0.2446
 8713SOL    HW137601   0.007   0.504   5.437 -0.0117  0.3267  0.2946
 8713SOL    HW237602   0.039   0.647   5.410  0.6293  0.5795  0.5773
 8714SOL     OW37603   0.627   2.247  16.234 -0.3457 -0.5013 -0.1351
 8714SOL    HW137604   0.716   2.263  16.202 -0.7844  1.3786 -0.3937
 8714SOL    HW237605   0.635   2.269  16.327 -0.0845 -0.1135 -0.2508
 8715SOL     OW37606   3.991   2.394   0.424  0.5181  0.3157  0.0031
 8715SOL    HW137607   3.959   2.316   0.468 -1.2780  1.3295  0.4911
 8715SOL    HW237608   3.940   2.462   0.467 -2.1615 -1.4983 -0.3504
 8716SOL     OW37609   0.810   3.716   4.277 -0.0571  0.3024 -0.1204
 8716SOL    HW137610   0.738   3.722   4.341  0.5389 -0.9328  0.6815
 8716SOL    HW237611   0.835   3.628   4.305  1.6529  1.1526  1.0009
 8717SOL     OW37612   4.468   1.946   7.761 -0.2289 -0.8072 -0.1595
 8717SOL    HW137613   4.489   2.039   7.751  1.2832 -1.3435 -2.1563
 8717SOL    HW237614   4.504   1.913   7.843 -0.4064  1.0952  0.6684
 8718SOL     OW37615   2.695   0.447   0.149 -0.0840  0.0427 -0.2852
 8718SOL    HW137616   2.765   0.509   0.170 -0.6895  0.9586 -0.9202
 8718SOL    HW237617   2.750   0.376   0.117 -1.5187 -2.2470  2.3771
 8719SOL     OW37618   3.069   1.817   6.969  0.5478 -0.3152  0.4009
 8719SOL    HW137619   2.982   1.842   6.999 -0.0481  0.1869 -1.7666
 8719SOL    HW237620   3.113   1.867   7.038 -0.6660  2.5952 -0.9431
 8720SOL     OW37621   1.866   4.113  10.300 -0.2045 -0.0188 -0.3613
 8720SOL    HW137622   1.820   4.078  10.224  0.5296  1.1227 -1.3422
 8720SOL    HW237623   1.945   4.150  10.259  1.0461  0.7157  2.6968
 8721SOL     OW37624   3.322   2.332  12.003  0.7507 -0.0289 -0.3188
 8721SOL    HW137625   3.349   2.364  11.917  3.0019 -1.4988 -0.1427
 8721SOL    HW237626   3.400   2.301  12.048  0.7897  0.6626  0.0855
 8722SOL     OW37627   1.474   1.903   2.683  0.2712  0.0008  0.3582
 8722SOL    HW137628   1.519   1.936   2.606  2.6772  0.0726  1.7855
 8722SOL    HW237629   1.429   1.981   2.715  1.0163  0.4809  0.2299
 8723SOL     OW37630   1.444   2.073  11.623  0.0596 -0.1784  0.6131
 8723SOL    HW137631   1.477   2.135  11.688 -2.5117  0.6464  1.1303
 8723SOL    HW237632   1.388   2.018  11.679  1.0889  2.1499  3.9015
 8724SOL     OW37633   3.842   3.229  10.049  0.2499 -0.0687  0.2781
 8724SOL    HW137634   3.871   3.268   9.966  0.5464 -0.4096  0.2210
 8724SOL    HW237635   3.785   3.159  10.018 -1.6507  0.2314  3.0848
 8725SOL     OW37636   4.700   3.989   6.611  0.0719 -0.6058 -0.0860
 8725SOL    HW137637   4.714   4.062   6.550  0.1249 -0.9042 -0.4327
 8725SOL    HW237638   0.046   3.924   6.588 -0.0998  0.1854 -2.7935
 8726SOL     OW37639   4.007   4.170   2.940  0.5168  0.5637  0.6398
 8726SOL    HW137640   3.993   4.243   3.000 -0.3125 -0.3031  1.5146
 8726SOL    HW237641   4.102   4.183   2.931  0.5757 -1.0253 -1.0170
 8727SOL     OW37642   2.442   3.917   4.881  0.3795  0.0742 -0.2826
 8727SOL    HW137643   2.428   3.844   4.820 -0.5305 -0.6287  0.7692
 8727SOL    HW237644   2.354   3.954   4.881 -0.5789 -2.1937  0.0101
 8728SOL     OW37645   1.727   4.619   1.222 -0.2231 -0.3494  0.2968
 8728SOL    HW137646   1.704   4.633   1.314 -0.4090 -1.0799  0.3588
 8728SOL    HW237647   1.697   4.532   1.195  2.6344 -0.9602 -0.9048
 8729SOL     OW37648   0.915   3.520   7.834 -0.1548  0.3092 -0.0125
 8729SOL    HW137649   0.861   3.520   7.913 -0.4132 -0.1523 -0.1853
 8729SOL    HW237650   0.938   3.427   7.839 -0.3761  0.1266 -2.7254
 8730SOL     OW37651   1.523   3.124  12.574  0.0015 -0.2025 -0.4159
 8730SOL    HW137652   1.518   3.069  12.496  0.5570 -2.2873  1.0003
 8730SOL    HW237653   1.444   3.082  12.610 -0.0760  0.7587  0.5235
 8731SOL     OW37654   3.735   1.948   7.136 -0.0954 -0.0884 -0.4610
 8731SOL    HW137655   3.654   1.966   7.186 -0.6739 -1.6075 -0.8519
 8731SOL    HW237656   3.803   1.998   7.181 -0.6004 -0.9638  1.3219
 8732SOL     OW37657   1.080   1.139   3.545 -0.5289 -0.0321 -0.0220
 8732SOL    HW137658   1.127   1.063   3.580 -1.9982 -0.2398  1.4826
 8732SOL    HW237659   1.072   1.193   3.624  1.1158  1.7575 -1.0517
 8733SOL     OW37660   3.818   0.648   5.719  0.0267 -0.2881  0.5329
 8733SOL    HW137661   3.726   0.645   5.743 -0.3611 -1.4461 -1.0859
 8733SOL    HW237662   3.834   0.558   5.689 -2.2696  0.8865 -4.1648
 8734SOL     OW37663   1.453   0.158   2.898  0.1039  0.1051 -0.2971
 8734SOL    HW137664   1.386   0.128   2.960  0.7150 -0.5760  0.0382
 8734SOL    HW237665   1.450   0.089   2.833 -1.2547 -0.7142  0.6430
 8735SOL     OW37666   3.501   1.440   6.091 -0.1084 -0.6426 -0.1782
 8735SOL    HW137667   3.565   1.403   6.030  1.0023 -3.3249  2.6203
 8735SOL    HW237668   3.478   1.375   6.158 -2.2162  1.3063  0.9930
 8736SOL     OW37669   2.034   4.623   4.037  0.1037 -0.0309 -0.0373
 8736SOL    HW137670   2.053   4.608   4.130  0.1483 -0.7316 -0.1574
 8736SOL    HW237671   1.943   4.595   4.041 -1.3329  4.9325  1.7239
 8737SOL     OW37672   0.100   4.147   3.375 -0.2461 -0.3367 -0.2455
 8737SOL    HW137673   0.021   4.149   3.428 -0.7871  2.2362 -1.1483
 8737SOL    HW237674   0.095   4.059   3.336  1.4597 -0.5243 -0.0484
 8738SOL     OW37675   4.152   1.981  12.759 -0.2495  0.4176  0.2709
 8738SOL    HW137676   4.220   1.915  12.745 -1.7600 -1.2095  0.6002
 8738SOL    HW237677   4.122   1.988  12.669 -0.8707 -0.9868  0.3685
 8739SOL     OW37678   3.711   0.343   6.441 -0.0625  0.1921 -0.0103
 8739SOL    HW137679   3.646   0.311   6.504  1.7728 -2.0401  0.7704
 8739SOL    HW237680   3.786   0.284   6.450 -0.2283 -0.0546 -0.2337
 8740SOL     OW37681   4.391   3.735  13.653 -0.5469  0.1602 -0.1134
 8740SOL    HW137682   4.439   3.794  13.594 -0.4879 -0.5573 -0.7767
 8740SOL    HW237683   4.298   3.754  13.639 -0.3272 -0.0523 -1.8889
 8741SOL     OW37684   3.114   3.569  16.082  0.0102 -0.3513 -0.1820
 8741SOL    HW137685   3.049   3.576  16.012  1.0929 -1.6389 -1.3437
 8741SOL    HW237686   3.077   3.504  16.141 -1.9482  3.1578  2.4020
 8742SOL     OW37687   3.298   1.463  17.636 -0.1945 -0.2332 -0.4264
 8742SOL    HW137688   3.301   1.496   0.043  3.1853  0.8765 -0.9567
 8742SOL    HW237689   3.378   1.500  17.599  0.0487 -0.4976 -0.1661
 8743SOL     OW37690   4.024   1.428   2.672 -0.1664  0.2579  0.0425
 8743SOL    HW137691   4.041   1.375   2.749  0.8384  2.2582  1.1890
 8743SOL    HW237692   3.959   1.485   2.711 -0.5153  0.6929 -1.1758
 8744SOL     OW37693   1.027   3.720   8.220  0.1768  0.2894 -0.5557
 8744SOL    HW137694   0.939   3.722   8.256  0.6599 -1.7518  0.7774
 8744SOL    HW237695   1.075   3.757   8.294  0.2828 -1.2603  0.1514
 8745SOL     OW37696   3.718   0.014   4.700  0.2516  0.2572 -0.4023
 8745SOL    HW137697   3.650   0.046   4.641 -0.4980  0.8740  0.8140
 8745SOL    HW237698   3.686   4.712   4.787 -1.4607  0.3442 -1.0257
 8746SOL     OW37699   4.124   4.299  17.519 -0.1405  0.2834  0.1295
 8746SOL    HW137700   4.202   4.257  17.556 -0.1807 -0.2011 -0.3250
 8746SOL    HW237701   4.090   4.338  17.599 -0.2764  0.4808 -0.0251
 8747SOL     OW37702   0.905   4.457   4.430 -0.3473 -0.0977  0.2754
 8747SOL    HW137703   0.884   4.364   4.431 -1.5159  0.1391 -2.1901
 8747SOL    HW237704   0.824   4.500   4.458 -0.6755  1.1008 -2.4525
 8748SOL     OW37705   4.328   4.254  10.111  0.3532  0.3387 -0.0493
 8748SOL    HW137706   4.318   4.260  10.206  1.0870  0.6568  0.0038
 8748SOL    HW237707   4.352   4.162  10.105  0.4865  0.4378 -0.9591
 8749SOL     OW37708   2.786   0.430  15.844 -0.4313  0.0677 -0.2684
 8749SOL    HW137709   2.849   0.360  15.863  0.2520 -0.0192 -2.8098
 8749SOL    HW237710   2.841   0.506  15.864  0.3998 -0.3534 -0.9454
 8750SOL     OW37711   0.612   1.254   9.108  0.5972  0.3977  0.6448
 8750SOL    HW137712   0.675   1.299   9.050 -0.8303  3.4012  1.3976
 8750SOL    HW237713   0.589   1.177   9.057  1.5503  0.0672  0.7150
 8751SOL     OW37714   2.845   3.020   3.952  0.1232 -0.1589 -0.1448
 8751SOL    HW137715   2.923   3.006   4.005 -0.4838  1.6614  1.2059
 8751SOL    HW237716   2.781   3.021   4.022 -0.8489  2.7509 -1.0616
 8752SOL     OW37717   0.002   0.077   4.959 -0.2744 -0.3399  0.3155
 8752SOL    HW137718   4.654   0.092   5.025  0.1161  0.6438  0.4987
 8752SOL    HW237719   4.680   0.130   4.890  0.7425  2.2395  1.6749
 8753SOL     OW37720   1.359   3.712   4.867 -0.3987  0.6092  0.7796
 8753SOL    HW137721   1.285   3.656   4.891 -0.2286 -0.4547 -1.1769
 8753SOL    HW237722   1.360   3.692   4.774 -3.1269 -1.1127  1.1282
 8754SOL     OW37723   0.804   0.535   3.064 -0.8609  0.3093 -0.2798
 8754SOL    HW137724   0.801   0.551   3.158  0.0451  0.6555 -0.3170
 8754SOL    HW237725   0.817   0.440   3.069 -4.0768 -0.1564 -0.1460
 8755SOL     OW37726   4.152   2.646  15.456 -0.0109 -0.6028 -0.6731
 8755SOL    HW137727   4.087   2.716  15.448  1.8734  1.0673 -1.2058
 8755SOL    HW237728   4.235   2.694  15.454 -0.6844  0.5825  0.1430
 8756SOL     OW37729   3.019   4.173   2.923  0.5331  0.2733  0.3289
 8756SOL    HW137730   3.014   4.089   2.875 -1.6636 -0.6331  2.1434
 8756SOL    HW237731   3.012   4.143   3.013  0.1437 -0.3532  0.0993
 8757SOL     OW37732   0.587   0.488  15.775  0.0488 -0.0104 -0.4320
 8757SOL    HW137733   0.501   0.466  15.809  0.3373  0.4701  0.6333
 8757SOL    HW237734   0.588   0.584  15.772  1.6468 -0.0133 -0.3100
 8758SOL     OW37735   3.200   3.967   4.717 -0.3896  0.5180 -0.7067
 8758SOL    HW137736   3.181   3.945   4.808  1.1892  0.3108 -0.4211
 8758SOL    HW237737   3.285   4.007   4.736  0.4933 -1.9525  0.5394
 8759SOL     OW37738   4.622   0.121   2.324 -0.3208  0.3445 -0.5475
 8759SOL    HW137739   4.690   0.128   2.391 -0.5425  1.5900 -0.4599
 8759SOL    HW237740   4.565   0.196   2.339  0.8895  1.5995 -2.2240
 8760SOL     OW37741   0.407   3.839   2.577 -0.1320  0.0060 -0.2737
 8760SOL    HW137742   0.402   3.932   2.555 -2.3958  0.0361  0.4487
 8760SOL    HW237743   0.405   3.800   2.489  0.6701 -0.3443 -0.1327
 8761SOL     OW37744   2.380   1.088   9.476 -0.3811 -0.5038  0.4282
 8761SOL    HW137745   2.337   1.156   9.527  0.2414 -0.7925  1.3338
 8761SOL    HW237746   2.473   1.099   9.497 -0.4502  0.6993  0.1329
 8762SOL     OW37747   3.839   1.844  13.091  0.5048 -0.1552  0.1610
 8762SOL    HW137748   3.763   1.787  13.075  0.7244  0.4187 -2.8244
 8762SOL    HW237749   3.799   1.918  13.137 -2.1032 -0.3211 -1.8341
 8763SOL     OW37750   4.138   3.503   5.818 -0.5647  0.1245 -0.3100
 8763SOL    HW137751   4.115   3.447   5.892 -0.1909 -0.9193 -0.9945
 8763SOL    HW237752   4.119   3.451   5.740 -2.9602 -0.1566  0.4346
 8764SOL     OW37753   0.280   3.289   0.190 -0.0080  0.5911  0.3139
 8764SOL    HW137754   0.223   3.337   0.129  3.2445  3.1902 -0.7495
 8764SOL    HW237755   0.260   3.337   0.270  0.5757 -0.7811  1.2627
 8765SOL     OW37756   3.876   1.054   1.230  0.7341  0.2463 -0.4463
 8765SOL    HW137757   3.853   1.042   1.322  1.7875  0.0418 -0.2125
 8765SOL    HW237758   3.834   1.139   1.218  2.0378  0.8898 -0.4226
 8766SOL     OW37759   3.657   3.378   3.194  0.1543  0.5933  0.1787
 8766SOL    HW137760   3.601   3.453   3.209  1.2544  1.3539  0.4862
 8766SOL    HW237761   3.716   3.413   3.127  0.6983  0.0945  0.3950
 8767SOL     OW37762   3.892   4.007   3.765  0.1660 -0.6463  0.9687
 8767SOL    HW137763   3.954   3.934   3.772  0.9151 -0.1812 -1.1383
 8767SOL    HW237764   3.939   4.070   3.711 -1.6634 -0.0005  0.1379
 8768SOL     OW37765   1.925   1.214  13.656 -0.0064  0.1928 -0.6503
 8768SOL    HW137766   1.957   1.263  13.732 -1.8592 -0.3360  0.4590
 8768SOL    HW237767   2.002   1.228  13.600 -0.6605  2.0610 -1.0638
 8769SOL     OW37768   1.131   3.257   4.385  0.2097  0.0405  0.4077
 8769SOL    HW137769   1.052   3.208   4.408  0.1580 -0.3254 -0.5395
 8769SOL    HW237770   1.168   3.206   4.313 -1.4571 -0.6107  0.0285
 8770SOL     OW37771   0.898   2.689   3.766  0.1212  0.0918 -0.0776
 8770SOL    HW137772   0.968   2.740   3.725  1.0893  0.7336  2.4045
 8770SOL    HW237773   0.925   2.690   3.858  0.4286  0.0886 -0.1655
 8771SOL     OW37774   3.356   1.225   1.345  0.3904  0.2806 -0.5242
 8771SOL    HW137775   3.311   1.141   1.339 -2.6940  1.9859 -1.4090
 8771SOL    HW237776   3.332   1.245   1.435  1.5232 -1.8669  0.2351
 8772SOL     OW37777   4.438   0.192   1.708  0.6083 -0.6139 -1.2012
 8772SOL    HW137778   4.367   0.170   1.768  0.9870 -0.9362 -0.8721
 8772SOL    HW237779   4.393   0.161   1.630  0.2268 -3.1693  0.0483
 8773SOL     OW37780   0.368   4.538   9.197  0.0036  0.0863 -1.0372
 8773SOL    HW137781   0.354   4.633   9.194 -1.5995 -0.1622 -1.4222
 8773SOL    HW237782   0.411   4.521   9.281 -1.3762 -0.4491 -0.4309
 8774SOL     OW37783   0.153   3.346  11.049 -0.3831  0.1745 -0.1236
 8774SOL    HW137784   0.073   3.399  11.050  1.0607  2.3574  1.2745
 8774SOL    HW237785   0.188   3.361  10.962 -0.7934 -1.9507 -0.6649
 8775SOL     OW37786   3.474   2.923  11.628  0.1986  0.3365  0.5653
 8775SOL    HW137787   3.511   3.008  11.653 -0.2843  1.2270 -1.7444
 8775SOL    HW237788   3.533   2.899  11.556 -0.3571 -0.4946  0.4011
 8776SOL     OW37789   4.136   4.354  14.427 -0.3397  0.0652 -0.2154
 8776SOL    HW137790   4.200   4.406  14.476 -0.7634 -1.1163  1.6110
 8776SOL    HW237791   4.184   4.286  14.379 -1.6725  0.0374 -1.4908
 8777SOL     OW37792   0.011   3.654   2.877  0.4486  0.4299  0.4175
 8777SOL    HW137793   4.684   3.736   2.860 -1.3675 -0.6435  0.2430
 8777SOL    HW237794   0.085   3.665   2.817 -0.2007 -2.9553 -0.9851
 8778SOL     OW37795   0.565   0.542   5.945  0.0245 -0.6514 -0.5687
 8778SOL    HW137796   0.554   0.478   6.014  2.0304 -0.6040 -0.1982
 8778SOL    HW237797   0.638   0.513   5.889  0.6587  0.5867 -0.4063
 8779SOL     OW37798   1.824   4.179   5.794 -0.4306 -0.0747 -0.4915
 8779SOL    HW137799   1.785   4.195   5.880  1.0196 -1.6246  0.4481
 8779SOL    HW237800   1.746   4.211   5.748 -2.0173 -3.4587 -0.1940
 8780SOL     OW37801   1.567   2.519  12.580 -0.5404 -0.4892 -0.1034
 8780SOL    HW137802   1.573   2.524  12.676  2.4212  1.1137 -0.3938
 8780SOL    HW237803   1.483   2.472  12.573 -1.2914  0.7612  0.5340
 8781SOL     OW37804   3.871   2.484   1.979  0.3348 -0.1190  0.1428
 8781SOL    HW137805   3.782   2.451   1.965  0.7211 -0.0028 -2.5873
 8781SOL    HW237806   3.903   2.480   1.889 -2.3934 -2.5901 -0.7173
 8782SOL     OW37807   3.607   3.183   0.587 -0.0483 -0.4326  0.5210
 8782SOL    HW137808   3.639   3.227   0.665  0.5394  1.7654 -0.9688
 8782SOL    HW237809   3.596   3.094   0.621  1.0126 -1.2034 -1.1424
 8783SOL     OW37810   3.535   2.570   3.201 -0.4000 -0.6375  0.4678
 8783SOL    HW137811   3.580   2.502   3.150 -0.7740  0.0821 -0.7971
 8783SOL    HW237812   3.525   2.521   3.283 -3.3684 -0.5084  0.1973
 8784SOL     OW37813   0.655   3.106   2.837  0.2049  0.1451  0.2325
 8784SOL    HW137814   0.591   3.040   2.810  2.5363 -0.9674 -2.5268
 8784SOL    HW237815   0.612   3.186   2.805  1.2460  0.4988 -0.2753
 8785SOL     OW37816   0.552   3.384   7.910 -0.0198 -0.1757  0.2682
 8785SOL    HW137817   0.610   3.444   7.957 -1.2570  1.1723  0.0689
 8785SOL    HW237818   0.604   3.306   7.889  1.1238  0.5166  0.5416
 8786SOL     OW37819   0.328   3.405   7.521 -0.7882  0.1027  0.1197
 8786SOL    HW137820   0.348   3.350   7.445  1.4982  1.0399  0.0465
 8786SOL    HW237821   0.415   3.409   7.560 -0.7341  1.3869 -0.1073
 8787SOL     OW37822   1.421   4.276   0.434 -0.0718  0.3286  0.1549
 8787SOL    HW137823   1.389   4.189   0.458 -1.9648  1.2825  1.0155
 8787SOL    HW237824   1.435   4.259   0.340  1.3349 -0.7224  0.5398
 8788SOL     OW37825   3.878   0.384   8.173 -0.0975  0.2099 -0.1226
 8788SOL    HW137826   3.930   0.465   8.181  2.7261 -1.4875 -1.3447
 8788SOL    HW237827   3.791   0.399   8.211  0.0683  1.2127 -0.1302
 8789SOL     OW37828   1.142   0.631   5.973 -0.5831  0.0834  0.5895
 8789SOL    HW137829   1.148   0.706   5.914 -0.7571 -0.5294 -0.2071
 8789SOL    HW237830   1.228   0.636   6.015  0.0224  0.7105 -0.7193
 8790SOL     OW37831   3.365   0.610   3.939  0.6393 -0.0135  0.1759
 8790SOL    HW137832   3.281   0.577   3.971 -0.2131  1.2568 -0.7544
 8790SOL    HW237833   3.337   0.691   3.896 -0.6316  0.5757  2.0871
 8791SOL     OW37834   0.615   4.114   7.100  0.6264 -0.2198  0.1024
 8791SOL    HW137835   0.664   4.040   7.063 -0.0753 -0.2532 -0.7603
 8791SOL    HW237836   0.542   4.065   7.135 -1.1916  1.2190 -1.6411
 8792SOL     OW37837   3.765   2.180   0.336  0.3562 -0.0092  0.4891
 8792SOL    HW137838   3.781   2.212   0.425  1.6148  1.3394 -0.2260
 8792SOL    HW237839   3.673   2.156   0.349  0.0555  1.5660  1.2255
 8793SOL     OW37840   0.051   4.169  15.673 -0.6503 -0.5746 -0.7007
 8793SOL    HW137841   0.008   4.085  15.656  0.2196 -1.2451  0.3969
 8793SOL    HW237842   0.106   4.182  15.596  1.1819 -1.5369  0.4305
 8794SOL     OW37843   2.812   1.873   0.681  0.3829 -0.2321 -0.4360
 8794SOL    HW137844   2.856   1.846   0.761 -0.9907 -0.1717  0.3363
 8794SOL    HW237845   2.720   1.864   0.706  1.0387 -0.6388  1.8654
 8795SOL     OW37846   3.468   1.761   8.948 -0.9063 -0.5643 -0.8316
 8795SOL    HW137847   3.404   1.731   9.012  1.5674  1.0239  2.4089
 8795SOL    HW237848   3.464   1.856   8.963 -1.0713 -0.2361 -2.8750
 8796SOL     OW37849   1.878   4.270  15.691  0.6014 -0.4840  0.0638
 8796SOL    HW137850   1.916   4.207  15.753 -1.8711 -0.1262  1.9185
 8796SOL    HW237851   1.898   4.236  15.604  1.7901 -1.1316  0.5876
 8797SOL     OW37852   2.834   0.881  11.081 -0.4641 -0.3520 -0.1015
 8797SOL    HW137853   2.854   0.968  11.046 -0.3775  0.1177  1.0855
 8797SOL    HW237854   2.815   0.907  11.172 -2.0034  0.1114 -0.5616
 8798SOL     OW37855   2.637   4.326   3.856  0.1943 -0.2831  0.0140
 8798SOL    HW137856   2.546   4.337   3.827  0.4045  1.0053 -0.1594
 8798SOL    HW237857   2.676   4.270   3.789 -1.0591  0.0513 -0.9930
 8799SOL     OW37858   2.390   0.407   1.954 -0.2044  0.6813 -0.6823
 8799SOL    HW137859   2.331   0.375   1.886 -0.6258 -3.8609  1.8304
 8799SOL    HW237860   2.436   0.480   1.912  0.3488  0.3428 -0.6587
 8800SOL     OW37861   3.230   3.368   2.115  0.0935  0.5433 -0.1310
 8800SOL    HW137862   3.221   3.280   2.079  0.5256  1.1438 -1.7256
 8800SOL    HW237863   3.180   3.349   2.194 -1.9926  0.1162 -1.5756
 8801SOL     OW37864   2.430   4.112  13.305  0.4949 -0.1143 -0.3484
 8801SOL    HW137865   2.425   4.114  13.400  1.3314 -1.3243 -0.2832
 8801SOL    HW237866   2.409   4.203  13.284  2.9264  0.5330  0.0240
 8802SOL     OW37867   2.183   3.727   4.373  0.0165  0.3310  0.1412
 8802SOL    HW137868   2.212   3.785   4.303 -1.2839  0.2896 -0.4362
 8802SOL    HW237869   2.260   3.675   4.397 -0.1192 -0.0591 -0.2854
 8803SOL     OW37870   4.523   3.610   5.054  0.3244  0.1470  0.0902
 8803SOL    HW137871   4.536   3.573   4.967  2.2411  0.1458  0.3874
 8803SOL    HW237872   4.566   3.695   5.048  0.8244 -0.1778 -0.9104
 8804SOL     OW37873   4.362   2.674   1.403  0.3387  0.3507  0.3231
 8804SOL    HW137874   4.290   2.730   1.433 -0.5101 -0.7868  0.4386
 8804SOL    HW237875   4.310   2.594   1.398 -0.7843  1.1478 -0.9113
 8805SOL     OW37876   0.478   2.975   3.522 -0.0631  0.7231 -1.0904
 8805SOL    HW137877   0.501   2.931   3.604 -1.2558  1.4086 -0.3802
 8805SOL    HW237878   0.434   3.057   3.545 -2.6236 -1.2907  1.2450
 8806SOL     OW37879   0.130   4.317   8.911 -0.0148  0.2821 -0.3249
 8806SOL    HW137880   0.169   4.379   8.850  1.0579  0.0283  0.0974
 8806SOL    HW237881   0.042   4.353   8.904 -0.4948 -0.8450 -0.0783
 8807SOL     OW37882   1.553   1.582  13.045 -0.1277 -0.2767  0.3230
 8807SOL    HW137883   1.526   1.490  13.045  0.1540 -0.3571 -0.3525
 8807SOL    HW237884   1.556   1.600  12.951 -2.6128  0.1162  0.3144
 8808SOL     OW37885   3.679   3.488  10.794 -0.0327  0.9618  0.4302
 8808SOL    HW137886   3.654   3.460  10.882 -2.1503  0.6768 -0.2719
 8808SOL    HW237887   3.760   3.438  10.784  0.9468  2.8822 -1.3279
 8809SOL     OW37888   1.425   1.601   7.223  0.2370  0.1191  0.6733
 8809SOL    HW137889   1.341   1.592   7.267 -0.0944 -1.7826 -0.3400
 8809SOL    HW237890   1.467   1.673   7.270  0.2066 -0.1127  1.0589
 8810SOL     OW37891   3.542   2.837   2.249  0.1308  0.1730 -0.0730
 8810SOL    HW137892   3.504   2.901   2.188  1.8380  0.7688 -0.5011
 8810SOL    HW237893   3.536   2.757   2.197  0.7454 -0.6536  1.1465
 8811SOL     OW37894   0.004   2.354   0.320  0.5851 -0.4087  0.2520
 8811SOL    HW137895   4.633   2.372   0.296  0.2997  0.7598  2.1925
 8811SOL    HW237896   4.703   2.266   0.352 -2.1411  1.0832  2.6157
 8812SOL     OW37897   0.236   2.699   5.216 -0.5688 -0.1950 -0.2076
 8812SOL    HW137898   0.146   2.731   5.222 -1.2249 -1.9861 -0.6400
 8812SOL    HW237899   0.272   2.787   5.214 -1.1214  0.0154 -1.0845
 8813SOL     OW37900   2.363   1.047   7.112  0.4238 -0.3045  0.1289
 8813SOL    HW137901   2.334   1.023   7.024  2.9881  0.6386 -0.9747
 8813SOL    HW237902   2.393   0.961   7.143 -0.8376  0.4540  3.4866
 8814SOL     OW37903   0.850   2.915   2.720  0.4193  0.3018 -0.8274
 8814SOL    HW137904   0.866   2.823   2.742  0.3438  0.2291 -1.0673
 8814SOL    HW237905   0.769   2.931   2.769  1.0822  1.0180  0.0203
 8815SOL     OW37906   3.554   1.398   5.740 -0.1446  1.1140 -0.5011
 8815SOL    HW137907   3.612   1.370   5.811  1.4618  0.8075 -1.9558
 8815SOL    HW237908   3.564   1.326   5.678 -0.9675  0.2833  0.3051
 8816SOL     OW37909   0.429   4.293   8.782 -0.7043  0.1174 -0.0895
 8816SOL    HW137910   0.453   4.308   8.873  3.2830 -1.8915 -0.7887
 8816SOL    HW237911   0.366   4.364   8.770 -1.5176 -0.7634 -0.9585
 8817SOL     OW37912   0.529   2.400   6.917 -0.4945 -0.0163  0.2892
 8817SOL    HW137913   0.468   2.348   6.865  1.0743  0.5790 -2.1108
 8817SOL    HW237914   0.601   2.337   6.918 -0.6246 -0.1797 -1.8263
 8818SOL     OW37915   3.168   2.382   2.255 -0.1295 -0.2274 -0.0153
 8818SOL    HW137916   3.123   2.353   2.176 -2.5388  2.4066  0.3824
 8818SOL    HW237917   3.251   2.410   2.214  0.7757 -0.0329  1.9530
 8819SOL     OW37918   1.555   1.610   3.224 -0.3014  0.1518 -0.0428
 8819SOL    HW137919   1.481   1.598   3.165 -1.3778  2.6240  0.8036
 8819SOL    HW237920   1.587   1.523   3.248  0.1602  0.0786 -0.9521
 8820SOL     OW37921   2.166   0.398   0.920  0.2408 -0.3889 -0.9288
 8820SOL    HW137922   2.122   0.351   0.850 -0.7974 -1.0381  0.1458
 8820SOL    HW237923   2.121   0.483   0.914  0.4993 -0.1396  0.4661
 8821SOL     OW37924   4.268   4.412  15.622  0.4427  0.1591 -0.3350
 8821SOL    HW137925   4.349   4.361  15.622  0.6094  0.4195 -0.9144
 8821SOL    HW237926   4.202   4.351  15.653  0.9071  0.1443  0.6128
 8822SOL     OW37927   4.626   4.462  10.683  0.0521  0.3697 -0.0409
 8822SOL    HW137928   4.674   4.542  10.663  1.0483  0.2132  1.7119
 8822SOL    HW237929   4.672   4.434  10.762  1.2701 -1.5329 -1.4007
 8823SOL     OW37930   3.238   0.781  11.816 -0.0316 -0.1484 -0.2476
 8823SOL    HW137931   3.274   0.745  11.897  0.4033 -0.6966 -0.6777
 8823SOL    HW237932   3.300   0.752  11.749  1.9330  2.1875  0.5308
 8824SOL     OW37933   0.415   1.054   1.072  0.3687 -0.0237 -0.4423
 8824SOL    HW137934   0.504   1.081   1.050  0.6796 -0.9552 -0.3360
 8824SOL    HW237935   0.389   0.981   1.016 -0.7975 -1.8806  2.5001
 8825SOL     OW37936   2.980   1.403   4.006  0.0514  0.4741 -0.5086
 8825SOL    HW137937   2.976   1.483   3.953  0.1002  1.3598  0.8362
 8825SOL    HW237938   3.010   1.436   4.091 -0.1376  2.6324 -1.2786
 8826SOL     OW37939   2.332   0.094   8.681  0.0970  0.0053 -0.2047
 8826SOL    HW137940   2.335   0.029   8.751 -1.1303 -1.4304 -1.4748
 8826SOL    HW237941   2.237   0.101   8.667  0.1503 -0.0385 -0.5983
 8827SOL     OW37942   1.354   2.320   3.943 -1.0060  0.4777  0.2108
 8827SOL    HW137943   1.429   2.315   4.002 -1.4542 -0.1744  0.7306
 8827SOL    HW237944   1.365   2.413   3.924 -2.1197  0.4055 -0.7938
 8828SOL     OW37945   1.954   2.848   7.662 -0.0530 -0.6360 -0.1582
 8828SOL    HW137946   1.909   2.826   7.744  0.0539 -0.5776 -0.0828
 8828SOL    HW237947   2.017   2.915   7.690  0.7284 -1.3064 -0.2842
 8829SOL     OW37948   1.458   1.658   4.767 -0.5734 -0.0255 -0.3874
 8829SOL    HW137949   1.454   1.568   4.736 -1.4676 -0.7541  1.8339
 8829SOL    HW237950   1.549   1.683   4.750  0.3955 -1.5242  2.6040
 8830SOL     OW37951   1.639   3.033   5.409 -0.5439  0.1171  0.8756
 8830SOL    HW137952   1.596   2.961   5.363  2.4097 -1.4317  0.5066
 8830SOL    HW237953   1.622   3.006   5.499  3.2419  0.4410  1.6863
 8831SOL     OW37954   3.186   4.607   8.900 -0.6441 -0.2530  0.2734
 8831SOL    HW137955   3.228   4.622   8.815 -0.9035  0.0035  0.1933
 8831SOL    HW237956   3.149   4.519   8.894 -1.7819  0.2569 -0.1946
 8832SOL     OW37957   3.284   1.545   0.218  0.3845 -0.0527 -0.2314
 8832SOL    HW137958   3.348   1.612   0.242 -0.2594  1.3786 -2.5167
 8832SOL    HW237959   3.236   1.535   0.300 -1.4874 -0.6365 -1.3904
 8833SOL     OW37960   4.513   0.422  14.300  0.4571 -0.1101  0.5372
 8833SOL    HW137961   4.538   0.358  14.234 -0.9983  1.8534 -1.8921
 8833SOL    HW237962   4.534   0.502  14.253  0.9012 -0.7029 -0.2880
 8834SOL     OW37963   3.371   2.941  12.698 -0.0285  0.7356 -0.1683
 8834SOL    HW137964   3.346   2.973  12.611  2.2090  3.7377  0.2711
 8834SOL    HW237965   3.394   2.849  12.684  0.6687  1.1243 -1.6595
 8835SOL     OW37966   0.641   2.511   2.557  0.5728  0.2221  0.0441
 8835SOL    HW137967   0.704   2.514   2.485  0.4481 -2.5373 -0.1583
 8835SOL    HW237968   0.667   2.587   2.609  0.5210  1.7958 -2.2563
 8836SOL     OW37969   0.127   3.023   9.257 -0.0224 -0.2598 -0.6338
 8836SOL    HW137970   0.116   3.056   9.346  0.5691 -1.3799 -0.1582
 8836SOL    HW237971   0.222   3.025   9.250 -0.1605  2.3861 -2.1413
 8837SOL     OW37972   3.227   3.650   4.835  0.0212 -0.3215 -0.0484
 8837SOL    HW137973   3.217   3.555   4.847 -2.1406  0.0531  1.3032
 8837SOL    HW237974   3.262   3.675   4.921 -1.0637 -0.0451  0.3122
 8838SOL     OW37975   4.091   3.650   6.138  0.3204 -0.2989  0.1961
 8838SOL    HW137976   4.054   3.564   6.153 -2.3431  0.7275 -0.4989
 8838SOL    HW237977   4.012   3.703   6.129  1.0272  0.9185  0.9794
 8839SOL     OW37978   0.159   2.611   1.703  0.3580  0.2143  0.5289
 8839SOL    HW137979   0.200   2.696   1.693  1.8377 -0.8789 -2.8078
 8839SOL    HW237980   0.095   2.616   1.632 -1.2459  1.9439  2.1231
 8840SOL     OW37981   1.775   2.767   9.610 -0.2729  0.6879 -0.5767
 8840SOL    HW137982   1.869   2.767   9.590  0.3225  0.7061  2.1947
 8840SOL    HW237983   1.737   2.714   9.539  0.8878 -0.3601 -0.4141
 8841SOL     OW37984   1.716   4.237   8.838 -0.1877  0.0112  0.0717
 8841SOL    HW137985   1.780   4.293   8.794 -0.5967  0.2544 -0.2041
 8841SOL    HW237986   1.764   4.242   8.921  3.3568  1.2237 -2.0657
 8842SOL     OW37987   2.906   4.639   2.271  0.6163 -0.2797  0.7418
 8842SOL    HW137988   2.860   4.581   2.331 -1.4249  2.6281  2.0064
 8842SOL    HW237989   2.946   4.574   2.214  0.3921  1.3091 -1.2420
 8843SOL     OW37990   3.954   2.697   7.583  0.3770 -0.4516 -0.3493
 8843SOL    HW137991   3.892   2.642   7.630  0.6644  0.7156  1.3630
 8843SOL    HW237992   3.893   2.756   7.540  0.6058 -0.4323 -0.6495
 8844SOL     OW37993   3.124   1.352  17.473  0.4072 -0.1815  0.1436
 8844SOL    HW137994   3.197   1.389  17.524 -0.5720  1.4848  0.3367
 8844SOL    HW237995   3.062   1.423  17.492 -0.5918 -1.2513  0.8727
 8845SOL     OW37996   3.908   1.200  15.716 -0.2372  0.5371 -0.0846
 8845SOL    HW137997   3.994   1.204  15.759 -0.0502 -2.6573 -0.1068
 8845SOL    HW237998   3.848   1.261  15.759 -1.7732 -1.2657  0.3508
 8846SOL     OW37999   4.556   0.736  13.074  1.3449  0.5197 -0.7156
 8846SOL    HW138000   4.605   0.655  13.087  0.4712  0.1790  0.3817
 8846SOL    HW238001   4.556   0.765  13.165  1.7625  0.5247 -0.7158
 8847SOL     OW38002   1.403   3.305   1.454 -0.0092  0.1657  0.4047
 8847SOL    HW138003   1.370   3.392   1.476  2.8387  1.3390  0.0598
 8847SOL    HW238004   1.348   3.291   1.377  0.6345 -3.5527  0.6140
 8848SOL     OW38005   0.393   3.656   4.239 -0.0428  0.1496 -0.3083
 8848SOL    HW138006   0.453   3.675   4.167 -0.6831 -0.8365 -1.1023
 8848SOL    HW238007   0.363   3.567   4.220 -2.3034  1.2902 -2.1086
 8849SOL     OW38008   2.432   3.057  12.367  0.1530 -0.3357  0.7263
 8849SOL    HW138009   2.524   3.067  12.391 -0.0238  1.4482  0.6295
 8849SOL    HW238010   2.405   2.990  12.429  0.9798 -2.3154 -1.0356
 8850SOL     OW38011   3.899   3.359  16.157 -0.4594  0.1578 -0.4584
 8850SOL    HW138012   3.917   3.315  16.240 -1.7776  2.3335  1.0043
 8850SOL    HW238013   3.823   3.412  16.181  0.4331  0.6190  1.3108
 8851SOL     OW38014   4.476   2.004  16.440 -0.3061 -0.3517  0.7932
 8851SOL    HW138015   4.471   1.909  16.453 -1.1342 -0.6532 -1.8078
 8851SOL    HW238016   4.541   2.009  16.370  1.0685 -2.9750  1.8528
 8852SOL     OW38017   2.842   3.298   6.781  0.8736  0.2049 -0.1564
 8852SOL    HW138018   2.881   3.318   6.696  0.9791 -0.9875 -0.4004
 8852SOL    HW238019   2.821   3.206   6.763  1.0637  0.3966 -1.3871
 8853SOL     OW38020   2.252   3.607  13.192 -0.6014 -0.1150  0.0052
 8853SOL    HW138021   2.326   3.561  13.152 -0.5875 -1.1945  1.2707
 8853SOL    HW238022   2.278   3.612  13.284  0.1880 -0.2723 -0.2029
 8854SOL     OW38023   1.268   4.343   0.859 -0.2879 -0.9275  0.4549
 8854SOL    HW138024   1.222   4.401   0.799  0.8415  0.3107  0.7785
 8854SOL    HW238025   1.335   4.306   0.801  0.7399  0.0386  1.0135
 8855SOL     OW38026   1.641   1.635   9.768  0.4616 -0.4134 -0.0803
 8855SOL    HW138027   1.608   1.583   9.694  1.0934 -0.8646 -0.0463
 8855SOL    HW238028   1.568   1.638   9.830  0.5331  1.5654 -0.1052
 8856SOL     OW38029   3.527   0.079   4.481 -0.7958  0.1728 -0.0511
 8856SOL    HW138030   3.527   0.167   4.520 -0.3569  0.3059 -0.3574
 8856SOL    HW238031   3.581   0.105   4.407  2.1094  1.1781  2.4192
 8857SOL     OW38032   4.269   0.183   8.332 -0.2791  0.1845  0.1736
 8857SOL    HW138033   4.266   0.189   8.236 -0.7207 -2.1594  0.0432
 8857SOL    HW238034   4.350   0.135   8.346 -0.5748 -0.7131 -1.1744
 8858SOL     OW38035   1.047   2.553  10.901 -0.1249  0.7704 -0.5054
 8858SOL    HW138036   1.048   2.458  10.913  0.9645  0.6431 -1.6719
 8858SOL    HW238037   1.133   2.558  10.860 -1.1258 -0.4691 -2.7648
 8859SOL     OW38038   0.839   0.305   7.483  0.4672  0.1187 -0.2254
 8859SOL    HW138039   0.934   0.300   7.468  0.5173 -0.2528  0.2182
 8859SOL    HW238040   0.821   0.357   7.405  0.8857  1.2499  0.4337
 8860SOL     OW38041   0.658   2.107  12.393 -0.2308  0.1545  0.1943
 8860SOL    HW138042   0.662   2.084  12.486 -0.9889  0.0355  0.1974
 8860SOL    HW238043   0.738   2.058  12.373 -0.9518 -0.9177 -0.0815
 8861SOL     OW38044   3.260   2.009   7.981  0.4680 -0.2670 -0.0840
 8861SOL    HW138045   3.170   2.037   7.996  1.0786  2.3494 -1.4768
 8861SOL    HW238046   3.275   2.067   7.907 -1.4657  1.8896  1.2250
 8862SOL     OW38047   3.475   3.739  10.437  0.4105  0.0574 -0.3771
 8862SOL    HW138048   3.482   3.679  10.511  0.1019 -1.4055 -1.5042
 8862SOL    HW238049   3.472   3.827  10.474  0.2568  0.3546 -1.0824
 8863SOL     OW38050   0.751   4.460   8.945  0.2228  0.6589 -0.5770
 8863SOL    HW138051   0.831   4.416   8.976 -0.0123  0.6695  0.0428
 8863SOL    HW238052   0.777   4.520   8.876 -0.3270  2.5811  0.8966
 8864SOL     OW38053   1.181   0.990   2.657 -0.0301  0.2798  0.1345
 8864SOL    HW138054   1.104   0.992   2.601  1.0310  0.7042 -1.3280
 8864SOL    HW238055   1.163   1.067   2.711 -2.5808  0.6451 -1.2296
 8865SOL     OW38056   2.512   4.170   4.947 -0.6954  0.1586 -0.2624
 8865SOL    HW138057   2.488   4.150   5.037  0.9886  1.2703  0.4490
 8865SOL    HW238058   2.517   4.082   4.909 -0.0991 -0.7678  1.9811
 8866SOL     OW38059   0.262   2.934   3.115 -0.2559  0.5403 -0.2336
 8866SOL    HW138060   0.321   2.971   3.050 -1.0791 -1.6276 -2.2262
 8866SOL    HW238061   0.328   2.913   3.181 -1.3117 -0.5324  0.4846
 8867SOL     OW38062   1.059   2.920  11.658 -0.0253 -0.1462 -0.2799
 8867SOL    HW138063   1.133   2.958  11.706 -1.7479  1.1046  1.3883
 8867SOL    HW238064   1.012   3.002  11.644 -1.2433 -0.3343  2.6801
 8868SOL     OW38065   1.628   3.270  12.819 -0.2766  0.4235 -0.3056
 8868SOL    HW138066   1.609   3.197  12.878  0.5689 -0.0535 -0.6173
 8868SOL    HW238067   1.615   3.228  12.734  1.3555 -0.3558 -0.1831
 8869SOL     OW38068   4.433   0.957  10.934  0.3779 -0.1747  0.0646
 8869SOL    HW138069   4.363   0.893  10.949 -0.7891  1.1574  0.3297
 8869SOL    HW238070   4.372   1.030  10.945 -0.2204 -0.9603  2.0326
 8870SOL     OW38071   3.661   2.186   2.171 -0.4320 -0.4002  0.2223
 8870SOL    HW138072   3.722   2.175   2.244 -2.6052  0.0501  2.0974
 8870SOL    HW238073   3.581   2.151   2.209  1.5202 -0.3114  4.4414
 8871SOL     OW38074   1.324   2.200  17.537 -0.5783  0.1624  0.5277
 8871SOL    HW138075   1.319   2.105  17.538  1.0202  0.0829  1.0891
 8871SOL    HW238076   1.360   2.228  17.453 -0.3673  2.4577  1.3865
 8872SOL     OW38077   0.789   1.702  10.974  0.1006  0.6995 -1.1649
 8872SOL    HW138078   0.884   1.700  10.973  0.1673  2.9839  2.2761
 8872SOL    HW238079   0.770   1.773  10.912 -0.0494  1.3729 -0.3453
 8873SOL     OW38080   2.096   0.563   4.075 -0.2653  0.0678  0.0407
 8873SOL    HW138081   2.141   0.582   4.158 -1.0587 -0.1245  0.5134
 8873SOL    HW238082   2.020   0.511   4.101  0.2266 -1.5201 -1.7825
 8874SOL     OW38083   0.085   1.201   4.957 -0.1613  0.2196  0.5319
 8874SOL    HW138084   0.060   1.269   5.020  0.3076  1.1725 -0.3068
 8874SOL    HW238085   0.165   1.174   5.001  0.7854 -0.0636 -1.3745
 8875SOL     OW38086   4.195   2.107   1.390 -0.2192  0.0642 -0.2228
 8875SOL    HW138087   4.156   2.159   1.319 -0.4099 -0.0866 -0.2280
 8875SOL    HW238088   4.249   2.042   1.345 -0.1873 -0.5005  0.6331
 8876SOL     OW38089   3.094   0.475  14.519  0.3070 -0.0068  0.1679
 8876SOL    HW138090   3.015   0.491  14.468  0.1925 -2.4801 -0.4499
 8876SOL    HW238091   3.103   0.380  14.507  0.5243  0.0412 -0.0498
 8877SOL     OW38092   3.275   0.323   0.977 -0.1213 -0.4334  0.4958
 8877SOL    HW138093   3.238   0.408   1.003 -0.4691 -0.4244 -0.0416
 8877SOL    HW238094   3.363   0.355   0.955 -0.7750 -1.1037 -2.9907
 8878SOL     OW38095   0.148   1.464   2.928  0.4128  0.7027 -0.2333
 8878SOL    HW138096   0.212   1.526   2.895 -0.0272  0.5812 -1.3157
 8878SOL    HW238097   0.072   1.521   2.946 -1.3912 -1.8118  0.1791
 8879SOL     OW38098   4.421   0.834   9.968  0.3590 -0.6274  0.2252
 8879SOL    HW138099   4.388   0.919   9.996  0.4969 -1.0691  1.7199
 8879SOL    HW238100   4.336   0.791   9.966 -0.5244  1.1076  0.6077
 8880SOL     OW38101   1.152   3.437   1.815 -0.2773 -0.9110 -0.3921
 8880SOL    HW138102   1.234   3.463   1.857 -0.9185 -1.7489  1.3943
 8880SOL    HW238103   1.179   3.366   1.757  3.0345 -0.0597  0.1221
 8881SOL     OW38104   1.077   0.000  11.100 -0.3537 -0.2094  0.2510
 8881SOL    HW138105   1.074   0.072  11.037 -0.4439 -0.7620 -0.3713
 8881SOL    HW238106   0.995   0.009  11.148 -1.0025 -0.9445 -0.7183
 8882SOL     OW38107   1.034   0.037   6.518 -0.3738  0.4538  0.7052
 8882SOL    HW138108   1.039   4.704   6.598 -0.9010 -0.9114 -0.1879
 8882SOL    HW238109   1.070   4.694   6.456 -1.4864  1.1859 -0.6937
 8883SOL     OW38110   0.205   3.858   4.990  0.0507 -0.4813 -0.2995
 8883SOL    HW138111   0.197   3.812   4.906 -0.5631  2.4016 -1.8402
 8883SOL    HW238112   0.291   3.832   5.021  0.9759  1.7481 -0.9741
 8884SOL     OW38113   2.059   2.091   8.106 -0.1362  0.3297  0.2249
 8884SOL    HW138114   2.021   2.177   8.087  0.5767  0.9503  1.5528
 8884SOL    HW238115   2.132   2.118   8.162 -2.0137  0.8221  2.4124
 8885SOL     OW38116   0.996   1.643   6.178 -0.0314  0.4183  0.3610
 8885SOL    HW138117   0.964   1.591   6.105 -0.0974 -0.9644  1.3730
 8885SOL    HW238118   0.923   1.620   6.235  0.3720 -3.4115 -0.6697
 8886SOL     OW38119   0.943   3.100   0.533  0.2275 -0.3923  0.2889
 8886SOL    HW138120   0.913   3.028   0.588  0.9987 -1.2759 -0.4500
 8886SOL    HW238121   0.974   3.161   0.600 -2.4486  1.1256  0.1191
 8887SOL     OW38122   3.228   4.247   2.731  0.0671  0.1595 -0.1918
 8887SOL    HW138123   3.247   4.194   2.654  3.1900  0.9376  0.0356
 8887SOL    HW238124   3.140   4.214   2.749  0.9247 -0.7045  2.5573
 8888SOL     OW38125   3.497   2.882  12.113  0.3688 -0.3817 -0.0359
 8888SOL    HW138126   3.525   2.926  12.193 -1.7928 -1.2981  1.2329
 8888SOL    HW238127   3.505   2.965  12.066  5.2411 -0.2437  1.0403
 8889SOL     OW38128   0.760   3.734   8.321  0.4372  0.7774 -0.3102
 8889SOL    HW138129   0.677   3.778   8.339 -0.4034 -0.9524  0.0901
 8889SOL    HW238130   0.730   3.644   8.330  0.1750  0.9042  0.1206
 8890SOL     OW38131   3.275   1.045  14.158 -0.5702 -0.1860 -0.3060
 8890SOL    HW138132   3.199   1.091  14.123 -0.3907 -0.5114 -1.1254
 8890SOL    HW238133   3.219   0.983  14.205 -1.9600 -0.3789 -2.2279
 8891SOL     OW38134   0.351   4.031   3.380 -0.1250 -0.8743 -0.1005
 8891SOL    HW138135   0.269   4.081   3.374  0.8238  0.9026  1.7453
 8891SOL    HW238136   0.331   3.984   3.461 -1.3145 -0.5019 -0.1798
 8892SOL     OW38137   3.940   3.898   8.100 -0.0319 -0.2919 -0.0597
 8892SOL    HW138138   3.974   3.934   8.182  0.3948 -1.2110  0.1629
 8892SOL    HW238139   3.865   3.849   8.134 -1.3693  1.3585 -0.6260
 8893SOL     OW38140   4.712   0.423  11.929  0.2072  0.4248 -0.2550
 8893SOL    HW138141   4.692   0.330  11.919 -2.8709  1.4013 -3.3840
 8893SOL    HW238142   0.064   0.422  11.866  0.2951  1.7167 -0.1853
 8894SOL     OW38143   3.217   3.756  17.392  0.2273  0.0834 -0.4740
 8894SOL    HW138144   3.206   3.708  17.310  0.3988 -0.6335 -0.0818
 8894SOL    HW238145   3.306   3.727  17.415 -0.1254  1.3569  2.5655
 8895SOL     OW38146   0.285   2.930   8.865 -0.1103 -0.0485  0.4215
 8895SOL    HW138147   0.272   2.893   8.778 -2.4907 -1.0303  1.2108
 8895SOL    HW238148   0.348   2.874   8.911  0.2935  0.4659  0.5070
 8896SOL     OW38149   3.441   4.038   3.146 -0.0535 -0.3442  0.5993
 8896SOL    HW138150   3.370   3.980   3.120 -0.2550 -0.2819  1.0025
 8896SOL    HW238151   3.518   4.002   3.101 -0.4932 -0.9578  0.3467
 8897SOL     OW38152   3.670   2.865   3.288  0.3909 -0.4242 -0.8304
 8897SOL    HW138153   3.764   2.857   3.270  0.9948  1.0450  1.6439
 8897SOL    HW238154   3.677   2.933   3.355  0.5463 -1.0582 -0.1970
 8898SOL     OW38155   0.129   2.746   0.962  0.1935  0.1892 -0.0309
 8898SOL    HW138156   0.092   2.672   1.009 -1.8945  0.4125 -1.2971
 8898SOL    HW238157   0.074   2.767   0.886  1.0720 -3.0452 -1.5443
 8899SOL     OW38158   3.488   2.192  12.241 -0.3957 -0.0524  0.7197
 8899SOL    HW138159   3.562   2.209  12.183 -0.3291  1.0511  1.1139
 8899SOL    HW238160   3.496   2.097  12.249 -2.1033 -0.3743 -1.3261
 8900SOL     OW38161   1.240   0.197  10.403  0.6827 -0.0857  0.2165
 8900SOL    HW138162   1.257   0.247  10.323  1.1636  1.9211  1.5781
 8900SOL    HW238163   1.148   0.182  10.383  0.8077  1.5770 -1.5195
 8901SOL     OW38164   1.437   2.322   5.976 -0.4728 -0.0182  0.0368
 8901SOL    HW138165   1.410   2.413   5.981  1.3853  0.5913 -0.8575
 8901SOL    HW238166   1.505   2.321   5.908 -0.4995 -1.6741  0.0370
 8902SOL     OW38167   1.335   0.431   9.524 -0.5274  0.0255  0.4952
 8902SOL    HW138168   1.320   0.389   9.439  1.0774  1.0723 -0.3119
 8902SOL    HW238169   1.246   0.420   9.555 -1.3269 -1.8144 -2.4553
 8903SOL     OW38170   4.306   3.780   3.991 -0.1947 -0.3684 -0.3049
 8903SOL    HW138171   4.346   3.693   3.986  0.3594 -0.3445  3.2729
 8903SOL    HW238172   4.311   3.806   4.083 -1.5310 -0.5664 -0.1682
 8904SOL     OW38173   0.915   3.470   6.680  0.1397  0.3443 -0.4580
 8904SOL    HW138174   0.965   3.522   6.617  0.5726 -0.8134 -1.0673
 8904SOL    HW238175   0.984   3.405   6.695 -0.4510 -0.5595 -1.6318
 8905SOL     OW38176   4.635   0.408   7.135  0.0806  0.2338  0.8991
 8905SOL    HW138177   4.590   0.472   7.081 -0.4376  0.1249  1.2017
 8905SOL    HW238178   0.003   0.437   7.160  0.1714  1.5419 -1.0068
 8906SOL     OW38179   1.302   2.481  10.822  0.5657  0.2358  0.4932
 8906SOL    HW138180   1.320   2.388  10.811 -0.5444 -0.0742  1.3732
 8906SOL    HW238181   1.389   2.509  10.852 -0.1563  0.2319  2.5632
 8907SOL     OW38182   3.898   2.319   0.127 -0.9084 -0.4294 -0.2884
 8907SOL    HW138183   3.894   2.411   0.153 -0.4590  0.0312 -1.8682
 8907SOL    HW238184   3.852   2.286   0.205  2.3501  0.2323  1.9034
 8908SOL     OW38185   3.740   3.167   7.807 -0.0664  0.6828  0.2809
 8908SOL    HW138186   3.721   3.171   7.900  1.8424 -2.1762  0.7874
 8908SOL    HW238187   3.835   3.161   7.812  0.0594  1.8636 -0.5595
 8909SOL     OW38188   3.126   0.693   2.166  0.4513  0.0597 -0.1590
 8909SOL    HW138189   3.034   0.701   2.191  0.4163 -0.5780 -0.0761
 8909SOL    HW238190   3.156   0.783   2.169 -2.3224  1.0376 -2.2849
 8910SOL     OW38191   0.368   2.570   6.219  0.2386  0.3038 -0.1844
 8910SOL    HW138192   0.441   2.529   6.172 -0.7973  0.5178 -1.9879
 8910SOL    HW238193   0.424   2.591   6.293 -0.4224  0.4049  0.2828
 8911SOL     OW38194   2.905   1.892   7.679 -0.2888 -0.4851 -0.3816
 8911SOL    HW138195   2.878   1.813   7.632  0.7697 -1.8673  1.3116
 8911SOL    HW238196   2.917   1.958   7.610 -0.8437 -1.6845 -1.6112
 8912SOL     OW38197   3.559   2.626   8.338 -0.4018  0.0161  0.4333
 8912SOL    HW138198   3.507   2.671   8.404 -1.5262  0.3667 -0.6892
 8912SOL    HW238199   3.499   2.563   8.298  1.2042 -0.8583 -0.6122
 8913SOL     OW38200   3.663   3.189  15.004  0.1409 -0.1611 -0.3116
 8913SOL    HW138201   3.748   3.233  15.009 -0.5434  1.0131  1.0814
 8913SOL    HW238202   3.614   3.241  15.068 -0.3295  1.3591 -1.9202
 8914SOL     OW38203   1.500   1.422  12.204 -0.0519 -0.2831  0.0394
 8914SOL    HW138204   1.471   1.338  12.169  1.3554 -1.7591  2.4671
 8914SOL    HW238205   1.419   1.463  12.233  0.4778 -0.2448  1.4388
 8915SOL     OW38206   3.167   0.792   8.464 -0.1456 -0.2008  0.1170
 8915SOL    HW138207   3.145   0.883   8.482  0.4375 -0.0614  0.1028
 8915SOL    HW238208   3.247   0.789   8.413 -0.3505  1.8450 -0.3242
 8916SOL     OW38209   0.331   3.636  12.022  0.1448  0.1386  0.7593
 8916SOL    HW138210   0.308   3.586  11.944  0.9397  0.5453  0.2646
 8916SOL    HW238211   0.324   3.726  11.991 -0.6981  0.6426  2.4285
 8917SOL     OW38212   2.460   2.542   7.345  0.2633 -0.2162 -0.0813
 8917SOL    HW138213   2.367   2.566   7.351  0.5536  0.7980  0.2163
 8917SOL    HW238214   2.497   2.542   7.433  0.3992 -0.9185 -0.1344
 8918SOL     OW38215   2.257   2.169  17.414 -0.1729  0.2693 -0.6066
 8918SOL    HW138216   2.206   2.140  17.490  1.1711 -0.2778  0.0854
 8918SOL    HW238217   2.343   2.176  17.455 -0.3559  0.1578 -0.1991
 8919SOL     OW38218   4.273   2.837   6.215 -0.2959 -0.1818  0.3067
 8919SOL    HW138219   4.308   2.896   6.283 -2.9590  0.6036  1.0144
 8919SOL    HW238220   4.190   2.826   6.261 -0.0743 -1.3877  0.4042
 8920SOL     OW38221   1.892   3.184   1.602  0.4627 -0.0871  0.1603
 8920SOL    HW138222   1.909   3.149   1.515 -0.2249 -1.3026  0.5103
 8920SOL    HW238223   1.799   3.204   1.590  1.3329  2.8248 -1.5002
 8921SOL     OW38224   4.482   4.018   7.026 -0.3786  0.4003  0.3210
 8921SOL    HW138225   4.391   3.996   7.046  0.5869 -3.0265  0.9078
 8921SOL    HW238226   4.527   4.007   7.110 -0.2105  1.5023  0.3794
 8922SOL     OW38227   1.404   3.313  14.386 -0.4298  0.0273 -0.0035
 8922SOL    HW138228   1.423   3.261  14.308  0.9350  3.2264 -1.7753
 8922SOL    HW238229   1.315   3.331  14.357 -0.4618 -1.8639 -1.1343
 8923SOL     OW38230   4.481   2.801   0.193 -0.2787 -0.7436 -0.3215
 8923SOL    HW138231   4.414   2.776   0.130  0.6037 -0.1789 -1.4737
 8923SOL    HW238232   4.544   2.847   0.138  1.6810 -1.5644  1.2195
 8924SOL     OW38233   1.235   0.066   4.528 -0.1750 -0.7028  1.0091
 8924SOL    HW138234   1.298   0.133   4.501 -1.0920  0.7594  2.4951
 8924SOL    HW238235   1.286   0.024   4.597  0.3184 -0.9707  0.4914
 8925SOL     OW38236   3.994   4.221   1.864  0.0384  0.1270 -0.1409
 8925SOL    HW138237   4.007   4.186   1.775 -2.2059  1.9275 -1.1617
 8925SOL    HW238238   3.934   4.292   1.841  2.4253  2.1361 -0.1267
 8926SOL     OW38239   2.267   2.548   7.548  0.0884 -0.1197  0.4382
 8926SOL    HW138240   2.245   2.484   7.616  1.3863 -1.5984 -0.5410
 8926SOL    HW238241   2.252   2.627   7.599  0.0570 -0.3150  0.7339
 8927SOL     OW38242   0.590   0.138   5.989  0.1859 -0.0746 -0.2185
 8927SOL    HW138243   0.564   0.160   5.900 -0.4880 -0.7725 -0.1928
 8927SOL    HW238244   0.645   0.063   5.966  1.4905  0.7089  0.3419
 8928SOL     OW38245   0.568   0.661   4.228 -0.0378 -0.4296  0.4059
 8928SOL    HW138246   0.576   0.681   4.134 -0.4180  0.9772  0.6714
 8928SOL    HW238247   0.472   0.654   4.233 -0.1735 -0.3689 -1.8343
 8929SOL     OW38248   4.680   1.151   4.221 -0.4303  0.1321 -0.6851
 8929SOL    HW138249   4.613   1.137   4.288  0.9631  0.3424  0.7196
 8929SOL    HW238250   0.013   1.219   4.262 -0.4618  0.3420 -0.9898
 8930SOL     OW38251   1.694   0.007   7.002 -0.1491 -0.1569  0.1245
 8930SOL    HW138252   1.724   4.646   7.045  1.4385 -0.2339 -1.1128
 8930SOL    HW238253   1.611   0.024   7.046  0.9609  0.1063  2.1009
 8931SOL     OW38254   4.168   0.921   7.963 -0.6180 -0.2450  0.0117
 8931SOL    HW138255   4.100   0.942   8.027  1.3648  0.3885  1.8976
 8931SOL    HW238256   4.209   1.007   7.956 -3.7407  1.1970 -0.2005
 8932SOL     OW38257   2.878   2.231   2.673  0.1491  0.0489 -0.1544
 8932SOL    HW138258   2.847   2.180   2.597 -2.0436  2.0630 -0.6368
 8932SOL    HW238259   2.956   2.261   2.626  2.0670 -0.9813  2.4028
 8933SOL     OW38260   4.648   0.598   6.136  0.0486 -0.2387 -0.4374
 8933SOL    HW138261   4.584   0.653   6.181 -1.3046 -0.8067 -1.6611
 8933SOL    HW238262   4.709   0.572   6.205 -1.1690 -4.5423 -0.9605
 8934SOL     OW38263   0.942   4.229   2.024 -0.0130 -0.8188 -0.1486
 8934SOL    HW138264   1.010   4.200   2.084  0.0858 -1.1208 -0.4066
 8934SOL    HW238265   0.966   4.184   1.943  0.8657 -0.4049 -0.1191
 8935SOL     OW38266   4.517   3.513   4.154  0.0537 -0.2565 -0.0486
 8935SOL    HW138267   4.435   3.530   4.108  0.9325 -1.7501 -2.1935
 8935SOL    HW238268   4.574   3.467   4.092  2.4091 -0.7030  2.4590
 8936SOL     OW38269   1.824   2.482  10.786  0.1501 -0.0009  0.0571
 8936SOL    HW138270   1.811   2.453  10.696  1.4367 -0.1519 -0.0779
 8936SOL    HW238271   1.810   2.576  10.775  0.7569  0.1961  0.9706
 8937SOL     OW38272   2.121   2.701   1.651 -0.1798 -0.3175 -0.2638
 8937SOL    HW138273   2.113   2.631   1.586 -1.8266 -1.8096  1.5846
 8937SOL    HW238274   2.191   2.756   1.613 -0.7430  0.2619 -0.4619
 8938SOL     OW38275   2.594   1.381   0.838 -0.5250  0.2259 -0.1727
 8938SOL    HW138276   2.678   1.357   0.800 -0.1949  0.5655  0.3458
 8938SOL    HW238277   2.538   1.384   0.760 -1.2576 -1.9775  0.2420
 8939SOL     OW38278   0.002   0.548   2.697  0.0897 -0.0795 -0.1882
 8939SOL    HW138279   0.017   0.642   2.710  0.5144 -0.2184  0.3012
 8939SOL    HW238280   0.090   0.514   2.683  0.3071 -0.1667  1.4167
 8940SOL     OW38281   0.196   4.398   6.758 -0.0301  0.4187  0.0913
 8940SOL    HW138282   0.235   4.325   6.806  1.0910  1.1417  0.2934
 8940SOL    HW238283   0.108   4.365   6.742  0.9879 -1.3956 -1.7614
 8941SOL     OW38284   2.024   1.991  11.430 -0.0895 -0.2549  0.5331
 8941SOL    HW138285   1.942   1.951  11.400  0.7680 -0.0212 -2.1916
 8941SOL    HW238286   2.041   1.929  11.500  1.0859  0.2035  0.6483
 8942SOL     OW38287   3.615   2.630   6.479 -0.4656 -0.1216 -0.2120
 8942SOL    HW138288   3.660   2.613   6.561 -0.7505  1.0966  0.2008
 8942SOL    HW238289   3.613   2.544   6.438  1.0453 -0.4485  0.4044
 8943SOL     OW38290   4.118   0.919  16.559  0.8663 -0.8466  0.1760
 8943SOL    HW138291   4.058   0.932  16.633  0.0735  0.0889 -0.6386
 8943SOL    HW238292   4.053   0.918  16.489 -0.0586 -2.2984  1.0524
 8944SOL     OW38293   3.698   2.300   9.030  0.3617  0.1222  0.1358
 8944SOL    HW138294   3.698   2.301   9.125  0.1884  0.3085  0.1342
 8944SOL    HW238295   3.607   2.297   8.999 -0.3851 -0.2512  2.3706
 8945SOL     OW38296   2.897   3.340  11.146 -0.6092  0.1931  0.7636
 8945SOL    HW138297   2.944   3.411  11.103  0.6477 -0.6989  0.6435
 8945SOL    HW238298   2.818   3.337  11.092 -0.2363 -0.8943  0.2859
 8946SOL     OW38299   2.403   0.355   3.111  0.9219  0.3396 -0.0424
 8946SOL    HW138300   2.489   0.320   3.137  1.2317  1.4658  0.4454
 8946SOL    HW238301   2.425   0.444   3.086  0.6094  0.1703 -0.9130
 8947SOL     OW38302   4.506   4.529   0.415 -0.1806 -0.0625 -0.4902
 8947SOL    HW138303   4.437   4.513   0.479  1.3211  1.1025  1.4661
 8947SOL    HW238304   4.482   4.472   0.343  0.2035  0.2941 -0.9028
 8948SOL     OW38305   1.696   0.175   3.330  0.3991 -0.6128  0.3033
 8948SOL    HW138306   1.747   0.097   3.351 -0.7831 -0.8465  2.2564
 8948SOL    HW238307   1.705   0.182   3.235  0.7129 -1.9656  0.2322
 8949SOL     OW38308   4.264   0.268   7.859  0.4011  0.5952  0.0463
 8949SOL    HW138309   4.305   0.339   7.811 -3.5195  1.3341 -2.2376
 8949SOL    HW238310   4.343   0.228   7.896  0.3180 -0.5069 -0.9331
 8950SOL     OW38311   0.551   1.298   5.166  0.0924  0.1918  0.2701
 8950SOL    HW138312   0.500   1.333   5.093  0.8417  1.6148  0.4312
 8950SOL    HW238313   0.603   1.375   5.188 -0.6018  0.3287  1.4268
 8951SOL     OW38314   3.592   0.478  13.956 -0.5366 -0.1412 -0.3480
 8951SOL    HW138315   3.529   0.525  14.010 -0.5500  1.1880 -1.5093
 8951SOL    HW238316   3.555   0.483  13.868  0.5363  1.7069 -0.6980
 8952SOL     OW38317   2.658   3.656   5.848 -0.8364 -0.3141  0.1185
 8952SOL    HW138318   2.729   3.660   5.913  0.3098 -1.6003 -1.0556
 8952SOL    HW238319   2.596   3.599   5.893 -1.0579 -2.6837 -3.2543
 8953SOL     OW38320   2.022   1.176   3.897 -0.3653  0.0832 -0.1212
 8953SOL    HW138321   2.109   1.191   3.861 -0.4010 -1.7646 -0.9535
 8953SOL    HW238322   1.975   1.255   3.870 -0.2680 -0.1683 -1.0286
 8954SOL     OW38323   2.330   3.668   8.407  0.1099  0.0290  0.2840
 8954SOL    HW138324   2.347   3.725   8.332 -1.5503 -1.2030 -1.0472
 8954SOL    HW238325   2.376   3.708   8.481 -0.9584 -0.2593  1.1166
 8955SOL     OW38326   3.932   2.210  12.894 -0.8629 -0.0866  0.5158
 8955SOL    HW138327   3.885   2.283  12.933  1.0391  2.3880 -1.8209
 8955SOL    HW238328   3.867   2.141  12.903  0.0415 -0.9932  0.0641
 8956SOL     OW38329   2.504   2.101   3.618 -0.1092  0.1996 -0.3453
 8956SOL    HW138330   2.516   2.066   3.706  1.8690  0.5598 -0.4582
 8956SOL    HW238331   2.573   2.168   3.620  0.8957 -0.9017  2.2701
 8957SOL     OW38332   4.165   1.434   5.027 -0.5819  0.0642 -0.0578
 8957SOL    HW138333   4.130   1.402   4.944  0.3749 -1.5137  0.1615
 8957SOL    HW238334   4.098   1.500   5.047 -0.5563  0.3331 -0.8430
 8958SOL     OW38335   3.160   0.591   6.991  0.4998 -0.0965  0.3734
 8958SOL    HW138336   3.199   0.545   6.916  0.3870 -2.2033  1.6260
 8958SOL    HW238337   3.069   0.598   6.963  1.0849  1.6836 -1.0908
 8959SOL     OW38338   0.765   1.663  11.826  0.0398  0.3725  0.1517
 8959SOL    HW138339   0.861   1.662  11.830 -0.0073 -1.9432  1.1398
 8959SOL    HW238340   0.751   1.570  11.845 -1.3303  1.1976  3.2012
 8960SOL     OW38341   1.041   3.427   7.450 -0.0487  0.4151 -0.5086
 8960SOL    HW138342   1.031   3.420   7.355  0.7734 -0.2980 -0.5467
 8960SOL    HW238343   1.039   3.334   7.471 -1.1787  0.7816  0.9849
 8961SOL     OW38344   1.833   2.768   2.962  0.3948 -0.4411  0.0839
 8961SOL    HW138345   1.744   2.762   2.927  0.5525  3.1327 -0.9666
 8961SOL    HW238346   1.868   2.822   2.891  0.3522 -0.6218 -0.0751
 8962SOL     OW38347   2.602   4.583   0.026 -0.3756 -0.1849  0.1976
 8962SOL    HW138348   2.591   4.672   0.058 -2.1637 -0.4177  0.2590
 8962SOL    HW238349   2.662   4.606  17.637  2.9963 -1.6441  2.5921
 8963SOL     OW38350   1.608   3.038  14.301  0.3878 -0.2927 -0.3758
 8963SOL    HW138351   1.626   3.039  14.395  0.6357 -0.2729 -0.4210
 8963SOL    HW238352   1.544   2.969  14.287 -1.7835  2.1489 -2.3887
 8964SOL     OW38353   2.679   2.813   2.808  0.1369  0.4931 -0.3935
 8964SOL    HW138354   2.630   2.761   2.743  0.6561  1.8922 -1.8992
 8964SOL    HW238355   2.764   2.774   2.788  0.6002 -0.1749  2.9233
 8965SOL     OW38356   2.095   4.336   6.003  0.1995  0.3075 -0.0207
 8965SOL    HW138357   2.072   4.248   5.970  2.2343 -0.4747  0.6932
 8965SOL    HW238358   2.025   4.386   5.961  0.5922  0.6073 -0.3095
 8966SOL     OW38359   3.280   0.809   6.693  0.3391  0.6746 -0.1808
 8966SOL    HW138360   3.245   0.889   6.732 -1.1659  0.7070 -1.5971
 8966SOL    HW238361   3.326   0.777   6.771 -2.2117  0.5169  1.2281
 8967SOL     OW38362   0.527   1.443   0.152  0.2574 -0.1484 -0.5830
 8967SOL    HW138363   0.607   1.400   0.183 -0.0108 -0.4800 -0.3526
 8967SOL    HW238364   0.518   1.531   0.188 -0.9744 -0.1819 -0.8098
 8968SOL     OW38365   3.704   0.466   7.104 -0.2070  0.5136 -0.0391
 8968SOL    HW138366   3.702   0.382   7.149 -0.6738  0.8542  0.5699
 8968SOL    HW238367   3.622   0.471   7.054 -0.4819 -0.7989  0.2754
 8969SOL     OW38368   3.349   4.640   7.148 -0.0158 -0.9489 -0.6142
 8969SOL    HW138369   3.357   4.622   7.054 -1.7174  2.5994 -1.4792
 8969SOL    HW238370   3.265   4.684   7.155  0.7713  0.7799 -1.8716
 8970SOL     OW38371   4.518   0.062   1.187 -0.2210  0.9849  0.3009
 8970SOL    HW138372   4.600   0.111   1.182  0.9326 -0.9211  0.3169
 8970SOL    HW238373   4.527   0.004   1.263  0.9007  0.9686  0.1467
 8971SOL     OW38374   2.566   4.038   7.310 -0.1296  0.0932 -0.2895
 8971SOL    HW138375   2.555   3.998   7.224  0.4528 -1.9612  0.6043
 8971SOL    HW238376   2.477   4.055   7.340 -0.0148 -1.4423  0.8882
 8972SOL     OW38377   3.491   2.826   4.365 -0.3265 -0.4801 -0.5916
 8972SOL    HW138378   3.579   2.865   4.368  0.5575 -2.3283 -2.8305
 8972SOL    HW238379   3.446   2.893   4.418  1.3188 -0.9670  1.4191
 8973SOL     OW38380   1.415   2.900   6.614  0.1014  0.1786  0.2533
 8973SOL    HW138381   1.324   2.872   6.605  0.7141 -2.7883  3.1224
 8973SOL    HW238382   1.435   2.860   6.699  0.1519  0.9887  0.6216
 8974SOL     OW38383   1.707   1.406   6.367 -0.7028 -0.2062  0.1154
 8974SOL    HW138384   1.794   1.382   6.335  0.0763  2.5985  0.1321
 8974SOL    HW238385   1.706   1.498   6.342 -1.4595  0.3479  2.2113
 8975SOL     OW38386   2.825   2.945   0.547  0.2459  0.2174 -0.2062
 8975SOL    HW138387   2.890   2.877   0.566 -0.0450 -0.1049 -0.3420
 8975SOL    HW238388   2.794   2.958   0.636 -0.4937  0.2922 -0.4690
 8976SOL     OW38389   1.919   2.373   8.379 -0.3375 -0.3485 -0.0944
 8976SOL    HW138390   1.982   2.307   8.406  0.1075  0.6092  1.2085
 8976SOL    HW238391   1.852   2.317   8.340 -0.4925  0.9749 -1.7317
 8977SOL     OW38392   0.117   0.194   7.805  0.0712 -0.1475  0.8492
 8977SOL    HW138393   0.192   0.145   7.770 -1.6676 -2.7117  0.7044
 8977SOL    HW238394   0.068   0.210   7.724  2.4259 -0.4682 -0.6642
 8978SOL     OW38395   4.323   4.520   0.605  0.0071  0.0253  0.9724
 8978SOL    HW138396   4.329   4.430   0.638  3.0020 -0.2779 -0.3872
 8978SOL    HW238397   4.289   4.570   0.678 -0.6538  2.0691 -0.7431
 8979SOL     OW38398   3.300   3.360   5.753  0.0069 -0.2814  0.2846
 8979SOL    HW138399   3.319   3.393   5.666  2.7166  0.4222  1.1445
 8979SOL    HW238400   3.381   3.386   5.798  0.1794 -0.5313  0.1209
 8980SOL     OW38401   1.147   1.203  12.082 -0.1080  0.2687 -0.3550
 8980SOL    HW138402   1.108   1.263  12.019  0.1455  1.2366  0.4047
 8980SOL    HW238403   1.136   1.118  12.040  0.9448  0.7322 -1.5563
 8981SOL     OW38404   3.306   3.801   7.184 -0.2301  0.0192  0.2824
 8981SOL    HW138405   3.212   3.786   7.173 -0.0547 -1.6663  1.1327
 8981SOL    HW238406   3.302   3.858   7.260 -0.6455 -2.0781  1.8408
 8982SOL     OW38407   1.855   1.978   5.241  0.0311  0.2942  0.0221
 8982SOL    HW138408   1.873   2.068   5.212  3.2457 -0.7158 -1.1213
 8982SOL    HW238409   1.794   1.981   5.315 -0.5279 -0.4046 -0.4022
 8983SOL     OW38410   0.683   4.258   1.982  0.5043  0.8295 -0.6261
 8983SOL    HW138411   0.667   4.345   1.946 -2.0646 -0.3540 -2.4010
 8983SOL    HW238412   0.777   4.243   1.983  0.3533 -0.0839 -0.2803
 8984SOL     OW38413   4.049   0.584   8.216  0.1098 -0.3795  0.0546
 8984SOL    HW138414   4.120   0.638   8.248  0.7925 -0.4539 -1.3311
 8984SOL    HW238415   4.061   0.599   8.122  0.6539 -0.6707  0.0828
 8985SOL     OW38416   2.425   3.133  10.454  0.5809  0.2912  0.0761
 8985SOL    HW138417   2.444   3.049  10.494  2.3350  0.3150 -0.7084
 8985SOL    HW238418   2.488   3.135  10.382 -0.7273 -0.1509 -1.0808
 8986SOL     OW38419   1.571   1.722  12.503 -0.6322 -0.3818 -0.0659
 8986SOL    HW138420   1.557   1.786  12.432  0.9172  2.3096  2.0774
 8986SOL    HW238421   1.664   1.708  12.488 -0.1587  1.5913  1.1074
 8987SOL     OW38422   1.485   2.339   6.536  0.1721  0.3907  0.3669
 8987SOL    HW138423   1.572   2.316   6.502 -0.1256  0.6176 -0.5525
 8987SOL    HW238424   1.496   2.434   6.531  0.8939  0.4404  2.6081
 8988SOL     OW38425   2.524   2.859   3.517 -1.0354  0.0114 -0.0592
 8988SOL    HW138426   2.530   2.764   3.529 -0.5082  0.1547  0.7981
 8988SOL    HW238427   2.586   2.886   3.584 -0.3340  2.5735 -1.7243
 8989SOL     OW38428   2.807   2.083  14.140  0.3705  0.5987 -0.0718
 8989SOL    HW138429   2.794   2.046  14.053  2.5929  3.2339 -1.5168
 8989SOL    HW238430   2.728   2.137  14.149 -1.5577 -2.3755  0.5056
 8990SOL     OW38431   1.496   3.264  14.653  0.6400  0.3639  0.0212
 8990SOL    HW138432   1.451   3.285  14.571  0.1147  1.6582  0.6419
 8990SOL    HW238433   1.528   3.353  14.668  0.3211  0.3586  0.6899
 8991SOL     OW38434   1.513   2.719   8.883  0.0363 -0.1415 -0.7444
 8991SOL    HW138435   1.474   2.732   8.969  0.0514 -3.8854 -0.1538
 8991SOL    HW238436   1.556   2.638   8.911 -0.4544  0.5626  2.0649
 8992SOL     OW38437   3.469   1.049   1.124 -0.6446 -0.2796 -0.2208
 8992SOL    HW138438   3.461   1.120   1.188 -0.9598 -0.9075  0.4404
 8992SOL    HW238439   3.466   1.103   1.045  0.0183 -0.3091 -0.2665
 8993SOL     OW38440   0.936   2.312   8.223 -0.5651 -0.1561  0.0783
 8993SOL    HW138441   0.892   2.363   8.155  0.1824  1.3254  0.7108
 8993SOL    HW238442   0.919   2.221   8.198  0.3839 -0.2141 -0.3175
 8994SOL     OW38443   3.993   4.046  11.769  0.6411  0.2180 -0.1569
 8994SOL    HW138444   4.018   3.969  11.820 -0.3837 -0.1417 -0.2093
 8994SOL    HW238445   3.921   4.005  11.721 -0.6212  0.1366  1.8205
 8995SOL     OW38446   0.546   1.218   9.380  0.4444 -0.3639  0.1190
 8995SOL    HW138447   0.509   1.136   9.411  0.4507 -0.1092  0.8045
 8995SOL    HW238448   0.559   1.200   9.287  0.0060 -2.5902  0.5002
 8996SOL     OW38449   3.535   2.902   7.309 -0.0762  0.1041  0.9447
 8996SOL    HW138450   3.473   2.957   7.357  0.4195  1.0527  0.5082
 8996SOL    HW238451   3.489   2.819   7.320 -0.5129  0.1638 -0.3737
 8997SOL     OW38452   0.587   1.804  11.144 -0.0992 -0.1346 -0.3691
 8997SOL    HW138453   0.655   1.807  11.211 -0.5238 -0.3407  0.0662
 8997SOL    HW238454   0.642   1.757  11.081  0.5799  0.4185 -0.1955
 8998SOL     OW38455   3.259   0.738   8.770 -0.3146  0.8213 -0.1901
 8998SOL    HW138456   3.266   0.821   8.819 -1.9681  1.7057 -1.4506
 8998SOL    HW238457   3.247   0.764   8.679  0.4660  0.7126 -0.3189
 8999SOL     OW38458   2.165   2.350   4.686  0.0061  0.1048  1.0088
 8999SOL    HW138459   2.207   2.275   4.643  0.4836  0.9549 -0.0135
 8999SOL    HW238460   2.171   2.420   4.621 -2.1202  0.4092  1.1454
 9000SOL     OW38461   0.228   4.673   2.460 -0.7829 -0.5670 -0.0612
 9000SOL    HW138462   0.306   4.621   2.481  0.7945  1.9890  0.3401
 9000SOL    HW238463   0.157   4.608   2.457  0.1254 -1.5206 -1.0212
 9001SOL     OW38464   2.845   1.280   0.828 -0.1139  0.1089  0.2143
 9001SOL    HW138465   2.828   1.197   0.783 -0.2240 -0.4510  1.3036
 9001SOL    HW238466   2.883   1.251   0.911 -0.1328 -1.1011 -0.2013
 9002SOL     OW38467   3.993   1.624   5.119 -0.6255  0.1956 -0.4450
 9002SOL    HW138468   3.995   1.712   5.082  1.0972 -0.5131 -2.0361
 9002SOL    HW238469   4.030   1.644   5.204  1.4810  1.0932 -1.5748
 9003SOL     OW38470   4.714   3.225   6.658 -0.2205 -1.2142 -0.8922
 9003SOL    HW138471   4.642   3.243   6.718 -0.7491 -0.3933 -1.7930
 9003SOL    HW238472   4.671   3.246   6.576  0.1939  2.7636 -0.0556
 9004SOL     OW38473   1.431   3.504  12.088 -0.3043 -0.0261 -0.0521
 9004SOL    HW138474   1.522   3.511  12.116 -0.8142  1.4023  1.2499
 9004SOL    HW238475   1.386   3.524  12.170 -2.3682  1.1541 -1.4647
 9005SOL     OW38476   4.345   3.851   9.257  0.2591 -0.2949 -0.0020
 9005SOL    HW138477   4.264   3.812   9.222 -0.5315  1.8339 -0.5232
 9005SOL    HW238478   4.346   3.938   9.219  1.0452 -0.6844 -0.8792
 9006SOL     OW38479   0.955   1.954  16.006 -0.4346 -0.0982  0.4641
 9006SOL    HW138480   0.988   2.018  15.943  1.6357 -0.5238  1.1182
 9006SOL    HW238481   0.868   1.987  16.029  0.3774  1.8913  0.6604
 9007SOL     OW38482   3.938   4.553   8.607 -0.3650  0.1578  0.4254
 9007SOL    HW138483   3.908   4.517   8.523  0.6813  0.9666 -0.2869
 9007SOL    HW238484   3.889   4.635   8.603  0.8364  0.7954 -1.2979
 9008SOL     OW38485   1.896   1.413   4.357  0.2263 -0.4372  0.2676
 9008SOL    HW138486   1.944   1.485   4.397 -0.7323 -0.1130  0.8337
 9008SOL    HW238487   1.893   1.341   4.420  3.0432  0.0610  0.9710
 9009SOL     OW38488   4.055   2.355  14.644  0.0599 -0.2429 -0.1893
 9009SOL    HW138489   3.966   2.323  14.658 -0.0869  0.5996  0.8161
 9009SOL    HW238490   4.048   2.381  14.552 -0.1682  0.0564 -0.0889
 9010SOL     OW38491   0.955   3.881   7.339 -0.0965 -0.1487  0.5051
 9010SOL    HW138492   1.038   3.837   7.319 -0.7696 -0.9241 -0.5351
 9010SOL    HW238493   0.908   3.855   7.260  0.3665 -1.4584  0.6512
 9011SOL     OW38494   3.226   2.881   9.553  0.4581 -0.0211 -0.1008
 9011SOL    HW138495   3.134   2.855   9.553  0.1870  0.9335 -2.8667
 9011SOL    HW238496   3.228   2.950   9.487 -1.3472  1.0352  0.9313
 9012SOL     OW38497   3.136   0.751   3.993 -0.0831 -0.0360  0.0966
 9012SOL    HW138498   3.121   0.845   3.988 -1.4557 -0.3838 -2.2883
 9012SOL    HW238499   3.142   0.750   4.089  2.1635 -3.4315 -0.0611
 9013SOL     OW38500   2.783   3.962   7.742  0.1787  0.2479  0.1356
 9013SOL    HW138501   2.689   3.946   7.752  0.3737 -1.2108 -0.3415
 9013SOL    HW238502   2.792   3.956   7.647  0.4785 -1.8311  0.2936
 9014SOL     OW38503   3.287   0.481   6.027 -0.1475 -0.0512  0.5524
 9014SOL    HW138504   3.321   0.537   6.096  0.6498  1.8539 -1.4140
 9014SOL    HW238505   3.201   0.522   6.021  0.4437  1.3024  1.4574
 9015SOL     OW38506   0.259   0.957   7.890  0.3331 -0.3507 -0.0479
 9015SOL    HW138507   0.261   1.013   7.968 -1.6840  0.1498 -0.3536
 9015SOL    HW238508   0.348   0.944   7.860  0.4844 -0.1405  0.3119
 9016SOL     OW38509   0.655   0.026   3.344 -0.3718  0.1176 -0.2044
 9016SOL    HW138510   0.582   4.719   3.288 -0.1910 -0.2227 -0.2807
 9016SOL    HW238511   0.694   0.104   3.305  0.8555 -0.1833  0.3990
 9017SOL     OW38512   3.064   4.293  11.874 -0.1305  0.3230 -0.2701
 9017SOL    HW138513   3.033   4.335  11.954 -2.0969  0.8806 -1.3099
 9017SOL    HW238514   3.151   4.256  11.891 -1.7576 -2.8892  1.0269
 9018SOL     OW38515   1.840   1.318   2.449 -0.1175 -0.3671  0.0190
 9018SOL    HW138516   1.845   1.227   2.421 -2.7955 -0.5723  0.1822
 9018SOL    HW238517   1.884   1.315   2.534  0.3747 -1.2293 -0.2739
 9019SOL     OW38518   3.672   2.640   7.788  0.7006 -0.4364 -0.3336
 9019SOL    HW138519   3.689   2.622   7.880  0.4940  0.3072 -0.1506
 9019SOL    HW238520   3.733   2.579   7.745 -1.9055 -2.4740 -1.1523
 9020SOL     OW38521   2.353   1.947   9.311  0.3513  0.2035 -0.0427
 9020SOL    HW138522   2.402   1.876   9.354  0.8470  0.8414  0.4392
 9020SOL    HW238523   2.424   1.990   9.264 -0.0235  1.0235  0.1505
 9021SOL     OW38524   1.120   2.162   3.634  0.9868  0.3239 -0.2400
 9021SOL    HW138525   1.116   2.251   3.598 -1.6815 -0.2156 -1.3047
 9021SOL    HW238526   1.061   2.170   3.709 -1.1276  2.7224 -2.1471
 9022SOL     OW38527   0.112   1.194   8.127 -0.0056  0.6007  0.5587
 9022SOL    HW138528   0.083   1.247   8.053  0.7655 -2.2533 -1.7988
 9022SOL    HW238529   0.059   1.234   8.196 -0.3455  1.8359 -0.4277
 9023SOL     OW38530   0.170   3.143   6.007  0.3231 -0.1915  0.0909
 9023SOL    HW138531   0.195   3.152   5.915 -0.4160  1.0885  0.0223
 9023SOL    HW238532   0.085   3.100   5.995 -0.6437  0.4915  4.5427
 9024SOL     OW38533   4.612   1.015   5.055 -0.2135  0.1653  0.8556
 9024SOL    HW138534   4.548   1.013   4.984  0.5779  1.3147  0.1021
 9024SOL    HW238535   4.677   1.078   5.023  1.9887 -2.8156 -0.5478
 9025SOL     OW38536   3.026   3.259  10.232 -0.0044 -0.1024  0.6385
 9025SOL    HW138537   3.092   3.325  10.255  1.0998 -0.7615 -0.6853
 9025SOL    HW238538   2.946   3.313  10.239  0.1197  0.0223  1.1183
 9026SOL     OW38539   3.566   3.315   7.628 -1.0031  0.9082 -0.2142
 9026SOL    HW138540   3.525   3.352   7.706  0.4756 -0.0309  1.0276
 9026SOL    HW238541   3.648   3.281   7.665 -1.4952  1.9227  1.7945
 9027SOL     OW38542   3.289   2.742   5.980  0.0080  0.2876 -0.5918
 9027SOL    HW138543   3.384   2.733   5.990 -0.5760 -4.6662  0.4690
 9027SOL    HW238544   3.262   2.665   5.930 -0.0980 -1.0490  1.5346
 9028SOL     OW38545   1.603   2.409   7.551  0.6158  0.1033 -0.8761
 9028SOL    HW138546   1.530   2.347   7.554  0.2130  0.6159 -0.1072
 9028SOL    HW238547   1.644   2.408   7.637 -0.2086 -0.0366 -0.4829
 9029SOL     OW38548   4.462   0.696   1.403  0.2298  0.7210  0.0687
 9029SOL    HW138549   4.432   0.733   1.486  3.4548  0.4369  1.3528
 9029SOL    HW238550   4.511   0.771   1.369  0.3395 -0.0402 -1.4404
 9030SOL     OW38551   0.181   0.980   4.629 -0.4379  0.8879 -0.1697
 9030SOL    HW138552   0.208   0.916   4.563  2.0305 -0.3397  2.0388
 9030SOL    HW238553   0.245   0.965   4.698 -2.6042  1.9914  2.0585
 9031SOL     OW38554   3.068   1.690   4.690  0.0322  0.1787  0.2163
 9031SOL    HW138555   3.088   1.746   4.765  1.0504 -0.8961  0.7553
 9031SOL    HW238556   2.975   1.710   4.678 -0.0371 -0.0455  0.3680
 9032SOL     OW38557   2.475   0.674   2.166  0.2346 -0.0208  0.2248
 9032SOL    HW138558   2.455   0.653   2.257  0.4622 -0.6947  0.1226
 9032SOL    HW238559   2.445   0.593   2.125 -1.1137  0.5422  0.1275
 9033SOL     OW38560   3.245   2.218   3.599  0.3748 -0.3423  0.0327
 9033SOL    HW138561   3.335   2.189   3.583 -0.1064 -1.7007 -0.2618
 9033SOL    HW238562   3.238   2.302   3.554 -1.1055  0.0673  1.0505
 9034SOL     OW38563   4.095   4.460   7.639 -0.1024 -0.4162  0.2826
 9034SOL    HW138564   4.048   4.450   7.557 -0.2438 -0.7828  0.4092
 9034SOL    HW238565   4.052   4.535   7.680  0.2393 -0.7994  1.3536
 9035SOL     OW38566   2.344   2.248   2.742 -0.3137  0.5141 -0.0217
 9035SOL    HW138567   2.391   2.316   2.694  0.5456 -1.0906 -1.4796
 9035SOL    HW238568   2.257   2.242   2.702  0.1260 -2.9593 -0.5108
 9036SOL     OW38569   0.320   4.109  12.281 -0.7530 -0.2052  0.1136
 9036SOL    HW138570   0.399   4.070  12.318  0.2949  0.0348 -1.8648
 9036SOL    HW238571   0.356   4.195  12.259 -1.5551 -0.0195 -0.4878
 9037SOL     OW38572   0.499   2.037   5.651 -0.3765  0.5478 -0.0875
 9037SOL    HW138573   0.469   2.006   5.565  1.3347 -0.0692 -0.4523
 9037SOL    HW238574   0.541   2.122   5.639  1.2982 -0.4052 -0.9139
 9038SOL     OW38575   2.191   2.619   2.300 -0.0350  0.1844 -0.4074
 9038SOL    HW138576   2.097   2.631   2.287 -0.1847 -0.0151  0.4544
 9038SOL    HW238577   2.233   2.663   2.226 -1.3222 -1.0017 -1.8255
 9039SOL     OW38578   4.301   4.708   2.227  0.1556  0.3112  0.1233
 9039SOL    HW138579   4.372   4.665   2.276  1.0122  0.5024 -0.9566
 9039SOL    HW238580   4.272   0.055   2.289  0.6758  0.6682 -0.0164
 9040SOL     OW38581   2.676   1.400   4.099  0.2845 -0.0508  0.7144
 9040SOL    HW138582   2.601   1.441   4.056  0.3647 -0.2025  0.4307
 9040SOL    HW238583   2.745   1.407   4.033  0.0559 -1.9911  0.2660
 9041SOL     OW38584   0.163   1.789   7.906 -0.3232 -0.4047  0.1052
 9041SOL    HW138585   0.137   1.721   7.844 -2.0133  0.2582  0.1056
 9041SOL    HW238586   0.225   1.835   7.849 -0.1931 -1.5148 -0.6549
 9042SOL     OW38587   0.594   3.962  11.385  0.0091  0.0470  0.1240
 9042SOL    HW138588   0.534   3.984  11.313 -2.7502 -0.7314  2.1793
 9042SOL    HW238589   0.664   3.929  11.328  0.0401 -0.5872  0.5302
 9043SOL     OW38590   2.005   4.101   1.630 -0.4665  0.0307 -0.2303
 9043SOL    HW138591   1.997   4.138   1.718 -1.7621  1.6883 -1.0443
 9043SOL    HW238592   1.911   4.115   1.618 -0.9592 -0.9375  2.5149
 9044SOL     OW38593   2.141   3.777   4.658  0.0233  0.1704 -0.1958
 9044SOL    HW138594   2.170   3.768   4.567  1.3583 -0.3496  0.2815
 9044SOL    HW238595   2.047   3.793   4.658 -0.1452 -0.8124  0.0327
 9045SOL     OW38596   0.777   2.008   8.906 -0.0963  0.0698 -0.0795
 9045SOL    HW138597   0.834   1.985   8.980  0.1888 -0.9375 -0.6055
 9045SOL    HW238598   0.694   1.973   8.939 -0.7921  2.3192  0.5131
 9046SOL     OW38599   1.747   2.257   3.657  0.6492  0.2590  0.1341
 9046SOL    HW138600   1.724   2.331   3.601 -0.3240 -1.1572 -1.3588
 9046SOL    HW238601   1.707   2.276   3.741  2.0245 -1.3768  1.1571
 9047SOL     OW38602   1.184   1.475   7.050  0.2337 -0.3213 -0.2314
 9047SOL    HW138603   1.253   1.408   7.042  1.0840  0.6580 -1.0255
 9047SOL    HW238604   1.109   1.421   7.074 -0.6410  0.5191 -1.0684
 9048SOL     OW38605   3.831   0.110   7.389  0.3840 -0.4107 -0.7831
 9048SOL    HW138606   3.829   0.015   7.381  2.3700 -0.4311 -0.8071
 9048SOL    HW238607   3.821   0.133   7.297  0.2786 -0.0432 -0.6833
 9049SOL     OW38608   1.654   0.662   3.042 -0.5788  1.1039  0.0073
 9049SOL    HW138609   1.694   0.578   3.020 -0.6897  0.6056  1.7151
 9049SOL    HW238610   1.635   0.691   2.953  0.9702 -1.2448 -1.0829
 9050SOL     OW38611   1.771   1.059   2.365  0.1411 -0.0958 -0.0752
 9050SOL    HW138612   1.676   1.047   2.363  0.3061 -1.2295 -1.4883
 9050SOL    HW238613   1.798   1.020   2.282  2.1285  1.2944 -0.0877
 9051SOL     OW38614   1.512   3.284   5.358 -0.5682  0.4771 -0.8431
 9051SOL    HW138615   1.603   3.312   5.363 -1.5300  3.4674 -0.1454
 9051SOL    HW238616   1.521   3.190   5.340 -1.3678  0.1505  0.4887
 9052SOL     OW38617   0.789   3.826  12.469  0.4258 -0.3720  0.5175
 9052SOL    HW138618   0.721   3.824  12.536 -0.4548  0.1161 -0.3641
 9052SOL    HW238619   0.771   3.743  12.426  1.5539 -0.0809 -0.5493
 9053SOL     OW38620   3.143   2.034   8.481 -0.5581 -0.5428  0.2510
 9053SOL    HW138621   3.185   1.949   8.469  0.4439 -0.2427  1.5900
 9053SOL    HW238622   3.108   2.038   8.570  1.7835  0.9472  1.1025
 9054SOL     OW38623   1.688   3.548   3.761  0.4019 -0.3246  0.5327
 9054SOL    HW138624   1.712   3.565   3.670 -3.1944  1.0390 -0.1573
 9054SOL    HW238625   1.669   3.639   3.783 -1.2116 -0.8271  1.2650
 9055SOL     OW38626   0.292   0.987   2.956 -0.1499 -0.0761  0.1203
 9055SOL    HW138627   0.375   0.991   2.909  2.0573 -0.0736  4.0314
 9055SOL    HW238628   0.236   1.056   2.919 -0.1828 -0.0944  0.1353
 9056SOL     OW38629   1.180   3.098  11.145  0.2220 -0.4354 -0.7182
 9056SOL    HW138630   1.099   3.150  11.139  0.3250 -0.4184 -1.8406
 9056SOL    HW238631   1.239   3.173  11.140 -0.0290 -0.1783  0.2022
 9057SOL     OW38632   3.787   1.890  13.784 -0.1886 -0.0060 -0.4497
 9057SOL    HW138633   3.878   1.879  13.759  1.1991  2.6879  3.4109
 9057SOL    HW238634   3.800   1.892  13.878 -0.6416  1.6643 -0.4232
 9058SOL     OW38635   1.927   3.750   8.062 -0.3706 -0.0130 -0.6239
 9058SOL    HW138636   1.903   3.739   7.970 -1.0061 -1.1914 -0.3176
 9058SOL    HW238637   1.852   3.756   8.122  1.1465 -0.9699  1.3547
 9059SOL     OW38638   2.516   0.300   7.771 -0.2600  0.6807  0.2588
 9059SOL    HW138639   2.511   0.362   7.698 -0.4242  0.2810 -0.0718
 9059SOL    HW238640   2.611   0.306   7.783 -0.5534  1.0624  2.4535
 9060SOL     OW38641   0.760   3.113   4.120  0.0898  0.0446  0.7271
 9060SOL    HW138642   0.794   3.100   4.032  0.5398  0.7067  0.8039
 9060SOL    HW238643   0.665   3.113   4.107  0.1349  1.6646  0.3784
 9061SOL     OW38644   4.524   3.944   5.343 -0.3572 -0.6189 -0.1600
 9061SOL    HW138645   4.559   4.004   5.408  1.0085 -0.9145 -0.6201
 9061SOL    HW238646   4.604   3.922   5.297 -1.3959  0.6164 -2.5626
 9062SOL     OW38647   0.665   3.910   6.903 -0.1108 -0.0454  0.1581
 9062SOL    HW138648   0.693   3.818   6.905 -0.8681 -0.2749  0.1213
 9062SOL    HW238649   0.577   3.897   6.939 -0.1052 -1.3489 -0.2917
 9063SOL     OW38650   0.816   4.147   5.871 -0.4506 -0.0875 -0.3063
 9063SOL    HW138651   0.828   4.069   5.925  0.6455  0.0887 -0.3000
 9063SOL    HW238652   0.770   4.106   5.797  2.8655 -0.0304 -2.3840
 9064SOL     OW38653   2.855   3.584   3.633 -0.3890  0.5741 -0.1304
 9064SOL    HW138654   2.826   3.574   3.724  0.8704 -1.8726  0.0092
 9064SOL    HW238655   2.946   3.553   3.632 -0.0891  1.4602  0.2929
 9065SOL     OW38656   1.646   2.865   0.980 -0.3872  0.4327 -0.0095
 9065SOL    HW138657   1.571   2.922   0.964 -0.3502 -0.4572 -3.3351
 9065SOL    HW238658   1.709   2.938   0.988  0.7655 -0.5949  0.3089
 9066SOL     OW38659   3.175   3.640   3.203  0.2586  0.0184 -0.3228
 9066SOL    HW138660   3.167   3.574   3.272 -0.1837  1.6358  1.1860
 9066SOL    HW238661   3.194   3.581   3.130 -0.6307 -1.3008  0.4951
 9067SOL     OW38662   2.830   2.620   6.527 -0.3806 -0.1660  0.4172
 9067SOL    HW138663   2.818   2.714   6.541 -2.3270 -0.2011 -1.0547
 9067SOL    HW238664   2.861   2.618   6.437  0.0186  0.9818  0.5309
 9068SOL     OW38665   0.966   2.272   1.131  0.0509  0.8990  0.0506
 9068SOL    HW138666   0.988   2.191   1.085 -0.0872 -0.1706  1.8512
 9068SOL    HW238667   0.906   2.316   1.071  0.1008  0.7320 -0.1206
 9069SOL     OW38668   3.053   0.182   4.143  0.9331  0.0555  0.4025
 9069SOL    HW138669   3.095   0.145   4.065  1.0406  3.5712 -1.1910
 9069SOL    HW238670   2.980   0.225   4.097  0.8230 -0.7767 -0.2166
 9070SOL     OW38671   2.167   3.409   0.714  0.4580  0.5765  0.6779
 9070SOL    HW138672   2.128   3.328   0.681  0.8559  1.1979 -1.3148
 9070SOL    HW238673   2.103   3.476   0.689 -0.6526 -0.5416  0.4962
 9071SOL     OW38674   0.673   1.850  17.135 -0.0443  0.1280  0.3662
 9071SOL    HW138675   0.608   1.915  17.162 -2.2798 -1.7334 -0.5164
 9071SOL    HW238676   0.633   1.774  17.176  0.0743  0.3936  0.9666
 9072SOL     OW38677   1.010   0.514   8.788 -0.1985 -0.6572 -0.6248
 9072SOL    HW138678   1.104   0.523   8.772 -0.5547  0.9061 -1.8579
 9072SOL    HW238679   1.006   0.584   8.853  3.5522 -1.2348  0.2157
 9073SOL     OW38680   3.483   2.451   5.588 -0.6547 -0.4804 -0.0183
 9073SOL    HW138681   3.482   2.519   5.520 -0.5963 -1.1006 -0.6469
 9073SOL    HW238682   3.410   2.401   5.552 -0.7956 -1.0588  1.0701
 9074SOL     OW38683   4.058   1.244   2.870  0.2231  0.6254  0.3709
 9074SOL    HW138684   3.977   1.203   2.899 -0.1550 -0.4602 -2.1447
 9074SOL    HW238685   4.116   1.170   2.890 -0.8059 -0.3516 -0.2797
 9075SOL     OW38686   3.829   3.669  10.610  0.3935 -0.0319 -0.5466
 9075SOL    HW138687   3.771   3.598  10.636 -1.2001  1.2799 -0.5342
 9075SOL    HW238688   3.815   3.680  10.516  1.5845 -0.8803 -0.8184
 9076SOL     OW38689   2.822   0.869   6.721  0.2688  0.0267 -0.7460
 9076SOL    HW138690   2.727   0.867   6.712  0.3611 -0.6082 -1.5606
 9076SOL    HW238691   2.832   0.935   6.790  2.7112  0.5802 -1.6202
 9077SOL     OW38692   0.358   3.448   8.775 -0.1952  0.0763 -0.4745
 9077SOL    HW138693   0.423   3.490   8.832  0.9854  0.4607 -2.0926
 9077SOL    HW238694   0.330   3.371   8.824 -0.2252  0.1557 -0.3685
 9078SOL     OW38695   1.237   4.468   0.477 -0.0201  0.1002 -0.1787
 9078SOL    HW138696   1.259   4.558   0.452 -0.4040  0.4749  0.8459
 9078SOL    HW238697   1.318   4.420   0.459  0.2135  0.8515 -1.1449
 9079SOL     OW38698   2.510   1.857  14.159 -0.0418 -0.0235 -0.3959
 9079SOL    HW138699   2.525   1.799  14.084 -1.1256  0.6434 -1.1358
 9079SOL    HW238700   2.477   1.936  14.117 -1.3478  1.6179  3.7147
 9080SOL     OW38701   3.920   4.685   4.938 -0.2630  0.4712  0.2270
 9080SOL    HW138702   3.888   0.049   4.970 -0.3384  0.3033  0.5919
 9080SOL    HW238703   3.991   4.716   4.881  0.3633 -1.4902 -0.0601
 9081SOL     OW38704   4.199   0.529  10.804  0.1253  0.0660 -0.2828
 9081SOL    HW138705   4.232   0.510  10.891  0.3335  0.1584 -0.3419
 9081SOL    HW238706   4.200   0.438  10.775  2.5629 -0.2214  0.7257
 9082SOL     OW38707   2.430   3.146  14.957  0.1484  0.5138 -0.1181
 9082SOL    HW138708   2.344   3.112  14.981  0.5107 -1.1432 -1.1591
 9082SOL    HW238709   2.397   3.195  14.882  0.2014  0.6340 -0.0622
 9083SOL     OW38710   4.444   1.533   3.049 -0.6704 -0.5333  0.4707
 9083SOL    HW138711   4.433   1.442   3.020 -2.7600 -0.9978  2.7065
 9083SOL    HW238712   4.445   1.572   2.962 -2.9036  0.4645  0.8789
 9084SOL     OW38713   2.485   2.752   4.961 -0.0652  0.0159  0.2686
 9084SOL    HW138714   2.459   2.766   5.053 -0.0142  0.6320  0.1938
 9084SOL    HW238715   2.536   2.673   4.975  0.4054  0.1530 -0.6643
 9085SOL     OW38716   1.420   0.760   6.856  0.9808  0.1339 -0.1427
 9085SOL    HW138717   1.408   0.736   6.764 -2.6569 -0.1057  0.4059
 9085SOL    HW238718   1.342   0.714   6.888  1.0866 -1.3561 -2.0513
 9086SOL     OW38719   2.144   2.584   7.955 -0.2921 -0.5516 -0.0754
 9086SOL    HW138720   2.211   2.625   7.900 -0.3833  0.8431  0.8466
 9086SOL    HW238721   2.162   2.631   8.036  0.5173 -0.9228 -0.0407
 9087SOL     OW38722   0.783   2.033   9.861  0.5456  0.1555  0.2101
 9087SOL    HW138723   0.702   1.988   9.886 -0.6544  1.5522 -1.1003
 9087SOL    HW238724   0.746   2.110   9.817 -0.5035  0.2265  1.2249
 9088SOL     OW38725   4.000   4.427   8.111 -0.2153  0.1111 -0.1599
 9088SOL    HW138726   4.011   4.371   8.034 -0.8953 -1.8246  1.1471
 9088SOL    HW238727   4.066   4.392   8.171 -0.6007  2.2609  1.5195
 9089SOL     OW38728   2.333   4.113   2.890 -0.8959 -0.0054  0.0401
 9089SOL    HW138729   2.264   4.049   2.870 -1.4619  0.1877  1.4353
 9089SOL    HW238730   2.399   4.101   2.822  0.7377 -1.0936  1.8252
 9090SOL     OW38731   3.186   3.325  15.865 -0.3844  0.3310  0.0690
 9090SOL    HW138732   3.274   3.315  15.899 -0.6141 -2.4079 -0.1055
 9090SOL    HW238733   3.189   3.416  15.837  1.3920 -0.1023 -1.1215
 9091SOL     OW38734   1.826   3.214  15.208 -0.3803  0.1289  0.3168
 9091SOL    HW138735   1.921   3.204  15.208 -0.0166  3.5444  0.6132
 9091SOL    HW238736   1.812   3.288  15.267 -2.2095 -0.9099  1.1855
 9092SOL     OW38737   0.658   4.363   7.183  0.3092 -0.5735 -0.8222
 9092SOL    HW138738   0.617   4.418   7.117  0.9524 -1.9415 -2.3399
 9092SOL    HW238739   0.648   4.277   7.143 -0.6331  0.2256 -2.2729
 9093SOL     OW38740   2.464   2.104   5.638 -0.3871  0.1010 -0.1482
 9093SOL    HW138741   2.494   2.088   5.728 -0.9000 -1.8466 -0.3347
 9093SOL    HW238742   2.549   2.107   5.594 -1.5664  0.0847 -2.4127
 9094SOL     OW38743   4.514   1.914   7.488 -0.2786 -0.3312  0.0398
 9094SOL    HW138744   4.489   1.926   7.580  2.3813  2.1887  0.4340
 9094SOL    HW238745   4.609   1.923   7.486 -0.2981 -0.2303 -0.5030
 9095SOL     OW38746   2.079   4.208   5.233  0.3321  0.5149 -0.2012
 9095SOL    HW138747   2.065   4.146   5.304 -2.7505  0.2113 -1.1006
 9095SOL    HW238748   2.103   4.144   5.165 -0.1309  0.2666 -0.1269
 9096SOL     OW38749   4.010   0.166   5.252  0.0366 -0.1868  0.4134
 9096SOL    HW138750   4.000   0.168   5.347  0.4408  1.8290  0.4033
 9096SOL    HW238751   3.924   0.202   5.229 -1.2080 -2.4743  1.4373
 9097SOL     OW38752   2.339   2.589   1.173  0.1639  0.1621 -0.9661
 9097SOL    HW138753   2.263   2.584   1.115 -0.7081  1.7907  0.0280
 9097SOL    HW238754   2.352   2.495   1.186 -3.2348  0.2065  2.5070
 9098SOL     OW38755   2.904   4.282   6.814  0.1576  0.1053 -0.3086
 9098SOL    HW138756   2.932   4.194   6.839 -1.4110  0.1659  1.7040
 9098SOL    HW238757   2.970   4.340   6.851 -0.1694  0.8762 -0.9206
 9099SOL     OW38758   1.602   3.904   6.755 -0.0937 -0.1205  0.2746
 9099SOL    HW138759   1.596   3.823   6.706 -0.3124 -0.2240  0.4664
 9099SOL    HW238760   1.695   3.925   6.764 -0.5286  1.8828  0.1202
 9100SOL     OW38761   0.379   3.295  12.128  0.2990 -0.8029 -0.5290
 9100SOL    HW138762   0.414   3.230  12.189 -0.0754  0.4386  1.0098
 9100SOL    HW238763   0.300   3.328  12.172  1.2468 -3.2031  3.0242
 9101SOL     OW38764   3.996   4.504   2.492 -0.0907  0.4818  0.1540
 9101SOL    HW138765   3.991   4.512   2.397 -1.1427  0.4644  0.2066
 9101SOL    HW238766   3.904   4.480   2.504  0.4483 -0.7279  1.9042
 9102SOL     OW38767   3.356   2.955  14.681  0.0572  0.5480 -0.1154
 9102SOL    HW138768   3.436   2.931  14.729  0.3643 -2.1781 -2.0075
 9102SOL    HW238769   3.343   3.046  14.707 -3.4254  0.2910 -1.0127
 9103SOL     OW38770   0.787   0.530   9.131 -0.8430 -0.1161 -0.1205
 9103SOL    HW138771   0.751   0.619   9.131  2.1500  1.0904 -0.1627
 9103SOL    HW238772   0.883   0.538   9.130 -1.0182  1.7401 -1.7524
 9104SOL     OW38773   4.616   3.163  12.422  0.1385  0.5445 -0.6037
 9104SOL    HW138774   4.601   3.207  12.506  0.3722  0.5344 -0.5573
 9104SOL    HW238775   4.701   3.129  12.452 -0.3357  0.0376  0.1509
 9105SOL     OW38776   1.647   2.417   1.370 -0.5733 -0.4793  0.0805
 9105SOL    HW138777   1.643   2.476   1.295  1.6250 -1.2478 -0.6617
 9105SOL    HW238778   1.575   2.355   1.358  0.1677 -1.5803  1.2554
 9106SOL     OW38779   3.496   0.481   1.045 -0.1519 -0.3672 -0.1391
 9106SOL    HW138780   3.504   0.545   1.117 -0.5516 -0.9831  0.4541
 9106SOL    HW238781   3.554   0.520   0.980  1.8983 -0.9775  1.3169
 9107SOL     OW38782   0.380   0.457   6.991  0.0969  0.1216 -0.6427
 9107SOL    HW138783   0.441   0.390   7.023 -0.1949  0.3032  0.3076
 9107SOL    HW238784   0.437   0.515   6.941 -0.1425 -0.4600 -1.5979
 9108SOL     OW38785   0.910   0.901  16.903 -0.0575  0.4249  0.2790
 9108SOL    HW138786   0.921   0.959  16.977  1.1475  0.2465  0.2356
 9108SOL    HW238787   0.814   0.908  16.895 -0.2194 -1.3910  0.4864
 9109SOL     OW38788   1.864   1.064   0.231 -0.2374  0.2909 -0.5488
 9109SOL    HW138789   1.872   0.968   0.223 -1.7528 -0.0320  1.7685
 9109SOL    HW238790   1.848   1.085   0.139  0.2082  1.6657 -0.3118
 9110SOL     OW38791   1.409   3.042  15.295  0.0968  0.2500 -0.5611
 9110SOL    HW138792   1.412   3.007  15.383 -0.3259 -2.7472 -1.7381
 9110SOL    HW238793   1.333   2.993  15.265  1.2338 -2.3622  0.8390
 9111SOL     OW38794   0.974   2.000   9.157 -0.6621  0.4178  0.1225
 9111SOL    HW138795   1.024   2.080   9.143 -0.9477  0.4575 -0.6964
 9111SOL    HW238796   0.966   2.006   9.252  0.8407  0.7506  0.2236
 9112SOL     OW38797   1.360   4.606   6.437 -0.5796 -0.1100 -0.0652
 9112SOL    HW138798   1.278   4.628   6.393  0.2223  0.6089 -1.2199
 9112SOL    HW238799   1.340   4.536   6.499 -0.4366  0.8758  1.0848
 9113SOL     OW38800   4.713   2.223   8.699  0.2450  0.3760  0.0558
 9113SOL    HW138801   4.703   2.318   8.698 -0.1668  0.3145 -1.7540
 9113SOL    HW238802   4.673   2.194   8.781 -0.5173  0.9534 -0.1144
 9114SOL     OW38803   1.851   2.000   6.539 -0.1670 -0.1037 -0.0715
 9114SOL    HW138804   1.826   2.042   6.457  0.6170  0.3166 -0.0960
 9114SOL    HW238805   1.874   2.079   6.587  0.8462 -2.4757  3.3448
 9115SOL     OW38806   3.255   3.164   6.559  0.1625 -0.3905  0.2038
 9115SOL    HW138807   3.177   3.109   6.549 -2.5149  3.4559  0.0239
 9115SOL    HW238808   3.304   3.134   6.482 -1.1861 -0.3813 -0.6480
 9116SOL     OW38809   2.862   2.896  17.074  0.3070  0.2356  0.6361
 9116SOL    HW138810   2.778   2.927  17.108 -0.5171 -1.2547 -0.0495
 9116SOL    HW238811   2.883   2.969  17.016  0.7628  0.8308  1.5540
 9117SOL     OW38812   3.368   2.662  14.490  0.1227 -0.1209  0.3220
 9117SOL    HW138813   3.420   2.674  14.410  0.2718 -1.1323  0.2671
 9117SOL    HW238814   3.408   2.718  14.557  0.1960  0.3715 -0.1317
 9118SOL     OW38815   2.320   2.701  15.789 -0.1295  0.0034 -0.3189
 9118SOL    HW138816   2.372   2.719  15.710 -1.2294  3.4057 -0.2570
 9118SOL    HW238817   2.359   2.616  15.811 -0.8514 -0.4687 -0.8676
 9119SOL     OW38818   3.869   4.196   7.601  0.2230  0.4009  0.0826
 9119SOL    HW138819   3.879   4.183   7.507 -4.6426  0.7987 -0.4534
 9119SOL    HW238820   3.854   4.103   7.622 -1.3065  0.3642 -1.2146
 9120SOL     OW38821   2.281   2.587  16.777 -0.1083  0.3942 -0.0466
 9120SOL    HW138822   2.234   2.669  16.763 -2.3860 -1.1237 -1.3257
 9120SOL    HW238823   2.363   2.610  16.733  0.5108 -0.8647  0.4337
 9121SOL     OW38824   0.275   1.700  13.859 -0.6005  0.7413  0.1915
 9121SOL    HW138825   0.186   1.686  13.825  0.1873  0.1197 -1.6375
 9121SOL    HW238826   0.289   1.792  13.834 -2.0845  0.7771 -0.5368
 9122SOL     OW38827   4.131   0.694   8.646  0.0229 -0.3754 -0.4288
 9122SOL    HW138828   4.150   0.626   8.582  0.6572  0.5009 -1.1573
 9122SOL    HW238829   4.142   0.776   8.599  4.3132 -1.0363 -0.6053
 9123SOL     OW38830   2.568   3.251  13.518 -0.3360 -1.1261  0.3161
 9123SOL    HW138831   2.652   3.283  13.553  0.6013  0.5401 -3.3533
 9123SOL    HW238832   2.585   3.157  13.521  2.3611 -0.6687  0.0338
 9124SOL     OW38833   3.940   4.574   3.566 -0.8237 -0.3160 -0.3296
 9124SOL    HW138834   3.893   4.640   3.618 -1.1269  1.1837 -2.4922
 9124SOL    HW238835   3.881   4.500   3.578 -0.3872 -0.6797 -0.4514
 9125SOL     OW38836   0.211   1.620  10.266 -0.1190 -0.6871  0.4597
 9125SOL    HW138837   0.297   1.595  10.301 -0.1723  1.0028  1.8386
 9125SOL    HW238838   0.232   1.705  10.228  0.3315 -0.0403  2.1154
 9126SOL     OW38839   1.689   0.611   2.183 -0.0615 -0.1763  0.2090
 9126SOL    HW138840   1.781   0.607   2.210  0.2793 -1.4499 -1.1617
 9126SOL    HW238841   1.646   0.681   2.233 -0.4482  0.1141 -0.5117
 9127SOL     OW38842   1.435   0.752   3.167 -0.3695  0.8368 -0.8928
 9127SOL    HW138843   1.514   0.713   3.131 -0.6169 -0.8350  0.3341
 9127SOL    HW238844   1.370   0.704   3.116 -0.4761  0.8378 -0.7609
 9128SOL     OW38845   2.743   3.447   2.545  0.0337  0.4847 -0.4874
 9128SOL    HW138846   2.824   3.413   2.583 -0.2399 -1.3032 -1.4966
 9128SOL    HW238847   2.740   3.401   2.461  1.8563  0.4909 -0.5555
 9129SOL     OW38848   1.032   3.912   3.884 -0.2042  0.4213 -0.2471
 9129SOL    HW138849   0.989   3.856   3.949  1.8084 -2.4526 -1.3660
 9129SOL    HW238850   1.107   3.862   3.851 -0.7267 -0.1941 -0.5105
 9130SOL     OW38851   4.055   3.515  10.645 -0.1265  0.3749 -0.3765
 9130SOL    HW138852   4.095   3.517  10.557  3.6636 -0.1550  1.3288
 9130SOL    HW238853   3.994   3.589  10.640 -0.8133 -0.1325  0.5585
 9131SOL     OW38854   3.521   1.914   0.882  0.3420  0.6220 -0.0017
 9131SOL    HW138855   3.445   1.901   0.939  1.0902 -2.4818  0.2971
 9131SOL    HW238856   3.504   1.874   0.797 -0.2161 -1.5133  1.1127
 9132SOL     OW38857   0.723   0.023  16.174  0.0973 -0.0271 -0.3419
 9132SOL    HW138858   0.661   4.701  16.115 -0.6352  0.9758 -0.2739
 9132SOL    HW238859   0.691   0.112  16.162  0.9293  0.0604 -1.9056
 9133SOL     OW38860   0.838   0.269   9.541 -0.2604  0.4385 -0.1127
 9133SOL    HW138861   0.810   0.193   9.592  0.5981 -1.3596 -2.3105
 9133SOL    HW238862   0.760   0.292   9.491 -1.5341 -2.3234  0.6389
 9134SOL     OW38863   0.805   2.034   3.212  0.5560  0.3767 -0.4226
 9134SOL    HW138864   0.823   1.947   3.177 -0.0990 -0.3310  0.9990
 9134SOL    HW238865   0.868   2.090   3.168  1.1549  0.5043  0.5799
 9135SOL     OW38866   3.514   0.940   4.387  0.8157  0.2518 -0.0909
 9135SOL    HW138867   3.561   1.012   4.429  1.9010  0.2816 -1.3700
 9135SOL    HW238868   3.510   0.879   4.461 -1.5826  2.3541  1.5214
 9136SOL     OW38869   2.061   3.070   4.104 -0.0166 -0.0631  0.7963
 9136SOL    HW138870   2.105   3.122   4.171  1.4044  0.3004 -0.4234
 9136SOL    HW238871   1.994   3.121   4.059 -0.6875  0.6301  2.5479
 9137SOL     OW38872   2.502   1.015   7.514  0.3641 -0.4325  0.0175
 9137SOL    HW138873   2.511   0.963   7.594 -1.7982 -3.2542 -1.6022
 9137SOL    HW238874   2.595   1.012   7.490 -0.1045  0.3806 -1.9184
 9138SOL     OW38875   3.321   2.664   7.205  0.1964  0.6827 -0.1780
 9138SOL    HW138876   3.382   2.614   7.259 -1.7329 -1.0201  0.4516
 9138SOL    HW238877   3.331   2.600   7.135 -0.6998  1.6029 -1.1551
 9139SOL     OW38878   2.279   0.747   7.168  0.0581 -0.0334 -0.0913
 9139SOL    HW138879   2.210   0.770   7.106  0.6515  0.5005 -0.5494
 9139SOL    HW238880   2.250   0.658   7.190  1.5192 -0.2556  0.9359
 9140SOL     OW38881   3.782   3.749  14.880 -0.6703  0.2746  0.0538
 9140SOL    HW138882   3.826   3.825  14.916  0.1595  0.4674 -1.3698
 9140SOL    HW238883   3.856   3.693  14.856 -1.8240 -0.6006 -1.5234
 9141SOL     OW38884   2.084   4.458   6.652  0.0171  0.0560 -0.4049
 9141SOL    HW138885   2.150   4.412   6.704 -0.6135  1.0900  1.2786
 9141SOL    HW238886   2.003   4.431   6.695  2.2600 -1.3410  2.9448
 9142SOL     OW38887   0.774   1.111   8.753 -0.3660 -0.1688  0.9828
 9142SOL    HW138888   0.786   1.197   8.793 -1.0144  0.2907  0.1857
 9142SOL    HW238889   0.785   1.062   8.835  2.8046  0.5398  0.9658
 9143SOL     OW38890   2.945   1.776  14.914  0.2613  0.2584 -0.1119
 9143SOL    HW138891   3.008   1.764  14.843  0.8494 -0.4860  0.5334
 9143SOL    HW238892   2.871   1.820  14.872 -0.2216 -1.0468 -0.6207
 9144SOL     OW38893   4.712   3.431  17.362  0.3486 -0.0718  0.0616
 9144SOL    HW138894   0.015   3.399  17.275  2.2923  0.6994  0.2741
 9144SOL    HW238895   0.048   3.375  17.415 -1.0234 -0.2143  1.3431
 9145SOL     OW38896   2.359   0.212   5.977 -0.1762 -0.7666 -0.1511
 9145SOL    HW138897   2.309   0.199   5.897 -1.1663 -2.9493  0.8183
 9145SOL    HW238898   2.308   0.149   6.028 -0.4320  0.5300  1.2051
 9146SOL     OW38899   3.771   1.032  11.739  0.2237  0.2763 -0.0096
 9146SOL    HW138900   3.831   0.995  11.674  0.6135 -0.1901  0.6117
 9146SOL    HW238901   3.815   1.115  11.759 -0.6931  0.7723 -0.0524
 9147SOL     OW38902   0.852   1.171   2.893  0.0324 -0.1410  0.0872
 9147SOL    HW138903   0.782   1.136   2.837 -1.3226  2.2592  0.2305
 9147SOL    HW238904   0.883   1.249   2.847  0.7681 -1.0726 -0.9844
 9148SOL     OW38905   0.279   1.959   6.366 -0.2072 -0.0879  0.0750
 9148SOL    HW138906   0.288   1.904   6.444  0.8730 -0.6895 -0.4714
 9148SOL    HW238907   0.303   1.904   6.291  1.5428  1.8278 -0.7600
 9149SOL     OW38908   3.616   3.039   0.311  0.3804  0.2223  0.2836
 9149SOL    HW138909   3.709   3.062   0.314  0.4634 -0.1843  0.8821
 9149SOL    HW238910   3.585   3.089   0.387  1.3690  0.9086  0.2343
 9150SOL     OW38911   2.028   3.338   2.909 -0.0896  0.0812 -0.4088
 9150SOL    HW138912   2.102   3.365   2.963 -0.3781  0.3588 -0.1508
 9150SOL    HW238913   1.998   3.251   2.935  0.9617 -0.1548  0.0192
 9151SOL     OW38914   3.016   2.353   1.147  0.3183  0.0723  0.4978
 9151SOL    HW138915   2.970   2.414   1.204 -2.8047 -1.2524 -0.6309
 9151SOL    HW238916   3.088   2.409   1.116 -0.4297  0.5793 -0.3152
 9152SOL     OW38917   3.430   1.270  10.264 -0.4459 -0.3845 -0.6016
 9152SOL    HW138918   3.419   1.293  10.172 -0.9720  1.7297 -0.0147
 9152SOL    HW238919   3.414   1.176  10.276  1.3019 -0.6331 -0.2517
 9153SOL     OW38920   0.284   1.467   8.850 -0.6525 -0.1109 -0.6341
 9153SOL    HW138921   0.359   1.479   8.908 -1.5922  3.2110 -0.0955
 9153SOL    HW238922   0.245   1.387   8.886 -2.3914  1.5846  1.2584
 9154SOL     OW38923   2.635   4.152   3.028 -0.2631 -0.2375 -0.3184
 9154SOL    HW138924   2.623   4.078   2.969 -0.5655 -0.5690  0.1606
 9154SOL    HW238925   2.675   4.211   2.964 -0.8376  0.1632 -0.3133
 9155SOL     OW38926   0.992   0.613  17.632  0.2656 -0.0629  0.1283
 9155SOL    HW138927   1.083   0.641  17.632  0.3136 -0.2055 -0.6674
 9155SOL    HW238928   0.992   0.573   0.037 -0.2703 -0.9475 -0.2775
 9156SOL     OW38929   0.241   2.910   3.742 -0.1037  0.1120  0.4004
 9156SOL    HW138930   0.251   2.916   3.647 -2.1787  2.4968  0.3256
 9156SOL    HW238931   0.268   2.821   3.764 -2.1906 -1.0461 -1.6655
 9157SOL     OW38932   1.998   0.723   5.605 -0.1428 -0.3621 -0.0788
 9157SOL    HW138933   1.962   0.715   5.693  0.7275 -0.5372  0.2527
 9157SOL    HW238934   1.959   0.807   5.578  2.1251  0.6794 -0.1486
 9158SOL     OW38935   2.421   4.327   0.222  0.4218 -0.1782  0.5486
 9158SOL    HW138936   2.485   4.292   0.284 -0.4591 -0.2438  1.4299
 9158SOL    HW238937   2.468   4.298   0.144  0.1777 -2.8299  1.3876
 9159SOL     OW38938   0.014   2.399   6.737  0.1598  0.1230  0.2958
 9159SOL    HW138939   0.016   2.333   6.668 -0.1263 -0.3506  0.7517
 9159SOL    HW238940   0.062   2.474   6.701 -1.3075 -0.2893 -2.5297
 9160SOL     OW38941   1.064   2.794   0.899 -0.1994  0.0449  0.3861
 9160SOL    HW138942   1.036   2.794   0.990 -0.6916 -0.1906  0.2357
 9160SOL    HW238943   0.984   2.769   0.852  0.7801  0.4436 -1.4982
 9161SOL     OW38944   2.156   2.455  16.977  0.0393 -0.8112 -0.0068
 9161SOL    HW138945   2.091   2.419  16.916 -0.1113  1.4471 -1.1655
 9161SOL    HW238946   2.223   2.488  16.918  1.8579 -1.8193  1.4788
 9162SOL     OW38947   1.714   1.827   9.019 -0.3131  0.3513  0.5771
 9162SOL    HW138948   1.706   1.751   8.962  0.2578 -0.3273  1.3959
 9162SOL    HW238949   1.788   1.800   9.074  0.8791 -1.1207 -1.7332
 9163SOL     OW38950   0.658   2.486   3.853  0.7299  0.0388  0.3445
 9163SOL    HW138951   0.607   2.551   3.901 -1.5479 -0.6608 -1.1232
 9163SOL    HW238952   0.680   2.433   3.929 -1.0689  0.5493  1.2159
 9164SOL     OW38953   1.624   0.004  17.043  1.0416  0.7061 -0.0541
 9164SOL    HW138954   1.629   4.629  17.050  0.9361  0.7165  0.1369
 9164SOL    HW238955   1.571   0.015  16.964  0.3266 -0.8415  0.2313
 9165SOL     OW38956   3.058   2.191   0.680 -0.2780 -0.0752  0.3553
 9165SOL    HW138957   3.071   2.155   0.592  1.4147 -0.3793  0.7345
 9165SOL    HW238958   3.110   2.271   0.676  2.2197 -1.7903 -1.5467
 9166SOL     OW38959   4.276   4.702   9.866  0.4333  0.0373 -0.4173
 9166SOL    HW138960   4.282   4.613   9.900 -3.5577 -0.3397 -0.6161
 9166SOL    HW238961   4.351   4.707   9.806  0.7611  0.4334  0.0322
 9167SOL     OW38962   2.416   2.811   7.093 -0.1066 -0.0424  0.4191
 9167SOL    HW138963   2.486   2.753   7.122  0.8576 -0.6472 -3.0386
 9167SOL    HW238964   2.357   2.791   7.165  1.6578 -2.1098  1.2741
 9168SOL     OW38965   3.582   3.085   5.540 -0.4869  0.0113  0.1495
 9168SOL    HW138966   3.491   3.090   5.511 -0.3696 -3.4373 -0.7936
 9168SOL    HW238967   3.603   3.170   5.579 -3.5490  0.1664  1.4232
 9169SOL     OW38968   0.448   1.093   8.946  0.0764 -0.1066  0.1542
 9169SOL    HW138969   0.393   1.020   8.919 -2.3638  1.3012  1.3233
 9169SOL    HW238970   0.386   1.165   8.960  0.9557  0.7553 -0.3902
 9170SOL     OW38971   0.954   4.415   7.814  0.2682  0.2978  0.3481
 9170SOL    HW138972   0.976   4.406   7.907 -1.4955 -1.6987  0.5725
 9170SOL    HW238973   0.861   4.390   7.812 -0.0964  1.6230  0.4526
 9171SOL     OW38974   3.154   3.596  14.940  0.2638  0.4146  0.0454
 9171SOL    HW138975   3.244   3.619  14.964 -0.2770  1.4943  1.0474
 9171SOL    HW238976   3.111   3.554  15.015  1.4754 -0.5448  0.1996
 9172SOL     OW38977   3.076   1.282   7.767  0.3906 -0.0387 -0.2165
 9172SOL    HW138978   3.111   1.193   7.773 -2.5200 -1.0487  1.5485
 9172SOL    HW238979   3.149   1.339   7.790 -1.1116  1.9272 -0.3134
 9173SOL     OW38980   2.725   0.529   0.471  0.7257  0.0949  0.5488
 9173SOL    HW138981   2.701   0.591   0.540 -3.0627 -0.5465 -0.2262
 9173SOL    HW238982   2.639   0.503   0.438  1.5486 -0.7385 -0.9185
 9174SOL     OW38983   2.062   2.526   2.684  0.3440 -0.2875  0.3846
 9174SOL    HW138984   2.001   2.587   2.643  1.7095  0.1508 -1.0150
 9174SOL    HW238985   2.025   2.516   2.771  1.5915 -0.5090  0.8927
 9175SOL     OW38986   2.559   3.159   0.805 -0.2110  0.2993 -0.0488
 9175SOL    HW138987   2.646   3.169   0.766 -0.5828 -1.3605 -1.3114
 9175SOL    HW238988   2.570   3.071   0.839  0.2152  0.5082  0.3511
 9176SOL     OW38989   3.160   1.888   3.511 -0.3622 -0.4882 -0.4737
 9176SOL    HW138990   3.226   1.875   3.580 -1.7911 -0.6068  0.8692
 9176SOL    HW238991   3.203   1.951   3.454  1.8209 -0.7863  0.8110
 9177SOL     OW38992   0.643   1.192   4.226  0.3638  0.8569 -0.5595
 9177SOL    HW138993   0.613   1.206   4.315 -0.0674 -0.2839 -0.5190
 9177SOL    HW238994   0.578   1.236   4.172 -2.5831 -0.7277  1.7383
 9178SOL     OW38995   3.925   3.082   6.751 -0.0632  0.4673  0.3508
 9178SOL    HW138996   3.929   3.169   6.791 -1.9896  0.3429  0.8151
 9178SOL    HW238997   4.007   3.084   6.702 -0.9362  1.5871 -1.1050
 9179SOL     OW38998   2.432   3.831   1.635 -0.1344  0.2778  0.6154
 9179SOL    HW138999   2.349   3.864   1.669 -0.9099 -0.3849 -0.6175
 9179SOL    HW239000   2.478   3.912   1.613 -0.1641 -0.3225 -1.7193
 9180SOL     OW39001   2.730   2.007   0.372 -0.0306  0.0421  0.0196
 9180SOL    HW139002   2.723   2.053   0.289  0.2807  2.3378  1.2593
 9180SOL    HW239003   2.636   1.998   0.386 -0.3840  1.7586 -1.3571
 9181SOL     OW39004   4.142   4.699   4.776 -0.1918  0.2780  0.0692
 9181SOL    HW139005   4.229   4.660   4.780 -0.5290 -0.3887  0.9731
 9181SOL    HW239006   4.096   4.650   4.707 -2.9314  2.1528  0.5414
 9182SOL     OW39007   4.129   1.860  13.069  0.3490  0.4251  0.2358
 9182SOL    HW139008   4.131   1.954  13.052 -1.0909  0.5592  0.8052
 9182SOL    HW239009   4.034   1.847  13.080  0.1654  0.7067 -1.0905
 9183SOL     OW39010   1.680   3.055   0.563  0.4600 -0.0621 -0.0633
 9183SOL    HW139011   1.697   3.016   0.477 -2.6417  0.3703 -0.8659
 9183SOL    HW239012   1.678   2.972   0.610 -2.5723 -0.5249 -1.0177
 9184SOL     OW39013   1.656   2.870   7.744  0.3101  0.4726  0.2444
 9184SOL    HW139014   1.622   2.783   7.727 -0.8585  1.3277 -1.7134
 9184SOL    HW239015   1.723   2.862   7.812 -1.7940  1.0089  2.3652
 9185SOL     OW39016   4.165   1.913  12.395  0.4098 -0.3771  0.4120
 9185SOL    HW139017   4.181   2.004  12.420  1.3199 -0.9969  2.0910
 9185SOL    HW239018   4.151   1.924  12.301  1.9896 -1.4430  0.0652
 9186SOL     OW39019   0.455   1.653   4.222 -0.1649  0.2104 -0.3724
 9186SOL    HW139020   0.391   1.624   4.286  0.1381 -1.6823 -0.9345
 9186SOL    HW239021   0.530   1.669   4.279  0.0500  0.2249 -0.6609
 9187SOL     OW39022   2.469   2.097  15.062 -0.0800  0.6319 -0.3341
 9187SOL    HW139023   2.487   2.003  15.067 -0.2527  0.5456 -1.4590
 9187SOL    HW239024   2.374   2.099  15.077  0.1051  0.1272  0.9146
 9188SOL     OW39025   1.145   0.773  16.101 -0.2001 -0.0470 -0.0995
 9188SOL    HW139026   1.166   0.854  16.055 -2.1132  0.1438 -0.6558
 9188SOL    HW239027   1.156   0.711  16.029 -1.5049  2.1367 -2.1459
 9189SOL     OW39028   3.729   0.055   3.429  0.1919 -0.3938 -0.0703
 9189SOL    HW139029   3.731   0.009   3.345 -1.3545 -0.6581  0.0459
 9189SOL    HW239030   3.683   4.707   3.479  0.3266 -0.1763  0.3532
 9190SOL     OW39031   3.646   1.153   1.797 -0.6150 -0.0407 -0.7188
 9190SOL    HW139032   3.621   1.061   1.790  1.1603 -0.7114  1.7953
 9190SOL    HW239033   3.560   1.188   1.820  0.6762  3.6750 -1.5807
 9191SOL     OW39034   3.199   1.088   8.534 -0.4164 -0.0226  0.0685
 9191SOL    HW139035   3.280   1.126   8.568 -0.1182 -0.7282  0.1564
 9191SOL    HW239036   3.144   1.107   8.611  0.1895 -1.9898  0.9972
 9192SOL     OW39037   2.011   1.086   2.694  0.3466  0.2870 -0.2159
 9192SOL    HW139038   1.959   1.143   2.751  1.1199  0.6861  0.0967
 9192SOL    HW239039   1.969   1.000   2.699  1.8715 -0.3994  0.7635
 9193SOL     OW39040   0.281   3.355  13.235 -0.6572 -0.0498 -0.1408
 9193SOL    HW139041   0.293   3.353  13.330 -0.5813  0.2450 -0.1467
 9193SOL    HW239042   0.370   3.332  13.208  0.1076  0.8938  1.6289
 9194SOL     OW39043   0.831   2.719  13.670  0.5953 -0.0607 -0.4133
 9194SOL    HW139044   0.910   2.674  13.641  0.4420  0.1244 -1.1251
 9194SOL    HW239045   0.773   2.644  13.686  1.7929 -0.5088  1.7751
 9195SOL     OW39046   3.468   4.041   7.222  0.3314  0.1872 -0.2249
 9195SOL    HW139047   3.460   4.132   7.195 -1.1670  0.2835  0.5552
 9195SOL    HW239048   3.396   3.987   7.187 -0.0546 -0.5113  1.6383
 9196SOL     OW39049   1.119   2.853  15.763 -0.1644  0.3111 -0.1128
 9196SOL    HW139050   1.197   2.817  15.806  0.1686  1.6611  0.4065
 9196SOL    HW239051   1.134   2.948  15.764 -0.4577  0.3673 -0.7362
 9197SOL     OW39052   2.856   3.146  16.948  0.3469 -0.3954  0.4067
 9197SOL    HW139053   2.803   3.181  17.020  1.8190 -0.8056  1.6714
 9197SOL    HW239054   2.815   3.194  16.876  0.3983  0.8198  1.1781
 9198SOL     OW39055   1.438   2.985   0.865 -0.3708 -0.2746  0.2688
 9198SOL    HW139056   1.475   2.950   0.783  0.1227  1.2136 -0.1346
 9198SOL    HW239057   1.357   3.023   0.833 -1.8205 -1.6064  2.4157
 9199SOL     OW39058   2.622   2.644   6.854 -0.3684  0.2863  0.5796
 9199SOL    HW139059   2.617   2.612   6.944  0.0398 -0.7927  0.2082
 9199SOL    HW239060   2.695   2.706   6.859  1.6662 -2.0887  0.3747
 9200SOL     OW39061   3.423   2.749   8.548 -0.1761  0.6538 -0.3983
 9200SOL    HW139062   3.439   2.763   8.641 -0.7307 -0.0719 -0.1918
 9200SOL    HW239063   3.337   2.789   8.536 -0.6724 -0.0563  0.8469
 9201SOL     OW39064   0.886   1.234   5.519 -0.1886 -0.4853  0.2673
 9201SOL    HW139065   0.976   1.241   5.488 -0.8880  0.3212 -1.5861
 9201SOL    HW239066   0.901   1.248   5.612 -0.5470  1.7348 -0.0110
 9202SOL     OW39067   0.752   0.443   4.558 -0.0527 -0.0403  0.1927
 9202SOL    HW139068   0.804   0.516   4.522 -0.2931 -0.4155 -0.9237
 9202SOL    HW239069   0.717   0.492   4.633 -0.9049 -0.6886  0.2158
 9203SOL     OW39070   0.767   3.631   5.721  0.6478  0.2962  0.5884
 9203SOL    HW139071   0.854   3.670   5.720 -0.3661  2.5309 -1.6689
 9203SOL    HW239072   0.710   3.700   5.687  1.1076  1.6024  2.5100
 9204SOL     OW39073   2.718   2.219   2.205  0.4898  0.5913  0.1007
 9204SOL    HW139074   2.730   2.310   2.176  2.2368  0.1724 -0.4805
 9204SOL    HW239075   2.792   2.183   2.156 -0.2371  2.8225 -2.6467
 9205SOL     OW39076   1.583   0.672   8.792  0.3993  0.2725 -0.1170
 9205SOL    HW139077   1.540   0.684   8.707 -0.3812  1.1505  0.4078
 9205SOL    HW239078   1.599   0.764   8.813  3.0643 -0.1119 -0.3910
 9206SOL     OW39079   1.167   0.530   5.649 -1.1779  0.1813  0.1145
 9206SOL    HW139080   1.103   0.597   5.675 -1.1702  0.4587 -0.5937
 9206SOL    HW239081   1.246   0.552   5.698 -0.2716  0.9584 -1.7140
 9207SOL     OW39082   2.964   1.173   3.854  0.2752  0.1907  0.4682
 9207SOL    HW139083   2.943   1.249   3.909 -2.4136 -0.4076  0.2977
 9207SOL    HW239084   2.880   1.127   3.856 -1.1391  2.7389 -0.1190
 9208SOL     OW39085   4.078   3.104  12.824  0.3644 -0.2014 -0.0581
 9208SOL    HW139086   4.090   3.067  12.911 -1.0875 -0.1646  0.1698
 9208SOL    HW239087   3.984   3.089  12.815 -0.1770  2.8838  0.1522
 9209SOL     OW39088   1.327   4.545  11.026  0.0197  0.1710  0.1615
 9209SOL    HW139089   1.302   4.545  11.118 -0.2014  2.1677  0.0892
 9209SOL    HW239090   1.306   4.638  11.020  2.2317  0.7147  0.8719
 9210SOL     OW39091   2.697   0.509   8.267  0.0238  0.3378 -0.3392
 9210SOL    HW139092   2.627   0.530   8.206 -1.1959 -1.9296  0.2672
 9210SOL    HW239093   2.665   0.555   8.344  1.7246  1.4251 -0.2834
 9211SOL     OW39094   2.594   2.471  16.708 -0.4426  0.5160 -0.2121
 9211SOL    HW139095   2.559   2.471  16.619  0.8414  1.5398 -0.7023
 9211SOL    HW239096   2.529   2.412  16.748 -0.9599  0.2670 -1.4219
 9212SOL     OW39097   2.067   0.935   5.202  0.0516 -0.7629 -0.2971
 9212SOL    HW139098   2.158   0.921   5.228  0.0080 -1.2211 -0.3901
 9212SOL    HW239099   2.045   0.843   5.182 -0.3011 -0.8278  0.4081
 9213SOL     OW39100   3.881   3.586   8.736 -0.5777  0.9949 -0.0104
 9213SOL    HW139101   3.916   3.668   8.702  0.5978 -0.0638 -1.3783
 9213SOL    HW239102   3.863   3.530   8.660  0.3352 -1.8380  1.8821
 9214SOL     OW39103   0.669   1.333   1.114  0.2324  0.2692  0.5322
 9214SOL    HW139104   0.753   1.295   1.090 -0.7211 -0.8003 -1.0993
 9214SOL    HW239105   0.665   1.310   1.207  0.1351 -3.1244 -0.3176
 9215SOL     OW39106   4.688   2.204  17.646  0.4053 -0.2282  0.1343
 9215SOL    HW139107   4.603   2.248  17.645 -0.2141 -1.3841  1.6944
 9215SOL    HW239108   4.676   2.145   0.039  0.7833  0.0374  0.4041
 9216SOL     OW39109   1.094   0.624   1.720  0.0606 -0.2630 -0.1241
 9216SOL    HW139110   1.117   0.563   1.650 -2.1876  1.2296 -2.1679
 9216SOL    HW239111   1.071   0.703   1.669 -1.8454 -0.5734  0.2420
 9217SOL     OW39112   1.432   1.477  12.581 -0.1261 -0.4050 -0.0225
 9217SOL    HW139113   1.389   1.520  12.654 -0.1706 -0.6185  0.0747
 9217SOL    HW239114   1.485   1.553  12.555  0.3839 -0.4120  0.9855
 9218SOL     OW39115   3.508   3.465  11.009  0.6895  0.6473  0.5198
 9218SOL    HW139116   3.441   3.397  11.012  0.4598  0.8267 -0.6545
 9218SOL    HW239117   3.441   3.531  11.028 -1.2402 -1.2081  0.1132
 9219SOL     OW39118   2.953   4.072   8.583  0.0500  0.0210  0.4536
 9219SOL    HW139119   2.878   4.101   8.636  1.4652  3.3358  0.6741
 9219SOL    HW239120   2.955   3.978   8.601 -0.7179  0.0125  0.4702
 9220SOL     OW39121   3.614   4.600   3.575 -0.0496  0.4647  0.6945
 9220SOL    HW139122   3.537   4.565   3.620  1.3780 -1.6264  1.5125
 9220SOL    HW239123   3.647   4.510   3.570 -0.2963  0.5119 -1.7267
 9221SOL     OW39124   2.027   4.350   8.009  0.3076  0.0698  0.3286
 9221SOL    HW139125   2.037   4.443   7.991  1.3213  0.1526  1.2835
 9221SOL    HW239126   2.013   4.318   7.920  0.9394  0.7352 -0.0087
 9222SOL     OW39127   2.710   1.817   8.745  0.0267 -0.1581  0.2442
 9222SOL    HW139128   2.720   1.900   8.700  0.0508 -0.3966 -0.1913
 9222SOL    HW239129   2.629   1.833   8.793  0.1612  2.6239 -0.4968
 9223SOL     OW39130   1.176   4.195   3.998 -0.1534 -0.6449 -0.0501
 9223SOL    HW139131   1.131   4.223   4.078  0.8562 -0.5630  0.4946
 9223SOL    HW239132   1.100   4.161   3.951 -1.0085 -0.8042  1.4553
 9224SOL     OW39133   1.024   1.277   6.191  0.4968 -0.1484  0.4789
 9224SOL    HW139134   1.015   1.182   6.183  1.8416 -0.2938  0.6637
 9224SOL    HW239135   0.963   1.303   6.123  1.1604 -1.7519 -0.7305
 9225SOL     OW39136   0.399   2.839   1.753  0.2463 -0.0335  0.1340
 9225SOL    HW139137   0.324   2.851   1.694  0.2879  1.3052  0.3582
 9225SOL    HW239138   0.444   2.918   1.723 -0.4071  0.3710  0.2234
 9226SOL     OW39139   3.088   4.294   4.121  0.4249 -0.0559  0.3879
 9226SOL    HW139140   3.076   4.389   4.128  1.8589  0.3219 -2.1722
 9226SOL    HW239141   3.174   4.280   4.160  1.3284 -0.3047 -1.7104
 9227SOL     OW39142   3.345   0.784  16.179  0.0018  0.4199 -0.0784
 9227SOL    HW139143   3.294   0.802  16.101  0.0260 -1.0553 -0.4321
 9227SOL    HW239144   3.353   0.873  16.213  2.3582 -0.1114  0.7785
 9228SOL     OW39145   0.802   0.523  16.642  0.4611 -1.2844 -0.0164
 9228SOL    HW139146   0.896   0.541  16.652 -0.0791  0.6376  1.7996
 9228SOL    HW239147   0.778   0.529  16.734 -1.4753 -0.6954 -0.5594
 9229SOL     OW39148   4.589   1.262  10.864 -0.1758 -0.5709 -0.5456
 9229SOL    HW139149   4.570   1.177  10.825  0.1228 -1.0486  0.3363
 9229SOL    HW239150   4.505   1.284  10.905 -1.0467  0.9006 -3.1035
 9230SOL     OW39151   2.097   1.173  10.935 -0.3945  0.2338  0.0272
 9230SOL    HW139152   2.062   1.153  10.849  0.4217  1.4059 -0.5715
 9230SOL    HW239153   2.027   1.237  10.948 -0.4700  0.0444  0.5833
 9231SOL     OW39154   0.481   0.771   0.068  0.0926 -0.1490 -0.4092
 9231SOL    HW139155   0.511   0.843   0.123  3.2605 -0.4158 -1.8113
 9231SOL    HW239156   0.554   0.710   0.067  1.1220  0.9752  4.7913
 9232SOL     OW39157   1.009   0.135   2.664 -0.3578 -0.2585 -0.2709
 9232SOL    HW139158   0.957   0.114   2.586 -0.2224  2.6745 -1.1357
 9232SOL    HW239159   0.968   0.214   2.701 -1.0462 -0.5231 -0.4590
 9233SOL     OW39160   1.056   1.680  15.997  0.2528  0.0367 -0.1809
 9233SOL    HW139161   1.035   1.773  16.001 -1.0524 -0.3150  1.0813
 9233SOL    HW239162   0.995   1.630  15.943 -0.2240  1.2213 -0.7471
 9234SOL     OW39163   0.004   2.486   5.899  0.7909 -0.4824 -0.0131
 9234SOL    HW139164   4.678   2.506   5.981  0.5220 -0.5363 -0.1522
 9234SOL    HW239165   4.698   2.558   5.841  2.1414 -0.2287 -0.2997
 9235SOL     OW39166   2.297   3.996   7.351 -0.2704 -0.1333 -0.6491
 9235SOL    HW139167   2.226   3.971   7.410 -1.1707  0.9005 -1.3170
 9235SOL    HW239168   2.271   3.972   7.262  1.6690  0.8408 -1.4896
 9236SOL     OW39169   3.417   1.584   1.425 -0.0649  0.0575 -0.6384
 9236SOL    HW139170   3.398   1.528   1.500 -0.3424  2.6151  1.1807
 9236SOL    HW239171   3.361   1.547   1.357 -1.8666  1.0603  0.3110
 9237SOL     OW39172   0.879   1.536   9.021 -0.1624 -0.1667 -0.0694
 9237SOL    HW139173   0.950   1.565   9.078 -0.7473  1.6774 -0.2642
 9237SOL    HW239174   0.839   1.617   8.988  1.3061  1.3716  1.8716
 9238SOL     OW39175   1.940   3.517   9.384  0.0778  0.0504 -0.3748
 9238SOL    HW139176   1.992   3.475   9.452 -2.0066 -3.0633 -0.6827
 9238SOL    HW239177   1.879   3.451   9.350 -0.5061  0.4555 -0.1178
 9239SOL     OW39178   1.361   3.190   2.203  0.5235 -0.2959  0.2829
 9239SOL    HW139179   1.288   3.137   2.236 -0.7630  1.3616  0.0658
 9239SOL    HW239180   1.338   3.178   2.111  1.2134  1.8155 -0.1603
 9240SOL     OW39181   1.832   4.498   7.106 -0.2235  0.1161  0.1766
 9240SOL    HW139182   1.912   4.520   7.059 -0.7794  0.9193 -0.4086
 9240SOL    HW239183   1.782   4.433   7.056  0.3675 -1.0820  1.1485
 9241SOL     OW39184   0.735   2.642  15.999 -0.0571  0.3713  0.2697
 9241SOL    HW139185   0.742   2.710  15.932  2.2405  0.3529  0.4995
 9241SOL    HW239186   0.822   2.639  16.039 -0.4517  0.1236  1.1280
 9242SOL     OW39187   1.955   3.491   4.387  0.2764  0.0059  0.0255
 9242SOL    HW139188   1.915   3.578   4.389  2.1954  0.8967 -0.0590
 9242SOL    HW239189   2.017   3.496   4.315  0.0687  1.7653 -0.0442
 9243SOL     OW39190   2.121   0.525   2.900  0.1624  0.5037 -0.2755
 9243SOL    HW139191   2.132   0.615   2.933  1.1453  0.6541 -1.0022
 9243SOL    HW239192   2.214   0.509   2.915  0.0434 -0.8819 -1.0797
 9244SOL     OW39193   1.852   1.267  14.292 -0.4701 -0.2293 -0.3294
 9244SOL    HW139194   1.889   1.313  14.217 -0.9395  2.8022  1.3003
 9244SOL    HW239195   1.938   1.227  14.305 -0.9244 -1.1056  0.0172
 9245SOL     OW39196   4.527   4.332  15.672 -0.0021 -0.1531  0.4085
 9245SOL    HW139197   4.600   4.270  15.668  0.4600  0.2996  1.6993
 9245SOL    HW239198   4.580   4.404  15.707 -0.1280 -0.9233  2.2009
 9246SOL     OW39199   4.373   2.273   3.124 -0.6429  0.2756  0.0613
 9246SOL    HW139200   4.415   2.351   3.089  1.0967 -0.2066  1.0555
 9246SOL    HW239201   4.280   2.294   3.120 -0.9126 -0.6847  1.2594
 9247SOL     OW39202   1.774   1.568   6.953  0.3794 -0.0747  0.2847
 9247SOL    HW139203   1.708   1.503   6.978 -1.7854  1.4143 -1.5744
 9247SOL    HW239204   1.744   1.588   6.864 -1.5917 -0.2446  0.9072
 9248SOL     OW39205   2.615   0.623   7.185 -0.3035  0.0094  0.4751
 9248SOL    HW139206   2.545   0.630   7.250 -0.3267 -1.1160  0.5664
 9248SOL    HW239207   2.614   0.713   7.154 -1.7886 -0.6397 -1.3602
 9249SOL     OW39208   4.192   1.034  17.339  0.5929 -0.1282  0.2632
 9249SOL    HW139209   4.281   1.014  17.311  1.4400  2.8881  0.7175
 9249SOL    HW239210   4.181   1.126  17.314  1.1597 -0.5246 -1.4213
 9250SOL     OW39211   2.027   4.632   9.211  0.7574 -0.9770  0.1082
 9250SOL    HW139212   2.003   0.002   9.235 -0.6620 -0.9387 -1.4911
 9250SOL    HW239213   2.121   4.649   9.205  0.8715 -2.3882 -2.0485
 9251SOL     OW39214   4.062   1.924  13.671 -0.2818 -0.1881 -0.6578
 9251SOL    HW139215   4.149   1.909  13.634  0.4917  0.7992  0.7916
 9251SOL    HW239216   4.081   2.002  13.723 -1.1580  0.5019 -1.3565
 9252SOL     OW39217   0.079   2.252   4.332 -0.1083 -0.0386  0.0923
 9252SOL    HW139218   4.715   2.224   4.294  0.0269  1.5449 -1.3527
 9252SOL    HW239219   0.127   2.171   4.315 -1.0236 -0.7795  0.9892
 9253SOL     OW39220   3.725   2.571  14.575 -0.0137 -0.3193  0.0265
 9253SOL    HW139221   3.665   2.635  14.613 -1.6848 -1.9014  0.0889
 9253SOL    HW239222   3.809   2.607  14.602 -1.3245  2.1512  0.8217
 9254SOL     OW39223   3.667   1.095   8.583  0.4015 -0.1609 -0.6808
 9254SOL    HW139224   3.746   1.043   8.570  1.7193  1.3524  1.2927
 9254SOL    HW239225   3.703   1.184   8.588 -0.0094  0.0575 -1.5281
 9255SOL     OW39226   2.728   0.415  13.257  0.5245  0.6066  0.0223
 9255SOL    HW139227   2.801   0.467  13.224  2.4233 -1.9602  0.1518
 9255SOL    HW239228   2.743   0.334  13.208  2.5518  1.3395 -0.5612
 9256SOL     OW39229   4.249   4.632  15.432  0.0139  0.3696  0.5209
 9256SOL    HW139230   4.254   4.692  15.507 -1.3960 -0.1905  1.0636
 9256SOL    HW239231   4.252   4.551  15.482 -2.2271 -1.4379 -2.2749
 9257SOL     OW39232   3.066   2.492   8.870 -0.7347 -0.7424 -0.2379
 9257SOL    HW139233   3.059   2.576   8.825  0.0973 -1.2074 -1.2502
 9257SOL    HW239234   3.146   2.499   8.921 -0.4244 -1.5435 -0.6005
 9258SOL     OW39235   1.328   2.328   9.558  0.0078 -0.2396 -0.4621
 9258SOL    HW139236   1.323   2.252   9.617  0.7555  0.6209  0.7155
 9258SOL    HW239237   1.421   2.344   9.573 -0.4754  1.9410  0.2431
 9259SOL     OW39238   1.828   2.674  17.247  0.7433  0.3398 -0.1619
 9259SOL    HW139239   1.828   2.707  17.337 -2.0347 -0.0247 -0.0533
 9259SOL    HW239240   1.864   2.751  17.203 -0.9906 -0.1092 -2.3039
 9260SOL     OW39241   0.728   2.785   0.378 -0.3723 -0.0495 -0.6696
 9260SOL    HW139242   0.792   2.780   0.449 -1.1636  0.4215  0.0796
 9260SOL    HW239243   0.669   2.715   0.404 -1.2776  0.8190 -0.3759
 9261SOL     OW39244   3.989   0.958   6.191  0.5991  0.3208 -0.0485
 9261SOL    HW139245   3.964   0.935   6.102 -0.9548  0.8988  0.2378
 9261SOL    HW239246   4.077   0.990   6.173  0.5292  0.1971 -0.5950
 9262SOL     OW39247   2.244   2.572   4.079  0.0362  0.3504 -0.4493
 9262SOL    HW139248   2.277   2.554   3.992  0.3871 -1.4533  0.0453
 9262SOL    HW239249   2.151   2.552   4.066 -0.6686  2.6230  1.0160
 9263SOL     OW39250   4.688   1.628  17.411 -0.8784  0.0571  0.0616
 9263SOL    HW139251   4.712   1.587  17.494  1.8643  3.3418  0.9020
 9263SOL    HW239252   0.052   1.674  17.401 -1.7118  2.0265  2.2828
 9264SOL     OW39253   3.451   0.270   5.975  0.0748  0.5711 -0.1275
 9264SOL    HW139254   3.488   0.266   6.063 -0.0560  1.7179 -0.0193
 9264SOL    HW239255   3.394   0.347   5.982  1.4219  1.6366 -0.7276
 9265SOL     OW39256   3.868   2.450   7.702 -0.7820 -0.1929  0.2185
 9265SOL    HW139257   3.889   2.453   7.795 -0.7749  0.4062  0.1946
 9265SOL    HW239258   3.934   2.385   7.674 -1.7235 -1.0667  0.0353
 9266SOL     OW39259   1.856   0.539  17.060  0.4413 -0.5497 -0.8120
 9266SOL    HW139260   1.832   0.456  17.101 -0.4971  1.4783  2.6635
 9266SOL    HW239261   1.782   0.558  17.002  1.4553  2.2831 -1.1934
 9267SOL     OW39262   2.079   0.221  14.414 -0.4464 -0.5613  0.1395
 9267SOL    HW139263   2.025   0.267  14.349 -0.9080  0.2747  1.1299
 9267SOL    HW239264   2.149   0.192  14.355  0.4067 -1.6000  1.6576
 9268SOL     OW39265   4.031   1.607   5.668 -0.5181 -0.1276 -0.2329
 9268SOL    HW139266   4.038   1.624   5.762 -0.3463  0.2972 -0.3229
 9268SOL    HW239267   4.073   1.522   5.657 -1.3443 -0.6786  0.8425
 9269SOL     OW39268   4.426   3.693   4.779  0.0750  0.4422  0.2843
 9269SOL    HW139269   4.387   3.741   4.706  1.3280  0.1838 -0.5543
 9269SOL    HW239270   4.510   3.739   4.786  0.9566 -1.4229  1.7603
 9270SOL     OW39271   0.373   2.653   3.410 -0.4455  0.3286 -0.3277
 9270SOL    HW139272   0.431   2.586   3.445 -2.9101 -0.2995  2.5632
 9270SOL    HW239273   0.340   2.604   3.334  2.0427  0.8743 -1.7593
 9271SOL     OW39274   0.935   4.259   3.730  0.4073 -0.4285  0.3714
 9271SOL    HW139275   0.942   4.194   3.659 -0.3801  1.1189 -1.1233
 9271SOL    HW239276   1.016   4.308   3.717 -1.2985  1.6890 -2.1982
 9272SOL     OW39277   3.110   0.428  16.193  0.1759 -0.7452  0.2325
 9272SOL    HW139278   3.108   0.473  16.278  0.4538  2.2515 -1.3264
 9272SOL    HW239279   3.129   0.338  16.217  2.3030 -0.3659 -0.0301
 9273SOL     OW39280   4.617   1.295   7.395  0.6472  0.3792  0.1226
 9273SOL    HW139281   4.699   1.250   7.376 -0.9316 -2.6186  0.3771
 9273SOL    HW239282   4.566   1.271   7.318  0.5274  0.3361  0.2151
 9274SOL     OW39283   0.085   1.349   0.977  0.3854  0.3068 -0.2766
 9274SOL    HW139284   0.133   1.378   1.054 -0.3106  0.1801  0.2028
 9274SOL    HW239285   4.717   1.377   1.001 -0.0635  1.3259 -3.1164
 9275SOL     OW39286   0.530   2.944   2.050 -0.2398 -0.1707 -0.6131
 9275SOL    HW139287   0.460   2.980   1.995 -0.9684  0.8620  0.9762
 9275SOL    HW239288   0.539   2.852   2.025  3.2870  0.5665 -1.9670
 9276SOL     OW39289   0.153   2.066   6.936 -0.3990 -0.0264  0.0540
 9276SOL    HW139290   0.134   2.061   6.842 -2.3397  1.7670  0.3540
 9276SOL    HW239291   0.097   2.139   6.960  1.6354  1.5739 -0.0947
 9277SOL     OW39292   2.457   1.184   3.274 -0.0302 -0.1366 -0.0018
 9277SOL    HW139293   2.426   1.167   3.185 -1.0432  2.9333 -0.2132
 9277SOL    HW239294   2.550   1.172   3.253  0.2054  3.1608 -0.7184
 9278SOL     OW39295   1.178   0.898   4.423  0.6068 -0.1896  0.2769
 9278SOL    HW139296   1.201   0.991   4.420 -0.0640 -0.0298 -0.1229
 9278SOL    HW239297   1.163   0.874   4.514  0.0867 -1.6353 -0.1883
 9279SOL     OW39298   0.244   2.726   8.387  0.2527  0.0446 -0.1638
 9279SOL    HW139299   0.199   2.655   8.431  0.1124 -1.2896 -2.4604
 9279SOL    HW239300   0.201   2.803   8.425 -1.4490 -2.0671  2.1803
 9280SOL     OW39301   4.122   4.028   6.988  0.4317  0.2210  0.1191
 9280SOL    HW139302   4.163   4.007   7.072 -1.3148  0.4834  1.0464
 9280SOL    HW239303   4.052   4.077   7.032  1.9693  1.3815  1.2303
 9281SOL     OW39304   0.331   0.588  10.181 -0.1684  0.2101  0.3656
 9281SOL    HW139305   0.235   0.583  10.175 -0.1889  2.3560 -0.9439
 9281SOL    HW239306   0.347   0.513  10.239  0.3959 -0.1340 -0.2333
 9282SOL     OW39307   0.219   3.221  17.269 -0.1474 -0.1444  0.1538
 9282SOL    HW139308   0.297   3.166  17.278 -0.0039 -0.1327 -1.0502
 9282SOL    HW239309   0.159   3.173  17.213  0.0730 -0.4076  0.1425
 9283SOL     OW39310   2.956   2.560  15.742  0.0521 -0.1014  0.2287
 9283SOL    HW139311   2.894   2.503  15.695  0.8835  1.2160 -2.4272
 9283SOL    HW239312   2.893   2.588  15.809 -1.6782  0.6321 -1.7032
 9284SOL     OW39313   4.648   3.658   1.612 -0.2846 -0.1414  0.1938
 9284SOL    HW139314   4.577   3.642   1.674 -0.3543  1.3625  0.4947
 9284SOL    HW239315   4.641   3.576   1.563 -1.2121  0.6990 -1.0690
 9285SOL     OW39316   3.657   2.020   8.464 -0.4256 -1.0916 -0.1935
 9285SOL    HW139317   3.660   1.972   8.547 -0.4976  1.1107  1.1071
 9285SOL    HW239318   3.566   2.026   8.434 -0.7137 -1.8241  0.5273
 9286SOL     OW39319   3.309   3.449   3.033  0.0276  0.1188 -0.1546
 9286SOL    HW139320   3.393   3.495   3.029  0.3217 -0.3417  0.6626
 9286SOL    HW239321   3.338   3.361   3.059 -0.2470  0.0681 -0.0163
 9287SOL     OW39322   4.308   4.246  11.307 -1.1092  0.2297  0.4265
 9287SOL    HW139323   4.321   4.198  11.389 -1.8280 -0.4635  0.1399
 9287SOL    HW239324   4.218   4.273  11.326 -1.8843 -1.1965 -1.2534
 9288SOL     OW39325   3.193   4.085  14.387 -0.1858 -0.6125  0.2268
 9288SOL    HW139326   3.169   4.136  14.310  0.2933  0.0398  0.5139
 9288SOL    HW239327   3.125   4.017  14.391 -1.4601  0.5107 -3.0103
 9289SOL     OW39328   0.995   0.368   7.777 -0.2076  0.0149 -0.5206
 9289SOL    HW139329   0.966   0.392   7.689  2.9274 -1.0080 -1.8442
 9289SOL    HW239330   0.915   0.357   7.828 -1.0951  1.9925 -1.4832
 9290SOL     OW39331   0.915   2.149  14.420  0.4309  0.2832  0.5555
 9290SOL    HW139332   0.898   2.243  14.424 -0.0414  0.2588 -1.0865
 9290SOL    HW239333   0.906   2.126  14.328 -0.9097 -1.3582  1.1122
 9291SOL     OW39334   2.816   0.052   8.207 -0.5484 -0.0865 -0.7985
 9291SOL    HW139335   2.827   4.677   8.213 -0.6419 -0.0820 -0.5548
 9291SOL    HW239336   2.906   0.081   8.222  0.3235 -3.9712  1.5500
 9292SOL     OW39337   3.744   3.678  12.361  0.3403 -0.2205  0.0785
 9292SOL    HW139338   3.748   3.586  12.336  0.0179 -0.0299 -0.6618
 9292SOL    HW239339   3.835   3.708  12.352  0.0298  0.7202  0.0604
 9293SOL     OW39340   0.311   2.140   3.288  0.5326 -0.3040 -1.1962
 9293SOL    HW139341   0.314   2.155   3.194  0.2022 -1.3002 -1.3664
 9293SOL    HW239342   0.235   2.192   3.314  1.5143  1.4103 -1.7957
 9294SOL     OW39343   2.813   0.348   4.134  0.0229 -0.2692  0.1187
 9294SOL    HW139344   2.824   0.443   4.132  0.7014 -0.3657 -1.0720
 9294SOL    HW239345   2.751   0.338   4.205  0.6352  0.2237  0.7192
 9295SOL     OW39346   1.359   4.312   3.399 -0.0687  0.1270  0.5051
 9295SOL    HW139347   1.404   4.280   3.477 -0.8590  0.2585  1.0189
 9295SOL    HW239348   1.423   4.376   3.370  1.8408 -1.5754  0.9812
 9296SOL     OW39349   0.588   2.137  15.809  0.3471  0.1273  0.2693
 9296SOL    HW139350   0.680   2.144  15.834  0.3783 -2.4958  0.8286
 9296SOL    HW239351   0.546   2.130  15.895  1.4939  0.5349  0.8600
 9297SOL     OW39352   0.611   2.494  14.414 -0.2376  0.7589 -0.1167
 9297SOL    HW139353   0.700   2.457  14.410 -1.8369 -2.9592 -1.5646
 9297SOL    HW239354   0.622   2.514  14.507  3.8750 -0.5105 -0.2966
 9298SOL     OW39355   3.252   4.706  11.939 -0.6101 -0.3011  0.2888
 9298SOL    HW139356   3.188   4.710  12.011 -1.3417 -1.1192 -0.3080
 9298SOL    HW239357   3.202   4.683  11.860  1.4672 -0.0633 -1.0768
 9299SOL     OW39358   4.401   1.126  14.131 -0.4572  0.1893 -0.4807
 9299SOL    HW139359   4.333   1.171  14.181 -1.4399 -0.8372 -0.9042
 9299SOL    HW239360   4.440   1.199  14.082 -0.3497  1.0933  0.9370
 9300SOL     OW39361   3.940   2.109   8.953  0.1593 -0.1749  0.5389
 9300SOL    HW139362   3.965   2.017   8.962 -2.0444 -0.6274  1.9951
 9300SOL    HW239363   3.891   2.131   9.032 -0.9450  1.6853 -0.6686
 9301SOL     OW39364   0.522   2.018   7.539  0.2363  0.2279 -0.1762
 9301SOL    HW139365   0.601   1.972   7.568  0.7538 -0.0946 -2.0761
 9301SOL    HW239366   0.518   1.994   7.446 -0.7583 -0.5873  0.0907
 9302SOL     OW39367   1.994   0.878   2.489 -0.1118 -0.3112  0.7314
 9302SOL    HW139368   2.049   0.936   2.436 -0.1829 -1.0636 -0.1614
 9302SOL    HW239369   1.912   0.928   2.486 -0.7752 -1.4564 -0.4157
 9303SOL     OW39370   0.615   4.057   3.018  0.3221  0.2759  0.3503
 9303SOL    HW139371   0.679   4.005   3.067 -0.5478 -1.3268 -0.1986
 9303SOL    HW239372   0.532   4.014   3.040  0.3665  0.7102  1.3684
 9304SOL     OW39373   4.470   4.091   3.154  0.0358  0.6531  0.0017
 9304SOL    HW139374   4.482   3.997   3.171 -2.0742  0.0222 -1.8504
 9304SOL    HW239375   4.487   4.127   3.241 -1.3755  0.0563  0.5366
 9305SOL     OW39376   2.121   1.579   5.297 -0.5148  0.6703 -0.6596
 9305SOL    HW139377   2.109   1.497   5.346  1.0175  0.2866 -0.9569
 9305SOL    HW239378   2.074   1.639   5.355  1.9856  1.2142  0.7921
 9306SOL     OW39379   3.094   2.147  12.782 -0.0189 -0.8401  0.3185
 9306SOL    HW139380   3.077   2.210  12.852 -0.0186 -1.8964  1.2604
 9306SOL    HW239381   3.166   2.193  12.739 -0.2458  0.1775  1.0363
 9307SOL     OW39382   0.071   3.198   9.046 -0.5798  0.3324  0.0061
 9307SOL    HW139383   0.092   3.160   9.131 -2.1323 -1.3630 -0.3790
 9307SOL    HW239384   4.715   3.247   9.076  0.2187  1.8477 -0.4673
 9308SOL     OW39385   0.856   1.881  14.541  0.3140 -0.0920 -0.2604
 9308SOL    HW139386   0.774   1.857  14.497  0.6491 -0.8256 -0.4856
 9308SOL    HW239387   0.862   1.976  14.550 -0.2965 -0.1442  0.6791
 9309SOL     OW39388   0.764   1.891   1.616 -0.6476  0.8969 -0.6786
 9309SOL    HW139389   0.685   1.847   1.586  1.2345 -3.3292  0.5333
 9309SOL    HW239390   0.785   1.955   1.549 -1.2133  2.5725  0.7329
 9310SOL     OW39391   3.999   4.670   7.781  0.1999  0.2563  0.7588
 9310SOL    HW139392   4.020   0.027   7.835 -4.2245  3.0847 -1.5757
 9310SOL    HW239393   3.905   4.661   7.793 -0.0600 -1.5968 -2.6546
 9311SOL     OW39394   2.582   1.949   8.443  0.1085  0.0056 -0.2133
 9311SOL    HW139395   2.536   1.866   8.432 -1.7130  0.9932 -0.0706
 9311SOL    HW239396   2.547   2.013   8.380  1.0930  0.1109 -0.6572
 9312SOL     OW39397   2.934   2.862   6.249 -0.0594  0.6554  0.2510
 9312SOL    HW139398   2.846   2.897   6.237 -1.4145 -1.8143  3.0832
 9312SOL    HW239399   2.921   2.769   6.265 -2.5373  0.3747 -3.6635
 9313SOL     OW39400   4.419   4.057   3.424  0.4493 -0.1976  0.0654
 9313SOL    HW139401   4.351   4.002   3.462  1.7640 -1.2852  0.8593
 9313SOL    HW239402   4.494   4.040   3.482  0.8966 -0.0223 -0.4665
 9314SOL     OW39403   1.302   4.428   3.859 -0.2623  0.0618  0.1733
 9314SOL    HW139404   1.280   4.511   3.903  2.9392  1.7766 -1.4815
 9314SOL    HW239405   1.283   4.357   3.920 -0.5065  0.5353  0.6501
 9315SOL     OW39406   4.359   3.592   6.148  0.0546 -0.8584  0.0934
 9315SOL    HW139407   4.263   3.600   6.149  0.2015  0.7512  0.7153
 9315SOL    HW239408   4.382   3.591   6.241  1.0094  0.6204 -0.1276
 9316SOL     OW39409   1.202   3.840   8.629  0.4120  0.1504 -0.3968
 9316SOL    HW139410   1.212   3.933   8.650 -2.5057  0.6247 -1.2170
 9316SOL    HW239411   1.142   3.810   8.697  1.0675 -1.2651 -0.4394
 9317SOL     OW39412   1.475   4.024   0.604  0.2262  0.3034 -0.2990
 9317SOL    HW139413   1.451   3.943   0.648 -0.5652 -0.6782 -2.5487
 9317SOL    HW239414   1.549   3.990   0.554  0.5321  1.9311 -0.9540
 9318SOL     OW39415   4.316   0.984  16.248  0.7313  0.0858 -0.1095
 9318SOL    HW139416   4.382   0.917  16.229  0.2612 -0.5411  0.5038
 9318SOL    HW239417   4.314   0.978  16.344 -1.1564 -1.1967 -0.2421
 9319SOL     OW39418   2.856   4.174  14.380 -1.1372 -0.2572 -0.5950
 9319SOL    HW139419   2.853   4.266  14.405  1.9874 -0.0251 -0.9947
 9319SOL    HW239420   2.920   4.179  14.309 -0.4187 -0.3933  0.0332
 9320SOL     OW39421   0.096   3.447   0.070 -0.0415 -0.0618  0.4025
 9320SOL    HW139422   0.093   3.388  17.677  0.8619  0.0517  0.2697
 9320SOL    HW239423   0.006   3.444   0.103  0.4367 -1.0403  1.6250
 9321SOL     OW39424   0.263   1.399   5.286 -0.0898 -0.1749 -0.2127
 9321SOL    HW139425   0.227   1.401   5.198 -0.5400 -0.7486 -0.0446
 9321SOL    HW239426   0.334   1.336   5.278 -0.7061 -1.0194  0.7991
 9322SOL     OW39427   3.742   3.158   2.266 -0.0842  0.4090  0.5043
 9322SOL    HW139428   3.666   3.168   2.209 -0.1267  3.1714  1.0232
 9322SOL    HW239429   3.786   3.088   2.217  1.9942  1.7416  0.4560
 9323SOL     OW39430   3.897   4.172   3.997 -0.0623  0.4917 -0.3394
 9323SOL    HW139431   3.903   4.087   3.953  2.0618 -1.8961  4.5360
 9323SOL    HW239432   3.808   4.194   3.970 -0.7202  0.4636  1.7718
 9324SOL     OW39433   0.351   0.440   4.543 -0.2906 -0.0155  0.1120
 9324SOL    HW139434   0.347   0.364   4.602  0.8749  0.8892  1.3758
 9324SOL    HW239435   0.348   0.395   4.459 -6.0342 -0.7757  0.7238
 9325SOL     OW39436   0.223   3.577   6.225 -0.7353 -0.1431  0.6103
 9325SOL    HW139437   0.202   3.560   6.317  1.1213  1.7057  1.3782
 9325SOL    HW239438   0.226   3.488   6.191  0.4430  0.1415 -0.0416
 9326SOL     OW39439   1.918   0.073   4.263  0.3828  0.8274  0.1173
 9326SOL    HW139440   2.004   0.087   4.303  0.6089  0.3841 -0.2094
 9326SOL    HW239441   1.863   0.029   4.328 -0.4015  0.6927 -0.6418
 9327SOL     OW39442   2.169   2.542   4.422 -0.2761 -0.2633 -0.2116
 9327SOL    HW139443   2.255   2.511   4.395  0.1780 -0.8188  1.8807
 9327SOL    HW239444   2.185   2.602   4.495 -1.9840 -0.7936  0.6056
 9328SOL     OW39445   0.631   2.251   1.359  0.5658 -0.6613  0.0471
 9328SOL    HW139446   0.627   2.163   1.398  0.2949  0.4135  2.4842
 9328SOL    HW239447   0.660   2.303   1.434 -0.6420 -0.5036  0.4037
 9329SOL     OW39448   2.507   2.365   2.336  0.1336  0.2696  0.2147
 9329SOL    HW139449   2.531   2.368   2.428 -0.5162  1.8083  0.3279
 9329SOL    HW239450   2.578   2.309   2.305  1.8660  2.0976  0.9112
 9330SOL     OW39451   2.761   2.514   8.307  0.3588 -0.2562  0.6402
 9330SOL    HW139452   2.809   2.461   8.370 -0.3344 -1.4712  0.1378
 9330SOL    HW239453   2.723   2.444   8.255  1.8189 -1.1362  0.7695
 9331SOL     OW39454   0.395   3.684   7.550  0.5831 -0.2790 -0.6005
 9331SOL    HW139455   0.378   3.591   7.563  0.8505 -0.2026  0.3044
 9331SOL    HW239456   0.407   3.712   7.641 -1.3477  0.3508 -0.5249
 9332SOL     OW39457   0.914   1.437  15.867  0.2056 -0.2945 -0.0696
 9332SOL    HW139458   0.856   1.383  15.919  1.1334 -1.8242 -0.6229
 9332SOL    HW239459   0.985   1.377  15.844  0.6306  0.6733 -1.3266
 9333SOL     OW39460   4.587   1.077   2.842  0.0406 -0.0666 -0.2609
 9333SOL    HW139461   4.576   1.022   2.764 -1.1465  0.8743 -0.7574
 9333SOL    HW239462   4.550   1.028   2.915  1.0968  1.1638  1.1119
 9334SOL     OW39463   3.931   2.360   6.049  0.0129  0.3447 -0.1105
 9334SOL    HW139464   3.933   2.268   6.076  0.7986  0.3847 -0.0362
 9334SOL    HW239465   3.897   2.403   6.128  0.3003  0.5721 -0.1115
 9335SOL     OW39466   1.845   4.588   5.794  0.0888  0.2427  0.0365
 9335SOL    HW139467   1.835   4.642   5.872  3.7251 -0.7947  1.2117
 9335SOL    HW239468   1.761   4.544   5.809  0.4223 -0.3234  0.2544
 9336SOL     OW39469   1.922   0.954   8.595 -0.5779  0.1744 -0.1114
 9336SOL    HW139470   1.959   0.900   8.525 -0.8668 -2.0368  1.4509
 9336SOL    HW239471   1.991   0.937   8.659 -0.4722 -1.2803 -0.5977
 9337SOL     OW39472   3.616   4.659   4.949 -0.4245 -0.1791  0.0188
 9337SOL    HW139473   3.572   4.574   4.950 -1.5663  0.4417  2.2309
 9337SOL    HW239474   3.608   4.681   5.041 -1.1492 -0.1862 -0.0376
 9338SOL     OW39475   0.729   3.782   2.454 -0.3934 -0.6760  0.4056
 9338SOL    HW139476   0.757   3.791   2.545  4.3320  1.7254 -1.2926
 9338SOL    HW239477   0.644   3.825   2.456  0.3232  0.6957  1.3055
 9339SOL     OW39478   3.998   2.527   9.935  0.3821 -0.2299 -0.4996
 9339SOL    HW139479   3.911   2.487   9.945 -0.4810  1.2814 -2.0093
 9339SOL    HW239480   4.055   2.478   9.994 -2.8460 -1.6458  1.4346
 9340SOL     OW39481   0.479   0.751  14.867 -0.3594  0.4669  0.3449
 9340SOL    HW139482   0.570   0.732  14.888 -0.6868 -1.5136 -0.0741
 9340SOL    HW239483   0.433   0.674  14.901 -0.4344  0.0733 -0.6640
 9341SOL     OW39484   4.498   1.399   4.200 -0.1542 -0.5458 -0.0365
 9341SOL    HW139485   4.509   1.481   4.152  1.2687  0.0588  1.3319
 9341SOL    HW239486   4.480   1.339   4.127 -2.1726 -1.1529  0.9609
 9342SOL     OW39487   0.973   0.569   4.459 -0.4877 -0.3544 -0.5615
 9342SOL    HW139488   0.996   0.650   4.412 -1.5549 -0.7749 -1.7943
 9342SOL    HW239489   1.045   0.561   4.522 -0.0936  3.5239 -0.4768
 9343SOL     OW39490   2.190   3.781   4.949 -0.1629 -0.1317 -0.1941
 9343SOL    HW139491   2.178   3.751   4.858  1.1684  0.4212 -0.5579
 9343SOL    HW239492   2.144   3.706   4.987 -1.7653  1.8244  1.6698
 9344SOL     OW39493   4.216   4.653   0.798  0.0765 -0.9404  0.0811
 9344SOL    HW139494   4.158   4.587   0.837 -1.0012 -0.5127 -0.8055
 9344SOL    HW239495   4.245   4.695   0.879 -1.0810 -0.4141  0.2294
 9345SOL     OW39496   0.374   4.401   3.553  0.0641  0.1629  0.1467
 9345SOL    HW139497   0.401   4.326   3.606  0.4662 -0.8776 -1.5376
 9345SOL    HW239498   0.293   4.428   3.596  0.8074  2.0626  0.3591
 9346SOL     OW39499   1.583   1.998   5.361  0.1166  0.3998 -0.3649
 9346SOL    HW139500   1.632   2.021   5.441  1.5281  1.0187 -1.4059
 9346SOL    HW239501   1.548   1.910   5.374 -0.8405  0.8722  0.2874
 9347SOL     OW39502   4.160   4.601   6.152 -0.1194  0.9897  0.7339
 9347SOL    HW139503   4.233   4.542   6.133  0.3652  1.8825 -0.1628
 9347SOL    HW239504   4.088   4.540   6.171  1.7311 -1.2950  0.5194
 9348SOL     OW39505   0.896   3.911   1.828 -0.1754 -0.2685  0.0340
 9348SOL    HW139506   0.909   3.836   1.771  0.6925  0.6477 -0.9839
 9348SOL    HW239507   0.813   3.895   1.873 -0.6482 -0.8419 -1.0561
 9349SOL     OW39508   3.237   1.972  14.768 -0.0035 -0.0643 -0.3420
 9349SOL    HW139509   3.329   1.953  14.750 -1.2557 -4.4158 -2.1194
 9349SOL    HW239510   3.207   1.885  14.794 -0.0959 -0.1990 -0.8932
 9350SOL     OW39511   3.688   0.652   4.703  0.2317 -0.5100 -0.3282
 9350SOL    HW139512   3.643   0.620   4.624 -0.8526  1.2531 -0.4255
 9350SOL    HW239513   3.780   0.649   4.678  0.0756 -0.9053 -0.8572
 9351SOL     OW39514   2.685   2.024   6.795  0.0964 -0.6333 -0.0009
 9351SOL    HW139515   2.627   1.949   6.799 -1.5248  0.5883 -0.5787
 9351SOL    HW239516   2.659   2.079   6.720  0.8505 -1.8410 -1.1524
 9352SOL     OW39517   4.651   0.671  10.937 -0.4102  0.0282 -0.0230
 9352SOL    HW139518   4.694   0.587  10.923  0.8486  0.9863 -2.0045
 9352SOL    HW239519   4.639   0.702  10.847 -0.5866 -2.2444 -0.7881
 9353SOL     OW39520   2.584   2.806   2.390 -0.1122 -0.2163  0.4358
 9353SOL    HW139521   2.649   2.875   2.398  1.0023 -1.1533 -0.5663
 9353SOL    HW239522   2.585   2.763   2.476  1.1777  1.0179  1.0302
 9354SOL     OW39523   4.435   1.006   9.038 -0.8032 -0.1842  0.4849
 9354SOL    HW139524   4.437   1.084   8.982  0.8917 -0.5415  0.0494
 9354SOL    HW239525   4.343   0.981   9.040 -1.9601  3.9531 -0.8972
 9355SOL     OW39526   2.486   2.081   8.218  0.2259 -0.1973  0.3491
 9355SOL    HW139527   2.475   2.015   8.149 -0.3475  0.1136  0.1445
 9355SOL    HW239528   2.396   2.086   8.249  0.5870 -1.0812  1.5605
 9356SOL     OW39529   3.392   2.232   3.001  0.1151 -0.3553  0.0861
 9356SOL    HW139530   3.388   2.206   3.093  0.1630 -1.8523 -0.3340
 9356SOL    HW239531   3.448   2.308   3.017  0.3054 -0.3821 -0.4324
 9357SOL     OW39532   0.961   0.088   5.300  0.9269  0.0702  0.2764
 9357SOL    HW139533   0.975   0.010   5.354  2.3765  1.7256  2.2484
 9357SOL    HW239534   1.036   0.086   5.240 -0.2551 -0.5156 -1.1931
 9358SOL     OW39535   0.922   1.129  13.234  0.1259 -0.2656 -0.0698
 9358SOL    HW139536   0.923   1.033  13.237 -3.5642 -0.3462 -1.4126
 9358SOL    HW239537   0.918   1.164  13.323 -3.2639  0.7387 -0.6139
 9359SOL     OW39538   1.906   0.210  16.206  0.6089 -0.1393 -0.5154
 9359SOL    HW139539   1.836   0.166  16.255  1.8311 -0.5268  0.8730
 9359SOL    HW239540   1.845   0.266  16.159 -0.5935  0.1857  1.4291
 9360SOL     OW39541   0.812   2.495   5.025 -0.3513 -0.1789 -0.1284
 9360SOL    HW139542   0.721   2.522   5.013 -0.3226 -0.0146  0.0346
 9360SOL    HW239543   0.856   2.531   4.948  0.0984  0.6798  0.5276
 9361SOL     OW39544   0.724   0.767   4.417  0.4955 -0.4093  0.4104
 9361SOL    HW139545   0.670   0.718   4.355  0.9327  0.2710 -0.5089
 9361SOL    HW239546   0.806   0.772   4.368  0.9299  1.1800  1.3080
 9362SOL     OW39547   3.416   3.049   4.488 -0.3724  0.0169 -0.3186
 9362SOL    HW139548   3.394   3.127   4.437  2.6456  2.1143  1.5982
 9362SOL    HW239549   3.441   3.100   4.565 -1.1360  0.5024 -0.3933
 9363SOL     OW39550   1.103   0.985  11.941  0.4765 -0.3404  0.0704
 9363SOL    HW139551   1.034   0.969  11.877  0.0732  0.1101  0.3943
 9363SOL    HW239552   1.157   0.906  11.929  3.4063  1.6249  0.3882
 9364SOL     OW39553   1.145   1.931  16.502  0.3849  0.2315  0.9001
 9364SOL    HW139554   1.158   1.925  16.407 -2.5791  0.1334  0.5033
 9364SOL    HW239555   1.139   1.837  16.521 -1.5563  0.3356  0.7637
 9365SOL     OW39556   1.427   3.067   1.119 -0.3708  0.1083 -0.4207
 9365SOL    HW139557   1.446   3.053   1.027 -2.9057 -0.7289 -0.8179
 9365SOL    HW239558   1.401   3.159   1.123 -0.9810 -0.0751 -0.1405
 9366SOL     OW39559   3.773   4.473   4.199 -0.6576 -0.3502  0.0381
 9366SOL    HW139560   3.855   4.520   4.214 -0.0332 -1.5636  0.4862
 9366SOL    HW239561   3.747   4.504   4.113  0.6985 -1.1327 -0.6542
 9367SOL     OW39562   3.819   3.219  13.035 -0.2364 -0.1885  0.0853
 9367SOL    HW139563   3.874   3.183  13.105  0.7837  0.7176 -0.2457
 9367SOL    HW239564   3.814   3.148  12.970 -1.4763  0.5149 -0.5778
 9368SOL     OW39565   3.527   0.199   1.916 -0.5068  0.1780  0.2345
 9368SOL    HW139566   3.493   0.288   1.920 -0.7647  0.1005 -0.2106
 9368SOL    HW239567   3.577   0.198   1.997  1.3292  1.1199 -0.8883
 9369SOL     OW39568   0.905   2.659   1.496  0.0849 -0.0363  0.5043
 9369SOL    HW139569   0.924   2.599   1.424  0.3500  1.1142 -0.3802
 9369SOL    HW239570   0.843   2.719   1.455 -1.3759 -2.4182 -0.7628
 9370SOL     OW39571   2.625   1.598   8.480  0.2005  0.2282 -0.6647
 9370SOL    HW139572   2.538   1.634   8.463 -0.8777 -1.8736  0.4178
 9370SOL    HW239573   2.664   1.672   8.526  0.6233 -1.3094  1.4148
 9371SOL     OW39574   4.145   2.634   5.689  0.1337  0.2537 -0.4296
 9371SOL    HW139575   4.120   2.682   5.610  3.1189  0.5028 -1.2202
 9371SOL    HW239576   4.101   2.680   5.761  2.0191 -0.1960  1.0340
 9372SOL     OW39577   2.647   2.335   3.978  0.1582  0.7766 -0.3723
 9372SOL    HW139578   2.694   2.412   4.009 -0.4568  0.2513  1.9386
 9372SOL    HW239579   2.676   2.268   4.041  0.8110  0.4334 -1.0407
 9373SOL     OW39580   3.783   2.925   8.428  0.2578  0.0163  0.1813
 9373SOL    HW139581   3.787   2.839   8.386  0.7410  0.2404 -0.2347
 9373SOL    HW239582   3.859   2.912   8.485 -0.8706  2.3751  2.2154
 9374SOL     OW39583   2.355   0.055   5.442 -0.4972  0.2208 -0.2564
 9374SOL    HW139584   2.355   0.150   5.427 -1.7406  0.3310  0.4750
 9374SOL    HW239585   2.339   0.018   5.355  0.5854 -0.3125 -0.2267
 9375SOL     OW39586   0.495   3.036   5.435  0.2248  0.9423 -0.0479
 9375SOL    HW139587   0.575   2.984   5.427 -0.4951 -0.7032  4.0727
 9375SOL    HW239588   0.473   3.039   5.528 -0.3591 -0.5083 -0.1538
 9376SOL     OW39589   1.080   3.382   0.542  0.0518 -0.6289  0.0427
 9376SOL    HW139590   0.991   3.381   0.576  0.0470 -1.1440  0.0198
 9376SOL    HW239591   1.085   3.354   0.450 -3.0726 -1.0499 -0.0136
 9377SOL     OW39592   3.830   3.242   3.973  0.0603  0.0301  0.3134
 9377SOL    HW139593   3.839   3.205   3.885  1.6731  1.4765 -0.1174
 9377SOL    HW239594   3.835   3.334   3.948  1.9733  0.4691  2.3834
 9378SOL     OW39595   4.103   2.836   4.102  0.0402 -0.1485  0.4429
 9378SOL    HW139596   4.093   2.828   4.007  0.3801 -2.3242  0.5948
 9378SOL    HW239597   4.063   2.922   4.115  0.5358  0.2520 -0.6297
 9379SOL     OW39598   1.329   3.943   2.168  0.7192 -0.3315  0.1677
 9379SOL    HW139599   1.305   3.853   2.193 -0.1655  0.1812  1.1659
 9379SOL    HW239600   1.386   3.914   2.097  0.8521 -1.2712  0.6516
 9380SOL     OW39601   0.633   2.134   5.205  0.6293  0.7379 -0.7543
 9380SOL    HW139602   0.698   2.177   5.149  1.3094 -0.0986 -0.6053
 9380SOL    HW239603   0.567   2.121   5.137 -0.9862 -0.9455  1.1505
 9381SOL     OW39604   1.467   0.808   6.376 -0.2252 -0.3900 -0.0739
 9381SOL    HW139605   1.550   0.831   6.335  1.4180 -1.3299  2.7508
 9381SOL    HW239606   1.424   0.893   6.387  0.3545 -0.2138  0.7771
 9382SOL     OW39607   0.261   0.553   6.029  0.6550  0.2413 -0.3426
 9382SOL    HW139608   0.346   0.543   5.986  0.6033  1.8586 -0.8170
 9382SOL    HW239609   0.269   0.503   6.110 -0.1025  0.1067 -0.3468
 9383SOL     OW39610   4.309   3.845  17.448  0.2472 -0.2065  0.5003
 9383SOL    HW139611   4.269   3.770  17.493  0.8658 -1.7883 -1.5635
 9383SOL    HW239612   4.398   3.809  17.440  0.9507  1.5292  0.6057
 9384SOL     OW39613   4.179   3.236  10.492 -0.5321  0.3554 -0.5340
 9384SOL    HW139614   4.152   3.324  10.463  1.3285  0.9611 -0.4508
 9384SOL    HW239615   4.249   3.208  10.432  0.2795 -0.8679  1.0027
 9385SOL     OW39616   0.570   2.280   5.525 -0.6338 -0.1508  0.0768
 9385SOL    HW139617   0.507   2.275   5.453 -2.1086  2.0118  1.2129
 9385SOL    HW239618   0.653   2.277   5.478 -1.3261  0.3658 -1.1626
 9386SOL     OW39619   1.676   4.616   3.942  0.1174  0.3526 -0.2654
 9386SOL    HW139620   1.666   4.616   3.847  4.7293  0.0535 -0.7416
 9386SOL    HW239621   1.656   4.524   3.960 -0.2148  0.9131  2.1054
 9387SOL     OW39622   2.669   4.520   4.644 -0.6090  0.0376  0.2854
 9387SOL    HW139623   2.676   4.428   4.669 -3.1975 -0.8946 -2.5312
 9387SOL    HW239624   2.667   4.510   4.549  1.9759  0.1754  0.1991
 9388SOL     OW39625   0.578   0.900   8.610  0.2150  0.7663 -1.0819
 9388SOL    HW139626   0.659   0.867   8.649 -0.2163 -1.7173 -2.3220
 9388SOL    HW239627   0.596   0.994   8.597 -2.3841  1.1756 -1.7635
 9389SOL     OW39628   2.513   2.914  17.499  0.1323 -0.1831 -0.3848
 9389SOL    HW139629   2.431   2.945  17.462  1.4890  2.3569 -1.2747
 9389SOL    HW239630   2.571   2.989  17.510 -0.0829 -0.0234 -0.3396
 9390SOL     OW39631   1.337   2.011   9.152  0.4543  0.0243  0.0495
 9390SOL    HW139632   1.319   1.938   9.092 -1.1592 -0.6882  1.3730
 9390SOL    HW239633   1.352   2.082   9.090  3.6988 -0.4953  0.2883
 9391SOL     OW39634   3.555   3.170  10.676 -0.0571  0.1617  0.0261
 9391SOL    HW139635   3.642   3.204  10.654 -0.8917  0.2448 -3.1411
 9391SOL    HW239636   3.574   3.085  10.717 -0.2960  0.7933  1.4598
 9392SOL     OW39637   4.083   4.361   4.067  0.1416  0.4012  0.3253
 9392SOL    HW139638   4.042   4.290   4.019  0.5267  0.6539 -0.3809
 9392SOL    HW239639   4.072   4.348   4.161  0.3486  1.3338  0.4848
 9393SOL     OW39640   1.279   1.001   8.686 -0.3604  0.2115 -0.1035
 9393SOL    HW139641   1.352   1.045   8.643  0.8966 -2.0034 -0.2306
 9393SOL    HW239642   1.270   0.935   8.617 -1.3308  2.2752 -1.9658
 9394SOL     OW39643   3.950   3.465  10.200 -0.2385 -0.0466  0.8855
 9394SOL    HW139644   3.937   3.524  10.125 -2.7646 -4.2886 -2.0288
 9394SOL    HW239645   3.945   3.377  10.162  0.2924  0.1199  0.4332
 9395SOL     OW39646   1.519   4.007  16.532  1.0844  0.4131  0.0860
 9395SOL    HW139647   1.584   3.987  16.600 -0.7405 -2.3438  0.9759
 9395SOL    HW239648   1.563   4.063  16.467 -0.2556 -0.2276 -1.3728
 9396SOL     OW39649   3.110   2.481   3.229 -0.1661  0.4122  0.1373
 9396SOL    HW139650   3.149   2.510   3.147  2.1523 -1.9838  0.4146
 9396SOL    HW239651   3.021   2.514   3.218 -0.8108 -0.9356  1.1405
 9397SOL     OW39652   1.665   1.259   4.836  0.1597 -0.2461  0.1029
 9397SOL    HW139653   1.659   1.231   4.744 -1.4035 -2.5206  0.9065
 9397SOL    HW239654   1.593   1.207   4.871  0.7832 -0.2852  1.3440
 9398SOL     OW39655   1.165   0.047  15.496  0.4025 -0.4646 -0.2583
 9398SOL    HW139656   1.125   0.123  15.453 -0.9769  0.4094  2.5056
 9398SOL    HW239657   1.122   0.044  15.582 -1.9565  0.4995 -1.4097
 9399SOL     OW39658   4.718   1.529   6.531 -0.3292 -0.2273 -1.1188
 9399SOL    HW139659   4.713   1.445   6.576 -1.1653  0.0360 -0.7194
 9399SOL    HW239660   0.079   1.524   6.480 -0.6445 -1.5381 -1.4914
 9400SOL     OW39661   3.479   1.859   0.076 -0.0620 -0.1841  0.6776
 9400SOL    HW139662   3.473   1.955   0.073  1.5757 -0.1398 -1.2739
 9400SOL    HW239663   3.395   1.841   0.119 -0.4164 -0.8700 -0.3085
 9401SOL     OW39664   3.265   1.019   2.830 -0.1737 -0.6415  0.8706
 9401SOL    HW139665   3.170   1.012   2.824 -0.2095  0.3443  0.4104
 9401SOL    HW239666   3.293   1.038   2.740  1.8000 -0.2289  1.5639
 9402SOL     OW39667   4.266   4.039  10.283 -0.7961  0.4620 -0.0516
 9402SOL    HW139668   4.343   4.003  10.239 -0.3010  1.0268  0.3460
 9402SOL    HW239669   4.197   3.993  10.235  1.0188  0.4971 -2.6845
 9403SOL     OW39670   1.790   0.915   5.915  0.2523  0.0910 -0.2283
 9403SOL    HW139671   1.874   0.943   5.879 -0.9883  0.6760 -2.6501
 9403SOL    HW239672   1.805   0.822   5.933 -2.8388 -0.6655 -1.4071
 9404SOL     OW39673   0.858   1.114  12.750  0.4108  0.1576 -0.1140
 9404SOL    HW139674   0.770   1.084  12.772 -0.1555  1.3519 -0.7776
 9404SOL    HW239675   0.915   1.101  12.826 -0.0236  2.2998  0.5877
 9405SOL     OW39676   4.052   0.322  17.345 -0.2798  0.4856 -0.0980
 9405SOL    HW139677   4.117   0.384  17.378 -0.4394  0.1004  0.9380
 9405SOL    HW239678   3.981   0.386  17.338 -0.2544  0.5911  0.6864
 9406SOL     OW39679   4.136   0.209   3.313 -0.4387 -0.3587 -0.7825
 9406SOL    HW139680   4.071   0.249   3.255 -2.0845 -1.5534  0.2236
 9406SOL    HW239681   4.091   0.231   3.395  0.6612 -0.0730 -0.2569
 9407SOL     OW39682   1.970   3.553   0.588 -0.1414 -0.0889 -0.4128
 9407SOL    HW139683   1.948   3.608   0.512 -0.3962 -0.1332 -0.3701
 9407SOL    HW239684   1.979   3.463   0.555  0.9033 -0.3117  0.4587
 9408SOL     OW39685   4.531   3.297   2.608  0.2234  0.1241 -0.0060
 9408SOL    HW139686   4.594   3.229   2.630 -0.3702 -0.5441 -0.3819
 9408SOL    HW239687   4.549   3.362   2.676  0.5749 -0.6114  0.6047
 9409SOL     OW39688   3.430   0.927   9.781 -0.5048 -0.5230 -0.4611
 9409SOL    HW139689   3.476   0.881   9.852  1.5996 -0.6113 -1.8816
 9409SOL    HW239690   3.368   0.978   9.833  3.1496  1.8414  1.5411
 9410SOL     OW39691   4.616   3.759   7.920 -0.1844  0.0551 -0.6517
 9410SOL    HW139692   4.531   3.792   7.949 -1.5973 -0.7134 -3.8539
 9410SOL    HW239693   4.599   3.666   7.936  1.8091 -0.0575  0.7384
 9411SOL     OW39694   0.218   2.568   4.733 -0.2030  0.5108  0.9509
 9411SOL    HW139695   0.232   2.545   4.825 -1.2144 -1.9985  0.4803
 9411SOL    HW239696   0.131   2.607   4.737 -0.1190  0.5505  2.5147
 9412SOL     OW39697   1.440   4.708  17.265  0.0005 -0.3408  0.2056
 9412SOL    HW139698   1.477   0.050  17.202  2.0286 -1.7982 -0.0565
 9412SOL    HW239699   1.503   4.635  17.258 -0.9859 -1.1323 -0.4377
 9413SOL     OW39700   3.069   3.275   0.607  0.4507 -0.6351 -0.3650
 9413SOL    HW139701   3.059   3.272   0.512 -0.7188 -0.7063 -0.2436
 9413SOL    HW239702   3.152   3.321   0.618 -1.1735  1.6521  2.2827
 9414SOL     OW39703   3.801   3.293   9.591 -0.1070 -0.6815 -0.0893
 9414SOL    HW139704   3.865   3.364   9.581  0.9122 -1.0594  3.5495
 9414SOL    HW239705   3.799   3.289   9.687  0.7519 -0.3545 -0.0598
 9415SOL     OW39706   1.723   1.136   8.096  0.3956 -0.2909  0.4875
 9415SOL    HW139707   1.802   1.168   8.053  0.5966 -1.2416  0.1564
 9415SOL    HW239708   1.661   1.191   8.047  2.3426  1.0191 -0.4976
 9416SOL     OW39709   3.087   1.368   6.604  0.2452 -0.1886  0.6893
 9416SOL    HW139710   3.176   1.402   6.619  0.6564 -0.8605 -0.2157
 9416SOL    HW239711   3.059   1.354   6.694  0.3182 -2.7493  0.3100
 9417SOL     OW39712   0.482   2.873   8.613 -0.3525  0.1652  0.5178
 9417SOL    HW139713   0.503   2.831   8.530 -2.4540  0.2387 -0.0300
 9417SOL    HW239714   0.443   2.956   8.584  0.9468 -0.2780 -2.4957
 9418SOL     OW39715   0.739   3.228   1.252 -0.3485 -0.2095  0.1533
 9418SOL    HW139716   0.686   3.164   1.299  0.8310 -1.7572 -0.6146
 9418SOL    HW239717   0.781   3.170   1.189 -0.3968  0.8040 -0.8120
 9419SOL     OW39718   3.057   3.905   3.467 -0.6930 -0.1022  0.1676
 9419SOL    HW139719   2.979   3.850   3.461 -0.1222 -0.8639 -0.2866
 9419SOL    HW239720   3.067   3.937   3.377  0.7709 -0.7843  0.0803
 9420SOL     OW39721   1.889   1.058   7.651 -0.0302 -0.1514 -0.6244
 9420SOL    HW139722   1.908   0.986   7.711 -1.2500  0.3577  0.3700
 9420SOL    HW239723   1.816   1.022   7.600  1.0061  1.0660 -2.9743
 9421SOL     OW39724   2.719   1.707   3.051  0.5696  0.1230 -0.2260
 9421SOL    HW139725   2.808   1.697   3.018  0.4975 -2.4010  0.3828
 9421SOL    HW239726   2.671   1.656   2.985 -1.1701  0.2182  0.9599
 9422SOL     OW39727   3.186   0.775  11.431 -0.5826 -0.7653 -0.1474
 9422SOL    HW139728   3.245   0.847  11.407 -0.2318 -0.7750  0.6988
 9422SOL    HW239729   3.171   0.730  11.348 -1.0629  0.0380 -0.5008
 9423SOL     OW39730   2.845   3.130  15.820 -0.5887 -0.3640 -0.1061
 9423SOL    HW139731   2.923   3.124  15.766  0.2377 -1.1537  1.1880
 9423SOL    HW239732   2.811   3.202  15.767 -0.7270  0.2877  0.8850
 9424SOL     OW39733   3.463   1.738   4.820 -0.6140  0.2242  0.2241
 9424SOL    HW139734   3.424   1.721   4.734 -0.1107  2.2447 -0.4083
 9424SOL    HW239735   3.443   1.832   4.826  1.2171  0.4829  2.2508
 9425SOL     OW39736   0.037   1.084  16.355  1.0318 -0.3668 -0.5840
 9425SOL    HW139737   0.092   1.126  16.289  1.1903 -0.2992 -0.4093
 9425SOL    HW239738   4.710   1.161  16.387 -2.6689 -2.5117 -0.9282
 9426SOL     OW39739   4.233   0.647  11.501 -0.1849  0.5976  0.4613
 9426SOL    HW139740   4.205   0.723  11.552 -0.3482  0.1944  0.9771
 9426SOL    HW239741   4.183   0.577  11.543 -0.0057 -0.3404 -0.9134
 9427SOL     OW39742   3.235   0.307  11.638 -0.0578 -0.6152  0.3692
 9427SOL    HW139743   3.292   0.294  11.562 -0.3205  1.8079 -0.2420
 9427SOL    HW239744   3.203   0.397  11.632 -2.0196 -1.4340 -1.3292
 9428SOL     OW39745   1.865   2.997   6.928 -0.0176 -0.4718  0.0816
 9428SOL    HW139746   1.900   3.048   7.001  1.9941 -1.7341 -0.0107
 9428SOL    HW239747   1.942   2.970   6.879  0.0060  0.9854 -0.6992
 9429SOL     OW39748   0.616   0.142   7.430 -0.1567 -0.1532  0.3467
 9429SOL    HW139749   0.686   0.181   7.483  1.0421  2.0644 -2.8468
 9429SOL    HW239750   0.563   0.100   7.497  0.2208 -0.7096  0.2892
 9430SOL     OW39751   0.008   3.104   0.438  0.2508 -0.2027  0.1974
 9430SOL    HW139752   4.640   3.102   0.476 -0.2192  3.5086 -0.7363
 9430SOL    HW239753   0.005   3.170   0.369  0.6633  0.3659  0.7357
 9431SOL     OW39754   1.504   1.731   5.418  0.0519  0.3504 -0.5151
 9431SOL    HW139755   1.557   1.693   5.348  1.6943 -1.3095  1.6632
 9431SOL    HW239756   1.415   1.700   5.398  0.0446 -0.7502  1.2375
 9432SOL     OW39757   0.184   1.138   6.903  0.2432 -0.0785 -0.0367
 9432SOL    HW139758   0.157   1.054   6.865  1.0470  0.0146 -0.8221
 9432SOL    HW239759   0.200   1.121   6.996 -1.0036 -0.2099  0.1577
 9433SOL     OW39760   1.180   4.444   7.588 -0.5379 -0.1837  0.8178
 9433SOL    HW139761   1.156   4.369   7.643 -1.9674  0.0064  0.4615
 9433SOL    HW239762   1.113   4.504   7.621 -0.9410 -0.5443  0.6606
 9434SOL     OW39763   0.030   0.154   3.361  0.3955 -0.2636 -0.0296
 9434SOL    HW139764   4.679   0.174   3.422  0.8499 -2.5428  1.2410
 9434SOL    HW239765   0.070   0.082   3.410  2.0205  1.4597  1.1510
 9435SOL     OW39766   2.389   0.407   3.544 -0.0345 -0.5925 -0.1307
 9435SOL    HW139767   2.343   0.479   3.588  3.7514  0.4262  2.1147
 9435SOL    HW239768   2.437   0.370   3.618 -0.0990 -1.6827 -0.6349
 9436SOL     OW39769   0.284   3.891  11.971  0.4205  0.2966  0.1553
 9436SOL    HW139770   0.290   3.949  12.047 -1.8578  2.0212 -0.9647
 9436SOL    HW239771   0.236   3.946  11.909 -0.8278 -1.0619 -0.1030
 9437SOL     OW39772   2.511   1.611  11.541  0.3525  0.0416 -0.1517
 9437SOL    HW139773   2.561   1.630  11.621 -1.3732  0.4122  0.8317
 9437SOL    HW239774   2.581   1.586  11.481 -1.8336 -2.2126 -1.7747
 9438SOL     OW39775   3.603   1.682   5.377  0.2859 -0.3986 -0.1580
 9438SOL    HW139776   3.637   1.720   5.458 -0.3320 -3.2029  1.4496
 9438SOL    HW239777   3.642   1.595   5.386  2.1080  0.2805 -1.5369
 9439SOL     OW39778   0.321   1.215   7.672 -0.4664  0.3687  0.0222
 9439SOL    HW139779   0.239   1.168   7.685 -0.3693 -0.4694 -2.3540
 9439SOL    HW239780   0.324   1.256   7.758  2.9087  0.2290 -0.0191
 9440SOL     OW39781   1.712   2.783   8.171  0.4173  0.4333 -1.2816
 9440SOL    HW139782   1.768   2.773   8.248  0.2023  0.2903 -1.1438
 9440SOL    HW239783   1.635   2.822   8.213  1.0738 -0.0129  0.3500
 9441SOL     OW39784   2.547   1.086  15.291  0.1499  0.2539  0.0901
 9441SOL    HW139785   2.630   1.113  15.330 -0.3841 -0.0416  1.4214
 9441SOL    HW239786   2.562   0.991  15.292  0.7944  0.3641  0.7039
 9442SOL     OW39787   1.249   3.587   0.565 -0.2781 -0.0190 -0.0911
 9442SOL    HW139788   1.205   3.503   0.575 -0.1732  0.1052  1.4976
 9442SOL    HW239789   1.342   3.567   0.556  0.0721  1.1649  0.8767
 9443SOL     OW39790   3.178   2.532  16.892 -0.2698  0.0977  0.1643
 9443SOL    HW139791   3.125   2.584  16.953 -0.5269  0.6314 -0.5259
 9443SOL    HW239792   3.238   2.596  16.854 -0.4214  0.1984  0.0952
 9444SOL     OW39793   3.314   1.931   3.720  0.6085  0.1389 -0.1515
 9444SOL    HW139794   3.303   2.021   3.692 -3.4755 -0.0795  0.8262
 9444SOL    HW239795   3.315   1.927   3.816  0.9560 -0.7052 -0.1866
 9445SOL     OW39796   1.274   1.028   7.435  0.4913 -0.1449 -0.3528
 9445SOL    HW139797   1.253   1.120   7.418  0.2843 -0.2512 -0.6718
 9445SOL    HW239798   1.368   1.040   7.443  0.3693  0.4993  0.1986
 9446SOL     OW39799   3.521   1.171   3.350  0.4108 -0.3183 -0.1328
 9446SOL    HW139800   3.475   1.180   3.433  1.2462  0.0391  0.2915
 9446SOL    HW239801   3.450   1.154   3.289 -1.2969  1.5790  1.3574
 9447SOL     OW39802   2.963   3.806   8.704 -0.1662  0.4837 -0.2686
 9447SOL    HW139803   2.870   3.829   8.708 -0.0618  0.4747  2.0263
 9447SOL    HW239804   2.964   3.722   8.750 -1.4373  0.4427 -0.3174
 9448SOL     OW39805   1.971   1.618   4.761  0.6083  0.3468  0.7118
 9448SOL    HW139806   2.016   1.536   4.783  0.9858  0.3308 -0.1171
 9448SOL    HW239807   1.985   1.666   4.842 -1.9581  1.2554  0.5880
 9449SOL     OW39808   4.606   0.257   3.574  0.1831 -0.6207 -0.6856
 9449SOL    HW139809   4.538   0.208   3.620 -0.3919  0.4373 -0.4109
 9449SOL    HW239810   4.680   0.243   3.633 -1.2260 -2.4993  0.6386
 9450SOL     OW39811   1.902   0.048   2.731 -0.2268 -0.1654  0.3526
 9450SOL    HW139812   1.934   0.049   2.821 -2.7441 -1.6357  1.2764
 9450SOL    HW239813   1.921   0.139   2.710 -1.8512  0.8228  3.1920
 9451SOL     OW39814   4.675   2.369   9.581 -0.3129 -0.4249 -0.1417
 9451SOL    HW139815   0.048   2.350   9.569  0.1478  0.9385  1.3254
 9451SOL    HW239816   4.669   2.464   9.575 -2.9422 -0.6791 -1.7242
 9452SOL     OW39817   4.134   1.237  11.376  0.6937  0.2649  0.0702
 9452SOL    HW139818   4.167   1.238  11.466 -1.0842 -1.4413  0.7446
 9452SOL    HW239819   4.158   1.146  11.355  1.5420  0.2133  1.2306
 9453SOL     OW39820   2.098   0.650   5.157  0.5886  0.4024 -0.0980
 9453SOL    HW139821   2.049   0.582   5.111  0.1038  0.6230  0.0997
 9453SOL    HW239822   2.142   0.610   5.232 -0.9563 -0.0213  0.5725
 9454SOL     OW39823   2.012   1.436   5.521  0.0203  0.0835  0.5820
 9454SOL    HW139824   1.945   1.490   5.480  0.2078 -0.3522 -0.3095
 9454SOL    HW239825   1.970   1.388   5.592 -0.0697 -1.6325 -0.6048
 9455SOL     OW39826   0.388   4.585   7.200  0.5127 -0.0600  0.2071
 9455SOL    HW139827   0.422   4.623   7.282 -0.6834  1.0312  0.1904
 9455SOL    HW239828   0.297   4.580   7.228  0.8660  0.5261  1.4850
 9456SOL     OW39829   4.082   0.386   5.706  0.0136 -0.2014  0.1861
 9456SOL    HW139830   4.165   0.347   5.735 -0.0000 -1.5260 -1.5592
 9456SOL    HW239831   4.111   0.476   5.691 -1.9647  0.0009 -2.4565
 9457SOL     OW39832   2.006   1.534   9.473  0.0289 -0.4081  0.0102
 9457SOL    HW139833   2.005   1.561   9.565  0.2511  0.7495 -0.3255
 9457SOL    HW239834   1.956   1.605   9.432  0.4459 -0.7258 -1.0449
 9458SOL     OW39835   0.436   4.651   1.367  0.3025 -0.1066  0.6571
 9458SOL    HW139836   0.439   4.672   1.274 -0.3279  2.4764  1.2186
 9458SOL    HW239837   0.391   4.567   1.372 -0.2919  0.3604  3.1330
 9459SOL     OW39838   4.689   1.775   6.370  0.2100 -0.1785  0.1432
 9459SOL    HW139839   4.607   1.765   6.321  0.5352 -0.3579 -0.3624
 9459SOL    HW239840   4.706   1.684   6.395  0.6388 -0.4811 -1.2638
 9460SOL     OW39841   3.181   0.030   2.119  0.3825 -0.7681 -0.0224
 9460SOL    HW139842   3.130   4.687   2.068 -1.6404  1.1139 -0.3639
 9460SOL    HW239843   3.114   0.099   2.127 -0.5431 -1.7717  0.9470
 9461SOL     OW39844   2.744   4.367   6.607 -0.2806  0.0709 -0.0157
 9461SOL    HW139845   2.764   4.275   6.589 -0.9113 -0.3791  1.6074
 9461SOL    HW239846   2.785   4.365   6.693 -0.0987  1.7721 -0.0659
 9462SOL     OW39847   2.588   2.389  14.379  0.2421  0.5483 -0.0067
 9462SOL    HW139848   2.618   2.480  14.375  2.1075 -0.0110  1.8836
 9462SOL    HW239849   2.541   2.395  14.462  0.1196 -1.1902  0.0469
 9463SOL     OW39850   1.984   2.535   2.941 -0.6852 -0.2431  0.1542
 9463SOL    HW139851   1.901   2.581   2.937 -0.6214 -0.4525 -3.3785
 9463SOL    HW239852   2.025   2.594   3.004  1.8339  0.5314 -2.1824
 9464SOL     OW39853   4.262   2.160  12.442 -0.0397 -0.3590 -0.3902
 9464SOL    HW139854   4.245   2.228  12.507 -1.0891  0.3740 -1.4270
 9464SOL    HW239855   4.354   2.136  12.454 -0.4332 -2.1163 -0.9714
 9465SOL     OW39856   3.912   1.357  10.996  0.0800 -0.2085 -0.0688
 9465SOL    HW139857   3.922   1.306  10.916  0.4803 -0.1272 -0.0706
 9465SOL    HW239858   3.999   1.355  11.037 -0.2959  1.1522  0.8061
 9466SOL     OW39859   0.576   2.668   6.363  0.2798  0.1500 -0.3638
 9466SOL    HW139860   0.667   2.652   6.388  0.1135  1.7144  1.2597
 9466SOL    HW239861   0.573   2.753   6.320 -1.4139  1.3270  2.0565
 9467SOL     OW39862   4.080   1.088   3.098  0.3507 -0.4785 -0.1347
 9467SOL    HW139863   4.150   1.111   3.159  1.6253  1.4262 -2.3334
 9467SOL    HW239864   4.005   1.071   3.154  1.8750  0.4927  2.1880
 9468SOL     OW39865   4.431   1.170   5.826  0.2538  0.4987  0.1276
 9468SOL    HW139866   4.374   1.167   5.749  1.7723 -1.0112 -0.9549
 9468SOL    HW239867   4.428   1.080   5.859  0.7521  0.2622 -0.4631
 9469SOL     OW39868   3.239   4.229   8.859 -0.1567  0.0351  0.4964
 9469SOL    HW139869   3.179   4.271   8.919 -0.8185 -0.1070 -0.0696
 9469SOL    HW239870   3.231   4.135   8.878 -0.5333 -0.0036  0.1462
 9470SOL     OW39871   2.918   2.508   4.053 -0.1005  0.0836  0.0556
 9470SOL    HW139872   3.001   2.553   4.037  0.8147 -0.2191  4.0467
 9470SOL    HW239873   2.938   2.451   4.127 -0.1625 -2.3798 -1.8100
 9471SOL     OW39874   3.787   0.736   2.089 -0.1950  0.3361 -0.5861
 9471SOL    HW139875   3.864   0.689   2.119 -1.0737  1.7222  3.9404
 9471SOL    HW239876   3.811   0.828   2.088  3.5260 -0.6421  0.5864
 9472SOL     OW39877   0.833   0.445   2.492 -0.0755  0.1901  1.1468
 9472SOL    HW139878   0.863   0.389   2.421 -0.1428 -0.2143  1.4366
 9472SOL    HW239879   0.917   0.451   2.538 -0.3862 -2.3543  2.0830
 9473SOL     OW39880   1.091   1.920   6.186  0.2090  0.5816  0.0704
 9473SOL    HW139881   1.059   1.949   6.101  1.0453 -0.1041 -0.4834
 9473SOL    HW239882   1.064   1.828   6.180 -0.9126  0.7348  2.5490
 9474SOL     OW39883   4.113   3.756   9.171  0.5591  0.0853  0.5005
 9474SOL    HW139884   4.058   3.723   9.242  2.4931 -2.3179  0.8780
 9474SOL    HW239885   4.064   3.732   9.093 -0.8014  2.2682  0.6992
 9475SOL     OW39886   2.911   2.578   5.802  0.5728 -0.0413 -0.5273
 9475SOL    HW139887   2.956   2.556   5.721  2.6295  1.8256  0.0963
 9475SOL    HW239888   2.964   2.656   5.820 -0.4575  0.7226 -0.8304
 9476SOL     OW39889   2.397   1.506  14.065 -0.4183  0.2795  0.1945
 9476SOL    HW139890   2.403   1.578  14.003  2.4293  0.8404  1.1062
 9476SOL    HW239891   2.378   1.540  14.153  3.5248  1.0061  0.7651
 9477SOL     OW39892   3.552   0.844   8.591 -0.0219 -0.3809 -0.2847
 9477SOL    HW139893   3.602   0.926   8.596 -0.1841 -0.3161  0.2453
 9477SOL    HW239894   3.564   0.806   8.677  1.5169 -1.0147 -0.7712
 9478SOL     OW39895   0.772   1.563   6.730 -0.0243 -0.8999  0.3581
 9478SOL    HW139896   0.716   1.512   6.671 -1.6784 -0.1992  1.3350
 9478SOL    HW239897   0.796   1.494   6.793 -0.4024 -1.7772 -0.4574
 9479SOL     OW39898   4.642   4.537   0.939 -0.2486 -0.1802  0.0589
 9479SOL    HW139899   4.581   4.480   0.985 -2.6192  2.2396 -0.1588
 9479SOL    HW239900   4.639   4.498   0.851  3.1272 -0.1981 -0.0780
 9480SOL     OW39901   2.332   1.595  14.317  0.0921  0.5715  0.4752
 9480SOL    HW139902   2.247   1.556  14.339 -0.1704  1.1129  0.4136
 9480SOL    HW239903   2.312   1.683  14.288  0.6729  1.4771  2.8096
 9481SOL     OW39904   1.098   2.069   1.025  0.0684  0.4685  0.4513
 9481SOL    HW139905   1.066   1.979   1.013  0.4859  0.4443 -0.4376
 9481SOL    HW239906   1.170   2.057   1.086 -3.0095 -0.3673  3.9402
 9482SOL     OW39907   0.087   3.932   3.160 -0.0992 -0.0923  0.0659
 9482SOL    HW139908   0.004   3.898   3.126 -0.7881  3.1311 -1.5243
 9482SOL    HW239909   0.139   3.963   3.086  0.0503 -1.3666 -0.3597
 9483SOL     OW39910   4.143   1.331   4.747 -0.0781  0.1076 -0.0418
 9483SOL    HW139911   4.164   1.351   4.656 -1.2822  1.0111 -0.1225
 9483SOL    HW239912   4.068   1.390   4.754 -0.0592  0.0343  0.8458
 9484SOL     OW39913   4.358   4.227   4.093 -0.3986 -0.4719  0.7304
 9484SOL    HW139914   4.439   4.203   4.048 -0.8461 -2.1038  0.7950
 9484SOL    HW239915   4.308   4.275   4.027 -1.3985  1.0845  2.6092
 9485SOL     OW39916   1.089   2.139   8.832  0.6664 -0.1956 -0.1413
 9485SOL    HW139917   1.150   2.200   8.790 -0.1264 -0.5362 -1.7955
 9485SOL    HW239918   1.097   2.172   8.921  1.1680 -1.2976  0.2157
 9486SOL     OW39919   2.969   2.920   7.625 -0.1500 -0.1093 -0.0458
 9486SOL    HW139920   3.046   2.916   7.682 -0.5228  4.5960  0.7609
 9486SOL    HW239921   2.922   2.993   7.663  1.5067  0.8380  0.2094
 9487SOL     OW39922   2.861   0.042   3.508 -0.1773 -0.0774  0.3687
 9487SOL    HW139923   2.773   0.024   3.475 -0.4986  1.7583  0.2224
 9487SOL    HW239924   2.860   4.696   3.577 -2.0066 -0.3939  0.0411
 9488SOL     OW39925   4.151   0.453   3.645 -0.1060 -0.0431  0.1401
 9488SOL    HW139926   4.142   0.363   3.676  0.7285 -0.2446 -0.1907
 9488SOL    HW239927   4.058   0.474   3.652  0.3768  1.7824  1.1306
 9489SOL     OW39928   0.263   0.161   8.857 -0.6701  0.4695  0.3915
 9489SOL    HW139929   0.223   0.228   8.912 -0.0216 -0.1815  1.6472
 9489SOL    HW239930   0.328   0.217   8.814 -0.9971  0.5508  0.0001
 9490SOL     OW39931   1.170   0.180   7.867 -0.3613  0.1305  0.1944
 9490SOL    HW139932   1.111   0.248   7.833 -1.8848  0.2168  3.0008
 9490SOL    HW239933   1.220   0.230   7.931  0.5537  1.0416 -1.2373
 9491SOL     OW39934   2.695   2.012   9.030 -0.0999 -0.5415 -0.0729
 9491SOL    HW139935   2.642   1.951   8.979  2.7216 -1.9302 -1.2887
 9491SOL    HW239936   2.637   2.022   9.106  0.5151  1.3719  0.1288
 9492SOL     OW39937   0.101   1.502   4.828  0.1283  0.4002 -0.2568
 9492SOL    HW139938   0.062   1.427   4.783 -0.6646  0.4434  0.3519
 9492SOL    HW239939   0.037   1.567   4.799  0.9416  1.5908  0.6429
 9493SOL     OW39940   3.027   1.438   1.109  0.5831 -0.0985 -0.0022
 9493SOL    HW139941   2.950   1.495   1.096 -1.7717 -2.8947  1.7115
 9493SOL    HW239942   2.975   1.371   1.153 -0.6235  0.7256 -0.1501
 9494SOL     OW39943   2.496   1.903  12.406 -0.1293  0.3633 -0.4965
 9494SOL    HW139944   2.414   1.859  12.380  0.5407  0.2415 -2.3543
 9494SOL    HW239945   2.496   1.896  12.501 -0.8338  3.3362 -0.2781
 9495SOL     OW39946   0.823   0.995   1.636 -0.6634 -0.0614 -0.6140
 9495SOL    HW139947   0.856   1.076   1.676 -0.4501 -0.9901  1.1022
 9495SOL    HW239948   0.809   1.029   1.547  0.4745  1.2169 -0.3203
 9496SOL     OW39949   0.543   4.571   7.918  0.9323 -0.2822 -0.8304
 9496SOL    HW139950   0.455   4.535   7.911  0.8358 -0.5235  1.5385
 9496SOL    HW239951   0.584   4.485   7.923  3.5289  0.9037 -1.4411
 9497SOL     OW39952   4.326   2.283   4.297  0.4549  0.7923  0.2308
 9497SOL    HW139953   4.409   2.247   4.266  1.2751  2.3695  0.6015
 9497SOL    HW239954   4.355   2.312   4.384  1.8958 -0.6212  0.2113
 9498SOL     OW39955   3.227   2.411   8.026  0.6925 -0.4722  0.0387
 9498SOL    HW139956   3.164   2.471   7.985  2.5668 -0.3846 -2.7092
 9498SOL    HW239957   3.293   2.395   7.959 -0.2976 -3.3237 -0.2661
 9499SOL     OW39958   2.613   3.819   3.503 -0.3512  0.2619  0.6264
 9499SOL    HW139959   2.552   3.831   3.430  1.3558 -0.3758 -0.9092
 9499SOL    HW239960   2.698   3.846   3.467 -0.1236 -1.5179 -0.2237
 9500SOL     OW39961   0.262   2.705  17.015  0.5438  0.2812 -0.7223
 9500SOL    HW139962   0.296   2.718  16.927 -0.9829  1.9972 -1.0582
 9500SOL    HW239963   0.294   2.618  17.037  1.4514  1.1802  1.5664
 9501SOL     OW39964   3.026   3.988   5.596  0.1043 -0.0654  0.3669
 9501SOL    HW139965   3.073   3.912   5.563  1.1957  1.5710 -1.8932
 9501SOL    HW239966   3.095   4.053   5.587  2.0518 -2.1678  0.2591
 9502SOL     OW39967   4.557   3.211   4.285  0.3545 -0.1027  0.2386
 9502SOL    HW139968   4.644   3.252   4.295 -0.5712  1.8842  0.2310
 9502SOL    HW239969   4.561   3.173   4.198 -0.3665 -0.2807  0.2852
 9503SOL     OW39970   2.826   2.004   4.673  0.2893 -0.2320  0.1942
 9503SOL    HW139971   2.744   2.042   4.642 -0.3628 -2.0101 -0.2913
 9503SOL    HW239972   2.802   1.913   4.655  0.5905 -0.6352  1.8359
 9504SOL     OW39973   2.378   3.531   2.098 -0.6617  0.4375  0.0700
 9504SOL    HW139974   2.425   3.539   2.015 -0.1304 -0.1537  0.3145
 9504SOL    HW239975   2.452   3.537   2.159 -1.8064 -0.5909  1.5525
 9505SOL     OW39976   2.720   4.203   7.499 -0.0728  0.6921 -0.2090
 9505SOL    HW139977   2.647   4.169   7.447 -0.3667  1.0235 -0.0127
 9505SOL    HW239978   2.680   4.228   7.583 -2.9481 -2.8566 -0.5461
 9506SOL     OW39979   4.303   3.842   5.215 -0.1946 -0.5808 -0.2074
 9506SOL    HW139980   4.367   3.893   5.266 -1.2526 -0.7621  1.3040
 9506SOL    HW239981   4.349   3.852   5.132 -0.9974 -2.1484 -0.8383
 9507SOL     OW39982   1.621   0.537   6.261 -0.3873 -0.0272 -0.1437
 9507SOL    HW139983   1.635   0.632   6.265  0.0425 -0.0376 -1.3660
 9507SOL    HW239984   1.714   0.512   6.259 -0.4365 -0.3825  2.1038
 9508SOL     OW39985   2.740   4.345   2.872 -0.2164  0.2026  0.2041
 9508SOL    HW139986   2.746   4.401   2.949 -1.3422 -0.1690  0.5683
 9508SOL    HW239987   2.823   4.366   2.829 -1.3252 -1.2772 -2.6817
 9509SOL     OW39988   1.864   3.393  15.413 -0.2192 -0.8613 -0.1721
 9509SOL    HW139989   1.866   3.486  15.393  0.1231 -1.5870 -3.4447
 9509SOL    HW239990   1.950   3.360  15.388 -0.4073 -1.5255  0.0513
 9510SOL     OW39991   3.673   2.115   8.828  0.2803  0.2224 -0.2439
 9510SOL    HW139992   3.656   2.181   8.894  0.4561 -0.9143  0.9310
 9510SOL    HW239993   3.595   2.059   8.832 -0.6434  1.5225 -0.0133
 9511SOL     OW39994   2.449   3.468   0.685 -0.2560 -0.1308 -0.2903
 9511SOL    HW139995   2.355   3.453   0.694  0.0551 -1.3935  0.8218
 9511SOL    HW239996   2.470   3.389   0.635  2.9135  0.7315 -0.3334
 9512SOL     OW39997   0.552   0.259   7.180 -0.5856  0.3015 -0.0906
 9512SOL    HW139998   0.459   0.273   7.201  0.0976  0.0931  3.0958
 9512SOL    HW239999   0.581   0.222   7.263  0.9883 -2.1959 -1.7435
 9513SOL     OW40000   4.223   3.654   4.975 -0.4171  0.0634  0.0574
 9513SOL    HW140001   4.210   3.749   4.974 -0.7243  0.0030 -1.7787
 9513SOL    HW240002   4.317   3.658   4.955 -1.0651  1.5373 -2.6471
 9514SOL     OW40003   1.997   0.031  11.139  0.2545  0.3055  0.0122
 9514SOL    HW140004   1.941   4.676  11.163  0.6987 -0.0180  0.0428
 9514SOL    HW240005   1.933   0.099  11.159  1.0614  0.7862  0.9271
 9515SOL     OW40006   1.457   3.991   1.337 -0.3578 -0.5768  0.3254
 9515SOL    HW140007   1.373   3.998   1.382  0.0893 -0.4812  1.1590
 9515SOL    HW240008   1.425   3.980   1.247 -0.2533  0.1538  0.1975
 9516SOL     OW40009   0.836   1.600  10.597 -0.5753 -0.2792  0.1521
 9516SOL    HW140010   0.787   1.595  10.515  0.1479 -2.3614 -0.1635
 9516SOL    HW240011   0.764   1.600  10.660  0.5737 -1.3465  1.4517
 9517SOL     OW40012   4.007   3.763   3.706  0.2728  0.3446  0.5353
 9517SOL    HW140013   4.047   3.718   3.781  1.5843 -0.3436 -0.5864
 9517SOL    HW240014   3.981   3.689   3.651 -2.7202  1.8986 -0.1054
 9518SOL     OW40015   0.101   1.816   4.833  0.5978  0.0325 -0.4089
 9518SOL    HW140016   0.088   1.859   4.918  1.9088 -1.1041  0.3871
 9518SOL    HW240017   0.171   1.751   4.845  0.4640 -0.1860 -0.8409
 9519SOL     OW40018   1.723   2.152   2.312 -0.2986  0.1632  0.0069
 9519SOL    HW140019   1.780   2.226   2.333 -0.3462  0.4853 -1.0138
 9519SOL    HW240020   1.687   2.184   2.229  1.4178 -0.1868 -0.8854
 9520SOL     OW40021   2.965   1.390   2.517  0.1007 -0.1957  0.0041
 9520SOL    HW140022   2.926   1.459   2.572 -0.5202 -0.6356  0.1159
 9520SOL    HW240023   3.046   1.365   2.562  0.2045 -1.6746 -1.0171
 9521SOL     OW40024   3.316   1.465   1.218  0.1525  0.3250 -0.2828
 9521SOL    HW140025   3.331   1.374   1.245  2.9803  0.5322 -1.1905
 9521SOL    HW240026   3.237   1.448   1.166 -0.5787  1.1030  0.5772
 9522SOL     OW40027   2.120   4.244   3.468 -0.8251  0.1025  0.0825
 9522SOL    HW140028   2.173   4.262   3.390  0.1327 -1.0436  0.4774
 9522SOL    HW240029   2.132   4.332   3.504  0.5877  0.6049 -1.6129
 9523SOL     OW40030   3.050   3.967   4.442 -0.1617  0.7256 -0.5960
 9523SOL    HW140031   3.109   3.969   4.517 -2.7212  0.0578  1.4387
 9523SOL    HW240032   2.992   3.893   4.461  1.0482 -0.2353 -0.6622
 9524SOL     OW40033   1.098   0.502   7.172 -0.1136 -0.0668  0.4103
 9524SOL    HW140034   1.081   0.420   7.219 -2.2740 -1.6975 -3.2704
 9524SOL    HW240035   1.011   0.542   7.176 -0.2595 -0.4864  1.6777
 9525SOL     OW40036   3.210   3.065   5.938 -0.2331 -0.0520  0.2344
 9525SOL    HW140037   3.212   3.019   6.023 -2.3168  1.3069  1.0193
 9525SOL    HW240038   3.301   3.059   5.910 -0.0231 -0.3016  0.9662
 9526SOL     OW40039   0.976   2.787   0.510 -0.4512 -0.4711 -0.0467
 9526SOL    HW140040   0.977   2.795   0.606 -1.4138 -1.0053  0.0042
 9526SOL    HW240041   1.069   2.798   0.494 -0.7718 -2.4152 -3.1691
 9527SOL     OW40042   0.823   1.505  10.273 -0.4067 -0.3510 -0.4932
 9527SOL    HW140043   0.811   1.577  10.211 -1.8843 -1.1122 -1.0883
 9527SOL    HW240044   0.744   1.519  10.325  0.3226 -1.0458  0.8073
 9528SOL     OW40045   0.136   0.346   3.133  0.6836  0.1612 -0.1496
 9528SOL    HW140046   0.221   0.390   3.145  1.9210 -2.3649  0.3885
 9528SOL    HW240047   0.076   0.418   3.115  0.6511  0.2109  0.1571
 9529SOL     OW40048   1.470   4.512   7.587  0.0103  0.0542 -0.3404
 9529SOL    HW140049   1.387   4.476   7.557 -0.0580  0.2396 -0.3753
 9529SOL    HW240050   1.435   4.596   7.617  0.4253  0.9111 -2.2303
 9530SOL     OW40051   3.373   3.069   6.317 -0.0547  0.5491 -0.4352
 9530SOL    HW140052   3.411   2.994   6.363  0.7957  0.9119 -0.5644
 9530SOL    HW240053   3.292   3.035   6.278 -0.6671  1.1391  0.3240
 9531SOL     OW40054   3.577   3.915   7.584 -0.0810 -0.4887  0.0256
 9531SOL    HW140055   3.567   4.011   7.585 -1.0687 -0.5996  0.5260
 9531SOL    HW240056   3.672   3.919   7.574 -0.1490 -1.5679 -1.0047
 9532SOL     OW40057   0.665   2.592   3.283  0.1257 -0.1546 -0.5324
 9532SOL    HW140058   0.673   2.669   3.228 -0.2863  0.4223  0.2251
 9532SOL    HW240059   0.610   2.534   3.230  0.9058 -1.1280 -0.2831
 9533SOL     OW40060   1.574   0.638   9.304  1.0800 -0.0297  0.8067
 9533SOL    HW140061   1.570   0.718   9.251 -0.1807 -1.3877 -1.1410
 9533SOL    HW240062   1.516   0.586   9.249  1.5370  2.0314 -1.6403
 9534SOL     OW40063   0.332   3.540  15.198  0.3186  0.1220  0.5851
 9534SOL    HW140064   0.426   3.548  15.213  0.0625 -1.4930  2.9056
 9534SOL    HW240065   0.308   3.523  15.288  0.6485 -2.4543  0.1719
 9535SOL     OW40066   0.630   2.827   8.204  0.3884 -0.3762 -0.2701
 9535SOL    HW140067   0.683   2.812   8.126  0.2607  1.5538 -0.7248
 9535SOL    HW240068   0.635   2.735   8.227  0.9289 -0.5905 -1.2665
 9536SOL     OW40069   2.349   3.291  13.355  0.4900  0.4964 -0.0672
 9536SOL    HW140070   2.311   3.354  13.416 -1.0938  0.0031 -0.5406
 9536SOL    HW240071   2.420   3.251  13.404 -1.5494 -0.1233  2.3654
 9537SOL     OW40072   2.926   4.069   9.036  0.6434  0.7814  0.3572
 9537SOL    HW140073   2.861   4.078   8.967  1.2426 -1.6764 -0.5193
 9537SOL    HW240074   3.006   4.065   8.983 -1.8573  0.7447 -3.4054
 9538SOL     OW40075   4.515   3.021   2.650  0.6131  0.2836 -0.2108
 9538SOL    HW140076   4.583   2.980   2.598 -0.3128  0.4447 -1.5450
 9538SOL    HW240077   4.533   2.990   2.739  1.2208 -0.2972 -0.5390
 9539SOL     OW40078   0.145   2.730   0.597 -0.2950  0.7134 -0.0763
 9539SOL    HW140079   0.118   2.783   0.522  0.5574  0.6416 -0.4377
 9539SOL    HW240080   0.089   2.770   0.664 -1.8724 -1.8292  0.1162
 9540SOL     OW40081   2.543   1.069   2.845 -0.4323  0.5302  0.6173
 9540SOL    HW140082   2.572   1.041   2.931  1.0653  1.9169  0.5666
 9540SOL    HW240083   2.615   1.128   2.822  1.5801 -1.7464  1.2306
 9541SOL     OW40084   2.483   1.336   2.396 -0.2187  0.4657 -0.2491
 9541SOL    HW140085   2.482   1.242   2.378 -1.8402  0.2104  1.2519
 9541SOL    HW240086   2.574   1.348   2.370 -0.0872 -1.5582 -0.7419
 9542SOL     OW40087   1.880   2.820   9.302  0.2417 -0.2588  0.2960
 9542SOL    HW140088   1.919   2.862   9.379  0.7430  0.2331 -0.2223
 9542SOL    HW240089   1.797   2.790   9.339  0.7166 -0.0437  1.5193
 9543SOL     OW40090   4.691   4.388  10.086  0.0780 -0.1405 -0.4365
 9543SOL    HW140091   4.675   4.323  10.155 -0.7287  2.0694  1.4831
 9543SOL    HW240092   4.685   4.323  10.016 -2.0962  0.0559 -0.4581
 9544SOL     OW40093   1.716   3.517   0.812  0.1514  0.6075  0.4640
 9544SOL    HW140094   1.768   3.470   0.878  1.3222  0.3261 -0.6636
 9544SOL    HW240095   1.775   3.497   0.739 -2.2419 -3.3733 -0.4000
 9545SOL     OW40096   1.300   2.633   6.156 -0.3747 -0.5399 -0.0982
 9545SOL    HW140097   1.223   2.582   6.181  0.3815 -1.3093  0.6528
 9545SOL    HW240098   1.353   2.635   6.235 -2.3074  0.8415  1.1586
 9546SOL     OW40099   4.256   4.158   7.687 -0.4772  0.3069  0.1296
 9546SOL    HW140100   4.274   4.067   7.663 -1.8211 -0.7825  3.3138
 9546SOL    HW240101   4.165   4.171   7.661 -0.9000 -0.7478  1.0697
 9547SOL     OW40102   2.722   4.498   4.035  0.1610  0.4077  0.7427
 9547SOL    HW140103   2.751   4.436   4.102 -0.3641 -2.7718 -1.9208
 9547SOL    HW240104   2.673   4.432   3.985 -1.7375  3.0968 -0.8954
 9548SOL     OW40105   1.578   3.194   6.897 -0.2454 -0.2452  0.0640
 9548SOL    HW140106   1.661   3.242   6.904  0.8274 -1.8857 -1.5538
 9548SOL    HW240107   1.587   3.109   6.940  1.1056 -0.5247 -0.7696
 9549SOL     OW40108   4.423   0.223   7.240 -0.3764  0.4570  0.1830
 9549SOL    HW140109   4.397   0.235   7.332  1.2869 -1.1377  0.8715
 9549SOL    HW240110   4.511   0.261   7.244 -0.9525  1.8515 -0.5314
 9550SOL     OW40111   3.230   3.195   7.666 -0.2179 -0.7650 -0.2438
 9550SOL    HW140112   3.217   3.289   7.663  0.6309 -0.6725 -0.9872
 9550SOL    HW240113   3.246   3.185   7.760  1.4596  0.1247 -0.4292
 9551SOL     OW40114   2.957   2.306  17.163 -0.8160 -0.1159  0.5148
 9551SOL    HW140115   3.052   2.311  17.169 -0.8679  0.8432  0.4926
 9551SOL    HW240116   2.931   2.395  17.188 -1.4922 -0.1982  0.1281
 9552SOL     OW40117   3.027   4.648  12.129  0.1178 -0.8007  0.1886
 9552SOL    HW140118   2.956   4.694  12.173 -0.0812  1.1167 -2.1058
 9552SOL    HW240119   3.092   4.665  12.197 -2.2252  0.2307  2.1689
 9553SOL     OW40120   1.849   4.395   3.262 -0.3821 -0.2834  0.1460
 9553SOL    HW140121   1.835   4.348   3.180 -2.1620  0.9177 -0.2484
 9553SOL    HW240122   1.800   4.476   3.246  0.4470  0.0130 -0.8507
 9554SOL     OW40123   0.241   3.620  15.942 -0.2674  0.3627  0.1042
 9554SOL    HW140124   0.326   3.608  15.899 -0.1393  1.4389  0.0577
 9554SOL    HW240125   0.254   3.632  16.036 -1.1016 -1.2616  0.4162
 9555SOL     OW40126   1.512   4.312   7.163 -0.1394 -0.0325  0.4717
 9555SOL    HW140127   1.531   4.404   7.177  1.1821 -0.2171 -0.1440
 9555SOL    HW240128   1.439   4.308   7.101  1.1018 -1.3655 -0.9091
 9556SOL     OW40129   0.593   0.076   0.450  0.5313  0.1097  0.0993
 9556SOL    HW140130   0.506   0.037   0.442  0.4762  0.6862 -2.1002
 9556SOL    HW240131   0.583   0.150   0.510 -2.3453 -1.7700  1.9465
 9557SOL     OW40132   4.194   1.901   8.155  0.0062  0.2384 -0.1811
 9557SOL    HW140133   4.288   1.900   8.173  0.1171  1.4030 -0.6881
 9557SOL    HW240134   4.167   1.835   8.091  0.8791 -1.8148  1.6057
 9558SOL     OW40135   4.426   3.077   8.972 -0.1570 -0.5367  0.1573
 9558SOL    HW140136   4.504   3.049   9.020 -0.4176 -0.6603  0.5058
 9558SOL    HW240137   4.350   3.040   9.016  1.0328 -1.2373  1.6253
 9559SOL     OW40138   1.788   1.209   7.071  0.4091  0.3842  0.4928
 9559SOL    HW140139   1.719   1.275   7.081  0.1218  0.4076 -1.6068
 9559SOL    HW240140   1.735   1.133   7.094  0.1322 -0.3490 -2.5588
 9560SOL     OW40141   2.348   0.816   6.094  0.1449  0.3067  0.4865
 9560SOL    HW140142   2.269   0.772   6.063  0.8202 -2.2384  2.3910
 9560SOL    HW240143   2.384   0.739   6.139  0.8186  1.2869  1.6170
 9561SOL     OW40144   1.663   2.447   6.174  0.2725 -0.5018  0.9284
 9561SOL    HW140145   1.625   2.534   6.184 -0.5442 -0.6265 -1.0854
 9561SOL    HW240146   1.593   2.395   6.136  0.0425  2.4364 -2.6744
 9562SOL     OW40147   1.249   3.056   4.068 -0.4518 -0.1239  0.4436
 9562SOL    HW140148   1.172   3.023   4.021  0.3174 -0.5437 -0.5226
 9562SOL    HW240149   1.272   2.988   4.130  1.8167  0.2840  0.0722
 9563SOL     OW40150   1.332   4.355   4.918 -0.4357 -0.1901  0.0847
 9563SOL    HW140151   1.270   4.325   4.984 -1.3295  0.3765 -0.4920
 9563SOL    HW240152   1.267   4.399   4.863  1.3785  1.0379 -1.0524
 9564SOL     OW40153   4.184   1.969  14.472 -0.3523 -0.1742  0.1218
 9564SOL    HW140154   4.175   1.877  14.448 -2.4598 -0.1106  0.6836
 9564SOL    HW240155   4.097   2.000  14.446 -0.6540 -1.0373  0.0876
 9565SOL     OW40156   3.906   3.179   3.322  0.3076  0.0400  0.7157
 9565SOL    HW140157   3.845   3.231   3.269 -1.5751 -3.3767 -0.4631
 9565SOL    HW240158   3.921   3.108   3.259  3.3891  0.8472  0.5348
 9566SOL     OW40159   3.822   0.824   3.606 -0.3567  0.4525 -0.0170
 9566SOL    HW140160   3.775   0.758   3.657  0.7895 -1.2138 -1.1239
 9566SOL    HW240161   3.910   0.792   3.584 -0.8046 -1.3121  0.7677
 9567SOL     OW40162   4.298   1.826   6.435  0.6366  0.1793 -0.1046
 9567SOL    HW140163   4.218   1.816   6.383  0.4617  1.4030 -0.0606
 9567SOL    HW240164   4.297   1.748   6.489 -0.7986 -0.6228 -1.2722
 9568SOL     OW40165   0.280   3.386   2.852  0.3652  0.2647 -0.4550
 9568SOL    HW140166   0.325   3.312   2.813 -0.1028  0.5745 -1.5942
 9568SOL    HW240167   0.227   3.425   2.782 -0.3462  0.6189  0.2768
   4.71990   4.71990  17.68233
