Membrane in water
40167
    1TCq1    O1    1   1.722   4.188  10.970  0.2516  0.4307  0.0859
    1TCq1    C1    2   1.700   4.099  11.067 -0.0177  0.2286  0.0993
    1TCq1    O2    3   1.658   3.987  11.047  0.1434 -0.0470 -0.3866
    1TCq1    C2    4   1.703   4.171  11.196  0.2055  0.0280  0.5836
    1TCq1    C3    5   1.816   4.242  11.234 -0.1284 -0.4786  1.2541
    1TCq1    C4    6   1.826   4.302  11.357  0.2173  0.5564  0.5786
    1TCq1    C5    7   1.717   4.299  11.443 -0.2878 -0.3598  0.5173
    1TCq1    C6    8   1.604   4.235  11.400  0.1948 -0.0392 -0.2412
    1TCq1    C7    9   1.593   4.171  11.278 -0.1308 -0.1509  0.4791
    1TCq1    C8   10   1.495   4.219  11.499  0.1864 -0.3930 -0.3656
    1TCq1    O4   11   1.382   4.187  11.468 -0.4092  0.0303  0.0195
    1TCq1    C9   12   1.949   4.355  11.409 -0.0829  0.0002  0.4342
    1TCq1    O5   13   2.033   4.395  11.327  0.6982 -1.0648 -0.0607
    1TCq1    O6   14   1.958   4.368  11.532  0.6378 -0.3809  0.1344
    1TCq1    H1   15   1.768   4.266  11.007  0.8194 -0.4039  1.1367
    1TCq1    H2   16   1.902   4.250  11.169 -0.9278 -2.5425 -0.0661
    1TCq1    H3   17   1.727   4.343  11.541 -2.2906 -0.0489  0.5824
    1TCq1    H4   18   1.497   4.129  11.251  1.8226 -4.0107 -0.4489
    2MPD2     C   19   1.362   4.106  11.969 -0.5044 -0.1255  0.2889
    2MPD2    C1   20   1.289   4.170  11.871 -0.4466 -0.4500  0.1455
    2MPD2    C2   21   1.351   4.211  11.753  0.0433  0.2191 -0.2659
    2MPD2    C3   22   1.486   4.193  11.743 -0.0851  0.0599  0.0701
    2MPD2    C4   23   1.565   4.154  11.853 -0.1437 -0.5610 -0.1208
    2MPD2    C5   24   1.498   4.109  11.963  0.4161 -0.5087 -0.2268
    2MPD2     H   25   1.292   4.259  11.676 -0.5125 -2.4509 -1.4943
    2MPD2    H1   26   1.673   4.153  11.849 -0.1096  0.1190  0.5965
    2MPD2    H2   27   1.312   4.075  12.060  0.5284  0.0057  0.9007
    2MPD2    H3   28   1.556   4.073  12.047 -0.8120 -3.0774 -0.4733
    2MPD2     N   29   1.552   4.216  11.623  0.3525  0.1609 -0.8081
    2MPD2    H5   30   1.652   4.223  11.635  0.3815 -1.3800 -0.1431
    2MPD2    N1   31   1.151   4.200  11.874 -0.5943 -0.0024  0.3030
    2MPD2    H7   32   1.110   4.240  11.790 -0.8712 -1.9383 -0.4789
    3TCq1    O1   33   0.474   0.155  10.210  0.0251 -0.4601 -0.0732
    3TCq1    C1   34   0.466   0.135  10.336 -0.1696  0.0795  0.3425
    3TCq1    O2   35   0.433   0.029  10.388  0.0498  0.3286 -0.2014
    3TCq1    C2   36   0.550   0.228  10.401 -0.1403 -0.6929 -0.1818
    3TCq1    C3   37   0.599   0.342  10.344  0.2890  0.3988 -0.4095
    3TCq1    C4   38   0.658   0.438  10.426  0.5004 -0.0597 -0.3798
    3TCq1    C5   39   0.661   0.419  10.561  0.7957  0.3078  0.3595
    3TCq1    C6   40   0.618   0.298  10.604 -0.3512  0.1310 -0.3282
    3TCq1    C7   41   0.576   0.198  10.528  0.1126 -0.0654 -0.0714
    3TCq1    C8   42   0.589   0.281  10.744 -0.5409 -0.4602  0.3866
    3TCq1    O4   43   0.572   0.173  10.792  0.1641 -0.2880 -0.1500
    3TCq1    C9   44   0.723   0.550  10.358 -0.0518  0.0213  0.3841
    3TCq1    O5   45   0.784   0.624  10.436  0.2439  0.1977 -0.4715
    3TCq1    O6   46   0.734   0.552  10.229 -0.2795 -0.2045  0.2222
    3TCq1    H1   47   0.435   0.080  10.160 -0.3826 -0.8922  0.8794
    3TCq1    H2   48   0.569   0.370  10.244 -0.7655  0.8846  0.0346
    3TCq1    H3   49   0.696   0.498  10.627  0.3910  0.4120  0.4503
    3TCq1    H4   50   0.536   0.113  10.581 -0.4713  0.3816  0.2081
    4MPD2     C   51   0.342   0.500  11.154  0.0124 -0.2302  0.1316
    4MPD2    C1   52   0.371   0.598  11.065  0.0660 -0.7998  0.9231
    4MPD2    C2   53   0.428   0.567  10.941  0.8316  0.1951  0.7454
    4MPD2    C3   54   0.484   0.437  10.920  0.0744  0.8513  0.5765
    4MPD2    C4   55   0.454   0.340  11.013 -0.2599 -0.1583 -0.3847
    4MPD2    C5   56   0.387   0.372  11.128  0.6052 -0.2306  0.4332
    4MPD2     H   57   0.431   0.638  10.859 -0.2065  0.5689  1.0214
    4MPD2    H1   58   0.492   0.239  11.015  0.4923  0.0977 -2.1673
    4MPD2    H2   59   0.296   0.514  11.251  1.3092 -2.5059  1.0888
    4MPD2    H3   60   0.372   0.295  11.202 -0.4358 -0.2514  0.1982
    4MPD2     N   61   0.543   0.407  10.792  0.8219 -0.2477 -0.3669
    4MPD2    H5   62   0.554   0.475  10.717  0.1290 -1.5475 -1.6451
    4MPD2    N1   63   0.335   0.733  11.076 -0.5681  0.0812  0.8057
    4MPD2    H7   64   0.338   0.792  10.993  0.0021 -0.3137  0.5429
    5TCq1    O1   65   2.808   1.475  12.133 -0.1194 -0.3458  0.0371
    5TCq1    C1   66   2.687   1.508  12.087 -0.9204 -0.3765 -0.3414
    5TCq1    O2   67   2.582   1.464  12.132 -0.1387 -0.5332  0.9976
    5TCq1    C2   68   2.711   1.571  11.958  0.0692  0.1248  0.3108
    5TCq1    C3   69   2.810   1.670  11.949 -0.3375 -0.0360 -0.9227
    5TCq1    C4   70   2.797   1.746  11.836  0.1296  0.6183 -0.3905
    5TCq1    C5   71   2.699   1.732  11.739 -0.1383  0.3721 -0.1443
    5TCq1    C6   72   2.605   1.628  11.756 -0.5082 -0.2029 -0.0924
    5TCq1    C7   73   2.617   1.545  11.862  0.2325 -0.0185  0.0760
    5TCq1    C8   74   2.533   1.587  11.642  0.1067  0.0029 -0.6309
    5TCq1    O4   75   2.443   1.503  11.648 -0.4915 -0.9981  0.8115
    5TCq1    C9   76   2.886   1.858  11.817  0.2005 -0.1882 -0.1782
    5TCq1    O5   77   2.993   1.842  11.879 -0.2686  0.2286  0.1146
    5TCq1    O6   78   2.861   1.941  11.723 -0.2595 -0.5267 -0.1258
    5TCq1    H1   79   2.879   1.498  12.069  0.5506 -2.2678  0.0910
    5TCq1    H2   80   2.870   1.707  12.032 -2.5360 -1.1391  1.1679
    5TCq1    H3   81   2.701   1.800  11.654  0.8205 -0.8082 -1.0576
    5TCq1    H4   82   2.552   1.458  11.867 -0.4762  0.4535 -0.8038
    6MPD2     C   83   2.643   1.618  11.283 -0.0954  0.0363 -0.2108
    6MPD2    C1   84   2.556   1.604  11.390 -0.5100  0.3161  0.2707
    6MPD2    C2   85   2.430   1.564  11.366 -0.0497  0.2213  0.0740
    6MPD2    C3   86   2.372   1.553  11.245 -0.0411  0.5589 -0.6772
    6MPD2    C4   87   2.454   1.569  11.138 -0.7554  0.2079 -0.3338
    6MPD2    C5   88   2.592   1.597  11.156 -0.2842 -0.0773 -0.0982
    6MPD2     H   89   2.370   1.562  11.456 -0.8523 -1.8054 -0.4984
    6MPD2    H1   90   2.427   1.560  11.033  2.8643 -0.6277 -1.1985
    6MPD2    H2   91   2.749   1.633  11.296  0.5138 -2.4422 -2.2018
    6MPD2    H3   92   2.656   1.612  11.070  0.5337 -1.4478  0.2678
    6MPD2     N   93   2.232   1.524  11.244 -0.6828 -0.3485 -0.0905
    6MPD2    H5   94   2.193   1.493  11.333 -0.7530  1.0026  0.3384
    6MPD2    N1   95   2.595   1.624  11.526 -0.4024 -0.0093 -0.2961
    6MPD2    H7   96   2.689   1.659  11.543 -0.9814  1.4108 -0.0493
    7TCq1    O1   97   3.848   1.849  13.545 -0.2866  0.5325 -0.5764
    7TCq1    C1   98   3.804   1.723  13.552  1.3380  0.5294  0.0428
    7TCq1    O2   99   3.832   1.628  13.472  0.9644 -0.1873 -0.3107
    7TCq1    C2  100   3.676   1.748  13.613 -0.5095 -0.5377 -0.0574
    7TCq1    C3  101   3.605   1.860  13.578 -0.6071 -0.4296  0.1910
    7TCq1    C4  102   3.470   1.868  13.605  0.2228 -0.0238  0.2359
    7TCq1    C5  103   3.400   1.765  13.660  0.3745  0.3294  0.4377
    7TCq1    C6  104   3.469   1.645  13.685 -0.0560 -0.2632  0.2883
    7TCq1    C7  105   3.605   1.644  13.661  0.3204 -0.0228  0.0674
    7TCq1    C8  106   3.409   1.516  13.710 -0.6399  0.2566  0.0894
    7TCq1    O4  107   3.479   1.418  13.729 -0.2993 -0.2436  0.3080
    7TCq1    C9  108   3.398   1.991  13.566  0.4922 -0.4698  0.9625
    7TCq1    O5  109   3.272   1.978  13.545 -0.5540  0.1744 -0.0278
    7TCq1    O6  110   3.470   2.091  13.525  0.0335 -0.3456 -0.1226
    7TCq1    H1  111   3.831   1.906  13.622  1.6807 -0.5074  0.6395
    7TCq1    H2  112   3.653   1.948  13.536 -0.7472  0.1714  1.2818
    7TCq1    H3  113   3.294   1.779  13.675 -0.2011 -0.4232 -2.7994
    7TCq1    H4  114   3.655   1.548  13.669  0.7992  0.1331 -1.0908
    8MPD2     C  115   3.025   1.181  13.701 -0.8159 -0.3884  0.2812
    8MPD2    C1  116   3.159   1.153  13.705  0.3740 -0.2548  0.4713
    8MPD2    C2  117   3.234   1.265  13.720 -0.5344  0.7751  0.0469
    8MPD2    C3  118   3.190   1.395  13.713 -0.1726  0.8193  0.3265
    8MPD2    C4  119   3.057   1.415  13.707  0.2956 -0.3670 -0.7435
    8MPD2    C5  120   2.971   1.304  13.704  0.0034 -0.0298  1.0570
    8MPD2     H  121   3.340   1.244  13.729 -0.4450  0.8630 -0.7406
    8MPD2    H1  122   3.009   1.512  13.708 -2.0319 -1.5304  2.6313
    8MPD2    H2  123   2.949   1.104  13.692 -0.4883 -0.5490 -1.0606
    8MPD2    H3  124   2.863   1.311  13.699  0.0866 -0.6175 -1.8061
    8MPD2     N  125   3.272   1.515  13.713  0.2122 -0.1938 -0.6137
    8MPD2    H5  126   3.220   1.601  13.703  0.2142 -0.2195 -0.8583
    8MPD2    N1  127   3.191   1.014  13.705  0.2291 -0.3466 -0.1215
    8MPD2    H7  128   3.120   0.945  13.684 -1.0574  0.4370  1.5721
    9TCq1    O1  129   2.373   4.711  10.773 -0.3376 -0.0674 -0.0994
    9TCq1    C1  130   2.263   4.651  10.714  0.2442 -0.8254  0.6020
    9TCq1    O2  131   2.268   4.559  10.632  0.1618 -0.1211 -0.3590
    9TCq1    C2  132   2.150   4.651  10.809 -0.1655  0.2323 -0.1477
    9TCq1    C3  133   2.085   4.534  10.848 -0.4870  0.4497  0.1820
    9TCq1    C4  134   1.971   4.548  10.920  0.5163  0.6078 -0.8554
    9TCq1    C5  135   1.915   4.669  10.946 -0.1459  0.7928  0.0262
    9TCq1    C6  136   1.992   0.054  10.926  0.7091 -0.6787  0.0446
    9TCq1    C7  137   2.112   0.047  10.856 -0.6281  0.2625 -0.4247
    9TCq1    C8  138   1.947   0.186  10.960  0.2660  0.5534  0.1726
    9TCq1    O4  139   2.016   0.284  10.926  0.3381  0.1555 -0.9523
    9TCq1    C9  140   1.902   4.430  10.962  0.0870 -0.0298 -0.1749
    9TCq1    O5  141   1.954   4.319  10.947  0.3668 -0.0938  0.9508
    9TCq1    O6  142   1.789   4.441  11.018 -0.1377 -0.0273 -0.0277
    9TCq1    H1  143   2.358   0.046  10.848  1.4784 -0.9907  1.0172
    9TCq1    H2  144   2.118   4.436  10.816  1.6144  1.1943  0.1278
    9TCq1    H3  145   1.813   4.671  10.982 -0.0976  1.8423  0.1076
    9TCq1    H4  146   2.171   0.132  10.825  0.0090 -0.2540 -0.6308
   10MPD2     C  147   1.792   0.421  11.091 -0.1620 -0.3768 -0.2661
   10MPD2    C1  148   1.758   0.287  11.096  0.3066 -0.3885  0.2167
   10MPD2    C2  149   1.628   0.266  11.155  1.0267  0.1637 -0.0359
   10MPD2    C3  150   1.551   0.363  11.215 -0.3095  0.2105  0.0168
   10MPD2    C4  151   1.596   0.493  11.212 -0.1567 -0.2324  0.4048
   10MPD2    C5  152   1.713   0.520  11.150  0.3905  0.2355  0.2002
   10MPD2     H  153   1.584   0.167  11.145  0.9310  0.3191 -1.1344
   10MPD2    H1  154   1.539   0.568  11.266 -0.8649 -1.8422  1.8860
   10MPD2    H2  155   1.887   0.444  11.046 -0.3630 -0.7470 -0.8720
   10MPD2    H3  156   1.753   0.621  11.152 -0.2174  0.5007 -1.0908
   10MPD2     N  157   1.440   0.337  11.294  0.2365  0.4372  0.7761
   10MPD2    H5  158   1.404   0.408  11.357 -2.6686 -1.9279  1.7554
   10MPD2    N1  159   1.835   0.183  11.039 -0.5713 -0.0813  0.1311
   10MPD2    H7  160   1.792   0.093  11.058 -0.8716  0.3590  1.5347
   11TCq1    O1  161   2.399   4.232  14.120 -0.2351  0.2468  0.7479
   11TCq1    C1  162   2.427   4.260  14.249 -0.4000  0.8541 -0.1366
   11TCq1    O2  163   2.529   4.229  14.308 -0.1482 -0.2932  0.6586
   11TCq1    C2  164   2.359   4.390  14.263  0.7346 -0.5435  0.5137
   11TCq1    C3  165   2.429   4.495  14.316 -0.0511  0.5930 -0.2354
   11TCq1    C4  166   2.359   4.594  14.377  0.9539  0.1867  0.0662
   11TCq1    C5  167   2.219   4.597  14.380 -0.0281 -0.2869  0.0422
   11TCq1    C6  168   2.154   4.483  14.341 -0.1060  0.6705  0.6171
   11TCq1    C7  169   2.215   4.379  14.267 -0.2929 -0.0541  0.0343
   11TCq1    C8  170   2.023   4.470  14.404  0.0146 -0.1376  0.2977
   11TCq1    O4  171   2.007   4.535  14.506  0.1003  0.2968 -0.2139
   11TCq1    C9  172   2.431   4.704  14.436 -1.0911 -0.1171  0.4426
   11TCq1    O5  173   2.386   0.038  14.536 -0.1092  0.3318 -0.2001
   11TCq1    O6  174   2.551   4.716  14.407 -0.1283 -0.1881  0.7660
   11TCq1    H1  175   2.329   4.294  14.093  0.1772 -0.1857 -1.2921
   11TCq1    H2  176   2.537   4.490  14.308 -0.1928 -0.7887 -1.3725
   11TCq1    H3  177   2.170   4.685  14.421  1.1696  0.0755  0.6820
   11TCq1    H4  178   2.168   4.294  14.220  1.9492 -1.2206 -0.1122
   12MPD2     C  179   1.741   4.427  14.475  0.2510  0.1079  0.0469
   12MPD2    C1  180   1.797   4.371  14.362  0.1612 -0.7386  0.2697
   12MPD2    C2  181   1.724   4.301  14.272  0.2477  0.0342 -1.0858
   12MPD2    C3  182   1.587   4.275  14.286  0.0594  0.3757  0.3893
   12MPD2    C4  183   1.532   4.334  14.401  0.0859 -0.0272  0.6232
   12MPD2    C5  184   1.606   4.403  14.498 -0.0520  0.1936 -0.1271
   12MPD2     H  185   1.780   4.263  14.187 -1.5233 -0.5509 -1.9836
   12MPD2    H1  186   1.429   4.310  14.422  1.1359 -1.1479  4.6166
   12MPD2    H2  187   1.792   4.475  14.558 -1.1849  0.1802  0.8715
   12MPD2    H3  188   1.553   4.437  14.587 -0.6147 -1.5256  0.2025
   12MPD2     N  189   1.520   4.187  14.193 -0.0194 -0.4053 -0.2510
   12MPD2    H5  190   1.579   4.129  14.134  1.4554  0.4562  0.3840
   12MPD2    N1  191   1.933   4.389  14.328 -0.6017 -0.4340  0.1942
   12MPD2    H7  192   1.956   4.358  14.234  2.2457  1.0698  0.4070
   13TCq1    O1  193   0.720   0.396  10.028 -0.5722 -0.1604 -0.3386
   13TCq1    C1  194   0.771   0.267  10.037  0.1181 -0.4412 -0.7813
   13TCq1    O2  195   0.733   0.175   9.971  0.5606  0.1253 -0.0566
   13TCq1    C2  196   0.879   0.253  10.133  0.0579 -0.4992  0.3781
   13TCq1    C3  197   0.960   0.359  10.165 -0.1417  0.0106 -0.6288
   13TCq1    C4  198   1.018   0.368  10.290  0.2068 -0.1371  1.0855
   13TCq1    C5  199   1.013   0.261  10.372  0.2836 -1.1742 -0.6589
   13TCq1    C6  200   0.924   0.158  10.344  0.2192  0.5195 -0.1107
   13TCq1    C7  201   0.859   0.154  10.222  0.3259 -0.2927  0.3996
   13TCq1    C8  202   0.870   0.095  10.461  0.8911  0.7398  0.2609
   13TCq1    O4  203   0.905   0.133  10.574 -0.1993  0.5813 -0.5646
   13TCq1    C9  204   1.087   0.493  10.314 -0.0141 -0.2415 -0.3836
   13TCq1    O5  205   1.076   0.588  10.229  0.1627 -0.0318 -0.3331
   13TCq1    O6  206   1.143   0.497  10.427  0.0880  0.2277 -0.1964
   13TCq1    H1  207   0.743   0.442  10.111 -1.6227 -0.0828 -0.0891
   13TCq1    H2  208   0.984   0.441  10.098 -1.8971 -1.1405 -2.6534
   13TCq1    H3  209   1.054   0.270  10.472 -1.2146  2.7559 -0.4105
   13TCq1    H4  210   0.807   0.066  10.188  1.3274 -0.6080 -0.3210
   14MPD2     C  211   0.739   4.473  10.486 -0.0960 -0.2721 -0.4067
   14MPD2    C1  212   0.755   4.607  10.527 -0.6840 -0.1358  0.0823
   14MPD2    C2  213   0.735   4.641  10.660 -0.3881  0.1379  1.2560
   14MPD2    C3  214   0.688   4.548  10.744  0.0366  0.1696  0.0610
   14MPD2    C4  215   0.670   4.415  10.707  0.1573  0.0614  0.0251
   14MPD2    C5  216   0.691   4.378  10.577  0.4507  0.2759  0.5967
   14MPD2     H  217   0.748   0.009  10.713  2.3194 -0.0584  0.9800
   14MPD2    H1  218   0.655   4.333  10.776 -3.4864  2.6441  2.2990
   14MPD2    H2  219   0.769   4.429  10.391  0.1976  0.6124 -0.7189
   14MPD2    H3  220   0.681   4.273  10.551 -0.0865  0.9977 -2.1869
   14MPD2     N  221   0.661   4.601  10.871  0.1387  0.3101 -0.4931
   14MPD2    H5  222   0.678   4.701  10.883 -0.5160  0.6833 -2.7218
   14MPD2    N1  223   0.808   4.696  10.426 -0.0892 -0.2701  0.1567
   14MPD2    H7  224   0.814   4.660  10.332  1.7180  1.2498 -0.3061
   15TCq1    O1  225   3.353   4.192   2.510  0.2172  0.5000  0.3686
   15TCq1    C1  226   3.388   4.166   2.385 -0.3035  0.1496 -0.0511
   15TCq1    O2  227   3.494   4.114   2.349  0.1015 -0.1501  0.1338
   15TCq1    C2  228   3.252   4.163   2.321 -0.2180  0.2265  0.2604
   15TCq1    C3  229   3.180   4.271   2.352  0.1910 -0.5373  0.4111
   15TCq1    C4  230   3.056   4.281   2.296  0.2277  0.5027 -0.1311
   15TCq1    C5  231   3.009   4.178   2.222  0.0628  0.3303  0.0658
   15TCq1    C6  232   3.086   4.070   2.188 -0.0988 -0.2603  1.0412
   15TCq1    C7  233   3.211   4.061   2.245 -0.6191 -0.0015  0.5653
   15TCq1    C8  234   3.043   3.962   2.092  0.3528 -0.7449  0.5312
   15TCq1    O4  235   3.132   3.884   2.067 -0.3606  0.1897 -0.4634
   15TCq1    C9  236   2.982   4.402   2.305  0.1743  0.0793 -0.2030
   15TCq1    O5  237   3.036   4.500   2.362 -0.7617 -0.2062 -0.0427
   15TCq1    O6  238   2.876   4.406   2.235 -0.1049 -0.8968  0.4751
   15TCq1    H1  239   3.256   4.188   2.528  0.8553 -0.4940  3.5461
   15TCq1    H2  240   3.217   4.360   2.402  2.2522 -0.7850 -0.6827
   15TCq1    H3  241   2.912   4.189   2.175 -0.1641 -0.8722  0.2617
   15TCq1    H4  242   3.280   3.982   2.216  0.1546  1.0078 -0.3318
   16MPD2     C  243   2.726   3.909   1.919 -0.6256  0.3278 -0.1738
   16MPD2    C1  244   2.864   3.904   1.930  0.5087  0.5272  0.6226
   16MPD2    C2  245   2.937   3.812   1.858  0.1006  0.1966  0.6159
   16MPD2    C3  246   2.864   3.724   1.780 -0.9484 -0.3984 -0.6413
   16MPD2    C4  247   2.729   3.725   1.776 -0.1336 -0.3336 -0.1403
   16MPD2    C5  248   2.657   3.820   1.837  0.1695  0.1484 -0.2017
   16MPD2     H  249   3.045   3.808   1.867  0.0241  2.5617  2.4473
   16MPD2    H1  250   2.669   3.647   1.731 -0.2700 -2.1428  3.2003
   16MPD2    H2  251   2.662   3.977   1.973  0.2709 -0.5405  1.9818
   16MPD2    H3  252   2.549   3.819   1.827  0.1616  0.0513 -0.0978
   16MPD2     N  253   2.948   3.637   1.699 -0.8700 -0.6180  0.5920
   16MPD2    H5  254   3.047   3.637   1.724 -0.2363 -0.9584 -1.8896
   16MPD2    N1  255   2.923   3.991   2.033  0.3511 -0.2431  0.3083
   16MPD2    H7  256   2.861   4.060   2.074  0.4355  1.6073 -2.7683
   17TCq1    O1  257   1.401   3.674  11.926  0.3081  0.1870 -0.2159
   17TCq1    C1  258   1.348   3.781  11.873 -0.5376 -0.1605  1.0532
   17TCq1    O2  259   1.231   3.813  11.889  0.1068 -0.5348 -0.2703
   17TCq1    C2  260   1.424   3.784  11.754  0.2522  0.3616  0.2284
   17TCq1    C3  261   1.365   3.753  11.631 -0.0468 -0.0530 -0.5655
   17TCq1    C4  262   1.447   3.772  11.524 -0.7376 -0.4595 -0.4992
   17TCq1    C5  263   1.577   3.797  11.533  0.8383 -0.8136  0.2023
   17TCq1    C6  264   1.623   3.837  11.659  0.0021 -0.0664  0.1502
   17TCq1    C7  265   1.547   3.834  11.773  0.3018  0.1039 -0.6087
   17TCq1    C8  266   1.761   3.895  11.680  0.0716  0.7966 -0.0388
   17TCq1    O4  267   1.784   3.936  11.792  0.4014 -0.5892  0.0333
   17TCq1    C9  268   1.385   3.747  11.395  0.6765  0.0550  0.3049
   17TCq1    O5  269   1.257   3.741  11.399 -0.2937  0.5017 -0.3237
   17TCq1    O6  270   1.444   3.795  11.293  0.7026  0.2483  0.0783
   17TCq1    H1  271   1.488   3.643  11.890  0.3046 -2.5111  2.0713
   17TCq1    H2  272   1.259   3.735  11.622 -0.0880  0.2818 -0.7593
   17TCq1    H3  273   1.640   3.822  11.448 -2.5270  0.6298 -1.8638
   17TCq1    H4  274   1.580   3.865  11.871 -1.9055  0.4069  0.0474
   18MPD2     C  275   2.053   4.003  11.652  0.2358  0.0019 -0.9687
   18MPD2    C1  276   1.968   3.960  11.552  0.6443 -0.2885 -0.0024
   18MPD2    C2  277   2.004   3.962  11.418  0.1245  0.2291 -0.2224
   18MPD2    C3  278   2.123   4.011  11.377 -0.2397 -0.1948 -0.2700
   18MPD2    C4  279   2.206   4.067  11.478  0.5211  0.0707 -0.7867
   18MPD2    C5  280   2.175   4.058  11.613  0.2622 -0.6599 -0.4296
   18MPD2     H  281   1.931   3.932  11.344 -1.1521  1.9707  0.3279
   18MPD2    H1  282   2.291   4.119  11.437  1.0205  0.8588  1.2566
   18MPD2    H2  283   2.030   4.002  11.758  0.8615  0.7225 -0.8250
   18MPD2    H3  284   2.240   4.092  11.693  0.4153  1.1938 -1.3418
   18MPD2     N  285   2.168   4.034  11.243  0.3628  1.0134  0.3888
   18MPD2    H5  286   2.255   4.083  11.224  0.3298  0.5974 -0.8346
   18MPD2    N1  287   1.837   3.902  11.570 -0.1506 -0.0066 -0.3928
   18MPD2    H7  288   1.797   3.855  11.490 -2.2266  0.5021  0.3511
   19TMC2    C1  289   2.504   4.159  13.715  0.6595 -0.1483  0.5996
   19TMC2    C2  290   2.417   4.199  13.613  0.5988 -0.6420  0.3364
   19TMC2    C3  291   2.279   4.183  13.632 -0.9260  0.0707  0.5515
   19TMC2    C4  292   2.460   4.094  13.828 -0.0589 -0.4513 -0.3125
   19TMC2    C5  293   2.321   4.084  13.846  0.7927 -0.7546 -0.9741
   19TMC2    C6  294   2.224   4.136  13.750 -0.0840  0.1434  0.2112
   19TMC2     C  295   2.625   4.238  13.724  0.3781  0.2717  0.7067
   19TMC2     O  296   2.639   4.327  13.641 -0.6258 -0.0115 -0.2401
   19TMC2     H  297   2.450   4.235  13.517 -1.5825  0.2467 -0.0817
   19TMC2    H1  298   2.532   4.052  13.897 -1.3273 -0.8794  0.7548
   19TMC2    H2  299   2.119   4.111  13.755 -0.0208 -0.2575 -0.5908
   19TMC2    C7  300   2.273   3.974  13.928  0.6328  0.2740 -0.1083
   19TMC2    C8  301   2.202   4.205  13.513  0.6482  0.6381 -0.2459
   19TMC2    O1  302   2.327   3.863  13.919  0.1470  0.3426 -0.3210
   19TMC2    O2  303   2.226   4.161  13.399 -0.0199  0.8723  0.1540
   19TMC2    O5  304   2.122   4.303  13.547  0.2309  0.0629  0.0390
   19TMC2    H5  305   2.140   4.333  13.638  0.3371  0.2071 -0.0283
   20MPD2     C  306   2.886   4.375  13.808 -0.5541  0.1977  0.6165
   20MPD2    C1  307   2.832   4.260  13.867 -0.2891  0.0116  0.4683
   20MPD2    C2  308   2.908   4.189  13.956  0.1635 -0.5218 -0.9758
   20MPD2    C3  309   3.036   4.223  13.990 -0.4765 -0.5735 -0.9391
   20MPD2    C4  310   3.086   4.342  13.935 -0.2600 -0.1480  0.4755
   20MPD2    C5  311   3.011   4.416  13.845  0.2590  0.7241 -0.5146
   20MPD2     H  312   2.856   4.102  13.995 -0.3257 -0.9687 -2.6170
   20MPD2    H1  313   3.180   4.382  13.970  0.1279 -1.5344  1.0165
   20MPD2    H2  314   2.824   4.445  13.752 -2.4047 -0.2025  2.1369
   20MPD2    H3  315   3.046   4.516  13.823  2.8333 -0.3074 -1.1402
   20MPD2     N  316   3.116   4.159  14.094 -0.5153 -0.3340  0.6715
   20MPD2    H5  317   3.212   4.182  14.119 -0.5424 -0.5172  0.9438
   20MPD2    N1  318   2.700   4.213  13.839  0.2055 -0.9369  0.4696
   20MPD2    H7  319   2.670   4.136  13.898 -0.8988  0.9771  2.4083
   21MPD2     C  320   0.774   0.150  14.868  0.3103 -0.4212 -0.0563
   21MPD2    C1  321   0.791   0.025  14.814 -0.3002 -0.0323 -0.0816
   21MPD2    C2  322   0.700   4.703  14.720 -0.2909  0.1012 -0.8825
   21MPD2    C3  323   0.582   0.052  14.693 -0.4833 -0.4134 -0.3671
   21MPD2    C4  324   0.573   0.177  14.739 -1.8004 -0.1557  0.4737
   21MPD2    C5  325   0.666   0.226  14.830  0.3789 -0.0655 -0.1935
   21MPD2     H  326   0.722   4.617  14.658  2.8167  0.6312 -0.5001
   21MPD2    H1  327   0.481   0.235  14.728 -1.7206 -0.1847 -0.3137
   21MPD2    H2  328   0.838   0.186  14.948  0.6212 -0.4852 -0.2753
   21MPD2    H3  329   0.662   0.324  14.876  0.1675  1.1477 -2.8496
   21MPD2     N  330   0.470   4.724  14.613 -0.1090  0.3289  0.0957
   21MPD2    H5  331   0.392   0.063  14.608  0.7166  1.3170 -0.0060
   21MPD2    N1  332   0.909   4.680  14.830 -0.5966  0.0864  0.0434
   21MPD2    H7  333   0.918   4.588  14.787  2.6837 -0.0558  1.0023
   22TCq2    C1  334   0.459   4.598  14.571  0.0287 -0.2192 -0.2590
   22TCq2    O2  335   0.540   4.510  14.566  0.0362  0.1079  0.5049
   22TCq2    C2  336   0.337   4.563  14.501  0.8015 -0.1281 -0.2384
   22TCq2    C3  337   0.346   4.470  14.398 -0.3157 -0.1728  0.3516
   22TCq2    C4  338   0.230   4.461  14.317  0.9591 -0.0036 -0.6357
   22TCq2    C5  339   0.122   4.535  14.337 -0.1241 -0.2158 -0.2606
   22TCq2    C6  340   0.114   4.614  14.446 -0.4429  0.4116  0.1926
   22TCq2    C7  341   0.223   4.628  14.528  0.5732  0.2471 -0.7465
   22TCq2    C8  342   4.706   4.638  14.502 -0.3277  0.7645 -0.2749
   22TCq2    O4  343   4.681   4.633  14.622  0.2362  0.4733  0.5815
   22TCq2    C9  344   0.250   4.376  14.197 -0.2888  0.2864 -0.2975
   22TCq2    O5  345   0.351   4.296  14.189 -0.3218 -0.2485  0.4837
   22TCq2    O6  346   0.159   4.384  14.112  0.5475  0.8111 -0.7625
   22TCq2    H2  347   0.440   4.428  14.364  0.0848  1.7592 -0.9335
   22TCq2    H3  348   0.034   4.521  14.275 -0.3732  0.8749 -0.1389
   22TCq2    H4  349   0.222   4.685  14.621  1.1279  0.7280 -1.0350
   23MPD2     C  350   2.287   0.863  14.511 -0.1585 -0.0939  0.0699
   23MPD2    C1  351   2.216   0.939  14.602  0.4172 -0.1010 -0.6396
   23MPD2    C2  352   2.171   1.063  14.567  0.6468 -0.5598 -0.2181
   23MPD2    C3  353   2.203   1.118  14.446 -0.3904  0.6086 -0.0885
   23MPD2    C4  354   2.273   1.045  14.361 -0.0454 -0.1920 -0.2265
   23MPD2    C5  355   2.318   0.913  14.393 -0.4239  0.2549 -0.2229
   23MPD2     H  356   2.116   1.118  14.643  2.3579 -1.4105  1.6359
   23MPD2    H1  357   2.304   1.081  14.263  0.4329  0.0252  0.0074
   23MPD2    H2  358   2.341   0.772  14.534  1.5232  0.4863 -1.6112
   23MPD2    H3  359   2.391   0.863  14.330 -2.3087  1.8694 -3.6824
   23MPD2     N  360   2.147   1.237  14.399 -0.4846 -0.5368  0.3298
   23MPD2    H5  361   2.164   1.256  14.300  1.3553 -0.6442  0.6195
   23MPD2    N1  362   2.189   0.891  14.727 -0.4083 -0.7035  0.9243
   23MPD2    H7  363   2.142   0.957  14.788 -2.4849 -0.9947 -0.3406
   24TCq2    C1  364   2.093   1.336  14.472  1.2410  0.3479 -0.2510
   24TCq2    O2  365   2.089   1.334  14.591  0.1937 -0.3344 -0.6070
   24TCq2    C2  366   2.014   1.432  14.399 -0.5427 -0.2625 -0.2216
   24TCq2    C3  367   2.011   1.442  14.259 -1.2553  0.1899 -0.4667
   24TCq2    C4  368   1.904   1.494  14.191  0.4634  0.1742  0.5241
   24TCq2    C5  369   1.795   1.533  14.263 -0.0576  0.6769 -0.0851
   24TCq2    C6  370   1.795   1.533  14.398 -0.1776  0.3893  0.0121
   24TCq2    C7  371   1.908   1.489  14.468  0.3787  0.0051  0.2096
   24TCq2    C8  372   1.672   1.503  14.479 -0.7900  0.2964 -0.0999
   24TCq2    O4  373   1.689   1.475  14.597 -0.3024 -0.2692  0.7514
   24TCq2    C9  374   1.902   1.498  14.051 -0.4464 -0.3797  0.5861
   24TCq2    O5  375   2.000   1.450  13.991  0.4292 -0.4554  0.1927
   24TCq2    O6  376   1.797   1.542  13.995  0.4960  0.2177  0.1502
   24TCq2    H2  377   2.099   1.400  14.211 -0.6682  3.7666 -2.4983
   24TCq2    H3  378   1.714   1.577  14.206 -0.9920 -1.2465 -0.2404
   24TCq2    H4  379   1.905   1.471  14.575 -0.4995 -0.7183  0.0650
   25TMC2    C1  380   0.506   3.712  11.570 -0.2796  0.1013 -0.6485
   25TMC2    C2  381   0.516   3.846  11.548 -0.3028  0.4666 -0.3165
   25TMC2    C3  382   0.408   3.922  11.586  0.3057 -0.0417 -0.1264
   25TMC2    C4  383   0.401   3.652  11.627 -0.2334  0.1489 -0.3765
   25TMC2    C5  384   0.299   3.733  11.680 -1.1969  0.1903  0.2514
   25TMC2    C6  385   0.302   3.870  11.656 -0.0467 -0.6410 -0.5606
   25TMC2     C  386   0.591   3.622  11.492  0.4138  0.2981  0.7892
   25TMC2     O  387   0.711   3.642  11.478 -0.2983 -0.6971  0.0254
   25TMC2     H  388   0.604   3.884  11.497 -2.5585  1.1944 -3.5954
   25TMC2    H1  389   0.394   3.546  11.646 -0.6395  0.5836  1.9883
   25TMC2    H2  390   0.215   3.929  11.684  1.6451  0.8947  1.4810
   25TMC2    C7  391   0.201   3.674  11.772 -0.0955  0.3255 -1.2129
   25TMC2    C8  392   0.418   4.061  11.607  0.1814  0.1210  0.1713
   25TMC2    O1  393   0.231   3.565  11.820  0.4055  0.0667  0.8412
   25TMC2    O2  394   0.326   4.136  11.632 -0.3009 -0.4547 -0.2116
   25TMC2    O5  395   0.541   4.097  11.569  0.6051  0.1795  0.3492
   25TMC2    H5  396   0.608   4.028  11.588  1.0541  0.0869 -1.5712
   26MPD2     C  397   0.634   3.231  11.170 -0.4267  0.1484 -0.3534
   26MPD2    C1  398   0.504   3.237  11.210  0.2500 -0.1010 -0.6360
   26MPD2    C2  399   0.467   3.335  11.303 -0.1833  0.2806 -0.2798
   26MPD2    C3  400   0.563   3.421  11.350 -0.3496  0.2279 -0.1982
   26MPD2    C4  401   0.694   3.412  11.303 -0.7065 -0.1008 -0.5188
   26MPD2    C5  402   0.731   3.310  11.219  0.5295  0.1757  0.1171
   26MPD2     H  403   0.368   3.346  11.345  1.0918  0.3355  2.6758
   26MPD2    H1  404   0.777   3.475  11.333  0.0526 -0.3135 -2.1579
   26MPD2    H2  405   0.659   3.146  11.107  2.2607  0.5415  0.2268
   26MPD2    H3  406   0.835   3.301  11.187  0.0851 -1.4134 -0.8746
   26MPD2     N  407   0.514   3.522  11.438 -0.1427 -0.2916  0.2269
   26MPD2    H5  408   0.413   3.519  11.452  0.0544 -3.5176  0.8054
   26MPD2    N1  409   0.408   3.145  11.159  0.4255  0.1900  0.3404
   26MPD2    H7  410   0.441   3.084  11.085  0.9735  0.0125  0.7296
   27TMC2    C1  411   3.597   0.776  12.108  0.1166  0.2373 -0.6507
   27TMC2    C2  412   3.644   0.761  11.977 -0.5408 -0.1071 -0.2895
   27TMC2    C3  413   3.770   0.808  11.941  0.0767 -0.7979 -0.1502
   27TMC2    C4  414   3.672   0.863  12.194  0.3535  0.2704 -0.1406
   27TMC2    C5  415   3.794   0.911  12.148  0.2955 -0.1659 -0.3479
   27TMC2    C6  416   3.852   0.887  12.017 -0.3211  0.1929  0.7702
   27TMC2     C  417   3.534   0.665  12.169 -0.3199  0.4027  0.7241
   27TMC2     O  418   3.530   0.572  12.089  0.3984  0.0414 -0.1060
   27TMC2     H  419   3.584   0.709  11.902  1.6685 -2.0027 -0.7681
   27TMC2    H1  420   3.636   0.882  12.294  0.8395  1.1531 -0.1325
   27TMC2    H2  421   3.953   0.911  11.986 -0.2123 -1.9503 -0.5928
   27TMC2    C7  422   3.881   0.970  12.249 -0.5694  0.5663 -0.5173
   27TMC2    C8  423   3.797   0.813  11.794 -0.5516  0.4771 -0.4245
   27TMC2    O1  424   3.995   0.933  12.256 -0.3447  0.4279 -0.2334
   27TMC2    O2  425   3.718   0.782  11.707  0.4196  0.3322 -0.4264
   27TMC2    O5  426   3.927   0.802  11.775 -0.1002  0.1463 -0.2781
   27TMC2    H5  427   3.969   0.775  11.859 -0.5587  0.0548 -0.0773
   28MPD2     C  428   3.491   0.350  12.550  0.5285  0.7749  0.1353
   28MPD2    C1  429   3.445   0.470  12.589 -0.2097 -0.6696  0.0306
   28MPD2    C2  430   3.463   0.586  12.512 -0.0034 -0.1353  0.0939
   28MPD2    C3  431   3.513   0.568  12.383  0.4507  0.6307 -0.1810
   28MPD2    C4  432   3.556   0.445  12.348 -0.2991 -0.5310 -0.3502
   28MPD2    C5  433   3.545   0.338  12.430  0.2918  0.4354  0.0948
   28MPD2     H  434   3.457   0.683  12.561 -2.3188 -1.9968  3.5471
   28MPD2    H1  435   3.597   0.425  12.250 -0.2998  0.7446 -0.6166
   28MPD2    H2  436   3.471   0.265  12.614  1.7810 -0.4352 -1.0820
   28MPD2    H3  437   3.587   0.244  12.394 -1.1241 -0.2396  0.2170
   28MPD2     N  438   3.530   0.678  12.302 -0.0737  0.0237  0.1971
   28MPD2    H5  439   3.526   0.769  12.347  0.9793 -0.2379  0.8389
   28MPD2    N1  440   3.369   0.463  12.714 -0.1288 -0.9123 -0.3623
   28MPD2    H7  441   3.337   0.369  12.739  1.0213 -1.1627  0.1700
   29MPD2     C  442   3.251   2.540  14.158  0.6117 -0.0825 -0.0247
   29MPD2    C1  443   3.349   2.524  14.256 -0.3210  0.3972  0.4225
   29MPD2    C2  444   3.414   2.634  14.306  0.0422 -0.2146  0.1553
   29MPD2    C3  445   3.382   2.759  14.266 -0.0238 -0.0568  0.2900
   29MPD2    C4  446   3.293   2.768  14.154 -0.4860  0.3632 -0.1887
   29MPD2    C5  447   3.225   2.664  14.104 -0.1971  0.4423 -0.0988
   29MPD2     H  448   3.486   2.615  14.385  1.4953 -1.0707 -1.3824
   29MPD2    H1  449   3.265   2.866  14.117  0.7863  0.0965 -1.8452
   29MPD2    H2  450   3.202   2.454  14.113 -3.3516  1.3679  1.4597
   29MPD2    H3  451   3.149   2.678  14.028 -0.3039 -3.3366 -0.6976
   29MPD2     N  452   3.409   2.888  14.323 -0.0740 -0.1837 -0.1710
   29MPD2    H5  453   3.357   2.969  14.291  0.2752 -0.6149 -1.8061
   29MPD2    N1  454   3.388   2.398  14.307  0.3021 -0.5066  0.4787
   29MPD2    H7  455   3.468   2.399  14.369 -0.0655  0.1695  0.9275
   30TCq2    C1  456   3.488   2.897  14.433 -0.4351 -0.1186  0.0142
   30TCq2    O2  457   3.519   2.809  14.513 -0.2022 -0.2880 -0.5026
   30TCq2    C2  458   3.492   3.030  14.486 -0.6529 -0.1900 -0.0833
   30TCq2    C3  459   3.482   3.057  14.619 -0.2991 -0.8626  0.1391
   30TCq2    C4  460   3.445   3.178  14.663  0.1607 -0.1030  0.6164
   30TCq2    C5  461   3.403   3.274  14.576 -0.0421  0.0027 -0.1378
   30TCq2    C6  462   3.407   3.245  14.446  0.2019  0.3509  0.5018
   30TCq2    C7  463   3.450   3.126  14.402 -0.2281 -0.2403  0.6273
   30TCq2    C8  464   3.441   3.352  14.358  0.8659  0.7238  0.7775
   30TCq2    O4  465   3.413   3.341  14.238  0.6807  0.1703 -0.2591
   30TCq2    C9  466   3.452   3.210  14.799 -0.0847 -0.3143 -0.2773
   30TCq2    O5  467   3.444   3.331  14.830 -0.6186  0.5587  0.8183
   30TCq2    O6  468   3.477   3.119  14.881 -0.1627  0.3254 -0.5051
   30TCq2    H2  469   3.502   2.981  14.694  3.3143  0.5328  0.5712
   30TCq2    H3  470   3.362   3.367  14.614  0.1443  1.2626 -2.9964
   30TCq2    H4  471   3.469   3.112  14.296  0.6256  3.0969  0.3582
   31MPD2     C  472   1.387   2.154  14.897 -0.4475 -0.3918  0.2539
   31MPD2    C1  473   1.283   2.114  14.817  0.3625  0.0166 -0.1023
   31MPD2    C2  474   1.197   2.016  14.860 -0.1023  0.4446 -0.1277
   31MPD2    C3  475   1.204   1.976  14.991  0.7561 -0.4729  0.0680
   31MPD2    C4  476   1.314   2.017  15.070  0.4736 -0.0074  0.0283
   31MPD2    C5  477   1.405   2.104  15.020  0.5631 -0.8172  0.3883
   31MPD2     H  478   1.126   1.974  14.789  1.1364  0.9664 -1.6639
   31MPD2    H1  479   1.316   1.978  15.171 -0.8809 -1.2024 -0.4051
   31MPD2    H2  480   1.454   2.235  14.873 -0.4639 -1.1591 -2.4010
   31MPD2    H3  481   1.491   2.130  15.081 -0.8814  3.1129  0.7751
   31MPD2     N  482   1.110   1.881  15.047 -0.3340 -0.1900 -0.7240
   31MPD2    H5  483   1.135   1.834  15.133 -0.8023 -0.4012 -0.7043
   31MPD2    N1  484   1.272   2.173  14.695 -0.5662 -0.7346  0.0590
   31MPD2    H7  485   1.341   2.244  14.673  1.1383 -1.8493  1.8633
   32TCq2    C1  486   0.991   1.844  14.981  0.5362 -0.1541  1.0104
   32TCq2    O2  487   0.944   1.891  14.880  0.2288  0.0874  0.4325
   32TCq2    C2  488   0.911   1.745  15.057 -0.6164 -0.4212  0.1515
   32TCq2    C3  489   0.773   1.755  15.050 -0.6539  0.1266  0.0807
   32TCq2    C4  490   0.699   1.711  15.154  0.0689  0.3640  0.6826
   32TCq2    C5  491   0.754   1.658  15.269  1.0928 -0.7583  0.0755
   32TCq2    C6  492   0.888   1.638  15.262 -0.1975 -0.0480 -0.5349
   32TCq2    C7  493   0.970   1.683  15.162  0.7163  0.4602  0.1254
   32TCq2    C8  494   0.958   1.577  15.371  0.1751 -0.0990  0.0076
   32TCq2    O4  495   1.046   1.499  15.336 -0.1302  0.3686 -0.0707
   32TCq2    C9  496   0.559   1.738  15.148 -0.0856  0.0226 -0.2219
   32TCq2    O5  497   0.495   1.773  15.251  0.2621 -0.4458 -0.1379
   32TCq2    O6  498   0.510   1.745  15.028  0.2104  0.5079  0.3547
   32TCq2    H2  499   0.730   1.808  14.965 -0.0817  2.8384  1.4890
   32TCq2    H3  500   0.693   1.639  15.357  0.6035  0.0158 -0.0926
   32TCq2    H4  501   1.077   1.671  15.175  0.8263  0.4698 -0.7514
   33MPD2     C  502   1.813   4.388  10.627  0.0811  0.8535  0.6186
   33MPD2    C1  503   1.935   4.320  10.603 -0.5613 -0.4396  0.9354
   33MPD2    C2  504   2.001   4.361  10.489 -0.4296 -0.6102  0.1812
   33MPD2    C3  505   1.964   4.468  10.412  0.5740  0.0431  0.9298
   33MPD2    C4  506   1.842   4.533  10.433  0.1670  0.2206  0.3611
   33MPD2    C5  507   1.771   4.489  10.539 -0.3998 -0.2966  0.2487
   33MPD2     H  508   2.097   4.322  10.457  1.2410  1.7081  2.4014
   33MPD2    H1  509   1.788   4.597  10.363 -2.1025 -2.4206 -0.3233
   33MPD2    H2  510   1.751   4.360  10.711 -0.2798 -2.1336 -0.6623
   33MPD2    H3  511   1.673   4.534  10.550 -0.5551 -0.8816  1.1844
   33MPD2     N  512   2.042   4.492  10.305 -0.3368  0.4661  0.4817
   33MPD2    H5  513   2.126   4.438  10.288  0.0355  0.7730  1.3959
   33MPD2    N1  514   1.983   4.213  10.686 -0.0279  0.3104  0.5954
   33MPD2    H7  515   1.961   4.216  10.786 -0.9674 -0.4398  0.4164
   34TCq2    C1  516   2.043   4.604  10.226  0.0970 -0.0834 -0.5395
   34TCq2    O2  517   1.968   4.699  10.225 -0.1358  1.0557 -0.5314
   34TCq2    C2  518   2.140   4.596  10.118  0.3208  0.9091 -0.6585
   34TCq2    C3  519   2.200   4.476  10.088 -0.6121  0.5474  0.3339
   34TCq2    C4  520   2.283   4.478   9.987 -0.1755  0.5146  0.3629
   34TCq2    C5  521   2.315   4.588   9.916  0.0397 -0.6454 -0.0189
   34TCq2    C6  522   2.257   4.706   9.950 -1.0579  0.0455  0.0152
   34TCq2    C7  523   2.164   4.714  10.052  0.0157  0.5795 -0.3904
   34TCq2    C8  524   2.280   0.110   9.892  0.0286  0.4647 -0.4599
   34TCq2    O4  525   2.256   0.211   9.957 -0.5265 -0.4113 -1.1259
   34TCq2    C9  526   2.349   4.358   9.953  0.6954 -0.2649 -0.5918
   34TCq2    O5  527   2.453   4.375   9.877 -0.1936 -0.0257 -0.0115
   34TCq2    O6  528   2.305   4.245   9.980 -0.0761  0.0483  0.6477
   34TCq2    H2  529   2.193   4.382  10.141  1.8927  1.0211  1.5089
   34TCq2    H3  530   2.383   4.584   9.832 -1.1886 -1.2492 -0.9981
   34TCq2    H4  531   2.108   0.080  10.073 -2.6020 -1.0550 -0.2486
   35MPD2     C  532   3.311   1.366  12.031 -0.5469  0.1768 -0.1797
   35MPD2    C1  533   3.294   1.228  12.022 -0.1720 -0.1469 -0.4412
   35MPD2    C2  534   3.302   1.176  11.891 -0.5244 -0.3062  0.0062
   35MPD2    C3  535   3.312   1.262  11.779  0.1508 -0.3993 -0.1525
   35MPD2    C4  536   3.320   1.393  11.801 -0.4743 -0.1990  0.7546
   35MPD2    C5  537   3.334   1.445  11.928  0.0618 -0.1839  0.1812
   35MPD2     H  538   3.305   1.069  11.874  0.0649 -0.7606  2.9487
   35MPD2    H1  539   3.322   1.464  11.719  1.9603 -0.7895  0.2782
   35MPD2    H2  540   3.326   1.409  12.130  1.7377 -1.9728  0.4115
   35MPD2    H3  541   3.343   1.552  11.943  2.4495 -0.2542 -0.7789
   35MPD2     N  542   3.294   1.213  11.650 -0.0856 -0.1268 -0.4597
   35MPD2    H5  543   3.258   1.118  11.653 -2.2106  0.6976 -0.1580
   35MPD2    N1  544   3.264   1.148  12.139 -0.3047 -0.0674  0.1023
   35MPD2    H7  545   3.268   1.196  12.229  0.8995 -2.2210  1.1945
   36TCq2    C1  546   3.308   1.273  11.527  0.3318  0.7502  0.2763
   36TCq2    O2  547   3.338   1.389  11.506 -0.0031  0.4458  0.4345
   36TCq2    C2  548   3.265   1.196  11.411  0.1330 -0.0018 -0.1753
   36TCq2    C3  549   3.286   1.261  11.291  0.0258 -0.5953  0.3034
   36TCq2    C4  550   3.236   1.203  11.178  0.2971  1.2420  0.5206
   36TCq2    C5  551   3.158   1.096  11.180  0.6694  0.3529  0.0668
   36TCq2    C6  552   3.145   1.030  11.302  0.3743 -0.1851  0.6903
   36TCq2    C7  553   3.205   1.073  11.415  0.3717  0.5138 -0.1714
   36TCq2    C8  554   3.108   0.891  11.288  0.4411  0.3354 -0.0077
   36TCq2    O4  555   3.043   0.855  11.195 -0.2885 -0.1663  1.0555
   36TCq2    C9  556   3.238   1.282  11.056  0.3341  0.2481  0.9788
   36TCq2    O5  557   3.163   1.254  10.964 -0.1873 -0.2173 -0.1720
   36TCq2    O6  558   3.281   1.399  11.073 -0.0152 -0.4210 -0.0892
   36TCq2    H2  559   3.344   1.353  11.282 -1.9517  0.7157  0.9472
   36TCq2    H3  560   3.113   1.066  11.086 -1.2658 -0.9241  1.3870
   36TCq2    H4  561   3.164   1.036  11.509  0.9131  3.9396  1.4195
   37TMC2    C1  562   0.263   0.775  11.920  0.3025 -0.2374 -0.4631
   37TMC2    C2  563   0.223   0.838  11.801  0.2803  0.2380 -0.2021
   37TMC2    C3  564   0.316   0.888  11.717 -0.7042 -0.4014 -0.5555
   37TMC2    C4  565   0.395   0.743  11.934 -0.2472 -0.2393 -0.1491
   37TMC2    C5  566   0.487   0.784  11.836  0.3686 -0.1418  0.0069
   37TMC2    C6  567   0.452   0.860  11.729 -0.2358  0.1173 -0.6249
   37TMC2     C  568   0.191   0.793  12.045  0.0961 -0.7331 -0.4694
   37TMC2     O  569   0.096   0.873  12.043 -0.5772 -0.2073 -0.3007
   37TMC2     H  570   0.117   0.856  11.789  0.1353  0.9570  2.1019
   37TMC2    H1  571   0.431   0.672  12.007 -1.2064  1.2704  1.7854
   37TMC2    H2  572   0.522   0.900  11.656 -0.8377  1.0298 -0.7029
   37TMC2    C7  573   0.626   0.787  11.884 -0.8392  0.0190  0.3736
   37TMC2    C8  574   0.278   0.955  11.600  0.1554 -0.2135  0.6628
   37TMC2    O1  575   0.645   0.761  11.999 -0.6424  0.7738 -0.0331
   37TMC2    O2  576   0.353   1.002  11.514  0.2763  0.1096 -0.1469
   37TMC2    O5  577   0.157   1.015  11.615 -0.5786  0.3048 -0.1797
   37TMC2    H5  578   0.116   0.993  11.702 -2.4143 -5.2039 -2.4615
   38MPD2     C  579   0.170   0.863  12.547 -0.4944  0.4349 -0.7717
   38MPD2    C1  580   0.299   0.822  12.514  0.5757 -0.2797 -0.1217
   38MPD2    C2  581   0.325   0.772  12.388  0.4297  0.2680 -1.0580
   38MPD2    C3  582   0.232   0.791  12.286  0.8915  0.4223  0.1998
   38MPD2    C4  583   0.100   0.843  12.316  0.7023 -0.4676  0.0769
   38MPD2    C5  584   0.074   0.862  12.452  0.5640 -0.0034  0.4408
   38MPD2     H  585   0.420   0.729  12.361  0.1920 -1.2861  0.6128
   38MPD2    H1  586   0.018   0.847  12.245  0.9324  1.2382 -0.0884
   38MPD2    H2  587   0.139   0.900  12.644 -1.2879 -2.7315  0.1913
   38MPD2    H3  588   4.699   0.895  12.475  1.0567  0.8846  1.3190
   38MPD2     N  589   0.260   0.744  12.154  0.1606 -0.4625 -0.2157
   38MPD2    H5  590   0.336   0.678  12.142  1.2103  0.5202  1.0295
   38MPD2    N1  591   0.416   0.834  12.603  0.0513  0.3525 -0.0011
   38MPD2    H7  592   0.502   0.800  12.563  0.3086 -0.1149  0.9501
   39MPD2     C  593   2.991   3.217   1.844  0.1534  0.5379  0.3361
   39MPD2    C1  594   2.876   3.291   1.850 -0.1870 -0.2422 -0.1802
   39MPD2    C2  595   2.774   3.266   1.767  0.3614  0.3012  0.4042
   39MPD2    C3  596   2.794   3.164   1.664  0.1086  0.0649  0.0350
   39MPD2    C4  597   2.908   3.082   1.670  0.3797 -0.4925  0.2638
   39MPD2    C5  598   3.005   3.115   1.761  0.4574  0.0778  0.8647
   39MPD2     H  599   2.690   3.333   1.759 -0.4001 -0.4641  1.8595
   39MPD2    H1  600   2.926   3.002   1.599 -1.7555  0.6080 -1.5117
   39MPD2    H2  601   3.080   3.233   1.903 -0.1041  0.6897  0.6811
   39MPD2    H3  602   3.098   3.059   1.758  0.3190 -0.1617  1.1206
   39MPD2     N  603   2.705   3.127   1.558  0.1236 -0.0275 -0.0263
   39MPD2    H5  604   2.720   3.050   1.494  3.4258  0.3869  0.2617
   39MPD2    N1  605   2.865   3.387   1.963  0.1210  0.5674  0.4588
   39MPD2    H7  606   2.939   3.402   2.030 -1.7323  2.0060  2.1927
   40TCq2    C1  607   2.740   3.442   1.997 -0.4907  0.9582 -0.1597
   40TCq2    O2  608   2.645   3.450   1.928 -0.1313 -0.2739  0.2472
   40TCq2    C2  609   2.749   3.535   2.109 -0.4015 -0.7177 -0.5709
   40TCq2    C3  610   2.640   3.619   2.130  0.5530  0.1518  0.1718
   40TCq2    C4  611   2.655   3.719   2.213  0.7068 -0.0528  0.0275
   40TCq2    C5  612   2.764   3.731   2.290  0.0013 -0.2660 -0.3509
   40TCq2    C6  613   2.867   3.644   2.279  0.0605 -0.0086 -0.6615
   40TCq2    C7  614   2.865   3.543   2.187 -0.4059  0.0154  0.4459
   40TCq2    C8  615   2.986   3.685   2.342 -0.4336  0.6157 -0.6132
   40TCq2    O4  616   2.976   3.767   2.438  0.3950  0.4713  0.5984
   40TCq2    C9  617   2.547   3.799   2.237  0.5600 -0.1386 -0.1009
   40TCq2    O5  618   2.570   3.913   2.291 -0.3060 -0.2826  0.0555
   40TCq2    O6  619   2.429   3.758   2.203 -0.3082  0.3997 -0.5204
   40TCq2    H2  620   2.549   3.618   2.071  0.8343  0.9442 -0.2742
   40TCq2    H3  621   2.772   3.814   2.361 -1.4255 -2.5514  2.4957
   40TCq2    H4  622   2.942   3.467   2.182  0.3004  0.6589  1.6257
   41TMC2    C1  623   2.536   1.071  13.841 -0.0333  0.1272  0.3837
   41TMC2    C2  624   2.468   1.136  13.941  0.5610  0.0090  0.4490
   41TMC2    C3  625   2.414   1.258  13.910 -0.0026  0.2939 -0.7919
   41TMC2    C4  626   2.562   1.127  13.717 -0.2237 -0.1744  0.5064
   41TMC2    C5  627   2.511   1.255  13.699 -0.2066  0.1404 -0.3238
   41TMC2    C6  628   2.440   1.332  13.793  0.2504  0.3306  0.0153
   41TMC2     C  629   2.659   1.000  13.893  0.2185 -0.5949 -0.4005
   41TMC2     O  630   2.757   0.978  13.821  0.8886  0.1732 -0.0993
   41TMC2     H  631   2.438   1.081  14.029 -1.0082 -0.0399 -0.1126
   41TMC2    H1  632   2.628   1.082  13.645 -0.3005  0.8150 -0.1813
   41TMC2    H2  633   2.399   1.431  13.776  0.9620  0.2039 -2.3799
   41TMC2    C7  634   2.581   1.336  13.605  0.6319 -0.2766 -0.1861
   41TMC2    C8  635   2.314   1.317  13.995  0.7168  0.7356 -0.5035
   41TMC2    O1  636   2.606   1.452  13.629  0.4771 -0.0473  0.8090
   41TMC2    O2  637   2.281   1.264  14.100 -0.4501 -0.0158  0.2015
   41TMC2    O5  638   2.228   1.390  13.920 -0.4973  0.0162 -0.3749
   41TMC2    H5  639   2.147   1.421  13.966 -1.7483  0.3254 -2.8148
   42MPD2     C  640   2.866   0.951  14.099 -0.1695  0.7053  0.1058
   42MPD2    C1  641   2.734   0.904  14.103  0.4171  0.4663 -0.3442
   42MPD2    C2  642   2.698   0.826  14.210 -0.1477 -0.0501 -0.2644
   42MPD2    C3  643   2.777   0.816  14.325 -0.9438  0.7161  0.4629
   42MPD2    C4  644   2.908   0.863  14.319 -0.1084 -0.1700 -0.5108
   42MPD2    C5  645   2.947   0.930  14.209  0.3604 -0.1189  0.3371
   42MPD2     H  646   2.594   0.795  14.213 -0.6710  1.6664 -0.3930
   42MPD2    H1  647   2.972   0.863  14.407 -0.7777 -3.0893  0.0048
   42MPD2    H2  648   2.898   1.008  14.012 -1.0537  0.2741 -0.4998
   42MPD2    H3  649   3.042   0.982  14.198  0.7861 -0.9477  0.1182
   42MPD2     N  650   2.736   0.759  14.451  0.0888  0.0548  0.0037
   42MPD2    H5  651   2.795   0.751  14.533 -0.7342  1.2585  0.7082
   42MPD2    N1  652   2.638   0.936  14.011  0.1891  0.2159  0.1498
   42MPD2    H7  653   2.541   0.921  14.039  0.6982  0.1537  1.8653
   43MPD2     C  654   3.408   4.078   0.393  0.1463  0.1608  0.6741
   43MPD2    C1  655   3.489   4.001   0.476  0.0253  0.1058  0.1789
   43MPD2    C2  656   3.466   4.002   0.611 -0.4418  0.0932  0.8268
   43MPD2    C3  657   3.387   4.103   0.666  0.5351 -0.1201  0.5393
   43MPD2    C4  658   3.322   4.185   0.583 -0.7368 -0.8788  0.4093
   43MPD2    C5  659   3.334   4.182   0.446 -0.3882  0.4291  0.5852
   43MPD2     H  660   3.526   3.944   0.681 -0.5549 -0.7317  0.2324
   43MPD2    H1  661   3.260   4.266   0.621 -0.6016 -0.3713 -0.4567
   43MPD2    H2  662   3.408   4.068   0.286  2.4724 -0.9479  0.7839
   43MPD2    H3  663   3.283   4.258   0.388  0.3601 -0.0507 -0.6898
   43MPD2     N  664   3.382   4.128   0.803 -0.0856 -0.0480  0.4777
   43MPD2    H5  665   3.318   4.199   0.837  0.8012  0.1904  1.6466
   43MPD2    N1  666   3.592   3.911   0.433  0.3253  0.0892 -0.7006
   43MPD2    H7  667   3.634   3.849   0.501 -1.0529  0.6709  0.6936
   44TCq2    C1  668   3.723   4.129   1.276 -0.0930  0.4968  0.0015
   44TCq2    O2  669   3.802   4.096   1.189  0.0884 -0.0880  0.6535
   44TCq2    C2  670   3.600   4.179   1.222  0.9698  0.1141 -0.8406
   44TCq2    C3  671   3.543   4.297   1.247  0.2088 -0.6699 -0.0476
   44TCq2    C4  672   3.447   4.345   1.157  0.1145  0.1635  1.0121
   44TCq2    C5  673   3.416   4.269   1.047 -0.7271 -0.5770  0.3624
   44TCq2    C6  674   3.473   4.145   1.025  0.0016  0.5806 -0.5214
   44TCq2    C7  675   3.566   4.107   1.110 -0.0349 -0.0927  0.0347
   44TCq2    C8  676   3.473   4.073   0.896 -0.0573  0.0015 -0.0741
   44TCq2    O4  677   3.554   3.984   0.883  0.2440 -0.5572 -0.2530
   44TCq2    C9  678   3.396   4.476   1.186  0.0474 -0.0988  0.1853
   44TCq2    O5  679   3.470   4.551   1.253  0.0286  0.3080 -0.8464
   44TCq2    O6  680   3.316   4.523   1.097 -0.1603 -0.3606 -0.2547
   44TCq2    H2  681   3.565   4.352   1.338  2.9407 -2.2011  0.2038
   44TCq2    H3  682   3.344   4.313   0.979 -0.6665  0.3154  0.8763
   44TCq2    H4  683   3.609   4.008   1.100 -0.2101  0.1678 -3.0412
   45TMC2    C1  684   4.233   1.711   9.190 -0.1482 -0.1526  0.0479
   45TMC2    C2  685   4.350   1.656   9.156 -0.2670  0.0344  0.1733
   45TMC2    C3  686   4.463   1.705   9.209 -0.5193 -0.0302  0.7295
   45TMC2    C4  687   4.228   1.823   9.267 -0.2556 -0.2615 -0.3147
   45TMC2    C5  688   4.350   1.876   9.308 -0.3244 -0.0294  0.2658
   45TMC2    C6  689   4.470   1.813   9.292  0.2876 -0.6656  0.0037
   45TMC2     C  690   4.116   1.655   9.127  0.3441  0.3244 -0.5004
   45TMC2     O  691   4.131   1.582   9.030  0.0364  0.1436  0.4917
   45TMC2     H  692   4.356   1.563   9.100  1.1646  0.5798 -0.5718
   45TMC2    H1  693   4.134   1.874   9.285 -0.1795 -0.2351  0.0006
   45TMC2    H2  694   4.564   1.854   9.327 -0.2657  0.0113  0.7109
   45TMC2    C7  695   4.351   1.989   9.390  0.1729  0.8643 -0.2711
   45TMC2    C8  696   4.578   1.614   9.219  1.3352 -0.0189 -1.0197
   45TMC2    O1  697   4.458   2.019   9.443  0.0767 -0.1399  0.1180
   45TMC2    O2  698   4.695   1.651   9.248 -0.0094  0.7511  0.1149
   45TMC2    O5  699   4.538   1.487   9.224  0.0035  0.2025  0.1123
   45TMC2    H5  700   4.441   1.481   9.239  0.0504 -0.9153 -0.0206
   46MPD2     C  701   3.844   1.565   9.041 -0.3193 -0.6244 -0.3826
   46MPD2    C1  702   3.867   1.654   9.142 -0.4816  0.1658  0.4489
   46MPD2    C2  703   3.752   1.701   9.208 -0.2352  0.7360 -0.4138
   46MPD2    C3  704   3.629   1.671   9.161 -0.2636  0.2481  0.2884
   46MPD2    C4  705   3.607   1.577   9.058  0.1086 -0.5378 -0.4569
   46MPD2    C5  706   3.720   1.525   8.993 -0.2913  0.3688 -0.2922
   46MPD2     H  707   3.763   1.763   9.296 -1.6156 -2.2714  1.8621
   46MPD2    H1  708   3.508   1.553   9.020 -0.4718  1.3302 -0.1049
   46MPD2    H2  709   3.920   1.533   8.970  1.2192  0.9158  0.5659
   46MPD2    H3  710   3.705   1.454   8.912  0.5802 -0.2333  0.0793
   46MPD2     N  711   3.519   1.723   9.232 -0.1370 -0.7858  0.4443
   46MPD2    H5  712   3.534   1.753   9.328 -0.9585 -0.5122  0.4907
   46MPD2    N1  713   3.996   1.697   9.186  0.5133 -0.1262 -0.3394
   46MPD2    H7  714   3.991   1.767   9.259 -0.6341 -0.3199 -0.2422
   47TMC2    C1  715   1.085   1.899   9.666  0.3532  0.9162  0.0414
   47TMC2    C2  716   1.116   1.769   9.697 -0.0241 -0.3719 -0.2915
   47TMC2    C3  717   1.014   1.679   9.684 -0.0761 -0.3806  0.1851
   47TMC2    C4  718   0.961   1.937   9.626  0.3036 -0.1943 -0.0011
   47TMC2    C5  719   0.868   1.835   9.606 -0.1432  0.2638  0.1674
   47TMC2    C6  720   0.889   1.707   9.642  1.1388 -0.8509 -0.1937
   47TMC2     C  721   1.180   2.006   9.691  0.3727 -0.4401 -0.1851
   47TMC2     O  722   1.131   2.117   9.711  0.5127 -0.8665 -0.0825
   47TMC2     H  723   1.213   1.739   9.735 -0.6507 -1.7198  0.2337
   47TMC2    H1  724   0.940   2.040   9.598 -0.0992 -0.3675 -0.3382
   47TMC2    H2  725   0.811   1.632   9.631  0.6622 -0.0001 -2.5559
   47TMC2    C7  726   0.738   1.870   9.562 -0.6317 -0.6542 -0.0496
   47TMC2    C8  727   1.050   1.539   9.718 -0.6453  0.2364 -0.2652
   47TMC2    O1  728   0.700   1.979   9.590  0.5572 -0.1472 -0.5073
   47TMC2    O2  729   1.169   1.500   9.720  0.5779  0.0704  0.0657
   47TMC2    O5  730   0.943   1.463   9.748 -0.3720  0.2013 -0.2391
   47TMC2    H5  731   0.859   1.502   9.780  0.2519 -0.4977  2.1769
   48MPD2     C  732   1.397   2.191   9.651 -0.2588  0.5378 -0.5596
   48MPD2    C1  733   1.415   2.059   9.669 -0.0046  0.6723 -0.2962
   48MPD2    C2  734   1.539   2.016   9.686 -0.1864  0.7929  0.7443
   48MPD2    C3  735   1.650   2.099   9.695  0.9859 -0.9263 -1.3316
   48MPD2    C4  736   1.629   2.232   9.675  0.0390  0.1634 -0.3838
   48MPD2    C5  737   1.502   2.277   9.658  0.2712  0.1576  0.3836
   48MPD2     H  738   1.556   1.912   9.714  1.1078  0.3453 -1.6227
   48MPD2    H1  739   1.712   2.301   9.683 -0.1585  0.4491 -0.7693
   48MPD2    H2  740   1.300   2.232   9.623 -0.6952 -1.4355 -1.9885
   48MPD2    H3  741   1.483   2.382   9.641 -0.5007 -0.3202 -1.7394
   48MPD2     N  742   1.772   2.042   9.723 -0.2324 -0.5095 -0.2688
   48MPD2    H5  743   1.770   1.941   9.734  0.8531 -0.7349 -2.0595
   48MPD2    N1  744   1.311   1.967   9.662 -0.2952 -0.1172 -0.5240
   48MPD2    H7  745   1.331   1.867   9.656 -1.8683 -0.4930  0.4067
   49MPD2     C  746   0.897   4.159  10.375  0.1973 -0.6097  0.4590
   49MPD2    C1  747   0.778   4.091  10.389  0.8369 -0.5293 -0.6640
   49MPD2    C2  748   0.757   4.009  10.495  0.2062  0.3446  0.3275
   49MPD2    C3  749   0.858   3.992  10.591  0.5730  0.8667 -0.2460
   49MPD2    C4  750   0.975   4.060  10.570 -0.5602  0.0649  0.0267
   49MPD2    C5  751   0.988   4.145  10.471  0.3083  0.0130  0.1191
   49MPD2     H  752   0.661   3.960  10.489 -0.0436  0.7141  1.2778
   49MPD2    H1  753   1.050   4.059  10.648 -1.4229 -2.4125  0.8234
   49MPD2    H2  754   0.924   4.217  10.287 -1.1293  0.8248  0.9969
   49MPD2    H3  755   1.078   4.206  10.466 -1.5246  2.6464 -0.5748
   49MPD2     N  756   0.840   3.916  10.709  0.5474  0.8171  0.0274
   49MPD2    H5  757   0.910   3.926  10.782  0.7784 -0.5107 -0.0089
   49MPD2    N1  758   0.661   4.126  10.310 -0.0456 -0.1275 -0.1163
   49MPD2    H7  759   0.582   4.064  10.325  0.0051 -0.2317 -0.2861
   50TCq2    C1  760   0.650   4.232  10.214 -1.1167  0.0041  0.3516
   50TCq2    O2  761   0.742   4.300  10.163 -0.7327 -0.6286  0.5076
   50TCq2    C2  762   0.517   4.270  10.182  0.1932 -0.3985  0.0000
   50TCq2    C3  763   0.520   4.378  10.103 -0.5776  0.1363  0.0881
   50TCq2    C4  764   0.456   4.490  10.132  0.7460  0.5518  0.2726
   50TCq2    C5  765   0.374   4.485  10.241  0.0453  0.3846  0.1616
   50TCq2    C6  766   0.362   4.376  10.320 -0.0674 -0.4684 -0.1942
   50TCq2    C7  767   0.439   4.267  10.293  0.5994  0.7073 -0.5590
   50TCq2    C8  768   0.316   4.375  10.455 -0.1772 -0.4374  0.0326
   50TCq2    O4  769   0.281   4.273  10.507 -0.0662  0.5512 -0.2020
   50TCq2    C9  770   0.448   4.603  10.035  0.3202 -0.2458  0.0356
   50TCq2    O5  771   0.364   4.692  10.070 -0.1328  0.5451 -0.5426
   50TCq2    O6  772   0.500   4.594   9.917 -0.0160  0.5440 -0.0371
   50TCq2    H2  773   0.584   4.370  10.016 -1.1056  1.0005 -0.3852
   50TCq2    H3  774   0.302   4.565  10.252 -0.0338  0.4212 -0.6453
   50TCq2    H4  775   0.437   4.180  10.357 -0.6641  0.7280 -0.5781
   51MPD2     C  776   1.091   2.579   1.559  0.3581  0.6433  0.0316
   51MPD2    C1  777   1.150   2.507   1.656 -0.3407 -0.0162 -0.4260
   51MPD2    C2  778   1.147   2.552   1.783 -0.7691 -0.4682  0.2347
   51MPD2    C3  779   1.095   2.676   1.820  0.2572 -0.4933 -0.1506
   51MPD2    C4  780   1.036   2.753   1.724  0.5504 -0.1033  0.8230
   51MPD2    C5  781   1.032   2.699   1.595 -0.0275  0.4081  0.2020
   51MPD2     H  782   1.195   2.482   1.850 -0.9882  0.7318  1.6471
   51MPD2    H1  783   0.999   2.854   1.735  0.6158 -0.1061  1.0741
   51MPD2    H2  784   1.077   2.546   1.457  0.8090 -0.8078  0.4281
   51MPD2    H3  785   0.982   2.758   1.519  1.3508  1.3435  0.0077
   51MPD2     N  786   1.089   2.723   1.953 -0.1204 -0.3100  0.2192
   51MPD2    H5  787   1.054   2.818   1.966 -1.2191 -0.8559  1.2271
   51MPD2    N1  788   1.223   2.391   1.625  0.1564 -0.2910 -0.3828
   51MPD2    H7  789   1.245   2.336   1.708 -0.1442 -0.1293 -0.1969
   52TCq2    C1  790   1.131   2.649   2.062  0.1377 -0.3147  0.3986
   52TCq2    O2  791   1.189   2.542   2.078 -0.3083 -0.4260 -0.1045
   52TCq2    C2  792   1.120   2.726   2.185 -0.2860 -0.4464 -0.2609
   52TCq2    C3  793   1.198   2.685   2.292 -0.8846 -1.1011 -0.8447
   52TCq2    C4  794   1.204   2.768   2.399 -0.3389  0.1701 -0.7107
   52TCq2    C5  795   1.111   2.863   2.415  0.2872 -0.2050  0.2789
   52TCq2    C6  796   1.033   2.900   2.310 -0.5608 -0.1274  0.3473
   52TCq2    C7  797   1.034   2.835   2.189 -0.1534 -0.4357  0.1384
   52TCq2    C8  798   0.964   3.021   2.309 -0.6988 -0.0728 -0.1751
   52TCq2    O4  799   0.941   3.060   2.193  0.4091  0.6718 -0.4135
   52TCq2    C9  800   1.290   2.739   2.511  0.5552 -0.1470 -0.8033
   52TCq2    O5  801   1.263   2.787   2.625  0.6421 -1.0331 -0.1408
   52TCq2    O6  802   1.390   2.665   2.488 -0.2577  0.2757 -0.3926
   52TCq2    H2  803   1.267   2.602   2.279  1.4802  0.6816  0.2889
   52TCq2    H3  804   1.121   2.934   2.497  0.4424 -0.9683  0.9189
   52TCq2    H4  805   0.964   2.853   2.108  0.0764 -0.0972  0.0155
   53TMC2    C1  806   1.090   1.150  12.313  0.8966 -0.2140 -0.2445
   53TMC2    C2  807   1.206   1.169  12.393 -0.0041 -0.0823 -0.1647
   53TMC2    C3  808   1.188   1.221  12.518 -0.2780 -0.8521  0.8970
   53TMC2    C4  809   0.969   1.180  12.366 -0.5212  0.2977  0.1138
   53TMC2    C5  810   0.964   1.220  12.491  0.1662 -0.8841 -0.8430
   53TMC2    C6  811   1.071   1.242  12.576  0.3658 -0.5593 -0.3841
   53TMC2     C  812   1.111   1.133  12.168 -0.5389 -1.0506 -0.1662
   53TMC2     O  813   1.225   1.152  12.120  0.0813 -0.2642 -0.6240
   53TMC2     H  814   1.303   1.181  12.347 -0.5703 -0.0187 -1.3208
   53TMC2    H1  815   0.881   1.179  12.304  0.6625  0.6052 -1.5786
   53TMC2    H2  816   1.063   1.303  12.665  0.0465  0.1300 -0.8807
   53TMC2    C7  817   0.831   1.267  12.535  0.8454 -0.4226 -0.4717
   53TMC2    C8  818   1.299   1.215  12.607 -0.2560 -0.1391  0.1847
   53TMC2    O1  819   0.739   1.297  12.461 -0.9291 -0.1943  0.2134
   53TMC2    O2  820   1.283   1.241  12.725  0.1068  0.1367 -0.0328
   53TMC2    O5  821   1.369   1.111  12.570 -0.2497  0.2296  0.6256
   53TMC2    H5  822   1.347   1.095  12.476  0.9680 -1.0705  0.5613
   54MPD2     C  823   1.043   1.092  11.875 -0.2571  0.3861  0.3144
   54MPD2    C1  824   0.974   1.026  11.984  0.1164 -0.3624 -0.0281
   54MPD2    C2  825   0.866   0.947  11.955  0.9547 -0.0001  0.3876
   54MPD2    C3  826   0.830   0.922  11.823  0.8206  0.7837  0.5299
   54MPD2    C4  827   0.895   0.988  11.720 -0.7917 -0.0786  0.3334
   54MPD2    C5  828   0.993   1.080  11.749 -0.4186  0.6412  0.3177
   54MPD2     H  829   0.811   0.906  12.039 -2.7665 -1.6060 -2.8421
   54MPD2    H1  830   0.861   0.975  11.618 -1.2531  1.8462  0.2443
   54MPD2    H2  831   1.128   1.157  11.891 -0.5218  1.1926 -1.6135
   54MPD2    H3  832   1.034   1.140  11.668 -0.3848  0.0303 -0.1186
   54MPD2     N  833   0.712   0.848  11.792  0.4284 -0.3025 -0.0098
   54MPD2    H5  834   0.679   0.855  11.696 -0.4081 -0.1960  0.2865
   54MPD2    N1  835   1.006   1.060  12.121 -0.4579  0.4217 -0.5230
   54MPD2    H7  836   0.940   1.035  12.193 -0.6725  0.5740 -0.6641
   55MPD2     C  837   2.103   3.303  17.580  0.2495  0.2173 -0.3021
   55MPD2    C1  838   2.061   3.335   0.001 -0.2191 -0.5833  0.8536
   55MPD2    C2  839   1.931   3.377   0.030 -0.8024 -0.5530 -0.3432
   55MPD2    C3  840   1.838   3.371  17.632 -0.2279  0.4112 -0.3332
   55MPD2    C4  841   1.880   3.321  17.504  0.5772 -0.2091  0.1004
   55MPD2    C5  842   2.012   3.292  17.480 -0.2138 -0.5921  0.4488
   55MPD2     H  843   1.897   3.403   0.129 -0.8484 -0.7893 -0.2979
   55MPD2    H1  844   1.810   3.312  17.421  2.3560 -0.9824 -1.3201
   55MPD2    H2  845   2.206   3.279  17.556  0.0235 -0.4763 -0.5572
   55MPD2    H3  846   2.041   3.262  17.380 -0.4970  1.8973 -0.3950
   55MPD2     N  847   1.705   3.392  17.656 -0.0277  0.1863 -0.5636
   55MPD2    H5  848   1.671   3.416   0.045 -1.6456 -1.8788 -0.6244
   55MPD2    N1  849   2.161   3.328   0.104 -0.4336  0.7334 -0.3980
   55MPD2    H7  850   2.247   3.286   0.068 -1.0116 -0.9900  0.2528
   56TCq2    C1  851   2.145   3.370   0.230 -0.0700 -0.1066 -0.2847
   56TCq2    O2  852   2.042   3.423   0.282  0.3721  0.3515  0.4536
   56TCq2    C2  853   2.260   3.356   0.310 -0.6480 -0.0276  0.2409
   56TCq2    C3  854   2.384   3.374   0.260  0.0466  0.3959 -0.5530
   56TCq2    C4  855   2.495   3.339   0.333 -0.4771 -0.2060 -0.4240
   56TCq2    C5  856   2.484   3.299   0.463 -0.1512  0.5734  0.7179
   56TCq2    C6  857   2.359   3.298   0.517 -0.2692 -0.0561  0.4887
   56TCq2    C7  858   2.246   3.318   0.437  0.1622 -0.0024  0.5499
   56TCq2    C8  859   2.336   3.283   0.660  0.6886 -0.1905  0.1208
   56TCq2    O4  860   2.434   3.259   0.725  0.4686 -0.3233  0.0799
   56TCq2    C9  861   2.630   3.353   0.271  0.5971  0.0709 -0.8056
   56TCq2    O5  862   2.644   3.392   0.149 -0.0472 -0.3789  0.5375
   56TCq2    O6  863   2.728   3.315   0.338 -0.2006  0.2715 -0.4184
   56TCq2    H2  864   2.398   3.425   0.166  3.0844 -0.4574 -0.5605
   56TCq2    H3  865   2.577   3.283   0.517  0.3684 -1.1001 -0.6689
   56TCq2    H4  866   2.148   3.281   0.466  0.1429 -2.3909 -2.5114
   57TMC2    C1  867   1.330   4.562  14.006  0.6520 -0.0252  0.1858
   57TMC2    C2  868   1.407   4.636  14.090 -0.1530 -0.0237  0.3253
   57TMC2    C3  869   1.543   4.615  14.089  0.0971 -0.0149  0.1244
   57TMC2    C4  870   1.386   4.465  13.923  0.4166  0.2897  0.3513
   57TMC2    C5  871   1.521   4.447  13.940  0.7796  0.9245 -0.5295
   57TMC2    C6  872   1.605   4.527  14.010  0.2609 -0.1683  0.7651
   57TMC2     C  873   1.188   4.588  13.998  0.0442  0.1811 -0.3701
   57TMC2     O  874   1.145   4.649  14.094 -0.6064  0.0805 -0.3528
   57TMC2     H  875   1.361   4.711  14.154 -0.6563 -0.6820  0.7345
   57TMC2    H1  876   1.332   4.402  13.853 -0.1056  1.4647 -0.3095
   57TMC2    H2  877   1.712   4.511  14.001  0.3154 -0.3094  1.7164
   57TMC2    C7  878   1.581   4.321  13.896  0.1386  0.1744 -0.7367
   57TMC2    C8  879   1.630   4.693  14.183 -0.2669 -0.4413 -1.2296
   57TMC2    O1  880   1.691   4.296  13.937  0.0297  0.0140 -0.4956
   57TMC2    O2  881   1.741   0.004  14.145 -0.0788  0.1719 -0.2261
   57TMC2    O5  882   1.563   0.015  14.286  0.6213  0.2313 -0.1796
   57TMC2    H5  883   1.501   4.670  14.312  0.0758  0.1644 -1.6679
   58MPD2     C  884   0.721   4.420  13.854 -0.0896 -0.2090 -0.3204
   58MPD2    C1  885   0.757   4.496  13.967 -0.4192 -0.4651 -0.5467
   58MPD2    C2  886   0.894   4.526  13.989 -0.8479  0.1077 -0.4076
   58MPD2    C3  887   0.989   4.487  13.892 -0.5712 -0.1951 -0.1841
   58MPD2    C4  888   0.951   4.415  13.787 -0.0990  0.7493  0.1412
   58MPD2    C5  889   0.823   4.381  13.772  0.1271 -0.2940 -0.3507
   58MPD2     H  890   0.921   4.584  14.077 -1.7735 -2.9827  1.8925
   58MPD2    H1  891   1.015   4.405  13.700  0.3982  2.4168  0.3174
   58MPD2    H2  892   0.616   4.405  13.828 -0.3682 -2.1032  1.9170
   58MPD2    H3  893   0.796   4.326  13.683  2.8351 -1.1041 -0.6737
   58MPD2     N  894   1.123   4.524  13.897  0.4225  0.5117  0.5688
   58MPD2    H5  895   1.174   4.474  13.825  0.8761 -0.8188  1.8151
   58MPD2    N1  896   0.665   4.553  14.055 -0.0370  0.2161 -0.3032
   58MPD2    H7  897   0.696   4.605  14.136  1.3853 -0.6844 -0.2722
   59MPD2     C  898   3.481   4.641  13.209  0.5432  0.6252  0.5592
   59MPD2    C1  899   3.430   0.007  13.120  0.5361  0.1864  0.3976
   59MPD2    C2  900   3.458   0.144  13.134 -0.6872 -0.0360  0.6441
   59MPD2    C3  901   3.546   0.185  13.242  0.1036  0.0794  0.2580
   59MPD2    C4  902   3.591   0.088  13.326  0.3889 -0.4157 -0.2232
   59MPD2    C5  903   3.568   4.679  13.310 -0.0966  0.6076  0.3951
   59MPD2     H  904   3.417   0.221  13.069  0.0570 -1.9918 -2.1242
   59MPD2    H1  905   3.654   0.106  13.412 -1.7115 -0.0212  1.2362
   59MPD2    H2  906   3.469   4.534  13.195 -0.0528  0.7464  0.1646
   59MPD2    H3  907   3.621   4.606  13.372  0.5271 -1.3175 -2.3935
   59MPD2     N  908   3.598   0.322  13.260 -0.5034  0.1213 -0.4592
   59MPD2    H5  909   3.663   0.333  13.337 -0.5139  0.0174 -0.4349
   59MPD2    N1  910   3.357   4.696  13.000  0.1865  0.5027 -0.1239
   59MPD2    H7  911   3.335   0.046  12.937  1.5126  0.4732 -0.6145
   60TCq2    C1  912   3.305   4.576  12.963 -0.2996 -0.0042  0.3310
   60TCq2    O2  913   3.292   4.476  13.029  0.1472  0.0475 -0.0874
   60TCq2    C2  914   3.252   4.580  12.827 -0.2601 -0.0600 -0.1424
   60TCq2    C3  915   3.154   4.489  12.800  0.6034  0.4450  0.5700
   60TCq2    C4  916   3.078   4.506  12.691 -0.4907 -0.7827  0.2093
   60TCq2    C5  917   3.094   4.616  12.615 -0.1832 -0.0515  0.3701
   60TCq2    C6  918   3.193   4.704  12.642  0.1991  0.3191 -0.7113
   60TCq2    C7  919   3.275   4.692  12.748  0.3686  1.0161  0.0690
   60TCq2    C8  920   3.193   0.109  12.583 -0.5803 -0.7188 -0.2003
   60TCq2    O4  921   3.219   0.205  12.652  0.0233  0.4426 -0.1107
   60TCq2    C9  922   2.955   4.433  12.665  0.4042 -0.4679 -0.0116
   60TCq2    O5  923   2.935   4.330  12.733 -0.3850 -0.7170 -0.3782
   60TCq2    O6  924   2.865   4.495  12.611 -0.3199  0.4779 -0.6510
   60TCq2    H2  925   3.128   4.411  12.870 -1.6610  0.6724 -0.0355
   60TCq2    H3  926   3.027   4.634  12.532 -0.6815 -0.2465  0.7305
   60TCq2    H4  927   3.351   0.042  12.763 -0.4254  1.9312 -0.5043
   61MPD2     C  928   2.692   1.155  14.416 -0.4123  0.3225 -0.6705
   61MPD2    C1  929   2.673   1.245  14.520 -0.8984  0.4557 -0.3471
   61MPD2    C2  930   2.586   1.354  14.493 -0.5856 -0.3465  0.1547
   61MPD2    C3  931   2.520   1.361  14.370 -0.3790 -0.1818 -0.3649
   61MPD2    C4  932   2.537   1.270  14.272  0.0152  0.3258 -0.1379
   61MPD2    C5  933   2.633   1.168  14.290  0.2927  0.1322  0.8860
   61MPD2     H  934   2.598   1.441  14.556 -0.9098 -0.0298 -0.2199
   61MPD2    H1  935   2.510   1.299  14.171 -0.7392  0.7012  0.1711
   61MPD2    H2  936   2.762   1.072  14.421 -1.2747 -0.3160  0.6543
   61MPD2    H3  937   2.661   1.105  14.206  0.5141 -0.0632  1.1079
   61MPD2     N  938   2.436   1.466  14.334 -0.1918 -0.2384  0.3142
   61MPD2    H5  939   2.405   1.465  14.238 -2.5421 -3.1133  1.0903
   61MPD2    N1  940   2.731   1.248  14.647  0.3078  0.4587  0.4134
   61MPD2    H7  941   2.715   1.330  14.705  1.1355 -0.3436  1.7764
   62TCq2    C1  942   2.797   1.137  14.693 -0.5602 -0.2088 -0.3181
   62TCq2    O2  943   2.811   1.026  14.642 -0.0489  0.1876 -0.1894
   62TCq2    C2  944   2.847   1.152  14.835 -0.1673  0.3792  0.1794
   62TCq2    C3  945   2.849   1.038  14.907 -0.2095 -0.3154  0.6437
   62TCq2    C4  946   2.854   1.048  15.045  0.1706  0.3898 -1.0770
   62TCq2    C5  947   2.843   1.163  15.105 -0.0683 -0.6942 -0.6464
   62TCq2    C6  948   2.848   1.279  15.033  0.0455  0.5783  0.4489
   62TCq2    C7  949   2.848   1.271  14.899  0.0566 -0.5011  0.7425
   62TCq2    C8  950   2.769   1.399  15.079  0.2410 -0.2313  0.2250
   62TCq2    O4  951   2.795   1.501  15.015  0.0746 -0.0163  0.2169
   62TCq2    C9  952   2.879   0.934  15.129  0.1596  0.3389 -0.3435
   62TCq2    O5  953   2.888   0.821  15.069  0.2202  0.3940 -0.2935
   62TCq2    O6  954   2.868   0.952  15.253 -0.3982  0.5544 -0.3796
   62TCq2    H2  955   2.847   0.947  14.849  2.1939 -1.0417  1.6905
   62TCq2    H3  956   2.848   1.159  15.213  2.1875  0.1691 -0.7245
   62TCq2    H4  957   2.839   1.358  14.835 -0.4846  0.5562  2.2558
   63TMC2    C1  958   2.126   1.648  10.460  0.2151  0.0145 -0.1218
   63TMC2    C2  959   2.226   1.604  10.546 -0.2802 -0.1573  0.0020
   63TMC2    C3  960   2.327   1.694  10.576 -0.1379  0.0648  0.5060
   63TMC2    C4  961   2.131   1.764  10.393 -0.5541  0.0604  0.8565
   63TMC2    C5  962   2.238   1.851  10.420 -1.1288 -0.1786  0.6094
   63TMC2    C6  963   2.339   1.815  10.505 -0.2365 -0.5650 -0.2594
   63TMC2     C  964   2.027   1.551  10.412  0.8593  0.0433 -0.2593
   63TMC2     O  965   1.916   1.590  10.391  0.1809  0.2284  0.2914
   63TMC2     H  966   2.215   1.511  10.601  0.9784  0.5419  1.4261
   63TMC2    H1  967   2.046   1.793  10.332  1.2036 -1.1549 -2.1528
   63TMC2    H2  968   2.422   1.885  10.513 -0.5688 -0.2194  0.1927
   63TMC2    C7  969   2.245   1.979  10.349  0.7957 -0.0009 -0.2326
   63TMC2    C8  970   2.416   1.667  10.686 -0.3829 -0.3818 -0.0809
   63TMC2    O1  971   2.151   1.998  10.274 -0.0691 -0.2971  0.3546
   63TMC2    O2  972   2.436   1.549  10.718  0.4716 -0.0204  0.1783
   63TMC2    O5  973   2.437   1.776  10.757  0.1010  0.1421 -0.0202
   63TMC2    H5  974   2.390   1.855  10.724  1.8330  1.6009  0.9961
   64MPD2     C  975   1.958   1.083  10.196 -0.1026  0.0020  0.4850
   64MPD2    C1  976   2.084   1.089  10.251  0.7725 -0.0898  0.0866
   64MPD2    C2  977   2.128   1.207  10.307  0.4270  0.0693  0.0287
   64MPD2    C3  978   2.043   1.317  10.310  0.2613 -0.4553  0.2586
   64MPD2    C4  979   1.914   1.313  10.252 -0.2013  0.1470  0.0867
   64MPD2    C5  980   1.872   1.190  10.194 -0.5066  0.1285 -0.2129
   64MPD2     H  981   2.226   1.214  10.353  0.5754  1.4112 -0.4926
   64MPD2    H1  982   1.849   1.400  10.241 -0.1753  0.3576  1.6762
   64MPD2    H2  983   1.926   0.991  10.147  1.8729  0.3527 -1.4296
   64MPD2    H3  984   1.772   1.185  10.152 -0.5976  0.7110 -0.0659
   64MPD2     N  985   2.095   1.434  10.377  0.4685  1.0619 -0.2162
   64MPD2    H5  986   2.195   1.424  10.390  0.4099  2.5152  1.3858
   64MPD2    N1  987   2.170   0.974  10.277 -0.2550 -0.0660  0.0775
   64MPD2    H7  988   2.260   0.999  10.316 -0.3647 -0.7811  0.7682
   65MPD2     C  989   3.609   0.610  16.037 -0.2632 -0.0361 -0.3208
   65MPD2    C1  990   3.603   0.669  15.912 -0.2207 -0.2820 -0.6678
   65MPD2    C2  991   3.532   0.587  15.818 -0.2888  0.7100  0.3328
   65MPD2    C3  992   3.468   0.471  15.844  0.8061 -0.6710  0.4455
   65MPD2    C4  993   3.467   0.423  15.969 -0.2627  0.2534 -0.7464
   65MPD2    C5  994   3.541   0.492  16.065  0.0672 -0.1969  0.3961
   65MPD2     H  995   3.525   0.631  15.720  0.6965  0.5696  0.2061
   65MPD2    H1  996   3.416   0.331  15.996  0.6320  0.4639  1.6826
   65MPD2    H2  997   3.656   0.651  16.125  1.5201 -0.5366 -1.0361
   65MPD2    H3  998   3.549   0.454  16.166  1.5682  0.9239  0.7030
   65MPD2     N  999   3.381   0.404  15.754  0.4685 -0.1989  0.4221
   65MPD2    H5 1000   3.302   0.353  15.791 -0.2337 -0.6152 -1.6111
   65MPD2    N1 1001   3.658   0.793  15.878  0.1743 -0.1143 -0.3494
   65MPD2    H7 1002   3.645   0.816  15.780 -0.0031 -1.0726 -0.5520
   66TCq2    C1 1003   3.706   0.881  15.965  0.1337  0.7145 -0.3708
   66TCq2    O2 1004   3.717   0.873  16.086 -0.4807 -0.2223 -0.3908
   66TCq2    C2 1005   3.735   1.010  15.910  0.3037 -0.7892  0.5948
   66TCq2    C3 1006   3.806   1.019  15.789  0.2545  0.2602  0.3593
   66TCq2    C4 1007   3.888   1.132  15.779 -0.3834  0.3588  0.4968
   66TCq2    C5 1008   3.896   1.225  15.877 -0.1096  0.8879 -0.5567
   66TCq2    C6 1009   3.814   1.223  15.985 -0.7351 -0.2629 -0.0894
   66TCq2    C7 1010   3.732   1.113  16.001  0.0438  0.4550 -0.1220
   66TCq2    C8 1011   3.836   1.319  16.084 -0.2363 -0.2439 -0.6436
   66TCq2    O4 1012   3.944   1.375  16.095 -0.2424 -0.4138 -0.3562
   66TCq2    C9 1013   3.964   1.137  15.654  0.3597  0.3176  0.4277
   66TCq2    O5 1014   3.956   1.038  15.581  1.2900 -0.0294 -0.3914
   66TCq2    O6 1015   4.051   1.225  15.644 -0.6578  0.5019 -0.6548
   66TCq2    H2 1016   3.824   0.936  15.722  0.3748  0.6455 -0.0892
   66TCq2    H3 1017   3.960   1.310  15.858  3.2485 -1.1536  1.6189
   66TCq2    H4 1018   3.673   1.115  16.092 -1.7176 -0.8909 -1.2319
   67MPD2     C 1019   3.392   0.948  14.234 -0.6623 -0.1802  0.0557
   67MPD2    C1 1020   3.402   0.829  14.297 -0.1195  0.0665  0.2278
   67MPD2    C2 1021   3.346   0.720  14.236  0.0259  0.3120 -0.2213
   67MPD2    C3 1022   3.267   0.730  14.125 -0.0277  0.2296  0.0691
   67MPD2    C4 1023   3.247   0.860  14.071 -0.0209 -0.2432 -0.2557
   67MPD2    C5 1024   3.322   0.965  14.120 -0.7510 -0.1556 -0.2483
   67MPD2     H 1025   3.352   0.620  14.278 -1.1121 -0.5414 -2.0841
   67MPD2    H1 1026   3.175   0.864  13.991  0.8350  0.8904 -0.9647
   67MPD2    H2 1027   3.444   1.034  14.274  0.7808 -0.0555 -2.0818
   67MPD2    H3 1028   3.313   1.059  14.067 -0.5174 -0.0093 -0.0292
   67MPD2     N 1029   3.192   0.621  14.069  0.1859  0.4791 -0.0254
   67MPD2    H5 1030   3.113   0.647  14.012 -1.4295 -0.4829  1.7808
   67MPD2    N1 1031   3.458   0.819  14.424  0.9423 -0.3104 -0.8962
   67MPD2    H7 1032   3.448   0.722  14.453  0.4520 -0.1474 -0.5221
   68TCq2    C1 1033   3.476   0.915  14.517 -0.4333  0.2246  0.5128
   68TCq2    O2 1034   3.446   1.033  14.507  0.3120 -0.2842  0.2630
   68TCq2    C2 1035   3.534   0.869  14.634  0.2075  0.5895  1.2950
   68TCq2    C3 1036   3.523   0.949  14.747  0.2816  0.0376 -0.0439
   68TCq2    C4 1037   3.582   0.910  14.863  0.4058 -0.5038  0.4217
   68TCq2    C5 1038   3.646   0.783  14.872 -0.4093  0.1189 -0.3256
   68TCq2    C6 1039   3.665   0.712  14.754  0.1839  0.4089  0.0180
   68TCq2    C7 1040   3.608   0.754  14.634  0.5952 -0.2680 -0.1007
   68TCq2    C8 1041   3.709   0.569  14.769 -0.1203  0.6697  0.6004
   68TCq2    O4 1042   3.732   0.497  14.677  0.1916  0.4647  0.1012
   68TCq2    C9 1043   3.569   0.996  14.981  0.4352 -0.1818  0.0504
   68TCq2    O5 1044   3.456   1.028  15.016 -0.2213 -0.0176  0.2694
   68TCq2    O6 1045   3.666   0.985  15.059  0.2589  0.1719 -0.1310
   68TCq2    H2 1046   3.474   1.045  14.740  1.7878  0.9371  1.7221
   68TCq2    H3 1047   3.697   0.759  14.965 -0.4947 -1.4668 -0.6962
   68TCq2    H4 1048   3.605   0.685  14.551  1.4675  2.9452 -2.8184
   69TMC2    C1 1049   0.872   1.523  12.947 -0.9771 -0.6324 -0.1448
   69TMC2    C2 1050   0.742   1.532  12.911  0.4500 -0.4066 -0.1260
   69TMC2    C3 1051   0.717   1.595  12.788 -0.5201 -0.4166 -0.0788
   69TMC2    C4 1052   0.975   1.559  12.865 -0.9743  0.6847  0.1377
   69TMC2    C5 1053   0.941   1.599  12.739 -0.2504 -0.1440 -0.0088
   69TMC2    C6 1054   0.814   1.631  12.698 -0.0378 -0.0670  0.0077
   69TMC2     C 1055   0.901   1.424  13.050  0.6505 -0.4547  0.6117
   69TMC2     O 1056   1.015   1.376  13.041  1.1451 -0.6704  0.2306
   69TMC2     H 1057   0.664   1.486  12.972 -0.1335  0.8429  0.0683
   69TMC2    H1 1058   1.077   1.548  12.900 -1.3142  1.4121  1.3635
   69TMC2    H2 1059   0.789   1.672  12.601  1.0960  0.9939  0.1651
   69TMC2    C7 1060   1.045   1.570  12.640  0.3800  0.3065 -0.2098
   69TMC2    C8 1061   0.581   1.634  12.767  0.2395  0.3278 -0.9945
   69TMC2    O1 1062   1.163   1.560  12.675  0.2792 -0.4007  0.3809
   69TMC2    O2 1063   0.491   1.578  12.824 -0.5900  0.0251 -0.6532
   69TMC2    O5 1064   0.588   1.756  12.710 -0.3167  0.2652 -0.8465
   69TMC2    H5 1065   0.680   1.787  12.691 -0.6490  1.1837 -0.9797
   70MPD2     C 1066   0.673   1.260  13.294 -0.3415  0.1327  0.2681
   70MPD2    C1 1067   0.786   1.282  13.222 -0.0309 -0.1603  0.1495
   70MPD2    C2 1068   0.870   1.173  13.214 -0.3608  0.4242 -0.3788
   70MPD2    C3 1069   0.840   1.044  13.267 -0.1883 -0.7962  0.3747
   70MPD2    C4 1070   0.728   1.025  13.340 -0.0268  0.1188 -0.1768
   70MPD2    C5 1071   0.645   1.136  13.350 -0.1035  0.1457 -0.6208
   70MPD2     H 1072   0.948   1.179  13.138  0.9112 -1.8177  0.7459
   70MPD2    H1 1073   0.713   0.932  13.394 -1.7869  0.1036 -0.6974
   70MPD2    H2 1074   0.608   1.345  13.313 -1.7784 -1.1167  0.8818
   70MPD2    H3 1075   0.563   1.121  13.420 -0.0993 -2.3535 -1.1902
   70MPD2     N 1076   0.918   0.929  13.244  0.0960 -0.8469  0.4512
   70MPD2    H5 1077   0.880   0.839  13.270 -0.8679 -1.0153 -1.5804
   70MPD2    N1 1078   0.798   1.398  13.139  0.0853  0.2724  0.3360
   70MPD2    H7 1079   0.718   1.461  13.142  0.8957  1.3759 -1.1514
   71TMC2    C1 1080   2.825   2.086   1.758 -0.8535 -1.0064  0.5047
   71TMC2    C2 1081   2.933   2.032   1.808  0.6526 -0.1123 -0.4381
   71TMC2    C3 1082   2.925   1.995   1.943  0.1917  1.0855 -0.9234
   71TMC2    C4 1083   2.712   2.112   1.837 -0.4577 -0.2150 -0.2951
   71TMC2    C5 1084   2.713   2.086   1.971  0.0975 -0.1740 -0.1687
   71TMC2    C6 1085   2.825   2.032   2.033  0.2491  0.2502 -0.2203
   71TMC2     C 1086   2.818   2.101   1.615 -0.4765  0.2317 -0.1106
   71TMC2     O 1087   2.734   2.175   1.577  0.1699  0.1509 -0.2893
   71TMC2     H 1088   3.025   2.004   1.758  1.2385 -0.0033  0.5567
   71TMC2    H1 1089   2.635   2.172   1.789 -0.8054  0.7111  1.4277
   71TMC2    H2 1090   2.840   2.029   2.140 -0.5811 -0.2629 -0.1175
   71TMC2    C7 1091   2.606   2.141   2.052  0.2064 -0.6386 -0.2705
   71TMC2    C8 1092   3.047   1.949   2.003  0.3758 -0.2457 -0.0176
   71TMC2    O1 1093   2.636   2.198   2.158  0.1323 -0.0361  0.3535
   71TMC2    O2 1094   3.127   1.886   1.936  0.3925  0.1658 -0.0925
   71TMC2    O5 1095   3.081   2.044   2.089 -0.3169  0.1997 -0.3679
   71TMC2    H5 1096   3.022   2.121   2.103  0.2390  0.3763  1.0115
   72MPD2     C 1097   3.058   2.112   1.169  0.1566 -0.1071  0.0897
   72MPD2    C1 1098   2.957   2.195   1.213 -0.3515  0.2823  0.2812
   72MPD2    C2 1099   2.907   2.174   1.343  0.1658  0.3036  0.0936
   72MPD2    C3 1100   2.964   2.072   1.416  0.0524 -0.2017 -0.5482
   72MPD2    C4 1101   3.062   1.989   1.361  0.5872  0.0366  0.8121
   72MPD2    C5 1102   3.108   2.005   1.236  0.0167  0.3458  0.2465
   72MPD2     H 1103   2.843   2.248   1.390 -0.4215 -0.6554  0.8285
   72MPD2    H1 1104   3.102   1.912   1.426  1.7855  1.2406  1.5091
   72MPD2    H2 1105   3.088   2.110   1.065 -0.5664  0.7394 -0.1325
   72MPD2    H3 1106   3.167   1.922   1.198  0.1469 -0.6786  2.6200
   72MPD2     N 1107   2.924   2.045   1.547  0.0314 -0.2340  0.1806
   72MPD2    H5 1108   2.979   1.972   1.592  0.3199 -0.3715 -0.4005
   72MPD2    N1 1109   2.905   2.303   1.126  0.0801 -0.3511  0.4267
   72MPD2    H7 1110   2.839   2.374   1.156 -0.1304 -0.7551  0.9301
   73TMC2    C1 1111   2.780   3.632  13.887  0.3333 -0.5493  0.1462
   73TMC2    C2 1112   2.714   3.673  13.992 -0.6199  0.6190 -0.9087
   73TMC2    C3 1113   2.767   3.650  14.112 -0.1333  0.4343  0.1756
   73TMC2    C4 1114   2.906   3.587  13.896 -0.1984  0.2236 -0.3467
   73TMC2    C5 1115   2.970   3.573  14.012  0.2255 -0.0103 -0.0698
   73TMC2    C6 1116   2.898   3.607  14.122 -0.3516  0.1080  0.3251
   73TMC2     C 1117   2.762   3.720  13.776 -0.0639  0.4651  0.1280
   73TMC2     O 1118   2.876   3.757  13.740 -0.3424  0.0591  0.3498
   73TMC2     H 1119   2.625   3.734  13.987 -0.9783  0.4921  3.8101
   73TMC2    H1 1120   2.956   3.558  13.804 -1.5821 -0.8781 -0.7509
   73TMC2    H2 1121   2.945   3.602  14.220  0.3282  0.8258  0.0367
   73TMC2    C7 1122   3.098   3.633  14.017 -0.5566  0.8836  0.3623
   73TMC2    C8 1123   2.716   3.724  14.226  0.6963  0.2366  0.3248
   73TMC2    O1 1124   3.168   3.612  14.119 -0.4870  0.1941  0.4431
   73TMC2    O2 1125   2.784   3.759  14.318  0.3980  0.3493  0.1625
   73TMC2    O5 1126   2.582   3.726  14.219 -0.1159  0.8095 -0.2051
   73TMC2    H5 1127   2.533   3.676  14.150 -1.1517 -0.3709  1.3952
   74MPD2     C 1128   2.582   3.972  13.378  0.0173  0.3126  0.2363
   74MPD2    C1 1129   2.698   3.988  13.451 -0.5239 -0.2988 -0.8276
   74MPD2    C2 1130   2.716   3.910  13.563  0.4314 -0.5497 -0.0143
   74MPD2    C3 1131   2.621   3.815  13.603 -0.1892 -0.2088  0.0637
   74MPD2    C4 1132   2.512   3.802  13.520  0.1966  0.3830  0.3575
   74MPD2    C5 1133   2.492   3.872  13.403 -0.5528 -0.5415 -0.6000
   74MPD2     H 1134   2.792   3.933  13.637  1.4859  2.6508 -2.1037
   74MPD2    H1 1135   2.443   3.726  13.555  0.8214 -0.0443  0.6630
   74MPD2    H2 1136   2.566   4.043  13.298  1.5384 -0.4020 -0.7043
   74MPD2    H3 1137   2.405   3.848  13.342 -1.4665 -2.0491  1.3255
   74MPD2     N 1138   2.641   3.726  13.713 -0.0427  0.0731  0.5646
   74MPD2    H5 1139   2.570   3.658  13.737  0.8762 -0.2503  2.3346
   74MPD2    N1 1140   2.784   4.096  13.412 -0.1676  0.7749 -0.1682
   74MPD2    H7 1141   2.747   4.158  13.340 -1.0688  0.3636 -0.0587
   75TCq2    C1 1142   3.218   0.488  14.096 -0.2052  0.7041 -0.2572
   75TCq2    O2 1143   3.306   0.433  14.164  0.5976 -0.2064  0.3955
   75TCq2    C2 1144   3.156   0.405  13.995 -0.4432 -0.0000 -0.2463
   75TCq2    C3 1145   3.230   0.286  13.959 -0.2633  0.3883  0.1410
   75TCq2    C4 1146   3.181   0.202  13.865 -0.2008  0.3211  0.0142
   75TCq2    C5 1147   3.065   0.244  13.803 -0.4011  0.5353  0.1093
   75TCq2    C6 1148   2.989   0.353  13.849  0.2677 -0.5025  0.7868
   75TCq2    C7 1149   3.040   0.435  13.943 -0.6283 -0.1005  0.1465
   75TCq2    C8 1150   2.853   0.352  13.799 -0.1173 -0.8415  0.5661
   75TCq2    O4 1151   2.811   0.246  13.752  0.3021  0.1988  0.4322
   75TCq2    C9 1152   3.250   0.084  13.828 -0.1769  0.7709 -0.6122
   75TCq2    O5 1153   3.327   0.033  13.913 -0.0550 -0.1307  0.1562
   75TCq2    O6 1154   3.196   0.014  13.741  0.1003  0.2669 -0.3575
   75TCq2    H2 1155   3.328   0.261  13.998 -0.2163  0.5264  0.1128
   75TCq2    H3 1156   3.018   0.177  13.731  0.6080  1.7795 -1.7310
   75TCq2    H4 1157   2.983   0.510  13.996 -0.4857 -0.3915  0.7109
   76MPD2     C 1158   2.095   1.092  12.613 -0.5360  0.3302  0.0691
   76MPD2    C1 1159   2.026   1.041  12.511  0.1350  0.9912  0.4222
   76MPD2    C2 1160   2.032   0.908  12.478 -0.0109  0.6073  0.8222
   76MPD2    C3 1161   2.112   0.826  12.555  0.7002 -0.0221 -0.5489
   76MPD2    C4 1162   2.195   0.883  12.644  0.1640 -0.8053 -0.4691
   76MPD2    C5 1163   2.187   1.011  12.683 -0.7767 -0.3875 -0.3082
   76MPD2     H 1164   1.971   0.869  12.397 -0.8006  2.3643  0.5690
   76MPD2    H1 1165   2.264   0.818  12.697  1.7230  0.2265 -1.2388
   76MPD2    H2 1166   2.095   1.198  12.636 -2.1001  0.4361 -0.4634
   76MPD2    H3 1167   2.243   1.052  12.766 -2.6057  1.6088 -0.0401
   76MPD2     N 1168   2.114   0.685  12.533  0.0647 -0.1333 -0.3083
   76MPD2    H5 1169   2.169   0.639  12.605 -0.1646 -0.0542 -0.0848
   76MPD2    N1 1170   1.942   1.123  12.433 -0.4557 -0.2936 -0.4792
   76MPD2    H7 1171   1.910   1.078  12.348  1.2871 -2.0388 -0.2213
   77TCq2    C1 1172   2.050   0.617  12.436  0.0893 -0.0092  0.3107
   77TCq2    O2 1173   1.991   0.658  12.336 -0.0052  0.2197 -0.2165
   77TCq2    C2 1174   2.077   0.476  12.449  0.0710  0.4562 -0.3196
   77TCq2    C3 1175   1.987   0.391  12.399  0.2400  0.0692 -0.5835
   77TCq2    C4 1176   2.018   0.261  12.380  0.1587 -0.1145  0.4886
   77TCq2    C5 1177   2.148   0.225  12.385  0.1376 -0.1269  0.5257
   77TCq2    C6 1178   2.240   0.313  12.433  0.3806 -0.4393  0.5791
   77TCq2    C7 1179   2.207   0.442  12.468 -0.0135  0.3212  0.4664
   77TCq2    C8 1180   2.368   0.257  12.482 -0.3705  0.3500 -0.0326
   77TCq2    O4 1181   2.396   0.141  12.443  0.1921 -0.4578  0.3541
   77TCq2    C9 1182   1.914   0.171  12.330 -0.0968 -0.1446 -0.3834
   77TCq2    O5 1183   1.946   0.055  12.293 -0.0929 -0.4885  0.2249
   77TCq2    O6 1184   1.792   0.202  12.353 -0.3973 -0.5646 -0.1053
   77TCq2    H2 1185   1.883   0.421  12.392  0.0710 -0.2344  0.5433
   77TCq2    H3 1186   2.173   0.121  12.367 -0.7593  0.4426 -3.9516
   77TCq2    H4 1187   2.282   0.519  12.482  1.3905 -0.5920 -1.9168
   78MPD1     C 1188   4.708   2.344   0.301 -0.0524 -0.2638 -0.4074
   78MPD1    C1 1189   4.612   2.435   0.351  0.5603 -0.2700  0.1012
   78MPD1    C2 1190   4.609   2.460   0.487 -0.1206 -0.0058  0.2730
   78MPD1    C3 1191   4.716   2.412   0.570 -0.0200 -0.1001  0.0837
   78MPD1    C4 1192   0.081   2.320   0.518 -0.1386  0.3239 -0.5310
   78MPD1    C5 1193   0.077   2.290   0.391 -0.1980  0.2220 -0.0851
   78MPD1     H 1194   4.539   2.533   0.524 -2.1743 -0.9669 -1.7416
   78MPD1    H1 1195   0.163   2.282   0.578  0.0051 -0.7916 -1.4253
   78MPD1    H2 1196   4.701   2.315   0.197 -1.9929 -0.4388 -0.2433
   78MPD1    H3 1197   0.147   2.219   0.350 -0.2951 -0.1545  0.3952
   78MPD1     N 1198   0.001   2.455   0.703 -0.1990  0.2112  0.3715
   78MPD1    H5 1199   0.073   2.410   0.758 -0.7951 -1.1016  0.0729
   78MPD1    N1 1200   4.507   2.475   0.259 -0.6105  0.2629  0.4008
   78MPD1    H6 1201   4.453   2.554   0.294 -0.7225  0.3135  0.1163
   78MPD1    H7 1202   4.544   2.478   0.164  0.8765  1.1338  1.0014
   79TCq2    C1 1203   4.647   2.547   0.765  0.3627 -0.5456  0.4665
   79TCq2    O2 1204   4.563   2.621   0.710  0.3728 -0.2716  0.4271
   79TCq2    C2 1205   4.667   2.569   0.908  0.1091 -0.1168  0.4514
   79TCq2    C3 1206   4.568   2.628   0.981 -0.0192 -0.6097  0.1342
   79TCq2    C4 1207   4.572   2.633   1.115  0.2854  0.2950 -0.0132
   79TCq2    C5 1208   4.683   2.580   1.177 -0.2294  1.0130  0.2606
   79TCq2    C6 1209   0.046   2.508   1.107 -0.4073  0.1680 -0.9224
   79TCq2    C7 1210   0.045   2.504   0.969 -0.0174  0.3466  0.0003
   79TCq2    C8 1211   0.152   2.430   1.179 -1.0692 -0.4557 -0.1490
   79TCq2    O4 1212   0.198   2.480   1.281 -0.2467  0.8732  0.2980
   79TCq2    C9 1213   4.471   2.695   1.196  0.2959 -0.7098 -0.4685
   79TCq2    O5 1214   4.365   2.735   1.134  0.4073  0.7844 -0.1439
   79TCq2    O6 1215   4.481   2.690   1.321  0.0634 -0.2846 -0.0247
   79TCq2    H2 1216   4.492   2.682   0.926 -0.5384 -1.7122 -0.2461
   79TCq2    H3 1217   4.681   2.588   1.285  1.4612  0.7258  0.3205
   79TCq2    H4 1218   0.120   2.446   0.918  1.6238  1.9052  0.6151
   80MPD2     C 1219   1.301   0.773  12.418  0.3672  0.1413 -0.3643
   80MPD2    C1 1220   1.179   0.783  12.368 -0.2026 -0.0683  1.3653
   80MPD2    C2 1221   1.076   0.808  12.456 -0.3898  0.6786  0.0298
   80MPD2    C3 1222   1.101   0.823  12.594 -0.9178  0.0968  0.5527
   80MPD2    C4 1223   1.230   0.808  12.645 -0.7603 -0.4356  1.0202
   80MPD2    C5 1224   1.329   0.781  12.555 -0.4596  0.7544 -0.4481
   80MPD2     H 1225   0.973   0.810  12.420 -0.8671 -0.0285  1.3544
   80MPD2    H1 1226   1.248   0.828  12.750  0.1412  2.2956  0.3418
   80MPD2    H2 1227   1.388   0.755  12.356 -0.9557 -0.4755 -2.0503
   80MPD2    H3 1228   1.426   0.770  12.600 -0.4687 -0.3941 -0.7060
   80MPD2     N 1229   0.995   0.845  12.682 -0.1796  0.4074  0.1455
   80MPD2    H5 1230   1.015   0.864  12.780  2.0292 -2.0064  0.1625
   80MPD2    N1 1231   1.151   0.751  12.231 -0.0222  0.1609  0.2033
   80MPD2    H7 1232   1.052   0.742  12.209  0.1649 -1.6995  0.1418
   81TCq2    C1 1233   1.235   0.745  12.126 -0.1473 -0.3557 -0.7565
   81TCq2    O2 1234   1.356   0.763  12.131 -0.2576 -0.4174 -0.1264
   81TCq2    C2 1235   1.180   0.717  11.996  0.1359  0.0996  0.3126
   81TCq2    C3 1236   1.252   0.758  11.880 -0.6526  0.4286 -0.6147
   81TCq2    C4 1237   1.188   0.742  11.760  0.0504  0.3864 -0.2872
   81TCq2    C5 1238   1.077   0.671  11.740  0.0566 -0.0182 -0.7576
   81TCq2    C6 1239   1.015   0.625  11.856  0.1099  0.6292 -0.0385
   81TCq2    C7 1240   1.070   0.640  11.983 -0.5413 -0.0727  0.5666
   81TCq2    C8 1241   0.892   0.554  11.832 -0.1171  0.4392 -0.1317
   81TCq2    O4 1242   0.834   0.566  11.725 -0.0504 -0.1665 -0.5227
   81TCq2    C9 1243   1.267   0.786  11.650 -0.6394 -0.6902 -0.5873
   81TCq2    O5 1244   1.215   0.772  11.535  0.0236  0.1067 -0.5871
   81TCq2    O6 1245   1.371   0.855  11.665 -0.4385 -0.2172 -0.0399
   81TCq2    H2 1246   1.339   0.819  11.901 -0.1055 -0.0746 -1.4395
   81TCq2    H3 1247   1.031   0.667  11.642  1.2287 -2.4584 -1.2138
   81TCq2    H4 1248   1.034   0.581  12.067 -1.2477  1.7847  1.5504
   82MPD2     C 1249   3.584   0.456  10.911  0.1461 -0.2758  0.3071
   82MPD2    C1 1250   3.630   0.346  10.845  0.5834  0.0539 -0.1021
   82MPD2    C2 1251   3.741   0.266  10.895 -0.7930  0.1536  0.0854
   82MPD2    C3 1252   3.793   0.298  11.014 -0.7762  0.0004  0.3209
   82MPD2    C4 1253   3.739   0.401  11.090 -0.3255 -0.2521 -0.3958
   82MPD2    C5 1254   3.652   0.488  11.028 -0.1449 -0.3694 -0.2613
   82MPD2     H 1255   3.781   0.182  10.839  1.3252 -0.0037  1.8759
   82MPD2    H1 1256   3.765   0.419  11.194 -0.3231 -2.9687  0.0780
   82MPD2    H2 1257   3.493   0.509  10.889  0.9518  0.6593 -0.7624
   82MPD2    H3 1258   3.604   0.564  11.089  1.3017 -1.4447  2.2097
   82MPD2     N 1259   3.897   0.236  11.078 -0.1188 -0.3687 -0.2459
   82MPD2    H5 1260   3.921   0.266  11.172  0.7798  1.1555 -0.9785
   82MPD2    N1 1261   3.575   0.319  10.715  0.1760  0.5669 -0.8390
   82MPD2    H7 1262   3.499   0.377  10.683 -0.4818 -0.2231 -0.7049
   83TCq2    C1 1263   3.973   0.142  11.022 -0.5428 -0.0982  0.6159
   83TCq2    O2 1264   3.975   0.100  10.905  0.2918 -0.2192  0.3501
   83TCq2    C2 1265   4.089   0.103  11.094 -0.0403  0.1649  0.0214
   83TCq2    C3 1266   4.134   0.178  11.196 -0.0277  0.6295  0.4498
   83TCq2    C4 1267   4.238   0.130  11.271 -0.5732  0.6420  0.1048
   83TCq2    C5 1268   4.268   4.720  11.270 -0.2057  0.3382  0.7380
   83TCq2    C6 1269   4.205   4.642  11.176  0.4445 -0.1253 -1.0734
   83TCq2    C7 1270   4.119   4.695  11.083  0.5244 -0.1979 -0.4968
   83TCq2    C8 1271   4.194   4.508  11.222  0.3328  0.4419 -0.1525
   83TCq2    O4 1272   4.250   4.485  11.331  0.1494  0.5242  0.0570
   83TCq2    C9 1273   4.296   0.219  11.367 -0.4586  0.2675  0.9980
   83TCq2    O5 1274   4.373   0.173  11.454  0.6765  0.0437 -0.3960
   83TCq2    O6 1275   4.281   0.345  11.347 -0.0708 -0.3494 -0.1785
   83TCq2    H2 1276   4.103   0.282  11.194 -0.9344  0.3619  0.8579
   83TCq2    H3 1277   4.337   4.678  11.343  1.6128 -0.3367 -1.3540
   83TCq2    H4 1278   4.056   4.633  11.020 -1.0859  0.1092  0.7912
   84TCq2    C1 1279   0.736   3.825  10.735  0.0607  0.1657 -0.5637
   84TCq2    O2 1280   0.632   3.816  10.669 -0.7964 -0.2572  0.1434
   84TCq2    C2 1281   0.755   3.758  10.860 -0.1580 -0.4944 -0.2541
   84TCq2    C3 1282   0.873   3.768  10.918  0.1383  0.6752  0.1449
   84TCq2    C4 1283   0.889   3.771  11.052  0.0428 -1.2189  0.1120
   84TCq2    C5 1284   0.783   3.757  11.131 -0.2040  0.0815  0.3486
   84TCq2    C6 1285   0.663   3.730  11.075 -1.1986  0.3648 -0.4242
   84TCq2    C7 1286   0.645   3.726  10.938 -0.1970  0.1502 -0.4007
   84TCq2    C8 1287   0.543   3.756  11.152 -0.7307 -0.3920  0.3183
   84TCq2    O4 1288   0.555   3.823  11.258  0.3959 -0.0593 -0.1158
   84TCq2    C9 1289   1.019   3.796  11.094 -0.3252  0.4144 -0.1224
   84TCq2    O5 1290   1.109   3.817  11.008  0.1928 -0.4915  0.6990
   84TCq2    O6 1291   1.052   3.786  11.215 -0.1347  0.1307  0.5607
   84TCq2    H2 1292   0.959   3.777  10.852  0.6251 -1.3719  0.5252
   84TCq2    H3 1293   0.795   3.759  11.239 -0.1244  1.1952  0.3149
   84TCq2    H4 1294   0.542   3.729  10.904 -0.4298 -3.0675  0.0262
   85MPD2     C 1295   0.699   1.851  16.479 -0.4460 -0.0895  0.0831
   85MPD2    C1 1296   0.623   1.874  16.369 -0.1314  0.6123 -0.1553
   85MPD2    C2 1297   0.658   1.984  16.290 -0.1368 -0.9243 -1.2975
   85MPD2    C3 1298   0.757   2.071  16.328  0.6072  0.3055  0.5113
   85MPD2    C4 1299   0.827   2.048  16.443 -0.2346  0.6269 -0.1583
   85MPD2    C5 1300   0.797   1.934  16.517  0.6510 -0.3029  0.9077
   85MPD2     H 1301   0.602   2.014  16.203 -2.3202 -0.0860  0.4091
   85MPD2    H1 1302   0.895   2.121  16.486 -0.4405  0.5876  0.2339
   85MPD2    H2 1303   0.676   1.764  16.540  1.0903 -0.3586  0.2798
   85MPD2    H3 1304   0.850   1.934  16.612  4.2467 -3.4091 -1.0692
   85MPD2     N 1305   0.782   2.185  16.254 -0.5942  0.2185 -0.0762
   85MPD2    H5 1306   0.735   2.201  16.166 -1.0046  2.6139  0.5657
   85MPD2    N1 1307   0.525   1.788  16.321  0.0780 -0.2377  0.4724
   85MPD2    H7 1308   0.487   1.805  16.229  0.4012 -1.8316  0.0543
   86TCq2    C1 1309   0.862   2.294  16.291 -0.1179 -0.5306 -0.2077
   86TCq2    O2 1310   0.928   2.318  16.392  0.1230  0.3187  0.1865
   86TCq2    C2 1311   0.865   2.391  16.188 -1.0867 -0.3846  0.1131
   86TCq2    C3 1312   0.785   2.394  16.079 -0.4659  0.2650  0.4110
   86TCq2    C4 1313   0.815   2.470  15.974  0.5824  0.0263 -0.3687
   86TCq2    C5 1314   0.939   2.525  15.963 -0.0409 -0.4582 -0.2599
   86TCq2    C6 1315   1.024   2.515  16.069 -0.0077 -0.1099  0.4617
   86TCq2    C7 1316   0.990   2.448  16.184  0.6192 -0.6830  0.1659
   86TCq2    C8 1317   1.164   2.516  16.029 -0.0091  0.7670  0.0141
   86TCq2    O4 1318   1.236   2.433  16.088 -0.2496 -0.3974 -0.0628
   86TCq2    C9 1319   0.718   2.487  15.869  0.1961 -0.0633 -0.1809
   86TCq2    O5 1320   0.609   2.428  15.868  0.3382  0.8139 -0.2384
   86TCq2    O6 1321   0.728   2.599  15.808 -0.0024  0.5167 -0.3286
   86TCq2    H2 1322   0.698   2.330  16.072  0.6797 -1.6430  3.4514
   86TCq2    H3 1323   0.961   2.561  15.863 -0.7819  2.3463  0.6014
   86TCq2    H4 1324   1.068   2.422  16.256  1.1243 -1.2488 -0.5909
   87MPD2     C 1325   4.407   1.808   1.144 -0.4994  0.5092 -0.7668
   87MPD2    C1 1326   4.340   1.702   1.201  0.3053  0.1976 -0.0526
   87MPD2    C2 1327   4.204   1.703   1.219 -0.1057 -0.1421 -0.1858
   87MPD2    C3 1328   4.135   1.820   1.173 -0.0448 -1.0533 -0.0260
   87MPD2    C4 1329   4.203   1.927   1.120 -0.3860  0.5249  0.2181
   87MPD2    C5 1330   4.335   1.915   1.104 -0.3942 -0.1294  0.4945
   87MPD2     H 1331   4.157   1.624   1.277  0.8774 -0.4302  0.2161
   87MPD2    H1 1332   4.142   2.007   1.079  0.3951  1.3924  0.7460
   87MPD2    H2 1333   4.516   1.815   1.144 -0.3760 -1.3016  0.3160
   87MPD2    H3 1334   4.390   1.990   1.047 -0.7228 -0.1671  0.1278
   87MPD2     N 1335   3.991   1.839   1.183 -0.0087  0.1819  0.3745
   87MPD2    H5 1336   3.958   1.928   1.146 -2.0478 -0.0134  1.7267
   87MPD2    N1 1337   4.422   1.601   1.243 -0.0122  0.2400 -0.1090
   87MPD2    H7 1338   4.516   1.603   1.206 -1.1491  2.1227 -2.9904
   88TCq2    C1 1339   4.382   1.491   1.309 -0.6249 -0.3411 -0.0946
   88TCq2    O2 1340   4.288   1.471   1.389 -0.9394  0.4883  0.1852
   88TCq2    C2 1341   4.484   1.392   1.319 -0.0170 -0.3568 -0.0416
   88TCq2    C3 1342   4.521   1.333   1.436  0.3274 -0.4267 -0.4052
   88TCq2    C4 1343   4.627   1.243   1.427  0.1190  0.3571 -1.0682
   88TCq2    C5 1344   4.694   1.218   1.309  0.0138 -0.2913  0.5786
   88TCq2    C6 1345   4.650   1.274   1.194  0.1663 -0.5171 -0.4291
   88TCq2    C7 1346   4.550   1.365   1.203 -0.9283  0.8142 -0.0888
   88TCq2    C8 1347   4.704   1.231   1.063  0.5572 -0.0239 -0.5194
   88TCq2    O4 1348   4.637   1.261   0.964 -0.3207 -0.1026  0.5454
   88TCq2    C9 1349   4.671   1.177   1.545 -0.4869 -0.5539 -0.5797
   88TCq2    O5 1350   4.592   1.188   1.639 -1.0107 -0.1402 -0.4583
   88TCq2    O6 1351   0.050   1.108   1.538  0.4559  0.9261 -0.2411
   88TCq2    H2 1352   4.467   1.349   1.528  0.2330  1.7137 -0.8329
   88TCq2    H3 1353   0.042   1.138   1.310  1.0760  0.7114  2.5625
   88TCq2    H4 1354   4.526   1.418   1.111 -4.5187 -0.3225  0.2069
   89MPD2     C 1355   3.265   3.752   2.415 -0.4380 -0.1191  0.0440
   89MPD2    C1 1356   3.227   3.692   2.300  0.2634 -0.5223 -0.4814
   89MPD2    C2 1357   3.322   3.677   2.207  0.4203 -0.2984 -0.0927
   89MPD2    C3 1358   3.455   3.732   2.220 -0.4021  0.8875  0.5575
   89MPD2    C4 1359   3.487   3.802   2.337 -0.3041 -0.5130 -0.0586
   89MPD2    C5 1360   3.389   3.809   2.433  0.2838 -0.1963 -0.3610
   89MPD2     H 1361   3.304   3.627   2.113  0.9319  0.0748 -0.3905
   89MPD2    H1 1362   3.582   3.848   2.363  0.2269 -0.3434 -2.2914
   89MPD2    H2 1363   3.194   3.758   2.497  0.4112 -0.7654  0.8280
   89MPD2    H3 1364   3.406   3.856   2.530  0.3383 -0.4956 -0.2261
   89MPD2     N 1365   3.538   3.714   2.105 -0.0483  0.5083  0.0986
   89MPD2    H5 1366   3.503   3.661   2.026 -0.3682 -0.0834  0.6389
   89MPD2    N1 1367   3.101   3.634   2.280 -0.1068  0.3627  1.0171
   89MPD2    H7 1368   3.079   3.580   2.197 -0.2200  1.5698  0.2654
   90TCq2    C1 1369   3.668   3.772   2.100 -0.1757 -0.2076 -0.0385
   90TCq2    O2 1370   3.745   3.799   2.189 -0.4213  0.0950 -0.7037
   90TCq2    C2 1371   3.724   3.746   1.974 -0.4762  0.4579  0.1047
   90TCq2    C3 1372   3.855   3.702   1.973  0.0055 -0.0759 -0.0749
   90TCq2    C4 1373   3.901   3.651   1.855 -0.0915  0.1570 -0.0265
   90TCq2    C5 1374   3.816   3.643   1.749  0.2385 -0.0053 -0.0036
   90TCq2    C6 1375   3.686   3.686   1.764 -0.5291 -0.1626 -0.5330
   90TCq2    C7 1376   3.626   3.729   1.878  0.5542 -0.1499 -0.5187
   90TCq2    C8 1377   3.604   3.712   1.649  0.4354  0.3427 -1.2218
   90TCq2    O4 1378   3.486   3.708   1.662  0.2552  0.1436 -0.3495
   90TCq2    C9 1379   4.035   3.598   1.853 -0.4817  0.1383  0.5845
   90TCq2    O5 1380   4.095   3.585   1.744  0.4341 -0.2516 -0.0074
   90TCq2    O6 1381   4.088   3.568   1.961 -0.0591  0.1377 -0.5309
   90TCq2    H2 1382   3.914   3.711   2.064  0.7860 -1.2201 -0.4728
   90TCq2    H3 1383   3.858   3.602   1.658  0.6332  2.1119 -0.7594
   90TCq2    H4 1384   3.539   3.793   1.867  0.3690 -0.4045 -0.5262
   91TMC2    C1 1385   0.997   2.938  16.707  0.3530  0.6978  0.8541
   91TMC2    C2 1386   1.001   3.069  16.654  0.3956  0.4301  0.3987
   91TMC2    C3 1387   0.885   3.132  16.635  0.2477  0.6312 -0.0519
   91TMC2    C4 1388   0.880   2.869  16.721  0.5423  0.5024 -0.4167
   91TMC2    C5 1389   0.765   2.930  16.669  0.5219 -0.4333 -0.6099
   91TMC2    C6 1390   0.765   3.066  16.632  0.3774 -0.6401  0.0027
   91TMC2     C 1391   1.116   2.848  16.719  0.1617 -0.2559 -0.1673
   91TMC2     O 1392   1.098   2.742  16.777  0.0622  0.4970 -0.2932
   91TMC2     H 1393   1.097   3.115  16.637  0.7684 -0.4038  0.2752
   91TMC2    H1 1394   0.868   2.790  16.795  0.4604  1.6511  0.7912
   91TMC2    H2 1395   0.673   3.117  16.603 -0.2737 -1.6553  0.3023
   91TMC2    C7 1396   0.636   2.857  16.672 -0.1076  0.4123 -0.9043
   91TMC2    C8 1397   0.887   3.264  16.576 -0.2165 -0.1835 -0.4741
   91TMC2    O1 1398   0.619   2.774  16.762  0.3589  0.3747 -0.2223
   91TMC2    O2 1399   0.825   3.283  16.473 -0.0377 -0.3571 -0.4864
   91TMC2    O5 1400   0.999   3.321  16.618 -0.0980 -0.1837  0.2381
   91TMC2    H5 1401   1.028   3.289  16.706  2.2802 -1.8872 -1.1679
   92MPD2     C 1402   1.340   2.692  16.637 -0.2548  0.3079 -0.2227
   92MPD2    C1 1403   1.342   2.829  16.643 -0.0609  0.0503 -0.2755
   92MPD2    C2 1404   1.466   2.889  16.637 -0.2585  0.1389 -0.4778
   92MPD2    C3 1405   1.583   2.815  16.613 -0.0388 -0.1607  0.5257
   92MPD2    C4 1406   1.573   2.675  16.610 -0.1355  0.7420  0.6424
   92MPD2    C5 1407   1.450   2.616  16.618 -0.3941 -1.0894  0.2120
   92MPD2     H 1408   1.460   2.996  16.621 -2.0634 -0.1810 -1.9111
   92MPD2    H1 1409   1.658   2.609  16.594 -2.0804 -1.3939 -0.9040
   92MPD2    H2 1410   1.251   2.630  16.638 -0.6540  0.9263  1.3857
   92MPD2    H3 1411   1.437   2.512  16.590  0.5347 -1.2505  0.3638
   92MPD2     N 1412   1.706   2.885  16.605  0.3562  0.8106 -0.3290
   92MPD2    H5 1413   1.704   2.985  16.621  0.8981  0.7283  0.2345
   92MPD2    N1 1414   1.233   2.901  16.672  0.4211 -0.5886  0.5704
   92MPD2    H7 1415   1.229   3.001  16.653  0.0363 -0.8338 -0.6302
   93MPD2     C 1416   2.236   3.559  13.755 -0.4148 -0.4512 -0.0570
   93MPD2    C1 1417   2.224   3.429  13.780  0.0803  0.5456 -0.5182
   93MPD2    C2 1418   2.099   3.374  13.782  0.3106 -0.3735  0.6657
   93MPD2    C3 1419   1.992   3.457  13.755 -0.1502 -0.4978 -0.0556
   93MPD2    C4 1420   2.002   3.590  13.728  0.5196  0.2413 -0.1712
   93MPD2    C5 1421   2.129   3.638  13.726 -0.6037  0.0184  0.5307
   93MPD2     H 1422   2.087   3.271  13.813  0.7645 -0.7338 -0.3344
   93MPD2    H1 1423   1.908   3.643  13.714  0.4406 -0.4579 -2.2920
   93MPD2    H2 1424   2.329   3.616  13.756 -1.5751  1.4510  0.2199
   93MPD2    H3 1425   2.150   3.744  13.717  2.1304 -0.6435 -0.9171
   93MPD2     N 1426   1.858   3.408  13.742 -0.3744 -0.2785 -0.0110
   93MPD2    H5 1427   1.783   3.472  13.719 -0.7934 -0.6239  0.3984
   93MPD2    N1 1428   2.325   3.363  13.847  0.2613 -0.1922 -0.3914
   93MPD2    H7 1429   2.296   3.279  13.896  1.4015  1.0201  2.3577
   94TCq2    C1 1430   2.452   3.392  13.853 -0.7696  0.4931  0.0297
   94TCq2    O2 1431   2.517   3.472  13.786 -0.2752 -0.0572  0.3710
   94TCq2    C2 1432   2.521   3.299  13.942  0.6854 -0.2907 -0.2991
   94TCq2    C3 1433   2.466   3.262  14.059  0.3321 -0.5297  0.3846
   94TCq2    C4 1434   2.558   3.237  14.158 -0.3799 -0.7447  0.0646
   94TCq2    C5 1435   2.694   3.223  14.131  0.0184  0.2501  0.6899
   94TCq2    C6 1436   2.735   3.223  14.004 -0.8788  0.2294  0.1783
   94TCq2    C7 1437   2.655   3.273  13.910  0.1384 -0.1305  0.2834
   94TCq2    C8 1438   2.879   3.232  13.984  0.3444  0.2147 -0.1925
   94TCq2    O4 1439   2.946   3.211  14.083  0.1572  0.4513 -0.5305
   94TCq2    C9 1440   2.505   3.223  14.296 -0.6205  0.6475 -0.0929
   94TCq2    O5 1441   2.390   3.272  14.319 -0.1879 -0.0556  0.7852
   94TCq2    O6 1442   2.590   3.207  14.388  0.5876 -0.6652 -0.3864
   94TCq2    H2 1443   2.365   3.280  14.092  0.1386 -1.3386  0.2480
   94TCq2    H3 1444   2.756   3.179  14.209 -0.5469  0.4608  1.2653
   94TCq2    H4 1445   2.684   3.296  13.808 -0.1924 -1.2230 -0.0567
   95TMC2    C1 1446   2.534   4.652  16.061  0.0694  0.9310 -0.3085
   95TMC2    C2 1447   2.579   4.526  16.028 -1.2044  0.3363 -0.5493
   95TMC2    C3 1448   2.482   4.438  15.996 -0.6646 -0.4189 -0.0032
   95TMC2    C4 1449   2.403   4.691  16.073  0.6480 -0.6602  0.7472
   95TMC2    C5 1450   2.314   4.592  16.045 -0.0309 -0.7407  0.0946
   95TMC2    C6 1451   2.349   4.463  15.997 -0.4818 -0.3571 -0.6099
   95TMC2     C 1452   2.639   0.013  16.022 -0.2152 -0.5178  0.1063
   95TMC2     O 1453   2.734   4.703  15.956 -0.0701 -0.0641 -0.4570
   95TMC2     H 1454   2.677   4.492  16.058 -0.8137  0.4949 -1.6503
   95TMC2    H1 1455   2.369   0.057  16.121  0.0824  1.1999 -3.1791
   95TMC2    H2 1456   2.278   4.384  15.975 -0.7783 -0.1902 -0.2492
   95TMC2    C7 1457   2.179   4.635  16.050 -0.1457  0.5465 -0.2677
   95TMC2    C8 1458   2.511   4.303  15.978  0.4656  0.2170  0.0826
   95TMC2    O1 1459   2.150   0.028  16.037 -0.1113 -0.3829 -0.2230
   95TMC2    O2 1460   2.445   4.218  16.032  0.3051  0.0149  0.3821
   95TMC2    O5 1461   2.619   4.291  15.894 -0.3782 -0.1646  0.1272
   95TMC2    H5 1462   2.641   4.372  15.844 -1.1325  0.9464  1.5971
   96MPD2     C 1463   2.815   0.482  15.921  0.2502  0.5478  0.3042
   96MPD2    C1 1464   2.833   0.365  15.851 -0.3864 -0.2586  0.3216
   96MPD2    C2 1465   2.761   0.252  15.889 -0.1567 -0.3181  0.0459
   96MPD2    C3 1466   2.686   0.255  16.007 -0.4171  0.4253 -0.0858
   96MPD2    C4 1467   2.675   0.376  16.076  0.0360  0.2010 -0.5052
   96MPD2    C5 1468   2.748   0.484  16.043  0.1392 -0.5743  0.1940
   96MPD2     H 1469   2.775   0.161  15.832 -1.1768  0.1537 -0.9476
   96MPD2    H1 1470   2.619   0.365  16.168  1.0657  0.3489  0.1446
   96MPD2    H2 1471   2.854   0.579  15.890 -1.1995  1.4125  1.1671
   96MPD2    H3 1472   2.745   0.570  16.109 -1.5979  0.6446 -1.4775
   96MPD2     N 1473   2.621   0.137  16.063 -0.2335 -0.1055 -0.4669
   96MPD2    H5 1474   2.546   0.152  16.131  0.4176 -1.2734  0.5137
   96MPD2    N1 1475   2.923   0.375  15.737  0.5380  0.1931  0.3437
   96MPD2    H7 1476   2.979   0.459  15.739 -1.1621  1.4055 -2.8253
   97MPD2     C 1477   1.045   3.083   1.137 -0.1336  0.0825  0.0400
   97MPD2    C1 1478   0.958   3.013   1.208 -0.3907 -0.8127 -0.4630
   97MPD2    C2 1479   0.975   2.874   1.221 -0.1057  0.5503 -0.6851
   97MPD2    C3 1480   1.080   2.813   1.164  0.1502  1.0930 -0.4772
   97MPD2    C4 1481   1.174   2.885   1.092  0.5664 -0.6951  0.4093
   97MPD2    C5 1482   1.149   3.023   1.075 -0.0452  0.3252 -0.5982
   97MPD2     H 1483   0.912   2.820   1.290 -1.8246  0.7482 -2.0840
   97MPD2    H1 1484   1.256   2.834   1.042  0.5913 -0.3983  0.1422
   97MPD2    H2 1485   1.033   3.191   1.127 -1.5479 -0.0008  0.9109
   97MPD2    H3 1486   1.221   3.084   1.021  1.6016 -1.2433 -0.2164
   97MPD2     N 1487   1.094   2.671   1.161 -0.7920  0.3715 -0.1731
   97MPD2    H5 1488   1.178   2.630   1.122 -1.5074 -1.7822  0.5889
   97MPD2    N1 1489   0.844   3.082   1.260 -0.1353 -0.4106 -0.4490
   97MPD2    H7 1490   0.841   3.183   1.258 -1.9334 -0.4438  1.1635
   98TCq2    C1 1491   1.003   2.580   1.205  0.0086 -0.1448 -0.0799
   98TCq2    O2 1492   0.887   2.592   1.252  0.3892  0.6648  0.3575
   98TCq2    C2 1493   1.039   2.448   1.160  0.3598 -0.0747  0.3694
   98TCq2    C3 1494   0.990   2.349   1.228  0.1710 -0.2137  1.1888
   98TCq2    C4 1495   1.017   2.219   1.178 -0.1362 -0.0080  0.2263
   98TCq2    C5 1496   1.099   2.193   1.073 -0.5171 -0.1575  0.1099
   98TCq2    C6 1497   1.147   2.303   1.000  0.7474  0.2313 -0.3362
   98TCq2    C7 1498   1.110   2.430   1.039  0.0280 -0.3170  0.1830
   98TCq2    C8 1499   1.208   2.290   0.868 -0.3688 -0.4442  0.4423
   98TCq2    O4 1500   1.208   2.384   0.787  0.2032 -0.1594 -0.3991
   98TCq2    C9 1501   0.951   2.102   1.238  0.2766  0.3649  0.2577
   98TCq2    O5 1502   0.901   2.116   1.352  0.1907  0.3818 -0.4403
   98TCq2    O6 1503   0.941   1.998   1.165 -0.4211  0.3042 -0.1788
   98TCq2    H2 1504   0.932   2.376   1.315 -0.5838  2.7554 -0.2319
   98TCq2    H3 1505   1.109   2.087   1.054 -0.8380 -0.1364 -0.1772
   98TCq2    H4 1506   1.157   2.510   0.981 -1.7792 -0.6690 -1.7694
   99MPD2     C 1507   4.030   4.006   1.657 -0.3739  0.2221  0.0361
   99MPD2    C1 1508   3.911   4.057   1.704  0.5268 -0.3815 -0.8094
   99MPD2    C2 1509   3.819   4.090   1.613  0.9459 -0.2624  0.2706
   99MPD2    C3 1510   3.839   4.091   1.482 -0.2475  0.0880  0.7606
   99MPD2    C4 1511   3.961   4.054   1.431  0.3955 -0.0623 -0.2022
   99MPD2    C5 1512   4.055   4.004   1.520  0.3204  0.1823 -0.1112
   99MPD2     H 1513   3.728   4.139   1.645  0.2377 -0.5063 -1.4125
   99MPD2    H1 1514   3.979   4.053   1.324 -0.3845  0.6457 -0.3451
   99MPD2    H2 1515   4.117   3.978   1.714  0.4419 -0.1726 -1.4012
   99MPD2    H3 1516   4.145   3.961   1.477 -0.1095 -0.5049 -0.3198
   99MPD2     N 1517   3.730   4.137   1.412 -0.2819 -0.5837  1.0911
   99MPD2    H5 1518   3.650   4.164   1.470  0.4950 -0.3359  2.0479
   99MPD2    N1 1519   3.876   4.084   1.835 -0.7524  0.2854  0.8025
   99MPD2    H7 1520   3.782   4.124   1.839 -1.0509 -0.3273 -0.1575
  100TCq2    C1 1521   3.956   4.067   1.938  0.4005  0.0976  0.1199
  100TCq2    O2 1522   4.063   4.008   1.949 -0.1256  0.8520  0.2791
  100TCq2    C2 1523   3.889   4.111   2.059  0.4323  0.4640  0.1183
  100TCq2    C3 1524   3.946   4.074   2.184 -0.3839 -0.1663 -0.1582
  100TCq2    C4 1525   3.890   4.137   2.295  0.0803 -0.3200  0.4293
  100TCq2    C5 1526   3.791   4.228   2.281 -0.0778 -0.1690  0.5615
  100TCq2    C6 1527   3.728   4.248   2.161 -0.1508  0.1242 -0.0203
  100TCq2    C7 1528   3.786   4.202   2.048 -0.8396  0.0284 -0.8167
  100TCq2    C8 1529   3.608   4.339   2.155  0.0512 -0.5505  0.2643
  100TCq2    O4 1530   3.596   4.432   2.232  0.2641 -1.0602  0.3339
  100TCq2    C9 1531   3.956   4.115   2.421 -0.1549  0.4350  0.0189
  100TCq2    O5 1532   3.904   4.174   2.521 -1.2164  0.2066  0.3582
  100TCq2    O6 1533   4.067   4.062   2.409 -0.2920  0.0526 -0.0284
  100TCq2    H2 1534   4.026   4.002   2.194 -0.1367  0.4432  2.1133
  100TCq2    H3 1535   3.750   4.281   2.367 -0.9261  1.0583 -0.5834
  100TCq2    H4 1536   3.760   4.250   1.954 -0.1136 -1.1375 -1.6220
  101MPD2     C 1537   3.371   1.343  12.942 -0.5114  0.6116  0.4841
  101MPD2    C1 1538   3.507   1.345  12.967  0.0913 -0.3177 -0.0884
  101MPD2    C2 1539   3.560   1.237  13.033  0.5897 -0.2676 -0.4791
  101MPD2    C3 1540   3.489   1.125  13.055  0.0085 -0.0143 -0.9257
  101MPD2    C4 1541   3.360   1.122  13.019  0.9469  0.1392  0.1119
  101MPD2    C5 1542   3.297   1.234  12.968 -0.2463 -0.5503  0.1072
  101MPD2     H 1543   3.668   1.223  13.042  0.6423 -0.6591 -1.7455
  101MPD2    H1 1544   3.298   1.041  13.055 -2.7230  2.5957 -0.6934
  101MPD2    H2 1545   3.312   1.430  12.916 -0.0835  0.7138 -0.1505
  101MPD2    H3 1546   3.189   1.231  12.960 -0.3203  3.7900 -0.4082
  101MPD2     N 1547   3.558   1.010  13.117 -0.7612 -0.5471  0.4513
  101MPD2    H5 1548   3.659   1.018  13.114 -0.6972 -1.2015  1.0545
  101MPD2    N1 1549   3.584   1.461  12.940  0.1505 -0.2054  0.2580
  101MPD2    H7 1550   3.533   1.543  12.910 -0.9679 -1.4198 -1.1628
  102TCq2    C1 1551   4.081   1.605  12.720 -1.0752  0.3741  0.2585
  102TCq2    O2 1552   4.127   1.522  12.800  0.0944  0.1919 -0.2974
  102TCq2    C2 1553   3.972   1.681  12.768 -0.7183  0.6161 -0.4815
  102TCq2    C3 1554   3.886   1.745  12.677  0.4338 -0.5444 -0.1919
  102TCq2    C4 1555   3.750   1.748  12.704 -0.0321 -0.2457 -0.3281
  102TCq2    C5 1556   3.694   1.676  12.805  0.5193 -0.0225  0.4069
  102TCq2    C6 1557   3.776   1.599  12.884  0.0891  0.0443 -0.5607
  102TCq2    C7 1558   3.913   1.620  12.879 -0.6631 -0.7060 -0.1627
  102TCq2    C8 1559   3.723   1.469  12.929 -0.0088 -1.1499 -0.1199
  102TCq2    O4 1560   3.803   1.388  12.975 -0.0365 -0.4467  0.2067
  102TCq2    C9 1561   3.668   1.812  12.611  0.3144 -0.4524  0.3705
  102TCq2    O5 1562   3.728   1.863  12.510  0.2868  0.3629  0.2900
  102TCq2    O6 1563   3.545   1.779  12.622 -0.3995 -0.0953  0.1506
  102TCq2    H2 1564   3.918   1.810  12.596 -0.7589 -3.5957 -3.0874
  102TCq2    H3 1565   3.587   1.659  12.805  0.3915  0.7704  1.9040
  102TCq2    H4 1566   3.959   1.556  12.953 -2.1767 -0.0294  1.3583
  103TMC2    C1 1567   2.869   0.754  12.834  0.1225 -0.1195  0.0200
  103TMC2    C2 1568   2.980   0.797  12.766  0.2476 -0.1421 -0.1497
  103TMC2    C3 1569   3.038   0.910  12.825  0.5336  0.4246 -0.3460
  103TMC2    C4 1570   2.818   0.824  12.936  0.2753 -0.6933  0.3219
  103TMC2    C5 1571   2.870   0.945  12.982 -0.5264  0.0658 -0.2470
  103TMC2    C6 1572   2.991   0.982  12.930  0.5615 -0.4262 -0.0691
  103TMC2     C 1573   2.791   0.639  12.791 -0.6796 -0.5796 -0.3809
  103TMC2     O 1574   2.695   0.609  12.865 -0.2687 -0.0603  0.3631
  103TMC2     H 1575   3.006   0.765  12.666  2.5791 -1.1326  0.7565
  103TMC2    H1 1576   2.723   0.799  12.982 -0.7636  0.5725 -1.1450
  103TMC2    H2 1577   3.045   1.068  12.966  2.0974 -1.8992  1.1206
  103TMC2    C7 1578   2.814   1.017  13.090  0.6776 -0.1013  0.1232
  103TMC2    C8 1579   3.130   0.985  12.743 -0.3311  0.3207  0.8101
  103TMC2    O1 1580   2.752   0.958  13.176 -1.0019 -0.5227 -0.4949
  103TMC2    O2 1581   3.090   1.091  12.697  0.0834 -0.2647 -0.2493
  103TMC2    O5 1582   3.200   0.902  12.669  0.4831  0.1008  0.4916
  103TMC2    H5 1583   3.241   0.832  12.724 -0.8961 -1.7134 -0.7621
  104MPD2     C 1584   2.860   0.329  12.612 -1.0653 -0.6638 -0.0046
  104MPD2    C1 1585   2.782   0.438  12.663  0.4209  0.0771 -0.0852
  104MPD2    C2 1586   2.646   0.439  12.628  0.8868 -0.1162 -0.4045
  104MPD2    C3 1587   2.580   0.333  12.574 -0.2849 -0.0076  0.5212
  104MPD2    C4 1588   2.660   0.228  12.534 -0.0740  0.2838  0.2453
  104MPD2    C5 1589   2.793   0.223  12.557 -0.3773 -0.4310  0.3417
  104MPD2     H 1590   2.588   0.526  12.659  1.0078 -0.5087  0.9273
  104MPD2    H1 1591   2.629   0.146  12.470 -0.7425 -0.7358  1.8882
  104MPD2    H2 1592   2.967   0.323  12.624 -1.0443  2.7179  1.4541
  104MPD2    H3 1593   2.848   0.141  12.514  0.1849  1.0316 -1.7250
  104MPD2     N 1594   2.446   0.351  12.539 -0.6914 -0.2523 -0.1650
  104MPD2    H5 1595   2.408   0.438  12.575 -0.0926 -0.4611  0.9670
  104MPD2    N1 1596   2.852   0.548  12.715 -0.1421  0.0533  0.1968
  104MPD2    H7 1597   2.951   0.555  12.693 -0.1975 -0.0528 -0.0814
  105MPD2     C 1598   4.474   0.458  17.427  0.7814 -0.8127 -0.1294
  105MPD2    C1 1599   4.394   0.568  17.452  0.0293  0.2142  0.4273
  105MPD2    C2 1600   4.452   0.658  17.541 -0.8577 -0.5544  0.3427
  105MPD2    C3 1601   4.570   0.635  17.608 -0.1817  0.2112 -0.1000
  105MPD2    C4 1602   4.637   0.515  17.591 -0.7562 -0.5081 -0.0210
  105MPD2    C5 1603   4.587   0.425  17.506 -0.1348  0.2660 -0.5550
  105MPD2     H 1604   4.398   0.750  17.560  1.1397  1.0413 -1.6475
  105MPD2    H1 1605   0.005   0.491  17.638 -0.5416 -0.1683 -0.2754
  105MPD2    H2 1606   4.433   0.370  17.378  0.5656 -2.1567  2.4607
  105MPD2    H3 1607   4.632   0.327  17.505 -1.2115 -0.2222 -1.5528
  105MPD2     N 1608   4.614   0.743  17.697 -0.5996 -0.3504  0.6086
  105MPD2    H5 1609   4.550   0.819   0.015 -0.4893  0.0486 -0.4663
  105MPD2    N1 1610   4.261   0.592  17.402 -0.4184  0.5629  0.0151
  105MPD2    H7 1611   4.224   0.686  17.413  1.9811  1.2023  2.7926
  106TCq2    C1 1612   0.014   0.741   0.053  0.1226 -0.3904 -0.4927
  106TCq2    O2 1613   0.101   0.654   0.065 -0.7228 -0.1905 -0.1978
  106TCq2    C2 1614   0.009   0.841   0.165  0.4507  0.0337 -0.3431
  106TCq2    C3 1615   4.677   0.959   0.132 -0.3105 -0.0953  0.3017
  106TCq2    C4 1616   4.662   1.051   0.234  0.4955 -0.0696 -0.7771
  106TCq2    C5 1617   4.706   1.032   0.364 -0.0520  0.9513 -0.1380
  106TCq2    C6 1618   0.046   0.912   0.384  0.2895  0.5089  0.4788
  106TCq2    C7 1619   0.050   0.813   0.292  0.1765  0.4368  0.0045
  106TCq2    C8 1620   0.126   0.894   0.511 -0.1920 -0.2005 -0.2237
  106TCq2    O4 1621   0.200   0.798   0.513  0.2132 -0.3063  0.1504
  106TCq2    C9 1622   4.599   1.178   0.201 -0.4951  0.4319  0.4303
  106TCq2    O5 1623   4.570   1.254   0.299 -0.2663 -0.1196 -0.3461
  106TCq2    O6 1624   4.523   1.156   0.101 -0.0603  0.3200  0.0354
  106TCq2    H2 1625   4.649   0.981   0.029 -1.6501  0.2405  0.7374
  106TCq2    H3 1626   4.683   1.105   0.440 -0.5559  1.0497 -0.3855
  106TCq2    H4 1627   0.100   0.718   0.306  0.5442  0.1138 -3.4813
  107TMC2    C1 1628   0.034   4.354  11.602  0.3699 -0.9682  0.1879
  107TMC2    C2 1629   0.082   4.435  11.498 -0.0608  0.3769  0.0872
  107TMC2    C3 1630   0.101   4.363  11.379  0.1878  0.1756  0.0306
  107TMC2    C4 1631   0.014   4.216  11.585 -0.9359 -0.2229  0.1633
  107TMC2    C5 1632   0.045   4.153  11.470  0.0865  0.3260  0.6733
  107TMC2    C6 1633   0.082   4.228  11.364 -1.0567  0.1305 -0.2995
  107TMC2     C 1634   0.009   4.411  11.733 -0.4842 -0.2425  0.4067
  107TMC2     O 1635   4.721   4.328  11.824 -0.2524 -0.2120 -0.0479
  107TMC2     H 1636   0.103   4.541  11.505  2.8377 -0.2826  1.6659
  107TMC2    H1 1637   4.715   4.165  11.677 -1.2907 -2.2459 -1.0648
  107TMC2    H2 1638   0.070   4.188  11.263  0.1032  0.8092 -0.6971
  107TMC2    C7 1639   0.044   4.011  11.458  0.4033 -0.7496 -0.1226
  107TMC2    C8 1640   0.123   4.443  11.265  0.1657 -0.4891  0.9718
  107TMC2    O1 1641   0.005   3.950  11.555 -0.4756  0.1826 -0.2690
  107TMC2    O2 1642   0.200   4.411  11.170  0.2828  0.3486  0.0284
  107TMC2    O5 1643   0.032   4.544  11.271  0.1607 -0.1655 -0.3359
  107TMC2    H5 1644   4.677   4.524  11.322 -0.1051 -0.8251 -1.0249
  108MPD2     C 1645   4.611   0.024  11.833  0.0889 -0.1757 -0.9577
  108MPD2    C1 1646   4.666   4.623  11.852  0.2322 -0.4446 -0.5906
  108MPD2    C2 1647   4.677   4.576  11.983  0.3378 -0.1457  0.3650
  108MPD2    C3 1648   4.611   4.650  12.089 -0.1689 -0.8144 -0.0408
  108MPD2    C4 1649   4.551   0.047  12.060  0.2740 -0.0900 -0.6079
  108MPD2    C5 1650   4.558   0.099  11.933 -0.0959 -0.5462  0.8597
  108MPD2     H 1651   4.712   4.476  12.007  0.4144 -0.5481 -1.4144
  108MPD2    H1 1652   4.488   0.101  12.129  1.6015 -0.8927  1.2222
  108MPD2    H2 1653   4.617   0.056  11.729  4.1617  2.2710  0.0411
  108MPD2    H3 1654   4.518   0.195  11.903  0.9562 -1.0183 -2.0567
  108MPD2     N 1655   4.582   4.600  12.216  0.1499  0.5526 -0.1936
  108MPD2    H5 1656   4.509   4.643  12.271 -0.4717  0.5514 -1.0214
  108MPD2    N1 1657   4.705   4.549  11.729  0.4676  0.9685 -0.2145
  108MPD2    H7 1658   4.695   4.599  11.641 -2.0892  1.6542  0.4684
  109MPD2     C 1659   0.888   2.453   2.239  0.5962 -0.6713 -0.2641
  109MPD2    C1 1660   0.820   2.510   2.139 -0.2501 -0.8343 -1.0392
  109MPD2    C2 1661   0.741   2.621   2.169  0.1779  0.2223  0.0364
  109MPD2    C3 1662   0.723   2.663   2.296 -0.3545 -0.0536 -0.6900
  109MPD2    C4 1663   0.789   2.596   2.393  0.2620 -0.1645 -0.0981
  109MPD2    C5 1664   0.873   2.494   2.363 -0.3853 -0.8392  0.1031
  109MPD2     H 1665   0.706   2.682   2.086 -2.1491 -1.0226  0.1057
  109MPD2    H1 1666   0.778   2.617   2.499  2.2389  0.0159  0.0589
  109MPD2    H2 1667   0.950   2.366   2.223  0.6385 -0.8914  1.0794
  109MPD2    H3 1668   0.922   2.440   2.443  0.2481  0.7266  0.7771
  109MPD2     N 1669   0.649   2.777   2.311 -0.0555  0.4412 -0.6492
  109MPD2    H5 1670   0.607   2.817   2.227 -0.6582 -0.8474 -0.9485
  109MPD2    N1 1671   0.828   2.454   2.015 -0.0365  0.0525 -0.2959
  109MPD2    H7 1672   0.885   2.370   2.012  0.3803  0.3660 -1.1748
  110TCq2    C1 1673   0.627   2.840   2.430 -0.0561 -0.1673 -0.1289
  110TCq2    O2 1674   0.635   2.801   2.543 -0.0158  0.2335 -0.0709
  110TCq2    C2 1675   0.562   2.963   2.408 -0.0284  0.3891 -0.0589
  110TCq2    C3 1676   0.496   3.015   2.518 -0.4395  0.5081 -0.3375
  110TCq2    C4 1677   0.435   3.136   2.497  0.8800 -0.3838 -0.1895
  110TCq2    C5 1678   0.445   3.200   2.378  0.0168  0.0492 -0.7245
  110TCq2    C6 1679   0.523   3.149   2.278  0.0855  0.3927  0.6380
  110TCq2    C7 1680   0.575   3.024   2.291 -0.1284  0.1675 -0.3264
  110TCq2    C8 1681   0.518   3.194   2.142 -0.0061 -0.1682  0.3609
  110TCq2    O4 1682   0.540   3.112   2.053 -0.2776 -0.4568  0.3985
  110TCq2    C9 1683   0.365   3.202   2.608  0.4955 -0.0885 -0.5962
  110TCq2    O5 1684   0.361   3.130   2.710  0.0982  0.5376  0.1014
  110TCq2    O6 1685   0.300   3.308   2.587  0.5950 -0.4533  0.5906
  110TCq2    H2 1686   0.493   2.961   2.612  0.8292 -2.1922 -1.8230
  110TCq2    H3 1687   0.405   3.301   2.367  0.7744  0.4491  0.1516
  110TCq2    H4 1688   0.653   2.999   2.221  0.0967  0.0273 -0.0238
  111TMC2    C1 1689   0.178   1.501  11.468  0.1755  0.3058  0.1736
  111TMC2    C2 1690   0.248   1.441  11.371  0.1753 -0.2894  0.6431
  111TMC2    C3 1691   0.327   1.331  11.402  0.5215  0.8648 -0.0285
  111TMC2    C4 1692   0.193   1.460  11.596  0.3295  0.1083 -0.3459
  111TMC2    C5 1693   0.290   1.370  11.628 -0.3007  0.2284  0.2909
  111TMC2    C6 1694   0.353   1.299  11.531  0.6293  0.6170 -0.4623
  111TMC2     C 1695   0.048   1.568  11.420  0.4981  0.4866  0.7998
  111TMC2     O 1696   0.021   1.562  11.300  0.1097  0.5986 -0.9856
  111TMC2     H 1697   0.224   1.462  11.268  1.9161 -0.1918  0.2708
  111TMC2    H1 1698   0.148   1.521  11.675 -1.9589 -0.3851 -1.2718
  111TMC2    H2 1699   0.409   1.214  11.569  2.2490  1.5820 -0.7146
  111TMC2    C7 1700   0.290   1.329  11.770  0.4136 -0.5271 -0.3943
  111TMC2    C8 1701   0.412   1.289  11.298  0.0930  0.4795  0.6222
  111TMC2    O1 1702   0.187   1.357  11.830  0.1586 -0.6675 -0.4194
  111TMC2    O2 1703   0.445   1.361  11.208  0.2704  0.2758  0.2210
  111TMC2    O5 1704   0.454   1.164  11.325  0.1419  0.3014 -0.2466
  111TMC2    H5 1705   0.425   1.119  11.407 -1.6003  0.8163 -0.5903
  112MPD2     C 1706   4.335   1.817  11.509 -0.0121 -1.2598 -0.1924
  112MPD2    C1 1707   4.405   1.797  11.391  0.0408  0.0518 -0.1651
  112MPD2    C2 1708   4.531   1.733  11.401  0.4495  0.6613  0.2426
  112MPD2    C3 1709   4.575   1.673  11.519 -0.0947  0.5854 -0.3580
  112MPD2    C4 1710   4.507   1.702  11.635 -0.2569 -0.2448 -0.5107
  112MPD2    C5 1711   4.390   1.774  11.625 -0.2171 -0.8058 -0.3117
  112MPD2     H 1712   4.590   1.710  11.313  1.0325 -0.4681  0.9287
  112MPD2    H1 1713   4.537   1.662  11.731 -0.6415 -0.8652 -0.6442
  112MPD2    H2 1714   4.249   1.882  11.520  2.0640  1.2466  1.3017
  112MPD2    H3 1715   4.334   1.790  11.717  1.3136  1.0173  0.3125
  112MPD2     N 1716   4.695   1.600  11.527 -0.0573 -0.0105 -0.2984
  112MPD2    H5 1717   4.724   1.558  11.615  1.8986  0.9053 -0.5125
  112MPD2    N1 1718   4.375   1.843  11.262  0.3966 -0.2190 -0.3012
  112MPD2    H7 1719   4.425   1.804  11.183  1.4925  1.5143 -0.4629
  113MPD2     C 1720   3.285   4.112   1.416 -0.6517  0.5499 -0.1073
  113MPD2    C1 1721   3.243   4.238   1.436  0.0602  0.2515  0.5649
  113MPD2    C2 1722   3.116   4.272   1.387  0.5389  0.0139  0.6091
  113MPD2    C3 1723   3.042   4.182   1.309 -0.2259  0.4357 -0.2983
  113MPD2    C4 1724   3.113   4.074   1.267  0.0923 -0.1021 -0.0654
  113MPD2    C5 1725   3.232   4.038   1.323 -0.1128  0.7509 -0.4369
  113MPD2     H 1726   3.075   4.367   1.418 -0.4519 -1.1900  2.9477
  113MPD2    H1 1727   3.072   4.001   1.198  0.0994 -0.7219  0.5818
  113MPD2    H2 1728   3.381   4.077   1.452 -0.6135  0.1610 -0.5949
  113MPD2    H3 1729   3.285   3.949   1.293  0.3030  0.2504  1.7512
  113MPD2     N 1730   2.916   4.212   1.259 -0.7300 -0.2353 -0.0477
  113MPD2    H5 1731   2.876   4.144   1.195 -0.4169  1.6795 -2.2975
  113MPD2    N1 1732   3.317   4.326   1.521 -0.1785 -0.1277 -0.2059
  113MPD2    H7 1733   3.266   4.413   1.531 -0.2248 -0.0678 -0.9715
  114TCq2    C1 1734   2.828   4.306   1.319 -0.0495 -0.0326 -0.0781
  114TCq2    O2 1735   2.855   4.389   1.409 -0.4193  0.5706  0.3233
  114TCq2    C2 1736   2.679   4.292   1.290 -0.4421  0.4217  0.1516
  114TCq2    C3 1737   2.595   4.399   1.322  0.0412 -0.1925  0.1156
  114TCq2    C4 1738   2.452   4.378   1.323 -0.0319  0.0098 -0.0620
  114TCq2    C5 1739   2.401   4.258   1.279  0.1949 -0.4566  1.3347
  114TCq2    C6 1740   2.495   4.162   1.246 -0.0957 -0.1964 -0.8271
  114TCq2    C7 1741   2.629   4.174   1.246  0.6011  0.2070  0.7921
  114TCq2    C8 1742   2.458   4.033   1.193 -0.0093  0.6681  0.2094
  114TCq2    O4 1743   2.541   3.979   1.122 -0.2647  0.2866 -0.0882
  114TCq2    C9 1744   2.361   4.474   1.379  0.1032  0.2514 -0.4377
  114TCq2    O5 1745   2.413   4.578   1.420 -0.6142 -0.3727 -0.3137
  114TCq2    O6 1746   2.240   4.451   1.373 -0.3633  0.5337  0.6878
  114TCq2    H2 1747   2.643   4.491   1.354  1.9414 -0.2658 -2.4877
  114TCq2    H3 1748   2.297   4.234   1.263  0.1739  0.3640  0.2046
  114TCq2    H4 1749   2.698   4.091   1.231  1.6369  1.1952  0.1455
  115TMC2    C1 1750   3.677   2.840   0.077  0.3852 -1.8663  1.0731
  115TMC2    C2 1751   3.811   2.852   0.097  0.2784  1.2328 -0.6578
  115TMC2    C3 1752   3.889   2.935   0.018  0.5325 -0.2208  0.4154
  115TMC2    C4 1753   3.619   2.911  17.680  0.3991  0.6688  0.0973
  115TMC2    C5 1754   3.694   3.012  17.624 -0.0065 -0.6660  0.2227
  115TMC2    C6 1755   3.826   3.018  17.637 -0.0964  0.4298 -0.9958
  115TMC2     C 1756   3.614   2.717   0.114  0.0887 -0.1729  0.4588
  115TMC2     O 1757   3.524   2.682   0.040  0.7565  0.1504 -1.1759
  115TMC2     H 1758   3.858   2.798   0.178 -0.6512  0.1716 -0.8270
  115TMC2    H1 1759   3.512   2.919  17.672  0.2812  0.5967  1.4964
  115TMC2    H2 1760   3.883   3.096  17.589  0.7737  1.6209  1.9886
  115TMC2    C7 1761   3.624   3.130  17.565 -0.1161  0.1615  0.9191
  115TMC2    C8 1762   4.029   2.956   0.043  0.0156  0.0204  0.0299
  115TMC2    O1 1763   3.512   3.147  17.600 -0.0825  0.4849 -0.3903
  115TMC2    O2 1764   4.092   3.048  17.694  0.5116 -0.3375  0.5448
  115TMC2    O5 1765   4.068   2.892   0.158  0.5015 -0.4430 -0.0263
  115TMC2    H5 1766   4.035   2.800   0.167 -0.3634 -0.0813  0.5548
  116MPD2     C 1767   3.654   2.260   0.343  0.7079 -0.2569 -0.4129
  116MPD2    C1 1768   3.588   2.294   0.228 -0.4896 -0.7128  0.3056
  116MPD2    C2 1769   3.595   2.426   0.194 -0.0773  0.4866  0.1136
  116MPD2    C3 1770   3.657   2.522   0.270 -0.4508  0.5709  0.5285
  116MPD2    C4 1771   3.719   2.482   0.386  0.1278  0.7547  0.2759
  116MPD2    C5 1772   3.704   2.354   0.425 -0.1759  0.3336  1.4893
  116MPD2     H 1773   3.543   2.464   0.107  1.0929  0.3420 -0.6524
  116MPD2    H1 1774   3.768   2.555   0.450  1.1302 -0.4019  0.8209
  116MPD2    H2 1775   3.647   2.158   0.381  0.4765  0.0378  0.3415
  116MPD2    H3 1776   3.744   2.323   0.521  1.8758 -1.6622  0.0048
  116MPD2     N 1777   3.669   2.659   0.234 -0.5807 -0.2233  0.4918
  116MPD2    H5 1778   3.717   2.723   0.296 -0.8394 -1.5456  2.0623
  116MPD2    N1 1779   3.520   2.192   0.154  0.5378 -0.1773 -0.3067
  116MPD2    H7 1780   3.534   2.095   0.181 -1.2083 -0.6692 -1.1103
  117TMC2    C1 1781   1.813   3.239  14.156  0.2903 -0.1675  0.3219
  117TMC2    C2 1782   1.879   3.156  14.247  0.5357 -0.6307  0.4041
  117TMC2    C3 1783   2.012   3.190  14.281  0.9493 -0.0272 -0.2437
  117TMC2    C4 1784   1.885   3.343  14.096 -0.4972 -0.2844 -0.0102
  117TMC2    C5 1785   2.010   3.371  14.145 -0.0152  0.2981 -0.1137
  117TMC2    C6 1786   2.080   3.288  14.227 -0.7476  0.1856  0.1311
  117TMC2     C 1787   1.673   3.209  14.122 -1.1726 -0.3915  0.8003
  117TMC2     O 1788   1.629   3.095  14.133 -0.1662  0.2234  0.1901
  117TMC2     H 1789   1.833   3.075  14.302  1.9291 -0.9490  1.1054
  117TMC2    H1 1790   1.854   3.396  14.007 -0.0374 -0.1578 -0.0978
  117TMC2    H2 1791   2.174   3.329  14.265  0.7755 -1.0030 -2.3915
  117TMC2    C7 1792   2.066   3.502  14.123 -0.3846 -0.5675  0.1396
  117TMC2    C8 1793   2.060   3.120  14.395 -0.1826 -0.5319  0.0714
  117TMC2    O1 1794   2.191   3.516  14.124  0.5090 -0.6292 -0.0270
  117TMC2    O2 1795   1.984   3.033  14.444  0.0521  0.6878 -0.1972
  117TMC2    O5 1796   2.193   3.119  14.395 -0.3252  0.3991 -0.6765
  117TMC2    H5 1797   2.240   3.187  14.342  1.3871 -0.9869 -0.9279
  118MPD2     C 1798   1.834   3.794  14.114  0.5865  0.4435  0.7184
  118MPD2    C1 1799   1.959   3.726  14.098  0.1304 -0.1121 -0.1841
  118MPD2    C2 1800   2.071   3.797  14.057  0.8359  0.9291 -1.2030
  118MPD2    C3 1801   2.051   3.931  14.027  0.2620  0.5080  0.6869
  118MPD2    C4 1802   1.928   3.993  14.044  0.2654  0.1413  0.1589
  118MPD2    C5 1803   1.825   3.928  14.094 -0.0285 -0.6879 -0.7606
  118MPD2     H 1804   2.170   3.753  14.062  1.4388  2.1188 -2.6421
  118MPD2    H1 1805   1.910   4.096  14.017 -0.4792 -0.0651 -0.1329
  118MPD2    H2 1806   1.752   3.723  14.124  0.0468  0.7988 -1.1748
  118MPD2    H3 1807   1.730   3.978  14.110  1.7329  1.7379  2.0844
  118MPD2     N 1808   2.153   4.015  13.979  0.3461 -0.5409 -0.3503
  118MPD2    H5 1809   2.138   4.115  13.969  0.4233 -0.8077 -3.0893
  118MPD2    N1 1810   1.962   3.587  14.123 -0.4550  0.1216 -0.4241
  118MPD2    H7 1811   1.871   3.552  14.150  0.0751  0.2355  1.4767
  119MPD2     C 1812   0.865   0.184  14.116 -0.5238 -0.4132  0.5242
  119MPD2    C1 1813   0.728   0.208  14.126  0.1471  0.5807  0.4492
  119MPD2    C2 1814   0.650   0.195  14.012  0.6891  0.1026 -0.4873
  119MPD2    C3 1815   0.703   0.152  13.888  0.3319 -0.4694 -0.2042
  119MPD2    C4 1816   0.839   0.136  13.877 -0.2707 -0.2083 -0.1369
  119MPD2    C5 1817   0.913   0.149  13.994  0.8579  0.1050 -0.0645
  119MPD2     H 1818   0.552   0.240  14.023  0.9665  0.2260  1.3255
  119MPD2    H1 1819   0.899   0.120  13.788  1.3302 -2.5979  1.3653
  119MPD2    H2 1820   0.932   0.194  14.201 -0.8211 -0.3813  0.7584
  119MPD2    H3 1821   1.018   0.124  13.987  0.8045 -0.1350  0.0074
  119MPD2     N 1822   0.620   0.129  13.781 -0.3029  0.0691  0.2812
  119MPD2    H5 1823   0.669   0.104  13.696  1.9811  2.3470  0.9518
  119MPD2    N1 1824   0.687   0.251  14.249  0.4663  0.8376 -0.1798
  119MPD2    H7 1825   0.751   0.301  14.310 -0.8021  0.0121  1.8256
  120TCq2    C1 1826   0.484   0.130  13.784  0.0176  0.2716  0.3277
  120TCq2    O2 1827   0.409   0.178  13.871 -0.1390 -0.7450 -0.1551
  120TCq2    C2 1828   0.426   0.040  13.686  0.3537 -0.4395 -0.1345
  120TCq2    C3 1829   0.491   4.714  13.587  0.5994 -0.1621 -0.7568
  120TCq2    C4 1830   0.426   4.642  13.497 -0.1769 -0.6218  0.1742
  120TCq2    C5 1831   0.297   4.644  13.480 -0.1123 -0.5108 -0.4040
  120TCq2    C6 1832   0.229   4.702  13.578 -0.2912 -1.0002 -0.3695
  120TCq2    C7 1833   0.288   0.037  13.685 -0.6430 -0.0960 -0.2958
  120TCq2    C8 1834   0.086   4.723  13.546 -0.1462 -0.1448  0.4935
  120TCq2    O4 1835   0.050   0.015  13.429  0.4309  0.4606 -0.3640
  120TCq2    C9 1836   0.503   4.561  13.402  0.3278  0.3801 -0.4434
  120TCq2    O5 1837   0.622   4.604  13.389  0.8387 -0.1939 -0.2191
  120TCq2    O6 1838   0.443   4.488  13.321 -0.1061 -0.0819 -0.0538
  120TCq2    H2 1839   0.599   4.709  13.590  0.5354 -1.2065 -0.2669
  120TCq2    H3 1840   0.250   4.584  13.403 -0.6461 -2.1612  1.2051
  120TCq2    H4 1841   0.223   0.072  13.764  1.4887 -1.9086  2.2847
  121TMC2    C1 1842   1.785   2.069  14.074 -0.4926 -0.7743  0.5123
  121TMC2    C2 1843   1.738   1.998  14.176  0.5946 -0.2385 -1.0088
  121TMC2    C3 1844   1.613   1.950  14.176 -0.1968 -0.1533  0.9048
  121TMC2    C4 1845   1.707   2.103  13.965 -0.0115  0.4908 -0.4255
  121TMC2    C5 1846   1.583   2.053  13.963 -0.1023  0.3174 -0.6738
  121TMC2    C6 1847   1.531   1.974  14.068  0.2696  0.0079 -0.1562
  121TMC2     C 1848   1.921   2.123  14.082  0.3426 -0.1598 -0.3067
  121TMC2     O 1849   1.975   2.084  14.184 -0.6295  0.2360 -0.2217
  121TMC2     H 1850   1.801   1.966  14.258 -1.6147  0.3955  0.9626
  121TMC2    H1 1851   1.735   2.176  13.890  3.5275 -0.5348 -0.0901
  121TMC2    H2 1852   1.426   1.948  14.077 -0.3117  2.4136  0.0704
  121TMC2    C7 1853   1.510   2.081  13.838  0.2857 -0.1472  0.3620
  121TMC2    C8 1854   1.578   1.860  14.281 -0.2305 -0.0081 -0.1925
  121TMC2    O1 1855   1.557   2.162  13.761 -0.2899 -0.4859 -0.3031
  121TMC2    O2 1856   1.639   1.866  14.385  0.9793  0.5221 -0.2127
  121TMC2    O5 1857   1.518   1.752  14.226  0.1313 -0.6950 -0.1711
  121TMC2    H5 1858   1.476   1.774  14.140  0.1009  1.6469  0.4247
  122MPD2     C 1859   2.194   2.207  14.025  0.4121 -0.6231 -0.2161
  122MPD2    C1 1860   2.096   2.213  13.930 -0.5776 -0.4921  0.2394
  122MPD2    C2 1861   2.122   2.260  13.800  0.7797  0.4276  0.1135
  122MPD2    C3 1862   2.253   2.265  13.755 -0.3577 -0.1733 -0.3270
  122MPD2    C4 1863   2.358   2.238  13.837  0.2520  0.1606  0.2619
  122MPD2    C5 1864   2.321   2.223  13.974  0.0723  0.3506 -0.3563
  122MPD2     H 1865   2.044   2.281  13.727  1.1432  0.1187 -0.3626
  122MPD2    H1 1866   2.459   2.252  13.802  0.4691 -0.5063  0.6133
  122MPD2    H2 1867   2.175   2.202  14.131  0.2435  0.1113 -0.2112
  122MPD2    H3 1868   2.394   2.232  14.053  1.4073  1.6208 -1.7292
  122MPD2     N 1869   2.286   2.279  13.619  0.4118  0.2494  0.5301
  122MPD2    H5 1870   2.383   2.261  13.594  0.2481  1.9692 -1.3054
  122MPD2    N1 1871   1.962   2.180  13.966  0.0363 -0.9512 -0.2438
  122MPD2    H7 1872   1.893   2.211  13.898 -1.3373 -0.3480  1.4090
  123MPD2     C 1873   2.923   0.174   9.681 -0.4629 -0.5461  0.2566
  123MPD2    C1 1874   2.966   0.259   9.578 -0.7357 -0.3188 -0.1503
  123MPD2    C2 1875   3.073   0.219   9.502 -0.8029 -0.4451  0.0729
  123MPD2    C3 1876   3.146   0.102   9.524  0.0507 -0.7344 -0.1319
  123MPD2    C4 1877   3.104   0.019   9.622  0.1204 -0.1785  0.0008
  123MPD2    C5 1878   2.989   0.053   9.691  0.1044 -0.0315  0.0516
  123MPD2     H 1879   3.116   0.285   9.427  0.9197  0.1137  1.5445
  123MPD2    H1 1880   3.150   4.652   9.655  1.0519  0.4014  0.3572
  123MPD2    H2 1881   2.832   0.195   9.736 -0.0282  1.3634  0.2475
  123MPD2    H3 1882   2.952   4.717   9.772  1.5487  0.7329  1.2912
  123MPD2     N 1883   3.260   0.083   9.439 -0.9011  0.2708  0.7462
  123MPD2    H5 1884   3.287   0.162   9.381 -1.7551  1.5310  2.0741
  123MPD2    N1 1885   2.894   0.377   9.562 -0.4785  0.9193 -0.6195
  123MPD2    H7 1886   2.847   0.413   9.644  1.2404  1.2355  0.2271
  124TCq2    C1 1887   3.362   4.713   9.453 -0.3108  0.0429 -0.0675
  124TCq2    O2 1888   3.375   4.628   9.542 -0.0708 -0.4892  0.0321
  124TCq2    C2 1889   3.467   0.007   9.350  0.2674  0.1858 -0.7277
  124TCq2    C3 1890   3.448   0.060   9.224 -0.4823  0.3810 -0.5314
  124TCq2    C4 1891   3.553   0.115   9.154 -0.5148  0.1553  0.1043
  124TCq2    C5 1892   3.673   0.133   9.221  0.0919  0.3998 -0.4876
  124TCq2    C6 1893   3.685   0.083   9.352 -0.9303 -0.1511  0.4552
  124TCq2    C7 1894   3.585   0.012   9.415  0.8077 -0.0896  0.4452
  124TCq2    C8 1895   3.804   0.118   9.435 -0.0633 -0.0714 -0.2711
  124TCq2    O4 1896   3.837   0.043   9.523 -0.5253  0.2676 -0.0999
  124TCq2    C9 1897   3.526   0.182   9.031  0.2068  0.9538  0.2599
  124TCq2    O5 1898   3.598   0.272   8.996  0.2998  0.2131  0.6111
  124TCq2    O6 1899   3.441   0.125   8.960 -0.7818  0.1445 -0.7006
  124TCq2    H2 1900   3.352   0.062   9.173 -0.6759  0.8999 -0.1476
  124TCq2    H3 1901   3.755   0.185   9.172  0.8507 -0.4567 -0.1229
  124TCq2    H4 1902   3.588   4.709   9.519 -0.7568 -1.7620  0.0242
  125TMC2    C1 1903   4.716   2.404   9.264  0.0542  0.6387 -0.4801
  125TMC2    C2 1904   0.083   2.499   9.297  0.4988 -0.1072 -0.7619
  125TMC2    C3 1905   0.205   2.453   9.355 -0.2185  0.2409  0.1115
  125TMC2    C4 1906   0.021   2.268   9.272 -0.7017  0.1741 -0.0223
  125TMC2    C5 1907   0.152   2.234   9.314  0.2718 -0.2246 -0.5871
  125TMC2    C6 1908   0.240   2.326   9.362  0.0092  0.5664  0.0273
  125TMC2     C 1909   4.592   2.460   9.217  0.1227  0.3720  0.0199
  125TMC2     O 1910   4.566   2.582   9.224  0.3770 -0.4735  0.3001
  125TMC2     H 1911   0.059   2.605   9.291  0.0619 -0.1846 -0.3158
  125TMC2    H1 1912   4.675   2.198   9.230  1.3195 -0.9542 -1.6194
  125TMC2    H2 1913   0.342   2.302   9.388 -0.7097 -0.2273  2.1538
  125TMC2    C7 1914   0.168   2.090   9.340  0.1303  0.7641  0.3248
  125TMC2    C8 1915   0.277   2.555   9.426  0.0409 -0.4504  0.4761
  125TMC2    O1 1916   0.077   2.023   9.294 -0.1480 -0.1876  0.1122
  125TMC2    O2 1917   0.261   2.677   9.406  0.1288 -0.5591  0.1856
  125TMC2    O5 1918   0.325   2.501   9.544 -0.1448 -0.0283  0.7289
  125TMC2    H5 1919   0.304   2.409   9.567  0.2393 -0.4636 -0.6435
  126MPD1     C 1920   4.120   2.406   8.999 -0.0626 -0.0426  0.4132
  126MPD1    C1 1921   4.198   2.300   8.971  0.8597  0.7584 -0.2877
  126MPD1    C2 1922   4.324   2.287   9.026  1.0919 -0.0184  0.3074
  126MPD1    C3 1923   4.377   2.378   9.116 -0.6284 -0.1975  0.3570
  126MPD1    C4 1924   4.299   2.487   9.138 -0.0301  0.0409  0.5017
  126MPD1    C5 1925   4.177   2.503   9.082  0.5174  0.2452  0.2376
  126MPD1     H 1926   4.378   2.199   8.994  2.0324  1.0023 -0.8817
  126MPD1    H1 1927   4.339   2.567   9.199 -0.6510  0.3380  0.5128
  126MPD1    H2 1928   4.017   2.415   8.968  0.2761  0.1630 -0.6909
  126MPD1    H3 1929   4.125   2.598   9.092  2.0240  0.9943  1.0662
  126MPD1     N 1930   4.509   2.358   9.165 -0.8094 -0.6011  0.6383
  126MPD1    H5 1931   4.550   2.267   9.145 -2.2281 -1.4728  1.6620
  126MPD1    N1 1932   4.151   2.189   8.896 -0.5794 -0.2957 -0.3682
  126MPD1    H6 1933   4.222   2.138   8.844  0.5654  0.1986  0.7027
  126MPD1    H7 1934   4.072   2.207   8.834  0.7624  2.6479 -1.2196
  127MPD2     C 1935   2.133   1.182   9.492  0.0038  0.0491  0.6568
  127MPD2    C1 1936   2.235   1.212   9.577  0.4294 -0.6314 -0.1033
  127MPD2    C2 1937   2.238   1.341   9.627 -0.2808 -0.4367 -0.3286
  127MPD2    C3 1938   2.148   1.433   9.592 -0.1772 -0.6181  0.4760
  127MPD2    C4 1939   2.059   1.401   9.496  0.3605  0.3492  0.1722
  127MPD2    C5 1940   2.050   1.279   9.447  0.1497  0.0319  0.2410
  127MPD2     H 1941   2.315   1.380   9.693 -1.4947 -2.2015  2.1222
  127MPD2    H1 1942   1.998   1.473   9.443  0.0333  0.2003  0.3411
  127MPD2    H2 1943   2.125   1.080   9.454 -0.4462  1.2960 -2.5893
  127MPD2    H3 1944   1.979   1.262   9.367  1.1432  1.3899 -0.9270
  127MPD2     N 1945   2.157   1.571   9.641  0.1365 -0.0643 -0.0439
  127MPD2    H5 1946   2.230   1.604   9.703 -0.8126 -1.1958  1.6856
  127MPD2    N1 1947   2.332   1.111   9.602 -0.0048 -0.2569 -0.0550
  127MPD2    H7 1948   2.305   1.023   9.560 -0.4200  0.3493 -1.0582
  128TCq2    C1 1949   2.419   1.120   9.712 -0.2037 -0.8087  0.7095
  128TCq2    O2 1950   2.429   1.214   9.791 -0.2103 -0.0605  0.5458
  128TCq2    C2 1951   2.504   0.999   9.744 -0.6335 -0.9313 -0.5156
  128TCq2    C3 1952   2.565   0.995   9.866  0.2671 -0.0870  0.0365
  128TCq2    C4 1953   2.614   0.872   9.910 -0.1658  0.2157  0.5560
  128TCq2    C5 1954   2.619   0.763   9.829  0.6068  0.2104 -0.1669
  128TCq2    C6 1955   2.561   0.779   9.701  0.3682 -0.1932  0.8350
  128TCq2    C7 1956   2.500   0.892   9.659  0.4573 -0.0056 -0.6699
  128TCq2    C8 1957   2.525   0.662   9.629  0.3885  0.1424  0.1707
  128TCq2    O4 1958   2.507   0.675   9.513 -0.1218  0.3365  0.0492
  128TCq2    C9 1959   2.667   0.860  10.043 -0.0871 -0.0227 -0.4372
  128TCq2    O5 1960   2.659   0.965  10.112  0.0750  0.1972  0.1050
  128TCq2    O6 1961   2.720   0.747  10.069  0.9089  0.1560  0.2992
  128TCq2    H2 1962   2.579   1.086   9.923  1.8806 -0.2908 -0.0403
  128TCq2    H3 1963   2.671   0.672   9.859 -0.2252 -0.6935 -1.4620
  128TCq2    H4 1964   2.461   0.893   9.557 -0.0747 -0.1233 -0.4674
  129MPD2     C 1965   1.817   1.645   1.907  0.2216  0.0054 -0.1123
  129MPD2    C1 1966   1.722   1.574   1.832 -0.6547 -0.3739 -0.1836
  129MPD2    C2 1967   1.626   1.646   1.770  0.7889 -0.2435 -0.1939
  129MPD2    C3 1968   1.619   1.785   1.763 -0.2410  0.1402 -0.4984
  129MPD2    C4 1969   1.711   1.849   1.836  0.1051 -0.5882  0.3323
  129MPD2    C5 1970   1.811   1.789   1.911  0.3332  0.0161 -0.0438
  129MPD2     H 1971   1.543   1.596   1.721  2.6086 -1.0076 -2.5340
  129MPD2    H1 1972   1.712   1.957   1.833 -0.3045 -0.6409 -1.4121
  129MPD2    H2 1973   1.890   1.594   1.968 -0.2596 -1.5513 -0.8538
  129MPD2    H3 1974   1.882   1.845   1.971  0.3551 -0.3469  0.2696
  129MPD2     N 1975   1.531   1.857   1.679 -0.1228  0.4046  0.3788
  129MPD2    H5 1976   1.493   1.807   1.599  1.0707  0.7316 -0.3909
  129MPD2    N1 1977   1.725   1.431   1.817  0.2977 -0.0682 -0.4629
  129MPD2    H7 1978   1.650   1.383   1.768 -1.3315  3.6939 -1.6604
  130TCq2    C1 1979   1.822   1.352   1.867 -0.2614  0.2853 -0.5938
  130TCq2    O2 1980   1.933   1.372   1.921 -0.1457  0.2696  0.2205
  130TCq2    C2 1981   1.793   1.220   1.815  0.9699 -0.0981  0.0158
  130TCq2    C3 1982   1.895   1.149   1.774  0.3174 -0.0106 -0.3688
  130TCq2    C4 1983   1.873   1.038   1.700  0.1413  0.2015 -0.3651
  130TCq2    C5 1984   1.749   0.983   1.698 -0.0870  0.5953  0.2688
  130TCq2    C6 1985   1.643   1.052   1.748 -0.5126 -0.1545  0.2158
  130TCq2    C7 1986   1.666   1.176   1.811  0.1621  0.0473  0.3751
  130TCq2    C8 1987   1.522   0.976   1.772  0.8615  0.3286 -0.1565
  130TCq2    O4 1988   1.420   1.040   1.782  0.1892  0.3312  0.9427
  130TCq2    C9 1989   1.978   0.968   1.637 -0.4312  0.1404 -0.2202
  130TCq2    O5 1990   1.955   0.861   1.573  0.0880  0.0336 -0.8800
  130TCq2    O6 1991   2.097   1.000   1.662  0.2300 -0.5458 -0.4129
  130TCq2    H2 1992   1.995   1.190   1.772  0.4747 -0.3225  1.1507
  130TCq2    H3 1993   1.736   0.892   1.641 -1.9125  0.0215  1.6111
  130TCq2    H4 1994   1.581   1.222   1.859 -0.0552  0.9885 -0.9253
  131MPD2     C 1995   3.340   1.083   8.982 -0.5053 -0.2670 -0.6452
  131MPD2    C1 1996   3.373   1.101   9.117  0.0628  0.1025 -0.0442
  131MPD2    C2 1997   3.278   1.052   9.213 -0.4568  0.6365  0.2846
  131MPD2    C3 1998   3.161   0.991   9.171 -0.1469 -0.1971  0.4304
  131MPD2    C4 1999   3.141   0.964   9.037 -0.1659  0.0729  0.2259
  131MPD2    C5 2000   3.220   1.028   8.948  0.6077 -1.3037  0.3275
  131MPD2     H 2001   3.306   1.063   9.318 -1.6243  0.8370  0.5673
  131MPD2    H1 2002   3.056   0.913   8.993 -1.5610  0.3393  2.6099
  131MPD2    H2 2003   3.405   1.122   8.904 -0.6833 -1.1973 -1.2589
  131MPD2    H3 2004   3.202   0.995   8.847  1.1732 -0.7825  0.0558
  131MPD2     N 2005   3.079   0.939   9.277 -0.2095  0.4591  0.6639
  131MPD2    H5 2006   3.118   0.965   9.367  0.2263  1.5466  0.1696
  131MPD2    N1 2007   3.498   1.167   9.148  0.0917  0.4985 -0.6925
  131MPD2    H7 2008   3.547   1.204   9.067  0.1570 -1.5804 -1.6110
  132TCq2    C1 2009   3.880   1.487   9.469 -0.0271 -0.4302 -0.3697
  132TCq2    O2 2010   3.788   1.559   9.508  0.0868 -0.1222  0.1339
  132TCq2    C2 2011   3.853   1.370   9.385 -0.6540  0.3523  0.3575
  132TCq2    C3 2012   3.948   1.318   9.305  0.3775  0.4281 -0.0211
  132TCq2    C4 2013   3.912   1.248   9.191  0.2089 -0.4305 -0.0599
  132TCq2    C5 2014   3.781   1.210   9.169  0.2172  0.2344 -0.9505
  132TCq2    C6 2015   3.688   1.250   9.265 -0.0686 -0.1888 -0.2419
  132TCq2    C7 2016   3.725   1.333   9.373 -0.6347 -0.1873 -0.1965
  132TCq2    C8 2017   3.544   1.209   9.268 -0.2890  0.3532 -0.2634
  132TCq2    O4 2018   3.487   1.204   9.376 -0.5210  0.0331  0.9723
  132TCq2    C9 2019   4.014   1.198   9.102 -0.2593 -1.2405  0.4433
  132TCq2    O5 2020   3.967   1.131   9.007 -0.2593  0.4662  0.4217
  132TCq2    O6 2021   4.136   1.239   9.114  0.2150  0.0710 -0.4603
  132TCq2    H2 2022   4.053   1.340   9.321  0.0454  0.4414  2.0831
  132TCq2    H3 2023   3.755   1.148   9.085 -1.8445  0.1781 -0.2885
  132TCq2    H4 2024   3.658   1.374   9.448 -1.3360 -0.8279 -0.4668
  133MPD2     C 2025   2.920   2.514   9.362  0.5470  0.5761 -0.3474
  133MPD2    C1 2026   2.876   2.417   9.273  0.1155 -0.7137 -0.2306
  133MPD2    C2 2027   2.930   2.295   9.284  0.2676 -0.3820 -0.3955
  133MPD2    C3 2028   3.034   2.273   9.374 -0.2760  0.0455 -0.6311
  133MPD2    C4 2029   3.072   2.376   9.459  0.4290  0.1330  0.2771
  133MPD2    C5 2030   3.025   2.500   9.446 -0.4928 -0.1888 -0.1394
  133MPD2     H 2031   2.888   2.221   9.217 -0.9407 -1.0442  1.1125
  133MPD2    H1 2032   3.141   2.352   9.539  0.4180  0.3057  0.3381
  133MPD2    H2 2033   2.875   2.612   9.355  0.8566  0.7219 -0.2713
  133MPD2    H3 2034   3.059   2.570   9.521  0.7176 -1.0513  0.1211
  133MPD2     N 2035   3.086   2.139   9.399  0.1062 -0.2193 -0.1767
  133MPD2    H5 2036   3.156   2.137   9.472  0.5660 -0.9658 -0.6460
  133MPD2    N1 2037   2.797   2.454   9.164 -0.6669  0.1457  0.0494
  133MPD2    H7 2038   2.781   2.554   9.158  1.0067  0.2410 -2.8587
  134TCq2    C1 2039   2.735   2.375   9.072 -0.0940  0.1447 -0.2634
  134TCq2    O2 2040   2.736   2.253   9.057  0.1699  0.7099  0.2568
  134TCq2    C2 2041   2.677   2.456   8.966  0.4627 -0.5042  0.1937
  134TCq2    C3 2042   2.704   2.593   8.964 -0.6254 -0.0533  0.2100
  134TCq2    C4 2043   2.621   2.682   8.916 -0.7134 -0.5886 -0.1708
  134TCq2    C5 2044   2.506   2.650   8.863 -0.2663  0.8957 -0.3464
  134TCq2    C6 2045   2.474   2.513   8.865 -0.0125 -0.0738 -0.7933
  134TCq2    C7 2046   2.556   2.418   8.915 -0.0583 -0.7028  0.2598
  134TCq2    C8 2047   2.344   2.472   8.815  0.7394 -0.3024  0.5378
  134TCq2    O4 2048   2.315   2.357   8.844  0.7993  0.3889 -0.4775
  134TCq2    C9 2049   2.648   2.823   8.934 -0.1945 -0.4097  0.5100
  134TCq2    O5 2050   2.567   2.903   8.883 -0.1070 -0.0751  0.3447
  134TCq2    O6 2051   2.747   2.855   8.999 -0.7555 -0.3676  0.5449
  134TCq2    H2 2052   2.794   2.637   9.003 -0.8880  1.7643 -1.2381
  134TCq2    H3 2053   2.430   2.726   8.849  0.1287  1.4331  0.4380
  134TCq2    H4 2054   2.523   2.315   8.915  0.7917 -0.9705 -0.5973
  135MPD2     C 2055   1.304   2.826   9.722  0.0549 -0.4228 -0.2422
  135MPD2    C1 2056   1.203   2.876   9.641  0.3742 -0.1735  0.4084
  135MPD2    C2 2057   1.123   2.791   9.579  0.3957  0.1815 -0.1804
  135MPD2    C3 2058   1.127   2.653   9.595 -0.2678  0.5755 -0.0946
  135MPD2    C4 2059   1.222   2.610   9.685 -0.0867  0.6321  0.1158
  135MPD2    C5 2060   1.320   2.690   9.735 -0.3028 -0.6158  0.3400
  135MPD2     H 2061   1.031   2.818   9.528  1.2932  2.4086 -0.6385
  135MPD2    H1 2062   1.218   2.505   9.712  1.8006  0.2928 -0.9639
  135MPD2    H2 2063   1.379   2.883   9.776 -0.2015  1.4839 -1.9067
  135MPD2    H3 2064   1.405   2.641   9.781 -1.2406 -1.1456  1.4924
  135MPD2     N 2065   1.045   2.551   9.545  0.3365  0.2741  0.2123
  135MPD2    H5 2066   1.068   2.459   9.581 -0.5188  0.7599  1.9671
  135MPD2    N1 2067   1.190   3.015   9.619 -0.2291 -0.6034 -0.1273
  135MPD2    H7 2068   1.114   3.033   9.553  0.1146 -1.1565 -0.6678
  136TCq2    C1 2069   1.245   3.115   9.694 -0.2850  0.5923  0.1746
  136TCq2    O2 2070   1.318   3.113   9.792  0.0618 -0.0436 -0.0141
  136TCq2    C2 2071   1.170   3.244   9.677 -0.1188  0.4209 -0.3341
  136TCq2    C3 2072   1.227   3.357   9.725  0.6326  0.2782 -0.4284
  136TCq2    C4 2073   1.155   3.474   9.719  0.2499 -0.9533  0.0705
  136TCq2    C5 2074   1.033   3.478   9.658 -0.1127 -0.2328 -0.3599
  136TCq2    C6 2075   0.979   3.360   9.620  0.4105 -0.2667  0.1807
  136TCq2    C7 2076   1.044   3.239   9.627 -0.3474  0.1511 -0.3904
  136TCq2    C8 2077   0.846   3.349   9.568  0.0821  0.0969  0.4882
  136TCq2    O4 2078   0.801   3.448   9.510 -0.5444  0.6687  0.7215
  136TCq2    C9 2079   1.218   3.591   9.780  0.5046 -0.6306  0.3448
  136TCq2    O5 2080   1.324   3.566   9.847  1.1182  0.9094  0.0950
  136TCq2    O6 2081   1.165   3.708   9.779 -0.0181 -0.0733 -0.7875
  136TCq2    H2 2082   1.324   3.352   9.772  0.5176 -0.8290 -0.2862
  136TCq2    H3 2083   0.981   3.572   9.648 -2.7544 -1.6534 -0.0849
  136TCq2    H4 2084   1.008   3.149   9.579  0.6018 -1.4644  1.9237
  137MPD2     C 2085   1.434   1.466  10.040 -0.4234 -0.0588 -0.8630
  137MPD2    C1 2086   1.311   1.504  10.041  0.2066 -0.8976  0.1232
  137MPD2    C2 2087   1.277   1.637  10.037 -0.8942 -0.8989  0.2463
  137MPD2    C3 2088   1.378   1.730  10.034  0.5490  0.0402 -0.1640
  137MPD2    C4 2089   1.504   1.689  10.051 -0.2045 -0.5493 -0.0062
  137MPD2    C5 2090   1.531   1.553  10.053 -0.2698 -0.6708 -0.6801
  137MPD2     H 2091   1.173   1.663  10.021 -0.6057 -0.2284 -0.5532
  137MPD2    H1 2092   1.588   1.755  10.069 -1.9632  1.2329  1.6316
  137MPD2    H2 2093   1.467   1.363  10.049  1.0291  0.5866  1.2045
  137MPD2    H3 2094   1.635   1.526  10.050 -1.1179 -3.9744 -0.1216
  137MPD2     N 2095   1.340   1.866  10.024 -0.0081 -0.2868  0.3403
  137MPD2    H5 2096   1.242   1.885  10.037 -0.0388 -0.3974  0.2766
  137MPD2    N1 2097   1.215   1.400  10.038 -0.6307  0.0613 -0.2179
  137MPD2    H7 2098   1.254   1.312  10.004  0.9623  0.8040 -0.3111
  138TCq2    C1 2099   1.075   1.409  10.044  0.2638  0.0087  0.0490
  138TCq2    O2 2100   1.000   1.500  10.074  0.1698  0.3773 -0.0937
  138TCq2    C2 2101   1.012   1.277  10.040  0.7069 -0.0478  0.1866
  138TCq2    C3 2102   1.085   1.173  10.071  0.4117  0.1558  0.1946
  138TCq2    C4 2103   1.027   1.045  10.043 -0.7148  0.3141 -0.5495
  138TCq2    C5 2104   0.912   1.030   9.963 -0.0232 -0.9674 -0.0044
  138TCq2    C6 2105   0.841   1.145   9.940  0.1631  0.7524  0.2466
  138TCq2    C7 2106   0.887   1.266   9.983 -0.9535 -0.2527 -0.5804
  138TCq2    C8 2107   0.745   1.126   9.829 -0.0100 -0.3934 -0.1022
  138TCq2    O4 2108   0.788   1.046   9.749 -0.0064  0.2036  0.3112
  138TCq2    C9 2109   1.086   0.927  10.100  0.5243  0.3615 -0.1275
  138TCq2    O5 2110   1.206   0.943  10.128  0.1594 -0.0950  0.4651
  138TCq2    O6 2111   1.022   0.818  10.102  1.1722  0.2053  0.4658
  138TCq2    H2 2112   1.171   1.177  10.137  1.7014  0.7049 -1.4994
  138TCq2    H3 2113   0.872   0.934   9.936 -4.8067  0.9189  0.3170
  138TCq2    H4 2114   0.842   1.359   9.948 -2.2136 -0.5108  0.3482
  139TMC2    C1 2115   1.522   4.248  13.293  0.0752  0.4335 -0.8987
  139TMC2    C2 2116   1.416   4.233  13.204 -0.1137 -0.1834  0.6900
  139TMC2    C3 2117   1.296   4.289  13.242  0.4412  0.7403  0.0298
  139TMC2    C4 2118   1.511   4.327  13.410 -0.7039 -0.9794  0.4652
  139TMC2    C5 2119   1.394   4.392  13.427 -0.4739 -0.0564  0.3942
  139TMC2    C6 2120   1.281   4.373  13.351  0.6786  0.2391  0.1850
  139TMC2     C 2121   1.648   4.173  13.264  0.3931 -0.6009  0.5665
  139TMC2     O 2122   1.658   4.137  13.147 -0.1408 -0.4971  0.5300
  139TMC2     H 2123   1.419   4.157  13.127  0.9249  1.0915 -0.5149
  139TMC2    H1 2124   1.598   4.351  13.470 -0.5869 -0.1985 -0.0230
  139TMC2    H2 2125   1.188   4.413  13.391  0.2752 -1.4293  0.9460
  139TMC2    C7 2126   1.385   4.503  13.521  0.1155  0.0458 -0.1274
  139TMC2    C8 2127   1.184   4.294  13.144 -0.3429  1.4919  0.3012
  139TMC2    O1 2128   1.280   4.523  13.584  0.2532 -0.2412 -0.1227
  139TMC2    O2 2129   1.078   4.333  13.173  0.1886 -0.7211 -0.5016
  139TMC2    O5 2130   1.233   4.301  13.016  0.7140  0.0453  0.0601
  139TMC2    H5 2131   1.325   4.271  13.028  0.2736 -0.6818  1.6031
  140MPD2     C 2132   1.875   4.005  13.504  0.4382  0.0188  0.1331
  140MPD2    C1 2133   1.810   4.031  13.388 -0.0559  0.5655 -0.0255
  140MPD2    C2 2134   1.852   3.960  13.274 -0.3869 -0.5479  0.2045
  140MPD2    C3 2135   1.961   3.871  13.279  0.4022  0.3234  0.2947
  140MPD2    C4 2136   2.033   3.858  13.395 -0.2116 -0.0994 -0.8719
  140MPD2    C5 2137   1.986   3.921  13.507 -0.1099 -0.0553 -0.1755
  140MPD2     H 2138   1.814   3.984  13.175 -4.3026  1.5821  2.2122
  140MPD2    H1 2139   2.121   3.796  13.406 -1.4021 -1.6425  0.0322
  140MPD2    H2 2140   1.844   4.054  13.596 -1.9982  0.1056 -0.7269
  140MPD2    H3 2141   2.016   3.885  13.604 -0.3698 -2.6572 -1.0725
  140MPD2     N 2142   2.002   3.799  13.164  0.2953 -0.2651 -0.4376
  140MPD2    H5 2143   1.956   3.828  13.079 -0.3675  0.5764  0.2010
  140MPD2    N1 2144   1.704   4.126  13.382  0.2240 -0.3553 -0.4677
  140MPD2    H7 2145   1.649   4.149  13.464  0.5805 -2.6436  0.4061
  141TCq2    C1 2146   2.640   0.668  14.463  0.1005  0.3269 -0.2392
  141TCq2    O2 2147   2.571   0.622  14.376  0.3685  0.2391 -0.8808
  141TCq2    C2 2148   2.606   0.637  14.602 -0.4006 -0.3267  0.7571
  141TCq2    C3 2149   2.549   0.512  14.632  0.6084  0.5621  0.0557
  141TCq2    C4 2150   2.515   0.490  14.761 -0.5881 -0.0556  0.0687
  141TCq2    C5 2151   2.528   0.585  14.851 -0.0097  0.4055 -0.7037
  141TCq2    C6 2152   2.588   0.704  14.817 -0.5557  0.1574 -0.0474
  141TCq2    C7 2153   2.635   0.732  14.695  0.0477  0.6457 -0.1562
  141TCq2    C8 2154   2.572   0.801  14.922 -0.5462 -0.5035 -0.1663
  141TCq2    O4 2155   2.547   0.758  15.034 -0.2585 -0.4481  0.1414
  141TCq2    C9 2156   2.453   0.367  14.802 -0.1502 -0.3853 -0.1873
  141TCq2    O5 2157   2.447   0.278  14.714 -0.6219 -0.1579  0.2097
  141TCq2    O6 2158   2.395   0.359  14.910 -0.1382  0.7052 -0.6212
  141TCq2    H2 2159   2.542   0.435  14.556  1.3103 -0.2460  0.7889
  141TCq2    H3 2160   2.500   0.554  14.952 -0.0141  4.4286  0.5393
  141TCq2    H4 2161   2.680   0.828  14.670  0.5116 -0.0178 -1.8879
  142MPD2     C 2162   4.673   4.108  10.171  0.6297  0.0974  0.3112
  142MPD2    C1 2163   4.563   4.138  10.086  0.0917 -0.2140  0.0992
  142MPD2    C2 2164   4.530   4.268  10.056 -0.2760 -0.8247  0.1062
  142MPD2    C3 2165   4.604   4.371  10.103  0.3249  0.1428  0.0794
  142MPD2    C4 2166   4.722   4.343  10.171  0.1623  0.5394 -0.3145
  142MPD2    C5 2167   0.029   4.212  10.205  0.1323  0.4027 -0.1419
  142MPD2     H 2168   4.438   4.282  10.000  0.2796  0.8764 -0.3972
  142MPD2    H1 2169   0.062   4.422  10.207 -0.3157  1.3439 -1.1992
  142MPD2    H2 2170   4.706   4.009  10.199 -1.3565 -0.2920  1.2958
  142MPD2    H3 2171   0.125   4.181  10.243  0.8947 -0.3952 -2.6987
  142MPD2     N 2172   4.568   4.507  10.086  0.2660  0.5199 -0.2587
  142MPD2    H5 2173   4.628   4.575  10.132 -0.4628  0.7633  0.3243
  142MPD2    N1 2174   4.489   4.022  10.051 -0.5290  0.5306  0.0352
  142MPD2    H7 2175   4.524   3.928  10.065  0.9879  0.8467 -1.7138
  143TCq2    C1 2176   4.463   4.552   9.998  0.5257 -0.0794 -0.4193
  143TCq2    O2 2177   4.386   4.489   9.929 -0.0120 -0.4684 -0.6831
  143TCq2    C2 2178   4.464   4.690   9.977 -0.0795  0.3971  0.4522
  143TCq2    C3 2179   4.579   0.032   9.979 -0.3892 -0.1575  0.4841
  143TCq2    C4 2180   4.579   0.152   9.917 -0.5540 -0.1139  0.8626
  143TCq2    C5 2181   4.472   0.197   9.833  0.2581 -0.7065  0.3226
  143TCq2    C6 2182   4.358   0.121   9.835 -0.4902  0.7256 -0.5943
  143TCq2    C7 2183   4.359   4.725   9.903  0.4611  0.0065 -0.8603
  143TCq2    C8 2184   4.237   0.149   9.765 -0.8887 -0.3847 -0.1987
  143TCq2    O4 2185   4.189   0.050   9.709  0.1608 -0.5432  0.0316
  143TCq2    C9 2186   4.707   0.225   9.912 -0.1639 -0.1530  0.1759
  143TCq2    O5 2187   0.088   0.169   9.946 -0.0105 -0.6338 -0.9256
  143TCq2    O6 2188   4.711   0.333   9.854  0.6266 -0.3189  0.0814
  143TCq2    H2 2189   4.675   0.008  10.025 -1.4716  0.8908  3.2958
  143TCq2    H3 2190   4.486   0.292   9.782  0.0480 -1.0904 -0.4447
  143TCq2    H4 2191   4.265   4.672   9.912  0.0319  0.8972 -0.1833
  144MPD2     C 2192   2.126   3.707   0.688 -0.0087  0.4271 -0.5932
  144MPD2    C1 2193   2.185   3.678   0.565 -0.0606 -0.0108  0.2069
  144MPD2    C2 2194   2.324   3.651   0.570 -0.3863  0.1769  0.5874
  144MPD2    C3 2195   2.390   3.632   0.689  0.2574 -0.2955 -0.6915
  144MPD2    C4 2196   2.324   3.640   0.807 -0.0306 -0.4190 -0.4478
  144MPD2    C5 2197   2.191   3.683   0.804 -0.4038  0.6641 -0.1623
  144MPD2     H 2198   2.370   3.637   0.472 -1.6366  0.5519 -0.0567
  144MPD2    H1 2199   2.375   3.619   0.900 -1.3497  0.1331  0.3925
  144MPD2    H2 2200   2.025   3.745   0.692  0.2199  1.0558 -0.7892
  144MPD2    H3 2201   2.147   3.693   0.903 -1.1196 -1.4993 -0.2571
  144MPD2     N 2202   2.530   3.600   0.686 -0.7132  0.2337  0.1752
  144MPD2    H5 2203   2.577   3.575   0.773 -0.1991 -0.8480 -0.4107
  144MPD2    N1 2204   2.124   3.679   0.441 -0.4551  0.6058 -0.0511
  144MPD2    H7 2205   2.179   3.654   0.359  0.8727  2.6142  0.2312
  145TCq2    C1 2206   2.615   3.614   0.577 -0.4502 -0.0115  0.6526
  145TCq2    O2 2207   2.590   3.644   0.462 -0.9793  0.8170  0.2633
  145TCq2    C2 2208   2.755   3.585   0.612 -0.1209 -0.1131  0.1084
  145TCq2    C3 2209   2.829   3.552   0.499 -0.7954  0.6525 -0.6779
  145TCq2    C4 2210   2.966   3.541   0.512  0.0839  0.7110 -0.3216
  145TCq2    C5 2211   3.024   3.543   0.630  0.0707  0.5791 -1.0718
  145TCq2    C6 2212   2.949   3.579   0.745 -0.1246  0.5174 -0.0372
  145TCq2    C7 2213   2.820   3.613   0.731 -0.3709  0.5176  0.0745
  145TCq2    C8 2214   3.015   3.544   0.871  0.0213 -0.1744  0.0349
  145TCq2    O4 2215   3.102   3.458   0.867  0.1090 -0.8572 -0.1565
  145TCq2    C9 2216   3.043   3.525   0.399 -0.7112  0.2230 -0.4734
  145TCq2    O5 2217   3.168   3.512   0.413  0.1189  0.0842 -0.1108
  145TCq2    O6 2218   2.983   3.509   0.291 -0.1642 -0.4262  0.0489
  145TCq2    H2 2219   2.789   3.540   0.398 -0.7997  2.6501 -0.9221
  145TCq2    H3 2220   3.131   3.523   0.638 -0.0360  0.6957  0.7192
  145TCq2    H4 2221   2.765   3.633   0.822 -1.8413  1.2229 -0.9789
  146TMC2    C1 2222   4.318   1.876  12.423 -0.1775 -0.0134  0.5202
  146TMC2    C2 2223   4.255   1.904  12.303 -0.0934  0.5163  0.0086
  146TMC2    C3 2224   4.306   1.849  12.191 -0.6669  0.2315 -0.2640
  146TMC2    C4 2225   4.415   1.790  12.440  1.2179 -0.1333 -0.5626
  146TMC2    C5 2226   4.467   1.740  12.319  1.1035  0.0525  0.4686
  146TMC2    C6 2227   4.418   1.771  12.202  0.5330 -0.6522  0.1927
  146TMC2     C 2228   4.247   1.915  12.547 -0.4305 -0.9696  0.0868
  146TMC2     O 2229   4.157   1.997  12.529  0.6113 -0.5914  0.4745
  146TMC2     H 2230   4.178   1.980  12.299  1.1427  1.7414 -0.5159
  146TMC2    H1 2231   4.476   1.797  12.529  0.9835  2.8904 -0.6396
  146TMC2    H2 2232   4.452   1.732  12.107 -0.1210 -1.4933  0.3053
  146TMC2    C7 2233   4.589   1.666  12.320 -0.6434 -0.4573 -0.1280
  146TMC2    C8 2234   4.278   1.921  12.072 -0.2362  0.8146  0.3370
  146TMC2    O1 2235   4.631   1.632  12.211 -0.4296  0.1517  0.2988
  146TMC2    O2 2236   4.323   2.036  12.073  0.0379 -0.2976  0.2431
  146TMC2    O5 2237   4.301   1.829  11.978 -0.8358 -0.2360 -0.3159
  146TMC2    H5 2238   4.246   1.748  11.972  0.1401 -0.7232 -2.7797
  147MPD2     C 2239   0.282   1.557  12.576 -0.4035 -0.0785  0.1192
  147MPD2    C1 2240   0.181   1.563  12.669  0.0684 -0.5488 -0.8745
  147MPD2    C2 2241   0.056   1.571  12.626 -0.1855  0.2650  0.0817
  147MPD2    C3 2242   0.025   1.583  12.487  0.2491  0.5842  0.4180
  147MPD2    C4 2243   0.126   1.575  12.394  0.0004  0.0363  0.0343
  147MPD2    C5 2244   0.257   1.556  12.438 -0.5102 -0.1798 -0.5265
  147MPD2     H 2245   4.699   1.572  12.696  0.8323 -1.1655  1.3006
  147MPD2    H1 2246   0.110   1.595  12.289 -0.8542 -0.5609  0.0568
  147MPD2    H2 2247   0.387   1.536  12.593 -0.0710  1.6577  0.2747
  147MPD2    H3 2248   0.336   1.553  12.365 -0.2765  0.5809 -0.3085
  147MPD2     N 2249   4.621   1.630  12.447  0.2179 -0.0833  0.3172
  147MPD2    H5 2250   4.553   1.654  12.519 -0.3705 -2.8419  0.6652
  147MPD2    N1 2251   0.212   1.556  12.810 -0.1589 -0.2111 -0.3270
  147MPD2    H7 2252   0.310   1.554  12.835 -0.2036 -0.6519 -0.1858
  148MPD2     C 2253   4.016   1.251  10.365 -0.2293  0.2810  0.3873
  148MPD2    C1 2254   4.043   1.144  10.449 -0.0088  0.3658 -0.3675
  148MPD2    C2 2255   4.059   1.023  10.389 -0.5676 -0.1555  0.2094
  148MPD2    C3 2256   4.040   1.009  10.250  0.3430 -0.4392 -0.2767
  148MPD2    C4 2257   4.012   1.113  10.168 -0.2874  0.1954 -0.0174
  148MPD2    C5 2258   4.008   1.232  10.228  0.1232  0.2558  0.1482
  148MPD2     H 2259   4.104   0.944  10.449 -0.3703 -1.0809 -1.1542
  148MPD2    H1 2260   3.984   1.088  10.066 -1.3944 -1.7680  0.7656
  148MPD2    H2 2261   4.028   1.353  10.400 -0.8668  0.8382 -1.0318
  148MPD2    H3 2262   3.989   1.320  10.166  0.6316  2.2049  2.7538
  148MPD2     N 2263   4.049   0.880  10.188 -0.3045 -0.4793  0.5830
  148MPD2    H5 2264   4.029   0.879  10.089  0.8445 -0.4687  0.3573
  148MPD2    N1 2265   4.080   1.157  10.581  0.1012  0.5323 -0.7621
  148MPD2    H7 2266   4.128   1.081  10.628 -2.1768  0.2272  1.1145
  149TCq2    C1 2267   4.075   1.281  10.653  0.6655  0.3555 -0.2352
  149TCq2    O2 2268   4.036   1.396  10.640  0.6734  0.3345 -0.2997
  149TCq2    C2 2269   4.147   1.254  10.779 -0.3867  0.3451  0.6732
  149TCq2    C3 2270   4.229   1.359  10.817 -0.1832 -0.0348 -0.7255
  149TCq2    C4 2271   4.318   1.342  10.917 -0.1790 -0.6106  0.3496
  149TCq2    C5 2272   4.341   1.217  10.965  0.3730 -0.0854 -0.7130
  149TCq2    C6 2273   4.261   1.117  10.924  0.3387  0.2728 -0.3329
  149TCq2    C7 2274   4.167   1.126  10.823  0.1454  0.2458  0.6204
  149TCq2    C8 2275   4.317   0.989  10.962 -0.9975  0.4657  0.5672
  149TCq2    O4 2276   4.426   0.992  11.014 -0.2300 -0.3221 -0.3228
  149TCq2    C9 2277   4.416   1.451  10.926 -0.0531  0.4556 -0.4981
  149TCq2    O5 2278   4.374   1.566  10.907 -0.1154  0.0247 -0.0186
  149TCq2    O6 2279   4.531   1.415  10.961 -0.0182 -0.2336  0.1338
  149TCq2    H2 2280   4.231   1.455  10.766 -0.3480  0.1955 -0.2990
  149TCq2    H3 2281   4.417   1.208  11.041  0.5310 -0.5437 -0.9229
  149TCq2    H4 2282   4.102   1.043  10.795  1.9318 -0.8577 -0.2647
  150MPD2     C 2283   1.102   0.186  12.040  0.8342  0.7180  0.5072
  150MPD2    C1 2284   1.175   0.289  11.985 -0.4561 -0.3858 -0.5709
  150MPD2    C2 2285   1.267   0.367  12.056  0.0944  0.0914 -0.0336
  150MPD2    C3 2286   1.289   0.329  12.188  0.1252  0.2369 -0.8233
  150MPD2    C4 2287   1.220   0.226  12.243 -0.1742  0.0681 -0.5516
  150MPD2    C5 2288   1.124   0.162  12.168 -0.6036 -0.3920 -0.0876
  150MPD2     H 2289   1.312   0.452  12.005  0.6482  0.3289  0.8633
  150MPD2    H1 2290   1.236   0.201  12.347 -5.1732 -1.0595 -0.0788
  150MPD2    H2 2291   1.028   0.139  11.977  0.3160  1.0470  0.8697
  150MPD2    H3 2292   1.068   0.091  12.229 -0.8985 -0.3864 -0.3511
  150MPD2     N 2293   1.384   0.409  12.260  0.3238 -0.0344  0.2942
  150MPD2    H5 2294   1.436   0.470  12.197  1.9060  1.0445  2.6570
  150MPD2    N1 2295   1.142   0.309  11.844 -0.3485 -0.4660 -0.4874
  150MPD2    H7 2296   1.059   0.272  11.798 -0.9786  2.8068 -2.0078
  151TCq2    C1 2297   1.439   0.390  12.384 -0.4417  0.1776  0.5648
  151TCq2    O2 2298   1.409   0.313  12.475  0.2399  0.1017 -0.2254
  151TCq2    C2 2299   1.554   0.475  12.412 -0.0299  0.4717 -0.0619
  151TCq2    C3 2300   1.587   0.585  12.338 -1.1679  0.1939  0.2372
  151TCq2    C4 2301   1.668   0.683  12.386 -0.4128  0.1221 -0.1061
  151TCq2    C5 2302   1.725   0.672  12.512  0.9577 -0.3227  0.9869
  151TCq2    C6 2303   1.698   0.559  12.579 -0.5621  0.6718  0.5720
  151TCq2    C7 2304   1.613   0.462  12.532 -0.1732 -0.5614 -1.2993
  151TCq2    C8 2305   1.796   0.530  12.687  0.0272  0.4347  0.0054
  151TCq2    O4 2306   1.851   0.633  12.728  0.2554  0.4059 -0.2030
  151TCq2    C9 2307   1.678   0.805  12.308  0.2286  0.2815  0.0736
  151TCq2    O5 2308   1.704   0.905  12.376 -0.3765 -0.2937 -0.2567
  151TCq2    O6 2309   1.673   0.794  12.179  0.2179 -0.4373  0.0314
  151TCq2    H2 2310   1.539   0.605  12.243  2.0736  0.8517 -1.2638
  151TCq2    H3 2311   1.786   0.757  12.541 -0.8820  1.0497  0.8625
  151TCq2    H4 2312   1.588   0.372  12.587 -0.0554  1.1140  1.4810
  152MPD2     C 2313   0.913   4.256  12.865  0.3808  0.0044 -0.0470
  152MPD2    C1 2314   0.939   4.376  12.803  0.5540  0.2982 -0.0700
  152MPD2    C2 2315   0.850   4.419  12.710  0.1638 -0.0231  0.7919
  152MPD2    C3 2316   0.724   4.362  12.693  0.1070 -0.0027 -0.0617
  152MPD2    C4 2317   0.690   4.252  12.760  0.6754  0.4321 -0.5368
  152MPD2    C5 2318   0.784   4.198  12.846  0.0720 -0.6992  0.4558
  152MPD2     H 2319   0.889   4.495  12.643 -0.1529  1.6374  2.4772
  152MPD2    H1 2320   0.599   4.197  12.738  0.2131  0.5656  1.0812
  152MPD2    H2 2321   0.974   4.196  12.932 -0.9792 -1.7761 -0.4305
  152MPD2    H3 2322   0.758   4.113  12.908  0.8012 -1.2522  0.0028
  152MPD2     N 2323   0.628   4.420  12.605  0.1906  0.3071 -0.2015
  152MPD2    H5 2324   0.532   4.397  12.626  0.8061 -1.1774  0.9381
  152MPD2    N1 2325   1.060   4.443  12.823  0.2194  0.2167 -0.3425
  152MPD2    H7 2326   1.134   4.401  12.879  2.0465  0.8666 -2.2496
  153TCq2    C1 2327   1.094   4.569  12.776 -0.5318  0.1739 -0.6475
  153TCq2    O2 2328   1.028   4.658  12.721 -0.1713  0.2199 -0.4799
  153TCq2    C2 2329   1.230   4.600  12.802 -0.0167 -0.6311 -0.1120
  153TCq2    C3 2330   1.313   4.498  12.782  0.0586  0.3483 -1.0556
  153TCq2    C4 2331   1.446   4.527  12.763 -0.0740 -0.0790 -0.3869
  153TCq2    C5 2332   1.480   4.664  12.753 -0.1289  0.0589 -0.0886
  153TCq2    C6 2333   1.390   0.039  12.763 -0.7685 -0.1588  0.3621
  153TCq2    C7 2334   1.265   0.009  12.798  0.3051  0.6356  0.2868
  153TCq2    C8 2335   1.438   0.164  12.817 -1.1050 -0.1468 -0.0595
  153TCq2    O4 2336   1.357   0.247  12.848  0.1011  0.1802 -0.1339
  153TCq2    C9 2337   1.540   4.425  12.730  0.3671  0.3334 -0.3628
  153TCq2    O5 2338   1.517   4.308  12.775 -0.0765 -0.8984 -0.1141
  153TCq2    O6 2339   1.653   4.466  12.692  0.8366 -0.3402 -0.4068
  153TCq2    H2 2340   1.282   4.397  12.759  0.3900  0.1599 -0.6740
  153TCq2    H3 2341   1.582   4.686  12.723  0.3470  1.5553  2.6840
  153TCq2    H4 2342   1.195   0.091  12.811  1.7428  1.5183  2.4503
  154MPD2     C 2343   4.260   1.149   1.239  0.0177 -0.6663  0.4023
  154MPD2    C1 2344   4.138   1.214   1.229  0.8270 -0.4295 -0.2363
  154MPD2    C2 2345   4.038   1.173   1.317  1.0988 -0.0893 -0.5003
  154MPD2    C3 2346   4.060   1.081   1.413  0.3491  0.1274 -0.4267
  154MPD2    C4 2347   4.185   1.027   1.427  0.0760  1.1836 -0.3536
  154MPD2    C5 2348   4.287   1.059   1.338 -0.7056 -0.2631 -0.1611
  154MPD2     H 2349   3.946   1.230   1.317  0.7956 -0.5767 -3.8383
  154MPD2    H1 2350   4.216   0.973   1.515 -0.7114  1.3054 -0.0066
  154MPD2    H2 2351   4.340   1.172   1.169  0.1259  1.5531  1.2758
  154MPD2    H3 2352   4.387   1.020   1.356 -0.4007  0.1449 -0.9318
  154MPD2     N 2353   3.951   1.049   1.492  0.1100 -0.2187  0.5203
  154MPD2    H5 2354   3.864   1.087   1.457 -0.3999 -0.0482  1.9710
  154MPD2    N1 2355   4.124   1.318   1.125 -0.6488 -0.0527  0.5565
  154MPD2    H7 2356   4.207   1.330   1.068  0.3845  0.0714  2.0843
  155TCq2    C1 2357   4.013   1.395   1.090  0.4069 -0.2188  0.1185
  155TCq2    O2 2358   3.900   1.381   1.139  0.5906 -0.0281 -0.2252
  155TCq2    C2 2359   4.025   1.496   0.976 -0.0246  0.6813  0.6165
  155TCq2    C3 2360   3.903   1.550   0.937  0.0215  0.2538 -1.2622
  155TCq2    C4 2361   3.910   1.652   0.845  0.0118  0.3520  0.3324
  155TCq2    C5 2362   4.035   1.691   0.798  0.6712  0.2566 -0.2682
  155TCq2    C6 2363   4.147   1.629   0.838 -0.1569  0.2319 -0.8034
  155TCq2    C7 2364   4.145   1.529   0.932 -0.1457 -0.0179 -0.4240
  155TCq2    C8 2365   4.278   1.683   0.808 -0.5286  0.2644 -0.5221
  155TCq2    O4 2366   4.372   1.602   0.799  0.0569 -0.0872  0.2743
  155TCq2    C9 2367   3.796   1.718   0.800 -0.4897  0.0316  0.6615
  155TCq2    O5 2368   3.692   1.659   0.831 -0.2085 -0.5190 -0.0606
  155TCq2    O6 2369   3.808   1.814   0.722 -0.2464 -0.1002 -0.1269
  155TCq2    H2 2370   3.802   1.530   0.972 -0.6466  1.7445 -2.3244
  155TCq2    H3 2371   4.034   1.756   0.712  0.3923  0.5381 -0.0545
  155TCq2    H4 2372   4.238   1.484   0.964  0.0195  0.4318 -0.2731
  156MPD2     C 2373   2.096   2.300  12.121 -0.4525 -0.6529  0.4175
  156MPD2    C1 2374   2.033   2.405  12.055 -0.1174 -0.4851 -0.4943
  156MPD2    C2 2375   1.909   2.445  12.096 -0.1522 -0.4649  0.0153
  156MPD2    C3 2376   1.834   2.368  12.181  1.2177  0.2497  0.1680
  156MPD2    C4 2377   1.898   2.269  12.253  0.5361 -0.5682  0.5008
  156MPD2    C5 2378   2.027   2.232  12.221  0.4792 -0.1160  0.1671
  156MPD2     H 2379   1.868   2.532  12.046  0.9971  0.8109  1.2848
  156MPD2    H1 2380   1.856   2.223  12.341  1.9206 -2.6816  0.0477
  156MPD2    H2 2381   2.200   2.277  12.106  0.2963  1.9907  1.4482
  156MPD2    H3 2382   2.074   2.157  12.284  1.4292  0.3928  0.0620
  156MPD2     N 2383   1.697   2.405  12.209 -0.1896 -0.1000 -1.0394
  156MPD2    H5 2384   1.652   2.347  12.279 -1.4793 -0.5903 -2.2810
  156MPD2    N1 2385   2.108   2.460  11.945  0.0550 -0.5332  0.1319
  156MPD2    H7 2386   2.192   2.408  11.922  0.8253  0.0359  1.7045
  157TCq2    C1 2387   2.056   2.549  11.855  0.3706  0.0024 -0.4520
  157TCq2    O2 2388   1.956   2.618  11.864 -0.3920  0.3918 -0.0793
  157TCq2    C2 2389   2.110   2.539  11.721 -0.2525 -0.3286 -0.0842
  157TCq2    C3 2390   2.245   2.538  11.682  0.4396 -0.0986 -0.3324
  157TCq2    C4 2391   2.283   2.584  11.562 -0.0132  0.2514  0.0074
  157TCq2    C5 2392   2.195   2.650  11.483 -0.3622  0.6296 -0.5355
  157TCq2    C6 2393   2.062   2.642  11.516  0.3130  0.2262 -0.3593
  157TCq2    C7 2394   2.018   2.586  11.635  0.2881  0.1287 -0.3607
  157TCq2    C8 2395   1.967   2.707  11.446  0.1211 -0.2460  0.3464
  157TCq2    O4 2396   1.995   2.821  11.407 -0.1498  0.2540 -0.1984
  157TCq2    C9 2397   2.410   2.555  11.510  0.8483 -0.7213 -0.7153
  157TCq2    O5 2398   2.444   2.622  11.411 -0.7858 -0.0378  0.2591
  157TCq2    O6 2399   2.472   2.459  11.557  0.2059 -0.2518  0.2573
  157TCq2    H2 2400   2.326   2.499  11.742 -0.1177  0.4508  0.7974
  157TCq2    H3 2401   2.235   2.689  11.390 -0.1338 -0.3470 -0.8535
  157TCq2    H4 2402   1.912   2.572  11.657  0.6991 -2.3214  0.0370
  158TMC2    C1 2403   1.781   1.170  13.531  0.0136 -0.0573  0.2491
  158TMC2    C2 2404   1.823   1.242  13.430 -0.0176  0.2769  0.3988
  158TMC2    C3 2405   1.717   1.315  13.379 -0.1629 -0.3430  0.8970
  158TMC2    C4 2406   1.653   1.142  13.575  0.0994  0.0497 -0.3012
  158TMC2    C5 2407   1.556   1.224  13.525  0.0275 -0.4334 -0.1984
  158TMC2    C6 2408   1.590   1.321  13.432  0.4916  0.2109 -0.3882
  158TMC2     C 2409   1.885   1.114  13.612 -0.1200 -0.3098  0.1791
  158TMC2     O 2410   1.991   1.081  13.564 -0.2521 -0.4874  0.4247
  158TMC2     H 2411   1.928   1.239  13.405  0.4312 -1.1653  2.4867
  158TMC2    H1 2412   1.627   1.054  13.633  0.2047  0.0939 -0.1869
  158TMC2    H2 2413   1.522   1.390  13.383 -2.0276 -1.0944  1.2696
  158TMC2    C7 2414   1.422   1.181  13.526  0.0818  0.5447  0.2465
  158TMC2    C8 2415   1.738   1.391  13.261 -0.4704 -0.1553 -0.2998
  158TMC2    O1 2416   1.338   1.238  13.454 -0.7434  0.2189 -0.2426
  158TMC2    O2 2417   1.678   1.495  13.241  0.1666 -0.4637 -0.2052
  158TMC2    O5 2418   1.855   1.357  13.209 -0.2316 -0.2326  0.5027
  158TMC2    H5 2419   1.862   1.259  13.209 -0.3399 -0.2400  0.0045
  159MPD2     C 2420   2.071   0.987  14.075 -0.9369 -0.2602  0.0493
  159MPD2    C1 2421   1.952   1.050  14.097 -0.5888 -0.1789 -0.9563
  159MPD2    C2 2422   1.880   1.088  13.983  0.2129 -0.8387  1.2603
  159MPD2    C3 2423   1.933   1.081  13.853  0.3778  0.3619  0.9241
  159MPD2    C4 2424   2.052   1.012  13.840 -0.2924 -1.0582 -0.5650
  159MPD2    C5 2425   2.124   0.978  13.947  0.4570  0.0872  0.2262
  159MPD2     H 2426   1.787   1.142  13.999  1.8086  2.2479  0.0823
  159MPD2    H1 2427   2.104   0.983  13.749 -2.3535 -0.9953 -1.7845
  159MPD2    H2 2428   2.129   0.948  14.158  0.4013  0.3180 -0.6075
  159MPD2    H3 2429   2.212   0.918  13.926  0.9546  0.8714  0.0627
  159MPD2     N 2430   1.849   1.117  13.742  0.2508  0.2752  0.4173
  159MPD2    H5 2431   1.760   1.160  13.762 -0.3399 -1.6458  1.8933
  159MPD2    N1 2432   1.900   1.063  14.228  0.0212 -0.5834 -0.4092
  159MPD2    H7 2433   1.946   1.007  14.299 -0.8749 -1.5583 -0.5807
  160TMC2    C1 2434   1.653   3.581   1.922  0.5913  0.2195  0.3916
  160TMC2    C2 2435   1.745   3.623   2.009 -0.3427  0.5431  0.2736
  160TMC2    C3 2436   1.805   3.733   1.966  0.6552  0.4367 -0.2702
  160TMC2    C4 2437   1.637   3.625   1.791 -0.5198 -0.1623 -0.7455
  160TMC2    C5 2438   1.703   3.732   1.746  0.2772 -0.3618  0.2363
  160TMC2    C6 2439   1.786   3.789   1.841  0.2177  0.7816 -0.0793
  160TMC2     C 2440   1.526   3.568   1.989  0.4775 -0.0361 -0.4244
  160TMC2     O 2441   1.520   3.523   2.104 -0.2188  0.0766 -0.5306
  160TMC2     H 2442   1.746   3.586   2.111  0.4886 -0.4969 -0.1068
  160TMC2    H1 2443   1.568   3.568   1.730  0.2621 -0.5457 -1.2760
  160TMC2    H2 2444   1.839   3.877   1.808  2.2758 -1.6843 -3.4032
  160TMC2    C7 2445   1.616   3.820   1.665 -0.2952 -0.1347 -0.7257
  160TMC2    C8 2446   1.904   3.798   2.051  0.3569  0.5326 -0.4874
  160TMC2    O1 2447   1.497   3.792   1.661  0.4669  0.4008  0.7875
  160TMC2    O2 2448   1.951   3.908   2.021  0.0760  0.3119 -0.0073
  160TMC2    O5 2449   1.969   3.709   2.122  0.2664  0.3603 -0.3548
  160TMC2    H5 2450   1.937   3.616   2.115  0.6400  0.0160  2.5520
  161MPD2     C 2451   1.248   3.635   2.078 -0.3815  0.2307 -0.1233
  161MPD2    C1 2452   1.315   3.689   1.970  0.1714 -0.3078 -0.0297
  161MPD2    C2 2453   1.252   3.789   1.899  0.0282 -0.8830  0.0273
  161MPD2    C3 2454   1.138   3.855   1.941 -0.4807  0.2377 -0.0597
  161MPD2    C4 2455   1.070   3.792   2.052 -0.6422  0.2911  0.4340
  161MPD2    C5 2456   1.126   3.683   2.113  0.5437 -0.1411  0.0784
  161MPD2     H 2457   1.289   3.826   1.804  0.1992 -4.1352 -1.1477
  161MPD2    H1 2458   0.977   3.835   2.086 -1.2645 -0.6468 -0.0778
  161MPD2    H2 2459   1.288   3.564   2.149  1.1853  0.2436 -0.9994
  161MPD2    H3 2460   1.080   3.658   2.208  0.2267 -0.4396 -0.1546
  161MPD2     N 2461   1.087   3.966   1.883  0.0895 -0.4262 -0.1334
  161MPD2    H5 2462   0.998   4.005   1.914  1.4241  0.1256  3.0233
  161MPD2    N1 2463   1.437   3.649   1.925  0.0477 -0.3255 -0.1813
  161MPD2    H7 2464   1.459   3.685   1.832  0.2905 -0.7332 -0.2819
  162TMC2    C1 2465   0.571   1.604   1.356 -0.3172  0.4563  0.7619
  162TMC2    C2 2466   0.498   1.714   1.327  0.0373 -0.0309  0.8626
  162TMC2    C3 2467   0.423   1.774   1.429  0.2080 -0.1308 -0.0787
  162TMC2    C4 2468   0.557   1.541   1.482  0.1127 -0.1108 -0.1530
  162TMC2    C5 2469   0.476   1.602   1.576 -0.2934  0.7521  0.6178
  162TMC2    C6 2470   0.409   1.719   1.556  0.6312  0.2553 -0.2000
  162TMC2     C 2471   0.619   1.533   1.241  0.6368 -0.0737  0.1699
  162TMC2     O 2472   0.580   1.556   1.128  0.2680  1.1441  0.5995
  162TMC2     H 2473   0.517   1.769   1.236  1.8614 -1.2922  0.4800
  162TMC2    H1 2474   0.611   1.450   1.504 -0.4142 -0.3401  0.1844
  162TMC2    H2 2475   0.346   1.765   1.631  1.5546 -0.7043  1.1551
  162TMC2    C7 2476   0.419   1.527   1.686 -0.3216 -0.1287  0.4961
  162TMC2    C8 2477   0.316   1.865   1.377  0.3357 -0.2773 -0.7362
  162TMC2    O1 2478   0.310   1.567   1.728  0.4676 -0.5461  0.6918
  162TMC2    O2 2479   0.250   1.937   1.451 -0.1208 -0.5174 -0.2954
  162TMC2    O5 2480   0.246   1.788   1.288 -0.4011  0.1438 -0.6358
  162TMC2    H5 2481   0.300   1.716   1.249 -0.6131 -1.6920  2.4548
  163MPD2     C 2482   0.937   1.152   1.072  0.3753  0.5839 -0.2273
  163MPD2    C1 2483   0.829   1.206   1.016 -0.5422  0.0116 -0.0374
  163MPD2    C2 2484   0.763   1.314   1.072 -0.0632 -0.2194  0.1655
  163MPD2    C3 2485   0.794   1.363   1.193  0.1424  0.2477 -0.4289
  163MPD2    C4 2486   0.910   1.310   1.252  0.1272  0.3625  0.2735
  163MPD2    C5 2487   0.982   1.210   1.188  0.9627  0.0555 -0.1790
  163MPD2     H 2488   0.672   1.357   1.030  1.4678  2.0867 -0.7631
  163MPD2    H1 2489   0.938   1.334   1.353  2.6561 -0.4217 -0.2339
  163MPD2    H2 2490   0.993   1.071   1.027  0.6551  2.2395 -2.8163
  163MPD2    H3 2491   1.059   1.153   1.241 -1.0130 -0.5055  2.0960
  163MPD2     N 2492   0.729   1.458   1.275  0.1354  0.7664 -0.3326
  163MPD2    H5 2493   0.769   1.475   1.366 -0.5305  1.8481 -0.2539
  163MPD2    N1 2494   0.774   1.150   0.895 -0.1990 -0.0938 -0.5056
  163MPD2    H7 2495   0.818   1.062   0.871 -0.3924 -0.5979  0.9906
  164TCq2    C1 2496   0.303   0.803  11.190  0.2481  0.0635 -0.1466
  164TCq2    O2 2497   0.277   0.759  11.301  0.4224  0.0544  0.4426
  164TCq2    C2 2498   0.272   0.944  11.166 -0.5468  0.1996  0.8632
  164TCq2    C3 2499   0.338   1.004  11.067  0.0723  0.4289  0.0531
  164TCq2    C4 2500   0.280   1.117  11.014  0.1916 -0.4371 -0.0227
  164TCq2    C5 2501   0.176   1.174  11.079 -0.1214  0.2871  0.0582
  164TCq2    C6 2502   0.120   1.117  11.189  0.0770  0.4330  0.4496
  164TCq2    C7 2503   0.173   1.003  11.245 -0.0217  0.5879 -0.2937
  164TCq2    C8 2504   0.001   1.193  11.246 -0.1567 -0.0338 -0.0421
  164TCq2    O4 2505   4.666   1.275  11.172  0.2040 -0.1721  0.2666
  164TCq2    C9 2506   0.343   1.182  10.898 -0.6030 -0.1277 -0.1246
  164TCq2    O5 2507   0.425   1.117  10.828 -0.2086 -0.7542 -0.6460
  164TCq2    O6 2508   0.309   1.300  10.875  0.5594 -0.1618 -0.6777
  164TCq2    H2 2509   0.431   0.965  11.027 -0.3790 -0.3332 -0.2402
  164TCq2    H3 2510   0.137   1.264  11.033 -0.0905  0.7635  0.9506
  164TCq2    H4 2511   0.129   0.951  11.329 -0.0479  1.1555  0.0475
  165MPD2     C 2512   0.810   3.216   2.577  0.5408  0.1321  0.1526
  165MPD2    C1 2513   0.855   3.191   2.449  0.4838  0.0400 -1.4742
  165MPD2    C2 2514   0.826   3.272   2.347 -1.2568 -0.3849  0.4075
  165MPD2    C3 2515   0.765   3.394   2.380  0.2951 -0.2461  0.0837
  165MPD2    C4 2516   0.714   3.420   2.502  0.1539 -0.3096  0.4879
  165MPD2    C5 2517   0.734   3.326   2.601 -1.6703 -0.4005  0.1495
  165MPD2     H 2518   0.844   3.247   2.243 -0.8492 -0.1016  0.4130
  165MPD2    H1 2519   0.655   3.508   2.526 -1.3633 -0.7656 -1.5383
  165MPD2    H2 2520   0.819   3.151   2.663 -0.1753  1.3288  1.1354
  165MPD2    H3 2521   0.686   3.335   2.698  1.4195  0.3723  1.5960
  165MPD2     N 2522   0.727   3.484   2.276  0.3913  0.1409 -0.1714
  165MPD2    H5 2523   0.684   3.570   2.306  0.3673 -0.0563  0.3531
  165MPD2    N1 2524   0.924   3.063   2.436 -0.6633 -0.3523  0.1239
  165MPD2    H7 2525   0.935   2.999   2.513  1.2137  1.3069  1.2367
  166TCq2    C1 2526   0.764   3.474   2.144  0.2554  0.5274 -0.4198
  166TCq2    O2 2527   0.791   3.374   2.081  0.0038  0.3099  0.0597
  166TCq2    C2 2528   0.738   3.599   2.069 -0.1731 -0.1383  0.5033
  166TCq2    C3 2529   0.677   3.704   2.126  0.0263  0.4041  0.2888
  166TCq2    C4 2530   0.681   3.815   2.050  0.2792  0.5333  0.4068
  166TCq2    C5 2531   0.723   3.822   1.921  0.7900  0.5939  0.2252
  166TCq2    C6 2532   0.766   3.707   1.861  0.1190  0.4296  0.8387
  166TCq2    C7 2533   0.784   3.597   1.937  0.1960  0.0007  0.5750
  166TCq2    C8 2534   0.871   3.715   1.767  0.1316 -0.0969 -0.2509
  166TCq2    O4 2535   0.967   3.639   1.780 -0.3256 -0.2232 -0.4610
  166TCq2    C9 2536   0.653   3.941   2.123  0.0599  0.4351 -0.3735
  166TCq2    O5 2537   0.647   3.923   2.248  0.1602  0.6227  0.0124
  166TCq2    O6 2538   0.693   4.046   2.066  0.1255 -0.2561 -0.5162
  166TCq2    H2 2539   0.628   3.714   2.222 -0.7618 -1.5612  0.0967
  166TCq2    H3 2540   0.731   3.916   1.867  1.0782 -0.1636 -1.0374
  166TCq2    H4 2541   0.824   3.507   1.892 -0.2312 -0.2235  0.6501
  167TMC2    C1 2542   4.281   1.052  12.795  1.1352  0.1562 -0.1123
  167TMC2    C2 2543   4.292   1.168  12.872 -0.6488 -0.3820 -0.1764
  167TMC2    C3 2544   4.380   1.153  12.978 -0.1324  0.4553  0.5250
  167TMC2    C4 2545   4.355   0.939  12.807 -0.1353  0.4283  0.0529
  167TMC2    C5 2546   4.450   0.933  12.904 -0.1854  0.7586 -0.5626
  167TMC2    C6 2547   4.464   1.044  12.992 -0.8181  0.1086 -0.0718
  167TMC2     C 2548   4.194   1.057  12.681 -0.3091  0.4609  0.9623
  167TMC2     O 2549   4.201   0.975  12.595  0.3871 -0.1591 -0.4971
  167TMC2     H 2550   4.248   1.265  12.852 -0.4448  0.1363  1.8127
  167TMC2    H1 2551   4.326   0.846  12.759 -1.1142 -0.0272  1.5396
  167TMC2    H2 2552   4.533   1.028  13.074 -1.7831 -0.5089  0.6175
  167TMC2    C7 2553   4.558   0.831  12.900 -0.4943 -0.3751  0.2433
  167TMC2    C8 2554   4.390   1.278  13.050 -0.0965  0.0135 -0.0530
  167TMC2    O1 2555   4.635   0.823  12.995 -0.1429 -0.3926 -0.1849
  167TMC2    O2 2556   4.298   1.359  13.059 -0.1408  0.7432  0.1704
  167TMC2    O5 2557   4.515   1.301  13.089 -0.1796  0.6799 -0.2445
  167TMC2    H5 2558   4.580   1.231  13.067 -0.7380  0.2464 -0.5300
  168MPD2     C 2559   3.920   1.293  12.636  0.3129 -0.2365  0.0314
  168MPD2    C1 2560   4.000   1.189  12.600 -0.2936 -0.3810 -1.3101
  168MPD2    C2 2561   3.979   1.127  12.479  0.4724  0.1986  0.5506
  168MPD2    C3 2562   3.856   1.144  12.420 -0.0787  0.3470  0.0532
  168MPD2    C4 2563   3.777   1.249  12.458  0.3363 -0.0096 -0.3800
  168MPD2    C5 2564   3.811   1.331  12.560 -0.4484  0.3126  0.6011
  168MPD2     H 2565   4.044   1.045  12.448  0.9096  0.1392  1.6502
  168MPD2    H1 2566   3.680   1.267  12.412  0.9885 -3.6001 -3.2240
  168MPD2    H2 2567   3.937   1.349  12.728  0.4699 -0.5750  0.2090
  168MPD2    H3 2568   3.753   1.419  12.586 -0.7064 -0.2571  1.9715
  168MPD2     N 2569   3.809   1.062  12.316 -0.0009  0.5067 -0.0441
  168MPD2    H5 2570   3.718   1.082  12.275  0.6632  2.0402 -0.7656
  168MPD2    N1 2571   4.106   1.161  12.686  0.1925 -0.0489  0.5790
  168MPD2    H7 2572   4.129   1.227  12.760  0.7192 -0.6974  0.9984
  169MPD1     C 2573   3.477   3.076   9.618  1.2895 -0.8132  0.1573
  169MPD1    C1 2574   3.363   3.002   9.647  0.4236 -0.5974  0.0436
  169MPD1    C2 2575   3.235   3.050   9.611  0.3241 -0.2769  0.3097
  169MPD1    C3 2576   3.224   3.176   9.551 -0.5756  0.6168  0.4833
  169MPD1    C4 2577   3.337   3.259   9.528 -0.3262 -0.1850  0.0470
  169MPD1    C5 2578   3.460   3.205   9.571 -0.0808  0.3687  0.5874
  169MPD1     H 2579   3.152   2.987   9.640  0.0857  1.0045  2.4499
  169MPD1    H1 2580   3.326   3.358   9.486 -2.2508  0.7596  2.7855
  169MPD1    H2 2581   3.576   3.034   9.632  1.7917  0.3851  0.2219
  169MPD1    H3 2582   3.552   3.259   9.553 -0.9215  1.8853  0.8027
  169MPD1     N 2583   3.103   3.231   9.503 -0.0031 -0.0281 -0.3702
  169MPD1    H5 2584   3.093   3.329   9.480 -1.0922  0.7113  3.1295
  169MPD1    N1 2585   3.373   2.868   9.688  0.2039  0.0545 -0.2775
  169MPD1    H6 2586   3.454   2.851   9.748 -1.6622  1.0773  2.5544
  169MPD1    H7 2587   3.287   2.832   9.730  1.2364  0.3793  2.1222
  170MPD1     C 2588   3.904   3.138  13.532 -1.1745 -0.3871  0.1342
  170MPD1    C1 2589   3.947   3.065  13.635 -0.0954 -0.0456 -0.1069
  170MPD1    C2 2590   4.089   3.066  13.655 -0.7200 -0.1153  0.3950
  170MPD1    C3 2591   4.177   3.127  13.560 -0.2494  0.1696 -1.1225
  170MPD1    C4 2592   4.122   3.197  13.450  0.1964 -0.7176  0.3360
  170MPD1    C5 2593   3.986   3.195  13.441  0.5238 -0.7987  0.0753
  170MPD1     H 2594   4.132   3.019  13.743  0.5356 -1.2350 -0.8042
  170MPD1    H1 2595   4.182   3.233  13.367 -1.3410 -1.2259 -1.0034
  170MPD1    H2 2596   3.800   3.123  13.505 -1.1895 -1.3812  0.7566
  170MPD1    H3 2597   3.941   3.245  13.356  3.6205 -0.8987 -1.6213
  170MPD1     N 2598   4.320   3.137  13.588 -0.6289  0.1013 -0.7361
  170MPD1    H5 2599   4.351   3.096  13.675  1.0635  1.5641 -0.6522
  170MPD1    N1 2600   3.860   2.981  13.700  0.1017  0.5510 -0.4461
  170MPD1    H6 2601   3.775   3.032  13.724  1.0981  1.5612  0.9485
  170MPD1    H7 2602   3.904   2.956  13.789 -3.1973  0.9166  1.3090
  171MPD1     C 2603   4.285   4.328  15.278  0.1274  0.2329  0.3117
  171MPD1    C1 2604   4.301   4.190  15.261 -0.4046 -0.3518  0.0583
  171MPD1    C2 2605   4.209   4.111  15.335  0.0692  0.2147  0.6644
  171MPD1    C3 2606   4.137   4.164  15.439 -1.0541  0.0983  0.2004
  171MPD1    C4 2607   4.131   4.300  15.456 -0.4722 -0.4530  0.5507
  171MPD1    C5 2608   4.203   4.379  15.374 -0.3981 -0.3862 -0.4227
  171MPD1     H 2609   4.208   4.007  15.304  0.8169  0.9005 -1.7019
  171MPD1    H1 2610   4.097   4.344  15.549 -1.9098 -0.1452 -0.1400
  171MPD1    H2 2611   4.325   4.400  15.207  0.9612 -0.6924 -0.1440
  171MPD1    H3 2612   4.201   4.487  15.385  1.6574 -0.3080 -0.7043
  171MPD1     N 2613   4.062   4.085  15.535  0.2535 -0.1345 -0.3892
  171MPD1    H5 2614   4.015   4.138  15.607  0.3905 -0.2651 -0.2042
  171MPD1    N1 2615   4.364   4.146  15.143  0.3556  0.4296 -0.4817
  171MPD1    H6 2616   4.388   4.047  15.144 -1.3905  0.0308  0.7295
  171MPD1    H7 2617   4.432   4.217  15.116 -0.9746  0.8700 -2.6410
  172MPD1     C 2618   2.591   3.998   0.111  0.3889  0.3483 -0.9139
  172MPD1    C1 2619   2.454   4.016   0.125  0.5590  0.0134 -0.3331
  172MPD1    C2 2620   2.409   4.019   0.254  0.4582  0.2450 -0.0936
  172MPD1    C3 2621   2.483   3.982   0.361 -0.3931  0.5178 -0.1639
  172MPD1    C4 2622   2.612   3.926   0.345  0.3136  0.2486 -0.1427
  172MPD1    C5 2623   2.665   3.944   0.218 -0.3326  0.0806  0.1722
  172MPD1     H 2624   2.318   4.073   0.275  1.6607  2.4021 -0.4259
  172MPD1    H1 2625   2.674   3.893   0.427  2.1556  0.5897 -1.3810
  172MPD1    H2 2626   2.650   4.026   0.024 -0.1023 -0.3102 -1.4545
  172MPD1    H3 2627   2.771   3.922   0.210 -0.1393  0.5978  1.4065
  172MPD1     N 2628   2.440   3.994   0.501  0.8699 -0.1046 -0.1265
  172MPD1    H5 2629   2.520   3.980   0.561  2.5019  1.3375 -1.9586
  172MPD1    N1 2630   2.379   4.063   0.014  0.0436  0.2087 -0.4188
  172MPD1    H6 2631   2.413   4.018  17.633 -0.1034  0.7423 -0.7602
  172MPD1    H7 2632   2.281   4.035   0.023  0.2781  0.0674  1.7799
  173MPD1     C 2633   4.092   3.530  14.451  0.3845 -0.1876  0.0640
  173MPD1    C1 2634   4.106   3.425  14.370 -0.4654 -0.0271 -0.3665
  173MPD1    C2 2635   4.038   3.309  14.406  0.7277 -0.5598 -0.1487
  173MPD1    C3 2636   3.949   3.298  14.515 -0.5663 -0.5469 -0.0605
  173MPD1    C4 2637   3.927   3.417  14.587  0.0053  0.4510 -0.0368
  173MPD1    C5 2638   3.990   3.529  14.547 -0.2693 -0.0424  0.1942
  173MPD1     H 2639   4.055   3.218  14.349 -1.4754 -0.1174 -1.4908
  173MPD1    H1 2640   3.868   3.425  14.678  2.1701  0.0230  1.4006
  173MPD1    H2 2641   4.138   3.623  14.419 -1.3601  0.5901 -0.1975
  173MPD1    H3 2642   3.974   3.625  14.594 -0.5208  0.6864 -1.3719
  173MPD1     N 2643   3.899   3.167  14.546  0.0808 -0.0399  0.5281
  173MPD1    H5 2644   3.927   3.099  14.475 -2.4548 -0.7544  0.2298
  173MPD1    N1 2645   4.192   3.432  14.259  0.7074 -0.3471  0.1537
  173MPD1    H6 2646   4.211   3.528  14.231 -2.4590  0.2655  0.0960
  173MPD1    H7 2647   4.144   3.380  14.186  0.1464  0.6898 -0.2186
  174MPD1     C 2648   4.117   2.523  14.060  0.1100  0.1298  0.2478
  174MPD1    C1 2649   4.032   2.458  14.143 -0.2600  0.3429 -0.0416
  174MPD1    C2 2650   3.977   2.530  14.254 -0.0004  0.7644 -0.0601
  174MPD1    C3 2651   4.004   2.658  14.272  0.0333  0.1644 -0.6097
  174MPD1    C4 2652   4.100   2.715  14.193  0.2391  0.2228  0.1796
  174MPD1    C5 2653   4.158   2.649  14.091  0.3733  0.9936  0.0399
  174MPD1     H 2654   3.902   2.478  14.313  0.4458  0.0126 -0.1431
  174MPD1    H1 2655   4.127   2.819  14.209 -0.9013  1.0831 -3.2792
  174MPD1    H2 2656   4.173   2.481  13.977 -0.5582 -0.2377 -0.0110
  174MPD1    H3 2657   4.230   2.706  14.032  0.9387 -0.4283 -0.6305
  174MPD1     N 2658   3.946   2.737  14.371  0.2528  0.1973 -0.4435
  174MPD1    H5 2659   3.983   2.831  14.385  0.3159  0.2077 -0.6748
  174MPD1    N1 2660   3.984   2.330  14.107 -0.1668 -0.7633 -0.4844
  174MPD1    H6 2661   3.947   2.276  14.185  0.1902 -0.5744 -0.1832
  174MPD1    H7 2662   4.045   2.260  14.064  1.5360  0.2830  0.2090
  175MPD1     C 2663   2.227   3.596  15.936  0.0580  0.5952 -0.3179
  175MPD1    C1 2664   2.364   3.579  15.952 -0.0170 -0.1427  0.5104
  175MPD1    C2 2665   2.439   3.663  16.035 -0.5346  0.2677  0.0503
  175MPD1    C3 2666   2.367   3.755  16.114  0.5086  0.4876 -0.7370
  175MPD1    C4 2667   2.229   3.761  16.106 -0.0086 -0.2100 -0.3363
  175MPD1    C5 2668   2.163   3.684  16.018 -0.4317  0.0880 -0.1144
  175MPD1     H 2669   2.548   3.662  16.030 -0.5516 -0.0025 -0.2689
  175MPD1    H1 2670   2.174   3.834  16.165 -0.2346 -0.9384  0.3529
  175MPD1    H2 2671   2.167   3.541  15.864 -0.7788 -0.4145  1.1611
  175MPD1    H3 2672   2.055   3.681  16.027 -0.2597 -1.0202  1.6992
  175MPD1     N 2673   2.423   3.858  16.195 -0.3470 -0.2518 -0.2043
  175MPD1    H5 2674   2.354   3.922  16.233  1.9115  3.1672 -1.9435
  175MPD1    N1 2675   2.434   3.491  15.868 -0.4496  0.0464  0.8903
  175MPD1    H6 2676   2.378   3.414  15.833  0.4900 -0.3719  0.3151
  175MPD1    H7 2677   2.520   3.449  15.901 -0.5759 -0.6207  0.3548
  176MPD1     C 2678   0.428   2.560   0.953 -0.2601  0.3004 -1.0780
  176MPD1    C1 2679   0.417   2.696   0.924 -0.5501 -0.1660 -0.0463
  176MPD1    C2 2680   0.381   2.734   0.800 -0.3319  0.1795 -0.2813
  176MPD1    C3 2681   0.344   2.645   0.699  0.5396 -0.6528 -0.8958
  176MPD1    C4 2682   0.357   2.507   0.726  0.2905  0.1637 -0.6425
  176MPD1    C5 2683   0.404   2.468   0.858 -0.0773 -0.3359  0.5351
  176MPD1     H 2684   0.371   2.841   0.796  1.6460  0.3104 -1.5736
  176MPD1    H1 2685   0.337   2.430   0.652 -1.4310  1.3833 -1.4447
  176MPD1    H2 2686   0.459   2.525   1.051 -2.2659  1.3721 -0.0621
  176MPD1    H3 2687   0.425   2.364   0.878 -0.2614 -0.9481 -2.3960
  176MPD1     N 2688   0.289   2.687   0.572  0.4603  0.2256 -0.3477
  176MPD1    H5 2689   0.255   2.782   0.562  2.3535  0.9838  0.4315
  176MPD1    N1 2690   0.426   2.783   1.032  0.1367  0.5841  0.5460
  176MPD1    H6 2691   0.498   2.750   1.096  0.9339 -0.7045 -1.0239
  176MPD1    H7 2692   0.449   2.879   1.006 -0.8333  0.7335  0.2356
  177MPD1     C 2693   2.744   2.031  10.025  0.8069 -0.3500  0.2980
  177MPD1    C1 2694   2.717   1.899   9.990  0.0156  0.5024 -0.3675
  177MPD1    C2 2695   2.609   1.876   9.914 -0.1991 -0.0851 -0.4813
  177MPD1    C3 2696   2.545   1.976   9.848  0.0195  0.4715  0.2485
  177MPD1    C4 2697   2.590   2.106   9.869 -0.4338  0.2136 -0.0620
  177MPD1    C5 2698   2.669   2.132   9.975 -0.6380  0.3830  0.7965
  177MPD1     H 2699   2.573   1.777   9.888 -0.3961 -0.6422  1.9029
  177MPD1    H1 2700   2.535   2.184   9.818 -0.5334  0.1347 -0.0747
  177MPD1    H2 2701   2.822   2.065  10.093 -0.2207  2.3275  0.1119
  177MPD1    H3 2702   2.699   2.232  10.007 -1.0098  0.9882 -0.7568
  177MPD1     N 2703   2.438   1.943   9.767 -0.0942 -0.0145 -0.4500
  177MPD1    H5 2704   2.407   1.847   9.772 -0.3304  0.0805 -0.0960
  177MPD1    N1 2705   2.791   1.789  10.041  0.5219  0.0955 -0.5673
  177MPD1    H6 2706   2.889   1.810  10.060  0.6239  0.4305 -1.4472
  177MPD1    H7 2707   2.792   1.716   9.971  1.2607 -1.9749  1.6102
  178MPD1     C 2708   0.400   2.107   0.684  0.1315 -0.2366 -0.3065
  178MPD1    C1 2709   0.336   2.012   0.606  0.1194  0.6127 -0.8804
  178MPD1    C2 2710   0.339   2.035   0.467  0.2045 -0.5953  0.2046
  178MPD1    C3 2711   0.410   2.135   0.408 -0.1987  1.1129  0.6795
  178MPD1    C4 2712   0.480   2.222   0.490 -0.0103  0.4085 -0.1209
  178MPD1    C5 2713   0.468   2.208   0.632 -0.0004 -0.5991  0.1379
  178MPD1     H 2714   0.287   1.960   0.409 -1.9495  0.7701  0.3662
  178MPD1    H1 2715   0.540   2.302   0.448  1.7312 -0.7339  0.1893
  178MPD1    H2 2716   0.389   2.108   0.792 -1.1464 -0.7880 -0.4335
  178MPD1    H3 2717   0.525   2.272   0.699  0.2361 -2.0021  1.2904
  178MPD1     N 2718   0.429   2.144   0.270  0.1772 -0.5452  0.1378
  178MPD1    H5 2719   0.510   2.201   0.249  1.3964 -1.9148  1.0859
  178MPD1    N1 2720   0.251   1.919   0.664 -0.2032  0.0035  0.0547
  178MPD1    H6 2721   0.286   1.889   0.754 -0.9473 -0.1605  0.2946
  178MPD1    H7 2722   0.242   1.841   0.599 -1.6861 -1.2816  1.8005
  179MPD1     C 2723   4.444   0.720  15.489 -0.0661  0.0446  0.7091
  179MPD1    C1 2724   4.340   0.642  15.437  0.5548 -0.2705  0.1080
  179MPD1    C2 2725   4.283   0.555  15.531 -0.5747  0.2828  0.0661
  179MPD1    C3 2726   4.336   0.531  15.658 -0.8657  0.5002 -0.3599
  179MPD1    C4 2727   4.422   0.623  15.708 -0.0236 -0.1071 -0.3418
  179MPD1    C5 2728   4.481   0.713  15.619  0.8097 -0.4370  0.7260
  179MPD1     H 2729   4.204   0.488  15.500  0.0075  0.5904 -2.0969
  179MPD1    H1 2730   4.445   0.608  15.812 -1.0455  0.1984 -0.0702
  179MPD1    H2 2731   4.513   0.780  15.431 -1.6883 -0.3075 -1.5505
  179MPD1    H3 2732   4.560   0.775  15.659  1.2769  0.5726 -1.8123
  179MPD1     N 2733   4.307   0.414  15.742 -0.2761  0.6924  0.1030
  179MPD1    H5 2734   4.352   0.402  15.832  1.9805 -0.6137 -1.1929
  179MPD1    N1 2735   4.297   0.644  15.300  0.2549 -0.3413 -1.1985
  179MPD1    H6 2736   4.202   0.615  15.274 -0.9805  0.2683  2.6668
  179MPD1    H7 2737   4.320   0.729  15.248 -0.7138  2.1292  2.4059
  180MPD1     C 2738   0.581   2.331  14.782  0.1047 -0.0075 -0.7214
  180MPD1    C1 2739   0.497   2.363  14.678 -0.0337 -0.1906  0.5016
  180MPD1    C2 2740   0.419   2.266  14.619 -0.1880  0.5694  0.3609
  180MPD1    C3 2741   0.407   2.140  14.674 -0.3993 -0.4501  1.0533
  180MPD1    C4 2742   0.481   2.114  14.790  0.7570 -0.2796 -0.0770
  180MPD1    C5 2743   0.566   2.206  14.842 -0.2156  0.5734 -0.6737
  180MPD1     H 2744   0.363   2.291  14.530 -0.4890 -1.1321  0.0629
  180MPD1    H1 2745   0.476   2.021  14.844  2.3475 -0.0083  0.5449
  180MPD1    H2 2746   0.656   2.403  14.812 -1.1499  1.0209 -0.0576
  180MPD1    H3 2747   0.634   2.173  14.919 -0.3799  0.9154 -0.3799
  180MPD1     N 2748   0.326   2.045  14.616  0.1798  0.1376  0.4332
  180MPD1    H5 2749   0.278   2.073  14.531  1.3274 -0.0849 -0.2781
  180MPD1    N1 2750   0.517   2.482  14.606  0.1181  0.4623  0.4349
  180MPD1    H6 2751   0.532   2.563  14.666  0.8718  0.9610 -0.4102
  180MPD1    H7 2752   0.458   2.506  14.526  0.1785  0.8210  0.4977
  181MPD1     C 2753   1.631   4.323  10.146  0.9146  0.2830 -0.6339
  181MPD1    C1 2754   1.546   4.234  10.088 -0.1210 -0.3708 -0.3795
  181MPD1    C2 2755   1.614   4.123  10.028  0.1217  0.7695  0.2672
  181MPD1    C3 2756   1.747   4.106  10.018 -0.4645  0.2831  0.2313
  181MPD1    C4 2757   1.821   4.201  10.072 -0.1627  0.2276  0.0852
  181MPD1    C5 2758   1.763   4.305  10.135  0.2519 -0.1630 -0.3823
  181MPD1     H 2759   1.553   4.049   9.977 -0.0040 -0.0961  1.6802
  181MPD1    H1 2760   1.929   4.197  10.082 -0.1658 -0.6896 -0.2728
  181MPD1    H2 2761   1.604   4.403  10.215 -1.3767 -1.3743  0.3859
  181MPD1    H3 2762   1.825   4.364  10.202  0.8416  0.8663 -1.8413
  181MPD1     N 2763   1.816   4.000   9.959  0.0021 -0.9980 -0.3472
  181MPD1    H5 2764   1.916   4.013   9.946  0.0577 -1.7297 -0.6781
  181MPD1    N1 2765   1.408   4.228  10.107  0.1431  0.3865  0.4909
  181MPD1    H6 2766   1.374   4.181  10.023 -2.1087  0.1021  1.5792
  181MPD1    H7 2767   1.364   4.319  10.119 -0.9570 -0.2315  1.0952
  182MPD1     C 2768   2.022   2.500   1.708 -0.5326 -0.3452 -0.3582
  182MPD1    C1 2769   2.139   2.465   1.636 -0.1129  0.2892 -0.1069
  182MPD1    C2 2770   2.148   2.520   1.508 -0.2252 -0.2548 -0.0448
  182MPD1    C3 2771   2.042   2.581   1.443  0.3516  0.4963 -0.0656
  182MPD1    C4 2772   1.937   2.628   1.517  0.2557 -0.2931  0.5209
  182MPD1    C5 2773   1.934   2.588   1.648  0.3100  0.0510  0.0375
  182MPD1     H 2774   2.240   2.510   1.452 -1.1130 -1.0520 -1.3441
  182MPD1    H1 2775   1.858   2.696   1.487  1.5588  1.4756  1.1100
  182MPD1    H2 2776   2.006   2.468   1.811  3.2679 -2.1918 -0.3265
  182MPD1    H3 2777   1.856   2.631   1.709  0.5879 -0.6423  0.8880
  182MPD1     N 2778   2.051   2.628   1.311 -0.2232 -0.6352 -0.4451
  182MPD1    H5 2779   1.977   2.689   1.280  0.8979  1.7400  1.5272
  182MPD1    N1 2780   2.250   2.404   1.704  0.9564  0.2190  0.0139
  182MPD1    H6 2781   2.221   2.346   1.783 -0.6743  0.9029 -0.0814
  182MPD1    H7 2782   2.306   2.348   1.640  1.6553  0.1958  0.6546
  183MPD1     C 2783   1.649   1.756   8.986 -0.5850  0.1871  0.6493
  183MPD1    C1 2784   1.563   1.860   8.981  0.2653  0.6160  0.0658
  183MPD1    C2 2785   1.610   1.991   8.977 -1.2986 -0.3544  1.1283
  183MPD1    C3 2786   1.745   2.020   8.996 -0.4012 -0.6032  0.0575
  183MPD1    C4 2787   1.836   1.911   8.995 -0.7333  0.3381 -0.4916
  183MPD1    C5 2788   1.784   1.782   9.000 -0.4910  0.1002  0.5367
  183MPD1     H 2789   1.540   2.074   8.969  1.1637  1.5729 -0.4442
  183MPD1    H1 2790   1.945   1.916   8.997 -0.6491 -1.3601 -1.1760
  183MPD1    H2 2791   1.619   1.652   8.983  1.0029 -0.2759  0.5590
  183MPD1    H3 2792   1.842   1.693   9.023  1.1238  1.1046  0.2954
  183MPD1     N 2793   1.781   2.158   9.021  0.2570  0.5029  0.1028
  183MPD1    H5 2794   1.714   2.235   9.017 -1.1405 -0.8017 -1.4327
  183MPD1    N1 2795   1.431   1.829   8.932 -0.6961  0.2310  0.4409
  183MPD1    H6 2796   1.362   1.900   8.957 -0.7886  0.0364  0.7326
  183MPD1    H7 2797   1.393   1.742   8.968  0.0388 -0.1867  0.2214
  184MPD1     C 2798   2.292   0.617   9.923 -0.7078 -0.1347  0.5814
  184MPD1    C1 2799   2.192   0.615   9.829 -0.3033  0.4996 -0.6235
  184MPD1    C2 2800   2.132   0.737   9.803 -0.5528 -0.2365  0.0446
  184MPD1    C3 2801   2.165   0.857   9.870 -0.0762  0.4261 -0.0190
  184MPD1    C4 2802   2.276   0.850   9.956  0.5059  0.1866 -0.1953
  184MPD1    C5 2803   2.338   0.729   9.984 -0.1327  0.6264 -0.0415
  184MPD1     H 2804   2.042   0.737   9.741  0.6464  1.0251 -1.7084
  184MPD1    H1 2805   2.306   0.943  10.003 -2.0242  0.9144 -0.0147
  184MPD1    H2 2806   2.341   0.523   9.947 -1.0589 -0.1561  1.2240
  184MPD1    H3 2807   2.423   0.717  10.050  0.4131  0.1380 -0.8336
  184MPD1     N 2808   2.101   0.983   9.844  0.5154 -0.1085 -0.8727
  184MPD1    H5 2809   2.136   1.057   9.905  0.7841  0.0362 -1.2010
  184MPD1    N1 2810   2.144   0.496   9.771 -0.2885  0.3520  0.3945
  184MPD1    H6 2811   2.093   0.510   9.684 -0.7664 -1.2822  0.4087
  184MPD1    H7 2812   2.214   0.425   9.753  0.6511  1.8347 -1.8494
  185MPD1     C 2813   1.144   0.984   9.707  0.0437 -0.2533  0.3157
  185MPD1    C1 2814   1.157   1.118   9.712  0.5149 -0.3777 -0.3759
  185MPD1    C2 2815   1.278   1.182   9.733  0.4170  0.6328 -0.4137
  185MPD1    C3 2816   1.378   1.099   9.782  0.4335 -0.2323  0.7681
  185MPD1    C4 2817   1.355   0.963   9.797 -0.6738 -0.0827 -0.1089
  185MPD1    C5 2818   1.241   0.904   9.759 -0.1315  0.9566 -0.3030
  185MPD1     H 2819   1.286   1.286   9.707  1.6554  1.5218  3.4702
  185MPD1    H1 2820   1.432   0.902   9.843 -0.0249  0.6606 -0.2131
  185MPD1    H2 2821   1.061   0.927   9.666 -0.0083  0.1495 -0.1437
  185MPD1    H3 2822   1.226   0.798   9.777 -1.1293  1.5362  2.1750
  185MPD1     N 2823   1.520   1.133   9.800 -0.0583 -0.0390 -0.3445
  185MPD1    H5 2824   1.582   1.059   9.832  0.4792 -0.6228 -2.7227
  185MPD1    N1 2825   1.048   1.192   9.659 -0.1177 -0.2569 -0.2220
  185MPD1    H6 2826   1.055   1.282   9.707  0.9522 -1.4515  1.8591
  185MPD1    H7 2827   0.961   1.146   9.685  0.0661 -1.1117 -1.1375
  186MPD1     C 2828   0.731   0.309  15.752 -0.0646  0.2959  0.3357
  186MPD1    C1 2829   0.679   0.251  15.864  0.2320  0.0521  0.2748
  186MPD1    C2 2830   0.610   0.337  15.954  0.4174 -0.6089 -0.9394
  186MPD1    C3 2831   0.592   0.472  15.925  0.6366  1.0261 -0.2735
  186MPD1    C4 2832   0.632   0.518  15.803 -0.7926 -0.2662  0.0842
  186MPD1    C5 2833   0.694   0.433  15.710 -0.1501  0.2747  0.9600
  186MPD1     H 2834   0.572   0.294  16.046 -1.2169  2.5718 -0.1427
  186MPD1    H1 2835   0.619   0.622  15.774 -0.8580 -0.4732 -0.6393
  186MPD1    H2 2836   0.784   0.247  15.680 -1.3532 -0.2483 -0.1634
  186MPD1    H3 2837   0.728   0.476  15.616 -0.7556 -1.0932  0.1148
  186MPD1     N 2838   0.530   0.562  16.011 -0.1807 -0.5993 -1.1595
  186MPD1    H5 2839   0.528   0.658  15.978  0.9516 -0.6232 -1.3093
  186MPD1    N1 2840   0.712   0.117  15.892  0.0318 -0.3208  0.1129
  186MPD1    H6 2841   0.659   0.075  15.969  0.8181 -1.8807 -0.2064
  186MPD1    H7 2842   0.702   0.062  15.807  1.0842 -1.6343  0.8327
  187MPD1     C 2843   4.549   3.465   0.206  0.0819  0.6758 -0.2939
  187MPD1    C1 2844   4.561   3.336   0.247 -0.3663  0.1646  0.0420
  187MPD1    C2 2845   4.547   3.237   0.153 -0.0698  0.5478  0.4252
  187MPD1    C3 2846   4.514   3.263   0.020  0.5316 -0.9792 -0.5295
  187MPD1    C4 2847   4.498   3.393  17.686 -0.6264  0.6725  0.6796
  187MPD1    C5 2848   4.508   3.494   0.076  0.5890  0.2703  0.7967
  187MPD1     H 2849   4.557   3.133   0.183  2.1228  0.9102  0.9511
  187MPD1    H1 2850   4.484   3.403  17.579 -1.2063  0.6704  0.7554
  187MPD1    H2 2851   4.562   3.541   0.283 -0.2330  3.0780 -2.6210
  187MPD1    H3 2852   4.485   3.598   0.053 -1.8298 -0.0812  1.6707
  187MPD1     N 2853   4.499   3.152  17.636  0.0167  0.0128 -0.4350
  187MPD1    H5 2854   4.487   3.185  17.540  1.2182 -0.0230 -0.6009
  187MPD1    N1 2855   4.613   3.308   0.372 -0.4305  0.2007  0.1240
  187MPD1    H6 2856   4.584   3.379   0.439 -3.0355 -1.9614  1.3032
  187MPD1    H7 2857   4.588   3.219   0.415  0.2912 -0.5521 -1.0419
  188MPD1     C 2858   3.514   2.255   9.992  0.1694 -0.2417 -0.5327
  188MPD1    C1 2859   3.477   2.141   9.923 -0.5182 -0.3307  0.5720
  188MPD1    C2 2860   3.573   2.043   9.917 -0.2037 -0.1321 -0.0465
  188MPD1    C3 2861   3.683   2.037  10.004  0.5581  0.6736  0.1887
  188MPD1    C4 2862   3.702   2.143  10.089 -0.4063 -0.3040 -0.1988
  188MPD1    C5 2863   3.621   2.255  10.073  0.6449  0.4915 -0.2329
  188MPD1     H 2864   3.557   1.963   9.845  1.4619  0.2766 -0.8609
  188MPD1    H1 2865   3.757   2.138  10.182  1.3070 -1.9137 -1.2876
  188MPD1    H2 2866   3.453   2.344  10.006  0.7931  0.4110 -2.0202
  188MPD1    H3 2867   3.631   2.333  10.148  2.1060  0.1206 -0.0523
  188MPD1     N 2868   3.765   1.920  10.007 -0.3573  0.2403  0.0541
  188MPD1    H5 2869   3.836   1.916  10.080  1.8902 -2.9018 -2.3280
  188MPD1    N1 2870   3.371   2.139   9.837 -0.2630 -0.5889  0.0314
  188MPD1    H6 2871   3.342   2.044   9.817 -0.8830 -0.8851  2.2897
  188MPD1    H7 2872   3.297   2.190   9.886  0.3939  0.7133 -0.3167
  189MPD1     C 2873   1.984   2.704  17.532 -0.0377 -0.0802  0.3810
  189MPD1    C1 2874   1.891   2.670  17.440  0.7887  0.3331 -0.1893
  189MPD1    C2 2875   1.769   2.617  17.479  0.5017  0.3302  0.3188
  189MPD1    C3 2876   1.751   2.584  17.612 -0.2291 -0.2431 -0.1842
  189MPD1    C4 2877   1.845   2.614  17.702 -0.0472  0.2885 -0.3895
  189MPD1    C5 2878   1.965   2.674  17.662 -0.1569 -0.1972  0.9704
  189MPD1     H 2879   1.684   2.599  17.414  2.8235 -0.1378 -2.5948
  189MPD1    H1 2880   1.816   2.618   0.102 -0.3418 -0.5803 -0.4398
  189MPD1    H2 2881   2.084   2.736  17.504 -1.5583  2.9940 -1.4352
  189MPD1    H3 2882   2.040   2.707   0.029  0.8032  1.2895 -0.7625
  189MPD1     N 2883   1.632   2.525  17.650 -0.4356  1.0625  0.8286
  189MPD1    H5 2884   1.551   2.541  17.592 -0.3590 -1.7020 -0.0527
  189MPD1    N1 2885   1.902   2.719  17.313 -0.2259  0.2770 -0.7452
  189MPD1    H6 2886   1.850   2.659  17.249 -1.8859  1.3190 -0.3713
  189MPD1    H7 2887   1.995   2.712  17.273 -0.1150 -5.9957  0.5791
  190MPD1     C 2888   4.174   1.315  15.024 -0.1905  0.0758 -0.4600
  190MPD1    C1 2889   4.086   1.337  15.130  0.4864 -0.2290 -0.4480
  190MPD1    C2 2890   4.121   1.412  15.240  0.4201  0.1333  0.0150
  190MPD1    C3 2891   4.250   1.451  15.265 -0.5197  0.3634 -0.5590
  190MPD1    C4 2892   4.335   1.406  15.169  0.0289 -0.2026  0.5573
  190MPD1    C5 2893   4.298   1.349  15.048  0.5586 -0.5199 -0.1086
  190MPD1     H 2894   4.047   1.450  15.310  0.1599 -0.0246 -0.1745
  190MPD1    H1 2895   4.440   1.432  15.185 -0.5930  0.8416  2.9467
  190MPD1    H2 2896   4.152   1.282  14.923  0.6414 -2.0485  0.0669
  190MPD1    H3 2897   4.364   1.320  14.968  0.8343 -1.8134  0.5958
  190MPD1     N 2898   4.280   1.524  15.383  0.5090  0.2906  0.3431
  190MPD1    H5 2899   4.208   1.559  15.445 -1.1510 -1.4316 -0.6170
  190MPD1    N1 2900   3.949   1.321  15.115  0.0230  0.5340  0.1486
  190MPD1    H6 2901   3.940   1.246  15.046  1.7146  1.3158 -0.9380
  190MPD1    H7 2902   3.892   1.306  15.197 -1.2612  0.2530 -0.7996
  191MPD1     C 2903   4.070   3.190  13.054  0.6589  0.0530  0.7008
  191MPD1    C1 2904   4.151   3.267  12.976 -0.1318  0.5832  0.2951
  191MPD1    C2 2905   4.085   3.354  12.889 -0.0822  0.2869 -0.4000
  191MPD1    C3 2906   3.951   3.378  12.902  0.3221 -0.0492  0.4760
  191MPD1    C4 2907   3.880   3.317  13.003 -0.3044  0.0625 -0.3634
  191MPD1    C5 2908   3.942   3.222  13.078 -0.3904 -0.0224  0.5998
  191MPD1     H 2909   4.144   3.397  12.809 -1.6190 -0.9523 -2.2041
  191MPD1    H1 2910   3.778   3.345  13.027 -0.4087 -0.7160  0.0729
  191MPD1    H2 2911   4.116   3.117  13.119 -0.9126  0.5318  2.3755
  191MPD1    H3 2912   3.886   3.163  13.149 -0.2000 -2.5182 -1.3578
  191MPD1     N 2913   3.898   3.475  12.817 -0.1687  0.0985  0.4990
  191MPD1    H5 2914   3.960   3.536  12.764  1.2160 -0.6484  1.2382
  191MPD1    N1 2915   4.286   3.226  12.951  0.7531  0.1291 -0.5358
  191MPD1    H6 2916   4.331   3.182  13.031  0.1506 -1.4034 -1.0392
  191MPD1    H7 2917   4.348   3.296  12.910 -0.3051  1.6044  0.3794
  192MPD1     C 2918   2.994   3.957  12.653 -0.7025 -0.1687 -0.1254
  192MPD1    C1 2919   3.112   4.025  12.627 -0.2208 -0.4533  0.2295
  192MPD1    C2 2920   3.226   3.957  12.604  0.2757 -0.0846  0.0891
  192MPD1    C3 2921   3.237   3.821  12.603 -0.0258  0.5222  0.5995
  192MPD1    C4 2922   3.120   3.749  12.628 -0.3035 -0.5464  0.3277
  192MPD1    C5 2923   3.006   3.816  12.656 -0.0175 -0.5040 -0.3843
  192MPD1     H 2924   3.311   4.021  12.582  0.7500 -0.3083  1.2734
  192MPD1    H1 2925   3.115   3.641  12.632 -2.1702 -0.4624 -0.1463
  192MPD1    H2 2926   2.904   4.009  12.682  0.7762  2.3085  0.0700
  192MPD1    H3 2927   2.916   3.760  12.678 -0.6751  1.0857  0.9908
  192MPD1     N 2928   3.364   3.748  12.594  0.5512  0.2929 -0.3772
  192MPD1    H5 2929   3.356   3.649  12.611  1.6433  0.5364  1.5694
  192MPD1    N1 2930   3.112   4.162  12.604 -0.6839 -1.1127 -0.2727
  192MPD1    H6 2931   3.035   4.208  12.653  0.6031  0.9730 -0.2165
  192MPD1    H7 2932   3.199   4.213  12.621 -0.4670 -0.7959 -2.3515
  193MPD1     C 2933   3.549   4.062  16.398  0.3126  0.2248 -0.5256
  193MPD1    C1 2934   3.507   4.143  16.503 -0.1110  0.6656  0.3920
  193MPD1    C2 2935   3.607   4.201  16.577 -0.2583 -0.1327  0.1846
  193MPD1    C3 2936   3.741   4.192  16.544  0.4750  0.2873  0.1789
  193MPD1    C4 2937   3.778   4.123  16.430  0.0115  0.0445  0.1345
  193MPD1    C5 2938   3.679   4.058  16.358  0.5958 -0.1628 -0.0328
  193MPD1     H 2939   3.568   4.259  16.659 -0.6457  0.4413 -0.4018
  193MPD1    H1 2940   3.882   4.117  16.400 -0.7260 -1.2548 -2.1476
  193MPD1    H2 2941   3.471   4.019  16.336 -0.3815  0.6649  0.0483
  193MPD1    H3 2942   3.694   4.015  16.260  2.5792 -0.2128  0.2856
  193MPD1     N 2943   3.847   4.243  16.622 -0.4464  0.4645 -0.2455
  193MPD1    H5 2944   3.941   4.227  16.585 -0.1576  2.5618 -0.4089
  193MPD1    N1 2945   3.371   4.131  16.548  0.0319  0.1081  0.0618
  193MPD1    H6 2946   3.347   4.220  16.591  0.4064 -0.4415  1.3938
  193MPD1    H7 2947   3.312   4.127  16.466 -0.9775 -2.2929  0.9091
  194MPD1     C 2948   2.380   1.622  17.149 -0.3008  0.4176 -0.2545
  194MPD1    C1 2949   2.350   1.565  17.270 -0.3277  0.1586 -0.3184
  194MPD1    C2 2950   2.244   1.488  17.283  0.5983  0.0728  0.4306
  194MPD1    C3 2951   2.175   1.442  17.175 -0.4470  0.3903 -0.4254
  194MPD1    C4 2952   2.209   1.496  17.050  0.4025  0.6572 -0.4817
  194MPD1    C5 2953   2.312   1.589  17.034  0.3017  0.2524 -0.8547
  194MPD1     H 2954   2.221   1.461  17.386 -2.5579 -2.0383 -0.8548
  194MPD1    H1 2955   2.149   1.476  16.961 -1.3121 -0.9933  1.0475
  194MPD1    H2 2956   2.458   1.697  17.146 -0.4450  0.6294  1.2357
  194MPD1    H3 2957   2.337   1.619  16.933  0.1209 -0.6930 -1.1832
  194MPD1     N 2958   2.075   1.345  17.181 -0.6432 -0.2765  0.1978
  194MPD1    H5 2959   2.031   1.325  17.092 -0.3613  3.1496 -0.7223
  194MPD1    N1 2960   2.429   1.604  17.380  0.0693  0.2026  0.4260
  194MPD1    H6 2961   2.520   1.643  17.356 -0.3505  1.3428  0.6812
  194MPD1    H7 2962   2.443   1.528  17.446 -0.5524 -0.5507 -0.3328
  195MPD1     C 2963   3.692   3.768  17.491 -0.3640 -0.3030 -0.2081
  195MPD1    C1 2964   3.800   3.686  17.496 -0.1191  0.0876  0.6322
  195MPD1    C2 2965   3.791   3.575  17.583  0.2973 -0.0652 -0.1398
  195MPD1    C3 2966   3.681   3.549  17.662 -0.4548  0.0496 -0.5641
  195MPD1    C4 2967   3.577   3.641  17.666  0.5837  0.3583  0.2194
  195MPD1    C5 2968   3.589   3.749  17.588 -0.6141 -0.9587  0.2454
  195MPD1     H 2969   3.876   3.508  17.585 -0.7324 -1.3939 -0.5252
  195MPD1    H1 2970   3.496   3.637   0.033  0.1199  2.0534 -0.2172
  195MPD1    H2 2971   3.698   3.861  17.435 -0.2554  0.2717  0.7450
  195MPD1    H3 2972   3.520   3.830  17.605  1.4795  0.6456  1.1221
  195MPD1     N 2973   3.676   3.441   0.048  0.0240  0.1172  0.4423
  195MPD1    H5 2974   3.588   3.409   0.086  0.5791 -0.1373  1.5130
  195MPD1    N1 2975   3.917   3.711  17.419 -0.3201  0.1026  0.5258
  195MPD1    H6 2976   3.907   3.734  17.320 -0.7558 -1.7880  0.1324
  195MPD1    H7 2977   3.980   3.631  17.414 -0.8374 -0.4442  2.6934
  196MPD1     C 2978   2.717   2.212   0.157  0.8070  0.0713  0.5228
  196MPD1    C1 2979   2.772   2.336   0.168  0.2494 -0.3704 -0.0970
  196MPD1    C2 2980   2.790   2.387   0.291 -0.3575 -0.5200 -0.0059
  196MPD1    C3 2981   2.766   2.317   0.402 -0.4245  0.0727 -0.2879
  196MPD1    C4 2982   2.697   2.197   0.391  0.6259  0.8227 -0.4701
  196MPD1    C5 2983   2.685   2.141   0.266 -0.2900 -0.2482  0.3393
  196MPD1     H 2984   2.834   2.486   0.296 -1.1118 -0.1245 -1.3054
  196MPD1    H1 2985   2.667   2.143   0.480  0.1091 -1.7929 -2.2078
  196MPD1    H2 2986   2.690   2.163   0.064  0.1680 -0.5466  1.0371
  196MPD1    H3 2987   2.649   2.039   0.250 -1.0681  0.2746 -1.2723
  196MPD1     N 2988   2.774   2.366   0.532 -0.2787 -0.7350  0.2365
  196MPD1    H5 2989   2.728   2.309   0.603 -1.9112 -0.4397 -0.5653
  196MPD1    N1 2990   2.806   2.410   0.049 -0.5014  0.3188 -0.0521
  196MPD1    H6 2991   2.815   2.336  17.684 -0.9821  3.2662 -3.2636
  196MPD1    H7 2992   2.894   2.458   0.066 -0.3446 -0.4871  1.4540
  197MPD1     C 2993   2.262   4.410   0.064  0.3098  0.5110 -0.5893
  197MPD1    C1 2994   2.318   4.526   0.105 -0.0258 -0.0062 -0.8219
  197MPD1    C2 2995   2.378   4.613   0.011 -0.1846  0.0249  0.3025
  197MPD1    C3 2996   2.376   4.586  17.584 -0.5027 -0.4311 -0.7102
  197MPD1    C4 2997   2.306   4.474  17.545  0.3180 -0.0708  0.3451
  197MPD1    C5 2998   2.245   4.390  17.637 -0.2663 -0.0731 -0.0708
  197MPD1     H 2999   2.438   4.696   0.047  0.6380 -1.2976  1.9826
  197MPD1    H1 3000   2.288   4.442  17.443 -0.0971 -0.0579  0.4114
  197MPD1    H2 3001   2.216   4.337   0.130  0.7819  0.2906 -0.5029
  197MPD1    H3 3002   2.200   4.298  17.602 -1.1880  0.3495 -0.0268
  197MPD1     N 3003   2.445   4.656  17.485  0.3769  0.6995 -0.0290
  197MPD1    H5 3004   2.421   4.633  17.389  1.6217  0.1862 -0.2284
  197MPD1    N1 3005   2.329   4.551   0.242  0.0360 -0.2722  0.2075
  197MPD1    H6 3006   2.303   4.645   0.274  0.2750 -0.5328  1.1853
  197MPD1    H7 3007   2.271   4.483   0.290 -2.1405  1.0760 -0.5316
  198MPD1     C 3008   4.043   3.259  16.211 -0.2419 -0.0609  0.1858
  198MPD1    C1 3009   4.147   3.256  16.306  0.3255  0.0317  0.1608
  198MPD1    C2 3010   4.262   3.193  16.257 -0.8293 -0.3233 -0.6225
  198MPD1    C3 3011   4.281   3.156  16.122 -1.5033 -0.3003 -0.1470
  198MPD1    C4 3012   4.181   3.172  16.033  0.5544  0.0923  0.2715
  198MPD1    C5 3013   4.069   3.223  16.084 -0.0998  0.2536 -0.8377
  198MPD1     H 3014   4.345   3.171  16.324  1.4577  1.3723 -2.8613
  198MPD1    H1 3015   4.193   3.148  15.928  0.3931  3.2031 -0.4616
  198MPD1    H2 3016   3.949   3.308  16.235  0.4915  1.5937 -0.3478
  198MPD1    H3 3017   3.987   3.227  16.013 -0.8612 -0.5866 -0.0151
  198MPD1     N 3018   4.406   3.106  16.087 -0.6084 -0.2956 -0.2987
  198MPD1    H5 3019   4.464   3.104  16.170  0.6284 -1.5470 -1.1885
  198MPD1    N1 3020   4.137   3.315  16.437 -0.3844  0.3481 -0.2718
  198MPD1    H6 3021   4.222   3.363  16.466 -0.0358 -0.0417 -0.6344
  198MPD1    H7 3022   4.070   3.391  16.432 -0.1975  0.4743 -0.8490
  199MPD1     C 3023   0.991   3.238   9.282 -0.9474  1.0951 -0.7536
  199MPD1    C1 3024   1.088   3.145   9.302  0.7462 -0.2622 -0.1378
  199MPD1    C2 3025   1.220   3.198   9.322  0.3378 -0.2847  0.2674
  199MPD1    C3 3026   1.246   3.331   9.296  0.9448 -0.1877 -0.2582
  199MPD1    C4 3027   1.145   3.413   9.259  0.6394  0.4684  0.0551
  199MPD1    C5 3028   1.012   3.370   9.255 -0.2100 -0.6226  0.5768
  199MPD1     H 3029   1.296   3.127   9.352  1.4367  1.4371  1.5292
  199MPD1    H1 3030   1.159   3.520   9.243 -2.2059  0.8284 -0.0224
  199MPD1    H2 3031   0.888   3.205   9.296 -0.1642 -1.0975 -0.2091
  199MPD1    H3 3032   0.929   3.440   9.261  0.9230  1.0425 -3.2532
  199MPD1     N 3033   1.369   3.391   9.310  0.2864 -0.2445 -0.3449
  199MPD1    H5 3034   1.376   3.491   9.293  1.2274 -0.3625 -0.6985
  199MPD1    N1 3035   1.064   3.019   9.353 -0.5397  0.2398 -0.1797
  199MPD1    H6 3036   0.980   2.973   9.317 -0.2057  0.3326 -1.0775
  199MPD1    H7 3037   1.139   2.955   9.328 -1.9006 -0.7833 -1.6723
  200MPD1     C 3038   0.229   3.541  14.747 -0.7902  0.3282  0.5329
  200MPD1    C1 3039   0.298   3.546  14.864 -0.0434  0.3294 -0.3684
  200MPD1    C2 3040   0.435   3.542  14.857 -0.2357 -0.3853 -0.5726
  200MPD1    C3 3041   0.486   3.524  14.729 -0.2338  0.2276  0.0512
  200MPD1    C4 3042   0.412   3.504  14.612  0.1779 -0.2519 -0.3707
  200MPD1    C5 3043   0.278   3.514  14.625  0.6700 -0.2955 -0.3428
  200MPD1     H 3044   0.491   3.558  14.948  1.3402 -0.6986 -1.4978
  200MPD1    H1 3045   0.442   3.478  14.512  1.5536  0.8993 -0.2705
  200MPD1    H2 3046   0.122   3.559  14.760 -0.9085  0.1631 -0.2263
  200MPD1    H3 3047   0.218   3.504  14.535 -1.6877 -4.0347  1.6527
  200MPD1     N 3048   0.625   3.522  14.721 -0.0925 -0.8475  0.5576
  200MPD1    H5 3049   0.675   3.548  14.806  0.3301 -1.5918  0.5317
  200MPD1    N1 3050   0.237   3.580  14.984  0.4726 -0.0514 -0.1810
  200MPD1    H6 3051   0.291   3.545  15.063  0.5128  0.0672 -0.1545
  200MPD1    H7 3052   0.139   3.553  14.993  0.8874 -2.6470 -3.5141
  201MPD1     C 3053   2.910   2.870  12.977 -0.0950 -0.6015 -0.2780
  201MPD1    C1 3054   2.914   2.734  12.982 -0.6463  0.8281 -0.1215
  201MPD1    C2 3055   3.014   2.672  13.050 -0.2208  0.1397 -0.4397
  201MPD1    C3 3056   3.106   2.740  13.126 -0.1962  0.2350  0.2573
  201MPD1    C4 3057   3.099   2.882  13.133  0.6993  0.5611 -0.1371
  201MPD1    C5 3058   2.997   2.940  13.058  0.2700  0.5184  0.3347
  201MPD1     H 3059   3.011   2.563  13.055 -0.7344  0.0571 -2.5873
  201MPD1    H1 3060   3.163   2.937  13.201  0.0031 -0.0479  1.0124
  201MPD1    H2 3061   2.825   2.916  12.929 -1.3188 -0.5024  1.9497
  201MPD1    H3 3062   3.007   3.047  13.040 -1.2193  0.7198  0.6462
  201MPD1     N 3063   3.205   2.668  13.195 -0.3938  0.0993  0.0163
  201MPD1    H5 3064   3.218   2.570  13.172  1.3880  0.2060  0.6458
  201MPD1    N1 3065   2.802   2.659  12.933 -0.3182 -0.3811  0.3301
  201MPD1    H6 3066   2.814   2.562  12.903  1.5386 -1.1627  3.6863
  201MPD1    H7 3067   2.761   2.707  12.853  2.1828 -0.6665 -1.1188
  202MPD1     C 3068   2.401   1.592   9.355  0.5606  0.2629  1.3201
  202MPD1    C1 3069   2.506   1.562   9.433  0.1357  0.3364 -0.2464
  202MPD1    C2 3070   2.585   1.668   9.473 -0.4675  0.8227  0.0132
  202MPD1    C3 3071   2.559   1.803   9.445  0.1624  0.0218 -0.2300
  202MPD1    C4 3072   2.443   1.831   9.373 -0.3677  0.6724  0.1333
  202MPD1    C5 3073   2.372   1.723   9.332  0.0924 -0.1677 -0.1311
  202MPD1     H 3074   2.678   1.655   9.527 -0.3458  0.4846 -0.2781
  202MPD1    H1 3075   2.402   1.927   9.343 -0.7394  0.3373 -0.4379
  202MPD1    H2 3076   2.329   1.522   9.315 -0.8490  1.6451  1.4620
  202MPD1    H3 3077   2.278   1.746   9.284 -1.1151 -1.9533  1.3600
  202MPD1     N 3078   2.641   1.911   9.494  0.1312  0.2076  0.0258
  202MPD1    H5 3079   2.613   1.996   9.447  2.2833 -0.9944 -3.4374
  202MPD1    N1 3080   2.551   1.422   9.426 -0.3161  0.4666  0.5860
  202MPD1    H6 3081   2.615   1.394   9.501  0.1950  1.5485  0.5555
  202MPD1    H7 3082   2.477   1.353   9.416  0.2444 -0.1610  0.7231
  203MPD1     C 3083   2.148   3.746  12.234  0.2417 -0.0773  0.3374
  203MPD1    C1 3084   2.143   3.660  12.126  0.3051  0.6804 -0.0575
  203MPD1    C2 3085   2.127   3.526  12.151 -0.3264  0.5008 -0.2218
  203MPD1    C3 3086   2.127   3.475  12.281 -0.1651 -0.3004 -0.3494
  203MPD1    C4 3087   2.111   3.559  12.388 -0.1989 -0.4305  0.0690
  203MPD1    C5 3088   2.130   3.689  12.360  0.1799 -0.4738  0.8065
  203MPD1     H 3089   2.129   3.462  12.063  0.9771  1.3694 -0.8223
  203MPD1    H1 3090   2.089   3.530  12.490  1.4728 -2.6611 -0.2052
  203MPD1    H2 3091   2.159   3.853  12.225 -0.4419  0.1148  1.7232
  203MPD1    H3 3092   2.133   3.761  12.441  2.0931 -0.6680  0.9130
  203MPD1     N 3093   2.123   3.334  12.294  0.0388 -0.1578  0.1521
  203MPD1    H5 3094   2.102   3.281  12.210  1.0700 -1.0776  0.4612
  203MPD1    N1 3095   2.147   3.707  11.993  0.0728 -0.2356  0.0722
  203MPD1    H6 3096   2.221   3.654  11.948 -0.0540  1.3841 -2.0897
  203MPD1    H7 3097   2.174   3.805  11.989  0.0495 -0.2445 -0.3824
  204MPD1     C 3098   0.906   3.866   0.290 -0.5318  0.4497  0.3220
  204MPD1    C1 3099   0.875   3.745   0.227 -0.2840 -0.3408  0.5613
  204MPD1    C2 3100   0.915   3.727   0.098  0.1323 -0.3012 -0.3115
  204MPD1    C3 3101   0.992   3.820   0.025 -0.0636  0.4177  0.1211
  204MPD1    C4 3102   1.029   3.933   0.087  0.2285 -0.6135  0.2961
  204MPD1    C5 3103   0.982   3.956   0.217 -0.8707  0.2341 -0.0062
  204MPD1     H 3104   0.900   3.629   0.054  0.8369 -0.8506  0.6717
  204MPD1    H1 3105   1.092   4.010   0.044  0.1658 -0.5644  0.2926
  204MPD1    H2 3106   0.875   3.899   0.389  0.0124  0.9303  0.3385
  204MPD1    H3 3107   1.003   4.050   0.268 -1.1209  0.3360 -0.0923
  204MPD1     N 3108   1.035   3.776  17.603  0.8497  0.4282  0.3017
  204MPD1    H5 3109   0.988   3.701  17.553 -0.2490  0.0335  1.9399
  204MPD1    N1 3110   0.776   3.659   0.289 -0.4502  0.9158  0.6614
  204MPD1    H6 3111   0.780   3.558   0.282 -0.3798  0.9566  0.0574
  204MPD1    H7 3112   0.781   3.678   0.389 -0.8879  0.2270  0.8079
  205MPD1     C 3113   2.087   3.103  16.963 -0.2413  0.2837  0.1084
  205MPD1    C1 3114   2.078   2.971  16.921 -0.0118 -0.1384 -0.0616
  205MPD1    C2 3115   1.960   2.908  16.935  0.1750 -0.0780 -0.2245
  205MPD1    C3 3116   1.845   2.979  16.963 -0.0922  0.4858  0.2366
  205MPD1    C4 3117   1.856   3.113  16.994 -0.0284  0.0383 -0.0798
  205MPD1    C5 3118   1.975   3.176  16.993 -0.0199  0.4005  0.3117
  205MPD1     H 3119   1.944   2.805  16.907  0.7040  0.4898 -2.6294
  205MPD1    H1 3120   1.772   3.174  17.026 -1.4997 -0.7284 -2.4695
  205MPD1    H2 3121   2.179   3.159  16.977 -1.8004  2.4469  1.7832
  205MPD1    H3 3122   1.984   3.282  17.015  2.5318  0.4224 -0.7767
  205MPD1     N 3123   1.715   2.921  16.967 -0.0947 -0.0654 -0.0101
  205MPD1    H5 3124   1.640   2.985  16.988 -1.8585 -1.3552 -2.3690
  205MPD1    N1 3125   2.200   2.898  16.899  0.6171  0.4799 -0.3295
  205MPD1    H6 3126   2.192   2.827  16.826 -1.0920 -1.0663  1.3459
  205MPD1    H7 3127   2.281   2.956  16.880  2.2876 -2.2874 -1.7360
  206MPD1     C 3128   2.221   1.281  15.983 -0.2194 -0.5252 -0.0618
  206MPD1    C1 3129   2.134   1.383  15.951  0.0607  0.2928 -0.0156
  206MPD1    C2 3130   2.017   1.360  15.887 -0.0980  0.0686 -0.7546
  206MPD1    C3 3131   1.994   1.236  15.847 -0.1121 -0.1060  0.3284
  206MPD1    C4 3132   2.081   1.134  15.870 -0.0805  0.2118  0.1158
  206MPD1    C5 3133   2.204   1.162  15.923  0.0866 -0.1404 -0.0159
  206MPD1     H 3134   1.940   1.434  15.874 -0.5589  0.0547  1.9724
  206MPD1    H1 3135   2.062   1.034  15.834 -0.4169 -0.2464  1.5827
  206MPD1    H2 3136   2.315   1.299  16.032 -0.4503 -0.0232  0.1909
  206MPD1    H3 3137   2.267   1.076  15.943  0.1453  0.2125  1.3039
  206MPD1     N 3138   1.866   1.200  15.794 -0.2547 -0.0712  0.3181
  206MPD1    H5 3139   1.858   1.102  15.770 -2.1597  0.4437 -1.1509
  206MPD1    N1 3140   2.155   1.508  16.002  0.6183 -0.4356 -0.1703
  206MPD1    H6 3141   2.255   1.521  15.989  0.8255  0.0095  1.8547
  206MPD1    H7 3142   2.121   1.577  15.935  1.3289  1.4769  1.4250
  207MPD1     C 3143   3.794   3.834   9.304  0.0859  0.3778 -0.2686
  207MPD1    C1 3144   3.809   3.713   9.370  0.0381 -0.5566 -0.3151
  207MPD1    C2 3145   3.908   3.704   9.473  0.2078  0.2359  0.0900
  207MPD1    C3 3146   3.957   3.821   9.529 -0.1252  0.8394  0.5079
  207MPD1    C4 3147   3.918   3.938   9.476  0.1636  0.1424  0.3940
  207MPD1    C5 3148   3.841   3.949   9.363  0.3230  0.5877  0.3531
  207MPD1     H 3149   3.937   3.610   9.520 -0.6477  0.9426  2.0438
  207MPD1    H1 3150   3.943   4.035   9.517 -0.1955 -0.0501  1.0623
  207MPD1    H2 3151   3.726   3.838   9.220 -0.9186 -1.3700  0.4553
  207MPD1    H3 3152   3.812   4.048   9.332  2.0531  1.2686  0.8986
  207MPD1     N 3153   4.054   3.826   9.636  0.2574 -0.5792  0.2106
  207MPD1    H5 3154   4.094   3.916   9.660 -2.1787  0.2786  1.0028
  207MPD1    N1 3155   3.747   3.599   9.318 -0.1934  0.0874  0.3798
  207MPD1    H6 3156   3.748   3.529   9.391  0.0277  1.1909  1.4313
  207MPD1    H7 3157   3.656   3.624   9.279  1.1515  3.2317 -0.7635
  208MPD1     C 3158   2.379   2.413  17.101 -0.6035 -0.6330 -0.4412
  208MPD1    C1 3159   2.287   2.308  17.089  0.2652  0.2467  0.2885
  208MPD1    C2 3160   2.191   2.289  17.188  0.5713  0.1646 -0.4299
  208MPD1    C3 3161   2.205   2.351  17.310  0.3918  0.4777 -0.5672
  208MPD1    C4 3162   2.300   2.450  17.323 -0.4339  1.0775  0.3452
  208MPD1    C5 3163   2.380   2.485  17.219 -0.5931  0.4286 -0.0240
  208MPD1     H 3164   2.121   2.209  17.165  1.3481  0.0952 -2.5492
  208MPD1    H1 3165   2.313   2.508  17.414  2.3247  0.5591  0.2991
  208MPD1    H2 3166   2.445   2.447  17.022 -0.8135 -0.1438 -0.4108
  208MPD1    H3 3167   2.436   2.578  17.217 -1.6334  1.0189 -1.8526
  208MPD1     N 3168   2.126   2.313  17.414  0.6210 -0.8137  0.5710
  208MPD1    H5 3169   2.067   2.231  17.404 -0.9770  0.2466  1.3022
  208MPD1    N1 3170   2.276   2.244  16.961 -0.4404 -0.7775 -0.7292
  208MPD1    H6 3171   2.368   2.226  16.920  0.8052  0.2346  1.6168
  208MPD1    H7 3172   2.217   2.161  16.965  1.4155 -2.0741 -0.1310
  209MPD1     C 3173   4.035   2.336  10.124  0.2541  0.5257 -0.0757
  209MPD1    C1 3174   4.046   2.453  10.054  0.7244 -0.0676  0.4571
  209MPD1    C2 3175   4.131   2.549  10.100 -0.2940  0.1572 -0.1597
  209MPD1    C3 3176   4.186   2.542  10.229  0.1779 -0.1580 -0.2767
  209MPD1    C4 3177   4.183   2.421  10.291 -0.4377  0.5119 -0.1398
  209MPD1    C5 3178   4.108   2.319  10.237  0.1185  0.0287 -0.3963
  209MPD1     H 3179   4.150   2.639  10.042 -0.8969  1.6090  1.8989
  209MPD1    H1 3180   4.223   2.413  10.391 -0.3870 -0.1582 -0.2109
  209MPD1    H2 3181   3.976   2.248  10.100  2.3519 -0.7592 -0.4686
  209MPD1    H3 3182   4.077   2.235  10.298 -1.0272  0.2702 -0.6390
  209MPD1     N 3183   4.254   2.655  10.280 -0.0407 -0.5271  0.3204
  209MPD1    H5 3184   4.249   2.740  10.225 -1.7475 -2.5573 -2.6983
  209MPD1    N1 3185   3.999   2.450   9.918 -0.0506  0.2255  0.7277
  209MPD1    H6 3186   3.983   2.545   9.884  1.1107 -0.2216 -1.0539
  209MPD1    H7 3187   3.920   2.386   9.910  0.4315 -0.2057 -0.5833
  210MPD1     C 3188   4.652   3.269  11.109  0.6884 -0.2927  0.1830
  210MPD1    C1 3189   4.564   3.166  11.121 -0.3088  0.0209  0.0926
  210MPD1    C2 3190   4.522   3.100  11.005 -0.1812 -0.3422 -0.1726
  210MPD1    C3 3191   4.576   3.136  10.883 -0.2742  0.0728  0.2412
  210MPD1    C4 3192   4.655   3.244  10.874 -0.3807  0.5447  0.0145
  210MPD1    C5 3193   4.690   3.315  10.986  0.0512  0.0478 -0.5658
  210MPD1     H 3194   4.460   3.012  11.008 -0.4036 -0.1986 -0.5114
  210MPD1    H1 3195   4.704   3.279  10.784 -0.9442 -0.3565 -0.6397
  210MPD1    H2 3196   4.703   3.321  11.190 -0.2361 -1.3431  1.4242
  210MPD1    H3 3197   0.039   3.393  10.982  0.3501 -0.2658 -1.1206
  210MPD1     N 3198   4.544   3.070  10.760 -0.5296 -1.0861 -0.1847
  210MPD1    H5 3199   4.583   3.117  10.679 -0.7635 -1.5339 -0.5580
  210MPD1    N1 3200   4.542   3.106  11.245  0.3346 -0.0272  0.0163
  210MPD1    H6 3201   4.541   3.169  11.325 -0.1599 -2.8292  2.2131
  210MPD1    H7 3202   4.454   3.054  11.239  1.3424 -1.8477  0.9343
  211MPD1     C 3203   2.680   2.576  16.435  0.4340  0.0943 -0.0330
  211MPD1    C1 3204   2.563   2.522  16.388 -0.3593 -1.1497  0.1931
  211MPD1    C2 3205   2.441   2.580  16.424  0.1163 -0.5988 -0.0314
  211MPD1    C3 3206   2.434   2.705  16.491 -0.8150  0.5044  0.2851
  211MPD1    C4 3207   2.555   2.748  16.540 -0.1110 -1.1609  0.3330
  211MPD1    C5 3208   2.670   2.682  16.519  0.6441  0.5191 -0.0734
  211MPD1     H 3209   2.344   2.547  16.387 -0.5049 -0.8532  1.8050
  211MPD1    H1 3210   2.569   2.837  16.600 -0.8411 -0.0054 -1.2146
  211MPD1    H2 3211   2.777   2.537  16.408  0.7539 -0.2609  1.6463
  211MPD1    H3 3212   2.764   2.724  16.555  1.1679 -1.2151  0.5585
  211MPD1     N 3213   2.315   2.781  16.514  0.2739 -0.4915 -0.3446
  211MPD1    H5 3214   2.222   2.749  16.488 -0.0117  0.4390 -0.4589
  211MPD1    N1 3215   2.564   2.401  16.316  0.0648  0.4771  0.1135
  211MPD1    H6 3216   2.475   2.393  16.268  0.8033 -0.3198 -1.1514
  211MPD1    H7 3217   2.623   2.408  16.233 -0.2958  1.1643 -0.0879
  212MPD1     C 3218   1.178   1.672  16.187  0.1673 -0.0790  0.0967
  212MPD1    C1 3219   1.098   1.723  16.283  0.2712  0.3781  0.8630
  212MPD1    C2 3220   1.061   1.634  16.389  0.1369  0.6095  0.5770
  212MPD1    C3 3221   1.105   1.504  16.392 -0.5655  0.0630  0.2286
  212MPD1    C4 3222   1.182   1.454  16.291 -0.2715  0.9857  0.1245
  212MPD1    C5 3223   1.217   1.533  16.184  0.4005  0.0460 -0.3036
  212MPD1     H 3224   1.017   1.680  16.477 -1.7227  1.4796 -0.8038
  212MPD1    H1 3225   1.211   1.350  16.292  1.4026  1.4514  0.3134
  212MPD1    H2 3226   1.211   1.732  16.103  0.3130  0.2856  0.4166
  212MPD1    H3 3227   1.273   1.486  16.104 -0.0459  3.3534 -2.5979
  212MPD1     N 3228   1.072   1.416  16.492  0.0880 -0.0573  0.1714
  212MPD1    H5 3229   1.128   1.332  16.500 -0.0299  0.0899  2.6961
  212MPD1    N1 3230   1.038   1.844  16.261  0.6124 -0.0346  1.0200
  212MPD1    H6 3231   1.005   1.893  16.344  0.6833  0.8566  0.5157
  212MPD1    H7 3232   1.071   1.905  16.187  2.5989 -1.2245  0.9376
  213MPD1     C 3233   3.636   2.470  15.963 -0.2241 -0.7633 -0.1374
  213MPD1    C1 3234   3.748   2.530  15.915 -0.1740 -0.5581  0.6255
  213MPD1    C2 3235   3.792   2.488  15.791 -0.3922 -0.0860  0.1103
  213MPD1    C3 3236   3.698   2.412  15.708 -0.4501  0.1316  0.2522
  213MPD1    C4 3237   3.571   2.384  15.757  0.1951 -1.0519 -0.7078
  213MPD1    C5 3238   3.536   2.424  15.883 -0.5607 -0.3095  0.2268
  213MPD1     H 3239   3.892   2.506  15.753 -0.7609 -1.4218 -1.4917
  213MPD1    H1 3240   3.487   2.339  15.704 -1.3061  0.0409  0.7472
  213MPD1    H2 3241   3.609   2.495  16.065  0.4420 -0.5043 -0.0218
  213MPD1    H3 3242   3.437   2.421  15.928 -0.7075 -0.2997 -0.0998
  213MPD1     N 3243   3.736   2.354  15.585  0.1553 -0.5577 -0.3657
  213MPD1    H5 3244   3.665   2.294  15.543 -0.5516 -1.1460  1.6744
  213MPD1    N1 3245   3.846   2.567  16.007  0.2144  0.5108  0.3656
  213MPD1    H6 3246   3.810   2.603  16.096  0.4171  1.7356 -0.0564
  213MPD1    H7 3247   3.912   2.628  15.961  0.3105 -1.6287 -2.3461
  214MPD1     C 3248   3.317   1.668  15.325  0.3551 -0.2070  0.0314
  214MPD1    C1 3249   3.366   1.722  15.209 -0.1939  0.8169  0.5785
  214MPD1    C2 3250   3.473   1.803  15.210  0.4262  0.1902  0.2787
  214MPD1    C3 3251   3.523   1.848  15.328 -0.3673 -0.8422  0.5257
  214MPD1    C4 3252   3.468   1.809  15.443  0.0531 -0.3559 -0.4309
  214MPD1    C5 3253   3.373   1.708  15.448 -0.3850 -0.4913  0.0022
  214MPD1     H 3254   3.520   1.834  15.117 -1.4994 -0.2426 -0.8370
  214MPD1    H1 3255   3.501   1.837  15.542  1.4566  0.0415 -1.0084
  214MPD1    H2 3256   3.233   1.599  15.322 -2.3037  2.9988  0.6299
  214MPD1    H3 3257   3.351   1.664  15.544  2.5992 -1.0511  0.4433
  214MPD1     N 3258   3.624   1.948  15.330  0.4042 -0.4828  0.8810
  214MPD1    H5 3259   3.655   1.979  15.421  1.6084 -0.3540  0.4290
  214MPD1    N1 3260   3.312   1.668  15.092  0.6770  0.5919  0.8623
  214MPD1    H6 3261   3.223   1.623  15.110  0.8996  0.3092  1.2470
  214MPD1    H7 3262   3.297   1.739  15.021  0.0856 -2.1002 -1.7044
  215MPD1     C 3263   3.614   3.050  10.618  0.2133  0.0098 -0.3912
  215MPD1    C1 3264   3.634   3.087  10.744  0.7016 -0.5982 -0.2469
  215MPD1    C2 3265   3.766   3.116  10.779 -0.5443 -1.0125 -0.4898
  215MPD1    C3 3266   3.860   3.147  10.680  0.3522 -0.2643 -0.6113
  215MPD1    C4 3267   3.833   3.111  10.550 -0.2019 -0.6591  0.5432
  215MPD1    C5 3268   3.707   3.068  10.522  0.0669 -0.2826  0.0380
  215MPD1     H 3269   3.802   3.123  10.881 -0.1382 -0.7429 -0.6534
  215MPD1    H1 3270   3.905   3.115  10.468 -1.0410  1.1018 -0.1170
  215MPD1    H2 3271   3.518   3.018  10.580  1.1107 -3.1058 -0.0529
  215MPD1    H3 3272   3.678   3.029  10.426 -2.1963 -2.9275  1.7761
  215MPD1     N 3273   3.990   3.187  10.729 -0.5867  0.4109 -0.3209
  215MPD1    H5 3274   4.015   3.174  10.827 -1.3714  0.8223 -0.0703
  215MPD1    N1 3275   3.533   3.064  10.839  0.0766  0.7899 -0.0916
  215MPD1    H6 3276   3.442   3.093  10.805  0.5538 -0.6796 -2.6282
  215MPD1    H7 3277   3.553   3.119  10.923  1.2240  1.5822 -0.8791
  216MPD1     C 3278   1.272   0.421  16.820 -0.0238  0.2977  1.0863
  216MPD1    C1 3279   1.369   0.327  16.782  0.0988  0.0679  0.8202
  216MPD1    C2 3280   1.380   0.217  16.864 -0.6925  0.5121 -0.3185
  216MPD1    C3 3281   1.339   0.228  17.000 -0.4121  0.2183 -0.1169
  216MPD1    C4 3282   1.273   0.342  17.040  0.3247 -0.6019 -0.0029
  216MPD1    C5 3283   1.230   0.438  16.945 -0.2222  0.0994  0.2369
  216MPD1     H 3284   1.439   0.135  16.825  0.3066  1.3604 -0.5808
  216MPD1    H1 3285   1.239   0.355  17.143  1.9935 -3.8140  0.9577
  216MPD1    H2 3286   1.228   0.499  16.759  0.5707  0.2719  0.6341
  216MPD1    H3 3287   1.156   0.516  16.962  0.0313  0.6732 -1.3365
  216MPD1     N 3288   1.347   0.121  17.092 -0.2421 -0.3250 -0.1466
  216MPD1    H5 3289   1.312   0.141  17.185  0.3601  2.4322 -0.5210
  216MPD1    N1 3290   1.417   0.318  16.649  0.1690 -0.1921 -0.2314
  216MPD1    H6 3291   1.421   0.410  16.606  3.2293 -0.3312 -0.2821
  216MPD1    H7 3292   1.508   0.273  16.639  0.2973  0.2428 -0.9582
  217MPD1     C 3293   0.191   2.234   8.896 -0.2155 -0.1453  0.5443
  217MPD1    C1 3294   0.238   2.357   8.942  0.1137  0.8150  0.0718
  217MPD1    C2 3295   0.357   2.361   9.017 -0.0470 -0.0791 -0.3645
  217MPD1    C3 3296   0.421   2.250   9.072  1.3260  0.2606  0.0658
  217MPD1    C4 3297   0.356   2.130   9.044 -0.4784  0.1296 -0.5617
  217MPD1    C5 3298   0.240   2.125   8.968 -0.3850 -0.4012 -0.4616
  217MPD1     H 3299   0.402   2.459   9.029 -2.7026  1.2114 -0.8652
  217MPD1    H1 3300   0.397   2.037   9.080  0.9396  0.6708 -0.7873
  217MPD1    H2 3301   0.103   2.224   8.834 -0.1096  3.3632 -0.1787
  217MPD1    H3 3302   0.189   2.030   8.953  0.7415 -1.1059  0.2335
  217MPD1     N 3303   0.535   2.255   9.151  0.4244  0.3335  0.4941
  217MPD1    H5 3304   0.584   2.168   9.172  0.0883  0.0774  0.2121
  217MPD1    N1 3305   0.200   2.474   8.880 -0.2697  0.4571 -0.1755
  217MPD1    H6 3306   0.230   2.550   8.942 -0.0084 -1.4130  2.0006
  217MPD1    H7 3307   0.099   2.474   8.867 -0.4423 -0.3079  1.1339
  218MPD1     C 3308   3.188   3.443  13.125  0.0197  0.9867 -0.3405
  218MPD1    C1 3309   3.308   3.498  13.088  0.0202  0.8449  0.6303
  218MPD1    C2 3310   3.405   3.428  13.019  0.6156 -0.0295  0.5436
  218MPD1    C3 3311   3.390   3.293  13.006  0.3672 -0.0431  0.9539
  218MPD1    C4 3312   3.279   3.228  13.052  0.4488 -0.0186 -0.6223
  218MPD1    C5 3313   3.173   3.302  13.107 -0.1734  0.3630 -0.0482
  218MPD1     H 3314   3.495   3.476  12.983 -0.0023 -0.2428 -1.2857
  218MPD1    H1 3315   3.258   3.126  13.023  1.2295 -0.8785  1.8329
  218MPD1    H2 3316   3.112   3.500  13.177 -1.0355 -1.3501  0.6961
  218MPD1    H3 3317   3.079   3.252  13.129 -0.8455  1.6819  0.0769
  218MPD1     N 3318   3.486   3.225  12.939 -0.1947 -0.6458  0.1328
  218MPD1    H5 3319   3.565   3.284  12.914 -0.0337 -0.7465  0.4042
  218MPD1    N1 3320   3.324   3.642  13.085  0.3603  0.2044  0.0183
  218MPD1    H6 3321   3.294   3.679  13.175 -3.0598 -2.8523  0.1598
  218MPD1    H7 3322   3.422   3.667  13.079  0.9563 -2.1562  0.1021
  219MPD1     C 3323   4.135   3.433  12.298 -0.0680 -0.0652  0.3248
  219MPD1    C1 3324   4.006   3.394  12.271  0.4494  0.8498 -0.7518
  219MPD1    C2 3325   3.948   3.313  12.379  0.1155  0.8908 -0.1408
  219MPD1    C3 3326   4.015   3.281  12.495 -0.3727  1.1185  0.1705
  219MPD1    C4 3327   4.143   3.331  12.516  0.5873  0.5058 -0.7122
  219MPD1    C5 3328   4.199   3.411  12.418 -0.1017 -0.3445  0.3055
  219MPD1     H 3329   3.852   3.267  12.360 -1.1241  3.0505  0.9106
  219MPD1    H1 3330   4.197   3.315  12.608  1.0512  0.6975 -0.9529
  219MPD1    H2 3331   4.179   3.502  12.226  0.6459 -1.2672 -0.4040
  219MPD1    H3 3332   4.299   3.450  12.430 -0.5042  0.5169  0.8363
  219MPD1     N 3333   3.957   3.186  12.585 -0.1428  0.3597  0.3880
  219MPD1    H5 3334   4.015   3.145  12.658  0.6802 -0.5292 -0.7701
  219MPD1    N1 3335   3.934   3.444  12.162 -0.4934 -0.9069 -0.1375
  219MPD1    H6 3336   3.848   3.395  12.137 -1.0721  1.2922 -2.4994
  219MPD1    H7 3337   3.892   3.532  12.192  0.7912 -0.4521  0.3084
  220MPD1     C 3338   3.645   4.409   9.473  0.2358 -0.2944 -0.2391
  220MPD1    C1 3339   3.770   4.402   9.532 -0.5814  0.2143  0.2682
  220MPD1    C2 3340   3.800   4.286   9.606 -0.4048 -0.4036  0.2077
  220MPD1    C3 3341   3.708   4.184   9.626 -0.0250  0.1883 -0.5679
  220MPD1    C4 3342   3.579   4.204   9.576 -0.0749  0.6322 -0.3990
  220MPD1    C5 3343   3.550   4.317   9.504 -0.5081  0.3196  0.0870
  220MPD1     H 3344   3.900   4.264   9.643 -1.2279 -0.9243  2.1350
  220MPD1    H1 3345   3.497   4.136   9.596  0.3916 -0.1602 -1.1784
  220MPD1    H2 3346   3.616   4.499   9.419  1.1415 -0.7759 -1.5344
  220MPD1    H3 3347   3.447   4.327   9.471 -0.2869 -2.2131 -1.3445
  220MPD1     N 3348   3.750   4.072   9.707  0.0159  0.6779 -0.6481
  220MPD1    H5 3349   3.842   4.074   9.749 -0.2801 -1.0017  0.0818
  220MPD1    N1 3350   3.876   4.490   9.496  0.2095  0.4380  0.2318
  220MPD1    H6 3351   3.835   4.582   9.481  0.7844  0.8288  1.0836
  220MPD1    H7 3352   3.944   4.501   9.570 -0.2718  0.2065  0.7068
  221MPD1     C 3353   1.589   1.738  17.562 -0.0635 -0.6328 -0.7400
  221MPD1    C1 3354   1.639   1.613  17.517  0.4309  0.3287 -0.1316
  221MPD1    C2 3355   1.697   1.607  17.389  0.4607  0.1942 -0.2926
  221MPD1    C3 3356   1.708   1.722  17.309  1.0110 -0.3194 -0.5851
  221MPD1    C4 3357   1.652   1.844  17.352  0.1089  0.4345  1.0202
  221MPD1    C5 3358   1.599   1.844  17.477  0.2399  0.4987 -0.8969
  221MPD1     H 3359   1.741   1.512  17.360 -2.0889 -0.9501 -0.4104
  221MPD1    H1 3360   1.648   1.932  17.289 -0.5051 -0.3798 -0.0860
  221MPD1    H2 3361   1.540   1.747  17.659 -0.7113  1.6413 -1.2606
  221MPD1    H3 3362   1.554   1.939  17.504  0.7602 -0.3340  2.8502
  221MPD1     N 3363   1.778   1.722  17.189 -0.2545 -0.7153 -0.1136
  221MPD1    H5 3364   1.782   1.805  17.131 -0.1102 -0.6069  0.0508
  221MPD1    N1 3365   1.659   1.508  17.608 -0.3528  0.1132  0.4072
  221MPD1    H6 3366   1.579   1.501  17.671 -0.2741 -0.2231  0.4694
  221MPD1    H7 3367   1.659   1.423  17.552  0.0325  1.0258 -0.9730
  222MPD1     C 3368   1.052   0.546  17.589 -0.6124 -0.1067 -0.1040
  222MPD1    C1 3369   1.146   0.584  17.495  0.7955  0.3388 -0.8567
  222MPD1    C2 3370   1.123   0.702  17.425 -0.2931 -0.0841 -0.1140
  222MPD1    C3 3371   1.012   0.782  17.449  0.2973 -0.1850  0.1236
  222MPD1    C4 3372   0.920   0.746  17.555 -0.0955  0.7263 -0.3234
  222MPD1    C5 3373   0.946   0.634  17.625 -0.0514 -0.0726 -0.5900
  222MPD1     H 3374   1.193   0.738  17.351  1.7453  0.5462  2.0945
  222MPD1    H1 3375   0.841   0.815  17.582 -1.6952 -1.9068  1.7659
  222MPD1    H2 3376   1.059   0.446  17.630  0.6496  0.5204  1.2444
  222MPD1    H3 3377   0.877   0.603  17.703  0.9337  1.2178  0.7866
  222MPD1     N 3378   0.999   0.916  17.401 -0.0402 -0.1462 -0.8828
  222MPD1    H5 3379   0.918   0.971  17.427  1.5741  0.8111  2.1233
  222MPD1    N1 3380   1.242   0.486  17.463 -0.8457  0.5067  0.3553
  222MPD1    H6 3381   1.281   0.429  17.538 -0.4629 -0.1201 -0.3179
  222MPD1    H7 3382   1.326   0.518  17.415 -0.1006 -2.1496 -0.1132
  223MPD1     C 3383   1.400   1.521  16.693 -0.0067  0.6494 -0.1600
  223MPD1    C1 3384   1.428   1.391  16.732 -0.2255 -0.0257  0.5600
  223MPD1    C2 3385   1.339   1.331  16.820 -0.0075  0.5641  0.2431
  223MPD1    C3 3386   1.248   1.410  16.893 -0.4535  0.7350  0.5489
  223MPD1    C4 3387   1.225   1.538  16.844  0.0964  0.5442  0.1879
  223MPD1    C5 3388   1.295   1.594  16.739  0.1447 -0.3495 -0.0073
  223MPD1     H 3389   1.354   1.225  16.834 -2.1628  0.0506 -1.1714
  223MPD1    H1 3390   1.161   1.604  16.901  0.5156  0.9957  0.1363
  223MPD1    H2 3391   1.452   1.558  16.606  1.3426 -1.9904 -0.4619
  223MPD1    H3 3392   1.270   1.691  16.698  1.4382  0.1339  0.3458
  223MPD1     N 3393   1.182   1.352  17.003  0.1371  0.4338  0.1317
  223MPD1    H5 3394   1.233   1.274  17.044 -0.9001 -0.3272 -0.0448
  223MPD1    N1 3395   1.527   1.320  16.657  0.0592  0.1599  0.6635
  223MPD1    H6 3396   1.544   1.229  16.699 -0.0329  0.2316  0.8578
  223MPD1    H7 3397   1.616   1.370  16.654 -0.8196  1.7241  0.5690
  224MPD1     C 3398   0.889   2.623   9.057  0.3755  0.3937  0.4678
  224MPD1    C1 3399   0.946   2.750   9.068  0.4218  0.5202  0.8603
  224MPD1    C2 3400   1.067   2.760   9.134  0.1837 -0.4237 -0.1131
  224MPD1    C3 3401   1.130   2.646   9.179 -0.5155 -0.0445  0.1211
  224MPD1    C4 3402   1.076   2.519   9.164  1.0377 -0.1596  0.2936
  224MPD1    C5 3403   0.952   2.510   9.110  0.2139 -0.0627  0.2303
  224MPD1     H 3404   1.106   2.860   9.147 -2.1598  0.3338  1.1884
  224MPD1    H1 3405   1.128   2.428   9.192  0.5152 -0.4810  0.2171
  224MPD1    H2 3406   0.792   2.605   9.012  0.8167  1.2757 -0.8381
  224MPD1    H3 3407   0.899   2.418   9.090  1.2701 -0.5329 -0.3465
  224MPD1     N 3408   1.254   2.654   9.246 -0.6365  0.2526  0.2158
  224MPD1    H5 3409   1.289   2.566   9.282 -0.3072 -0.9115 -2.8871
  224MPD1    N1 3410   0.873   2.864   9.038  0.7580 -0.8529  0.5750
  224MPD1    H6 3411   0.937   2.934   9.003  0.8850 -0.6019  1.3026
  224MPD1    H7 3412   0.799   2.844   8.971 -0.0377 -0.8783  1.4615
  225MPD1     C 3413   3.983   4.122  12.539  0.3065 -0.4677 -0.1826
  225MPD1    C1 3414   3.881   4.155  12.622  0.6346  0.4420 -0.5955
  225MPD1    C2 3415   3.757   4.188  12.576  0.0373  0.0680 -0.6161
  225MPD1    C3 3416   3.737   4.154  12.440  0.4057 -0.8080  0.1244
  225MPD1    C4 3417   3.833   4.089  12.363  0.0768  0.3097  0.2280
  225MPD1    C5 3418   3.963   4.082  12.408  0.8906  0.3721 -0.5769
  225MPD1     H 3419   3.681   4.229  12.641  0.8690  0.3741  0.1642
  225MPD1    H1 3420   3.811   4.042  12.268 -2.0443 -0.4392  1.0930
  225MPD1    H2 3421   4.082   4.108  12.581  1.0917 -2.2592 -2.6459
  225MPD1    H3 3422   4.043   4.050  12.343  2.3875  1.7950  0.5659
  225MPD1     N 3423   3.620   4.183  12.367 -0.4315  0.0915  0.0477
  225MPD1    H5 3424   3.630   4.159  12.269  1.1825 -1.6041  0.6395
  225MPD1    N1 3425   3.902   4.192  12.756  0.3850  0.3920  0.2637
  225MPD1    H6 3426   3.822   4.172  12.816  1.4127  0.1699  1.5337
  225MPD1    H7 3427   3.976   4.137  12.798  1.6539 -1.4447 -4.3536
  226MPD1     C 3428   0.517   3.528   8.891 -0.7676  1.1354 -0.0108
  226MPD1    C1 3429   0.608   3.602   8.965 -0.3227 -0.2342 -0.0755
  226MPD1    C2 3430   0.737   3.580   8.956 -0.2165 -0.0012  0.3902
  226MPD1    C3 3431   0.786   3.492   8.861 -0.0152  0.7043 -0.3013
  226MPD1    C4 3432   0.697   3.428   8.778 -1.3398  0.8979 -0.4882
  226MPD1    C5 3433   0.558   3.448   8.790 -0.5084 -0.2304 -0.0551
  226MPD1     H 3434   0.806   3.627   9.025 -0.6492  0.0954  0.7539
  226MPD1    H1 3435   0.735   3.351   8.711  2.0371  2.5425 -0.4620
  226MPD1    H2 3436   0.411   3.534   8.913 -1.0889 -0.1866 -1.1520
  226MPD1    H3 3437   0.488   3.394   8.727 -0.0358 -2.5896  1.4512
  226MPD1     N 3438   0.913   3.433   8.865  0.6734 -0.0347  0.2397
  226MPD1    H5 3439   0.926   3.346   8.814 -2.2227  1.2450 -2.7292
  226MPD1    N1 3440   0.558   3.672   9.077  0.1352  0.0383 -0.3484
  226MPD1    H6 3441   0.467   3.709   9.050 -0.2924  0.6524  1.9636
  226MPD1    H7 3442   0.613   3.752   9.108 -1.2216  0.6883  0.3612
  227MPD1     C 3443   2.000   3.517   8.901 -0.2347  0.6164 -1.1455
  227MPD1    C1 3444   1.961   3.410   8.826 -0.4035  0.3281 -0.7032
  227MPD1    C2 3445   1.831   3.371   8.835  1.0046 -0.0832 -0.0276
  227MPD1    C3 3446   1.740   3.440   8.918 -0.1502 -0.4504 -0.2524
  227MPD1    C4 3447   1.782   3.558   8.985 -0.1368  0.4875  0.3328
  227MPD1    C5 3448   1.909   3.590   8.974  0.0978  0.4973 -1.5356
  227MPD1     H 3449   1.792   3.287   8.779  1.4039 -1.3599  1.5919
  227MPD1    H1 3450   1.720   3.611   9.057  0.1943  1.0918  0.1715
  227MPD1    H2 3451   2.104   3.549   8.893  0.0862 -0.8134 -2.7971
  227MPD1    H3 3452   1.945   3.684   9.015 -0.7532  0.5681 -0.9525
  227MPD1     N 3453   1.610   3.394   8.917 -0.9888  0.1466 -0.4321
  227MPD1    H5 3454   1.603   3.303   8.873  0.0869  0.0550 -0.4257
  227MPD1    N1 3455   2.045   3.345   8.740 -0.1251 -0.5196  0.5034
  227MPD1    H6 3456   2.138   3.343   8.782 -0.9058 -0.5556  2.2275
  227MPD1    H7 3457   2.003   3.253   8.753  1.4747 -0.8490  3.2265
  228MPD1     C 3458   0.839   1.983  12.973 -0.5835  0.4036 -0.1931
  228MPD1    C1 3459   0.715   2.041  12.963  0.5089  0.3073 -0.2162
  228MPD1    C2 3460   0.604   1.972  13.005 -0.3054 -0.5123  0.4488
  228MPD1    C3 3461   0.616   1.854  13.083  0.4094  0.1570 -0.7841
  228MPD1    C4 3462   0.748   1.808  13.107  0.3630 -0.0884 -1.0588
  228MPD1    C5 3463   0.855   1.876  13.056  0.4339  0.1376 -0.9056
  228MPD1     H 3464   0.504   2.001  12.975 -1.4014 -1.9561  2.7251
  228MPD1    H1 3465   0.761   1.722  13.173 -0.2672 -0.9587 -2.0615
  228MPD1    H2 3466   0.924   2.030  12.925 -0.1432 -1.7801 -1.5730
  228MPD1    H3 3467   0.954   1.833  13.058 -0.6817 -2.3708  0.9485
  228MPD1     N 3468   0.501   1.778  13.110 -0.3721  0.8168  0.1046
  228MPD1    H5 3469   0.416   1.831  13.094 -0.0986  1.0277 -0.6525
  228MPD1    N1 3470   0.699   2.152  12.879 -0.2971  0.0173 -0.5455
  228MPD1    H6 3471   0.617   2.212  12.891 -1.6325 -1.5469 -1.9272
  228MPD1    H7 3472   0.776   2.219  12.890 -0.1868 -0.6854  2.9482
  229MPD1     C 3473   0.140   0.598  15.603  0.2639  0.4110 -0.4085
  229MPD1    C1 3474   0.074   0.512  15.517  0.3283  0.3538 -0.5158
  229MPD1    C2 3475   0.137   0.392  15.490  0.0686  0.1824 -0.2020
  229MPD1    C3 3476   0.249   0.353  15.560  0.2030 -0.1699  0.2860
  229MPD1    C4 3477   0.309   0.428  15.654  0.1441 -1.1474 -0.0420
  229MPD1    C5 3478   0.252   0.554  15.675 -0.1762  0.2290  0.0707
  229MPD1     H 3479   0.110   0.324  15.410  0.5543 -0.0871 -0.1385
  229MPD1    H1 3480   0.390   0.398  15.720  0.8361  2.8372  0.9319
  229MPD1    H2 3481   0.096   0.694  15.627  1.6893  0.9615 -0.0059
  229MPD1    H3 3482   0.290   0.616  15.755  0.7546  1.4204 -1.2881
  229MPD1     N 3483   0.327   0.236  15.528 -0.3925  0.3806  0.4532
  229MPD1    H5 3484   0.418   0.237  15.572  0.1439 -0.2297 -0.6371
  229MPD1    N1 3485   4.687   0.547  15.433 -0.0331 -0.0978 -0.1071
  229MPD1    H6 3486   4.617   0.583  15.497  2.0570 -0.2416  2.2581
  229MPD1    H7 3487   4.646   0.462  15.394  0.7033 -0.0946 -0.8715
  230MPD1     C 3488   1.007   4.334  15.884  0.9187 -0.2788 -0.0420
  230MPD1    C1 3489   0.896   4.253  15.876 -0.4102  0.0397 -0.1811
  230MPD1    C2 3490   0.782   4.299  15.813  0.3279 -0.3644 -0.2403
  230MPD1    C3 3491   0.781   4.419  15.753 -0.2779 -0.6578 -0.2329
  230MPD1    C4 3492   0.891   4.500  15.760 -0.7474  0.3338 -0.0130
  230MPD1    C5 3493   1.003   4.457  15.827 -0.3592  0.3043  0.0493
  230MPD1     H 3494   0.696   4.232  15.807  1.5292 -1.9136 -0.1341
  230MPD1    H1 3495   0.893   4.599  15.716 -0.7228  1.1623  1.8572
  230MPD1    H2 3496   1.094   4.300  15.939 -0.7897  0.4861  3.1509
  230MPD1    H3 3497   1.092   4.520  15.824  0.1890 -0.5581 -1.9992
  230MPD1     N 3498   0.665   4.455  15.679  0.2771 -0.6339 -0.2126
  230MPD1    H5 3499   0.587   4.389  15.679  1.1734 -1.6907  0.9252
  230MPD1    N1 3500   0.899   4.134  15.947  0.0712 -1.3235 -0.1461
  230MPD1    H6 3501   0.822   4.068  15.937 -0.8664 -0.5306  1.8876
  230MPD1    H7 3502   0.985   4.091  15.913  1.4259  0.7138  0.7436
  231MPD1     C 3503   2.943   1.532  15.777 -0.7821 -0.1193 -0.3035
  231MPD1    C1 3504   2.860   1.558  15.670  0.0060  1.0656  0.3312
  231MPD1    C2 3505   2.896   1.664  15.593  0.6443  0.6812  0.3734
  231MPD1    C3 3506   2.997   1.750  15.628 -0.1588  0.0682  0.0060
  231MPD1    C4 3507   3.067   1.725  15.745 -0.1142  0.2272  0.2461
  231MPD1    C5 3508   3.048   1.610  15.816  0.6048  0.8469  0.0571
  231MPD1     H 3509   2.833   1.687  15.508 -0.6370 -2.0392  0.5741
  231MPD1    H1 3510   3.148   1.789  15.779  0.7448 -1.0851  0.6986
  231MPD1    H2 3511   2.922   1.450  15.845  2.3611 -0.4188  0.2852
  231MPD1    H3 3512   3.117   1.593  15.898 -0.3134  0.1861  0.6845
  231MPD1     N 3513   3.032   1.850  15.538 -0.3779  0.4718 -0.3224
  231MPD1    H5 3514   3.002   1.839  15.442 -0.3285 -1.7797 -0.0879
  231MPD1    N1 3515   2.766   1.455  15.640  0.1978 -0.0473 -0.3654
  231MPD1    H6 3516   2.678   1.484  15.598 -1.1724  0.3794  2.7833
  231MPD1    H7 3517   2.738   1.407  15.726  1.8822 -3.6283 -1.8333
  232MPD1     C 3518   0.241   4.027   0.629  0.5225  0.0837  0.5528
  232MPD1    C1 3519   0.105   4.012   0.648 -0.9513 -0.1911  0.1017
  232MPD1    C2 3520   0.014   4.056   0.557 -0.2655 -0.0016 -0.0626
  232MPD1    C3 3521   0.054   4.106   0.429  0.2021 -0.1536  0.1975
  232MPD1    C4 3522   0.193   4.116   0.414  0.2525 -0.4124 -0.2310
  232MPD1    C5 3523   0.286   4.081   0.511 -0.1381 -0.0206  0.3664
  232MPD1     H 3524   4.633   4.040   0.574  0.0148 -0.9528  0.8476
  232MPD1    H1 3525   0.227   4.136   0.313  1.3665 -0.3488  0.1639
  232MPD1    H2 3526   0.308   3.998   0.708  0.5179 -1.9498 -0.1937
  232MPD1    H3 3527   0.393   4.094   0.495 -0.4497 -0.4648 -2.0207
  232MPD1     N 3528   4.686   4.137   0.326 -0.3374 -0.5466  0.0498
  232MPD1    H5 3529   4.587   4.127   0.347 -0.8466 -0.9833 -2.5907
  232MPD1    N1 3530   0.068   3.942   0.763  0.1919 -0.5189 -0.0945
  232MPD1    H6 3531   0.134   3.964   0.838 -0.6992  2.7910 -0.2835
  232MPD1    H7 3532   4.701   3.977   0.784  0.5239 -0.2883  1.0387
  233MPD1     C 3533   0.809   3.656   1.377 -0.5099  0.0339  0.4084
  233MPD1    C1 3534   0.914   3.644   1.284  0.3255 -0.1820  0.3986
  233MPD1    C2 3535   1.009   3.542   1.307 -0.6673  0.6748 -0.8346
  233MPD1    C3 3536   0.994   3.453   1.413  0.0789 -0.4257  0.0832
  233MPD1    C4 3537   0.881   3.461   1.495  0.9055 -0.0099 -0.9418
  233MPD1    C5 3538   0.792   3.559   1.479 -0.2444 -0.0369 -0.0857
  233MPD1     H 3539   1.089   3.522   1.236 -0.2931  1.1311 -0.5469
  233MPD1    H1 3540   0.872   3.397   1.582 -1.8474  1.4291 -0.1808
  233MPD1    H2 3541   0.728   3.727   1.371 -0.4915  0.1453  1.5733
  233MPD1    H3 3542   0.705   3.571   1.543 -1.1419  1.0301 -1.5115
  233MPD1     N 3543   1.081   3.345   1.436 -0.2602 -0.3802 -0.3339
  233MPD1    H5 3544   1.042   3.276   1.499 -0.8035 -2.2182 -2.7170
  233MPD1    N1 3545   0.904   3.701   1.158  0.1633 -0.0370  0.0334
  233MPD1    H6 3546   0.998   3.728   1.131 -0.1819  1.7046  0.5879
  233MPD1    H7 3547   0.859   3.792   1.158  0.4929  0.1267  1.3036
  234MPD1     C 3548   1.621   0.919   9.321 -0.2677 -0.1003  0.6384
  234MPD1    C1 3549   1.548   0.988   9.412 -0.3522 -0.0185  0.1016
  234MPD1    C2 3550   1.551   1.126   9.405  0.5631  0.0147 -0.7762
  234MPD1    C3 3551   1.633   1.201   9.321 -0.6511 -0.6736  0.3974
  234MPD1    C4 3552   1.704   1.129   9.230  0.1917 -0.1193  0.7702
  234MPD1    C5 3553   1.703   0.996   9.239 -0.7703 -0.0037  0.3982
  234MPD1     H 3554   1.494   1.182   9.478  0.3275  0.1212 -1.0427
  234MPD1    H1 3555   1.765   1.170   9.151  0.5449 -0.3562  0.9196
  234MPD1    H2 3556   1.613   0.811   9.310  1.5899 -0.1273 -0.3712
  234MPD1    H3 3557   1.770   0.949   9.169 -1.7566  0.6667 -0.9948
  234MPD1     N 3558   1.649   1.341   9.323  0.2169 -0.3336  0.5077
  234MPD1    H5 3559   1.580   1.390   9.379  0.0998  0.1697 -0.0771
  234MPD1    N1 3560   1.446   0.929   9.477 -0.1821  0.1057  0.0681
  234MPD1    H6 3561   1.399   0.981   9.551  0.0657  2.6748 -1.5673
  234MPD1    H7 3562   1.487   0.843   9.512 -0.7081 -0.3380 -0.4145
  235MPD1     C 3563   2.983   1.199  10.108  1.0846  0.0345 -0.1824
  235MPD1    C1 3564   2.939   1.258   9.990  0.0747  0.1156 -0.0074
  235MPD1    C2 3565   2.924   1.171   9.881  0.4122  0.5044  0.2918
  235MPD1    C3 3566   2.956   1.040   9.886  0.4494 -0.3373 -0.2165
  235MPD1    C4 3567   3.014   0.995  10.004  0.3997 -0.6792  0.6929
  235MPD1    C5 3568   3.023   1.077  10.109  0.2822  0.8444 -0.1995
  235MPD1     H 3569   2.881   1.205   9.787  0.6057 -1.1490 -0.3935
  235MPD1    H1 3570   3.043   0.891  10.016 -1.0977 -1.1176  0.5165
  235MPD1    H2 3571   2.987   1.259  10.198 -1.2875 -1.2841  0.8003
  235MPD1    H3 3572   3.040   1.033  10.206 -2.4180  1.3284  0.5001
  235MPD1     N 3573   2.937   0.961   9.770  0.4760 -0.7086 -0.2047
  235MPD1    H5 3574   2.884   1.006   9.696  0.9830  0.0640 -0.0922
  235MPD1    N1 3575   2.885   1.386   9.997  0.5340 -0.8041 -0.1103
  235MPD1    H6 3576   2.942   1.455  10.046  0.2144 -0.4102 -0.2932
  235MPD1    H7 3577   2.882   1.431   9.906 -0.9132  1.9578  1.3284
  236MPD1     C 3578   3.466   0.304   9.648 -0.0994  1.1100 -0.1631
  236MPD1    C1 3579   3.496   0.227   9.760  0.4359 -0.2338  0.4302
  236MPD1    C2 3580   3.606   0.267   9.835 -0.1972  0.4846 -0.2991
  236MPD1    C3 3581   3.676   0.383   9.804  0.1987 -0.5492 -0.2999
  236MPD1    C4 3582   3.648   0.450   9.685 -0.1868 -0.2266 -0.0087
  236MPD1    C5 3583   3.550   0.405   9.607 -0.5595 -0.0643  0.1355
  236MPD1     H 3584   3.640   0.211   9.921  1.0684  4.0647  1.5261
  236MPD1    H1 3585   3.712   0.530   9.648  0.3174 -0.6000  0.0483
  236MPD1    H2 3586   3.384   0.274   9.584  0.4925 -0.1280 -0.3594
  236MPD1    H3 3587   3.533   0.463   9.518  1.1002 -0.3206 -0.3440
  236MPD1     N 3588   3.783   0.410   9.894  0.1019 -0.3311 -0.3613
  236MPD1    H5 3589   3.797   0.352   9.976 -0.1424  0.5747  0.3322
  236MPD1    N1 3590   3.409   0.125   9.806 -0.3627 -0.0642 -0.2356
  236MPD1    H6 3591   3.357   0.090   9.726 -1.3920  1.0918 -0.0779
  236MPD1    H7 3592   3.465   0.045   9.832  0.4509  0.4166 -0.5329
  237MPD1     C 3593   3.745   3.370  15.543 -0.3278 -0.1370 -0.1440
  237MPD1    C1 3594   3.664   3.467  15.480 -0.2424 -0.1113  0.1059
  237MPD1    C2 3595   3.561   3.421  15.400  0.5370 -0.5928 -0.3833
  237MPD1    C3 3596   3.542   3.283  15.383  0.5853  0.4922  0.2371
  237MPD1    C4 3597   3.623   3.197  15.449 -0.2089 -0.1915 -0.1606
  237MPD1    C5 3598   3.723   3.239  15.527 -0.0091 -0.4115  0.4513
  237MPD1     H 3599   3.494   3.490  15.350 -0.6348 -0.5354  1.2811
  237MPD1    H1 3600   3.621   3.091  15.425  1.1129 -0.3361  0.3507
  237MPD1    H2 3601   3.814   3.410  15.617 -0.5352  0.6326 -0.3600
  237MPD1    H3 3602   3.782   3.166  15.582  1.5980  1.0455  0.6864
  237MPD1     N 3603   3.446   3.220  15.307  0.0996  0.1413  0.0265
  237MPD1    H5 3604   3.428   3.121  15.324  0.7142  0.5413  2.8664
  237MPD1    N1 3605   3.683   3.600  15.516 -0.1362 -0.2324  0.2428
  237MPD1    H6 3606   3.636   3.665  15.453 -0.5529 -2.2664 -1.5380
  237MPD1    H7 3607   3.780   3.628  15.522  0.0301 -1.3946  3.4648
  238MPD1     C 3608   0.966   2.069  15.262  0.3659 -0.0062  0.1626
  238MPD1    C1 3609   0.912   2.142  15.154 -0.0899 -0.4079  1.4034
  238MPD1    C2 3610   0.774   2.155  15.158  0.3006 -0.3180 -0.5562
  238MPD1    C3 3611   0.692   2.076  15.242 -0.6959  0.7122  0.1699
  238MPD1    C4 3612   0.757   1.993  15.332  0.3999 -0.0569 -0.7313
  238MPD1    C5 3613   0.899   2.003  15.353 -0.8782  0.8237 -0.5880
  238MPD1     H 3614   0.730   2.207  15.073 -0.3693 -1.6352 -1.0099
  238MPD1    H1 3615   0.702   1.923  15.394 -0.0194 -2.7820 -4.1749
  238MPD1    H2 3616   1.074   2.053  15.266  0.1447 -1.2460  0.8685
  238MPD1    H3 3617   0.949   1.931  15.416  0.8939  0.5938 -2.2446
  238MPD1     N 3618   0.549   2.062  15.241  0.4739 -0.3325  0.0850
  238MPD1    H5 3619   0.514   1.978  15.287  1.2390 -1.5447 -1.5658
  238MPD1    N1 3620   0.996   2.215  15.066  0.2977  0.7721 -0.0862
  238MPD1    H6 3621   0.956   2.235  14.975 -1.9470 -3.1401  0.0428
  238MPD1    H7 3622   1.088   2.173  15.061 -0.1108 -0.0587 -0.5781
  239MPD1     C 3623   0.191   2.732  14.884  0.1439  0.3731  0.4548
  239MPD1    C1 3624   0.325   2.748  14.847 -0.4594 -0.1224 -0.4862
  239MPD1    C2 3625   0.348   2.831  14.736 -0.6087  0.3154  0.7350
  239MPD1    C3 3626   0.245   2.886  14.660 -0.2445 -1.5170 -0.0303
  239MPD1    C4 3627   0.122   2.863  14.712 -0.6052 -0.7808  0.1979
  239MPD1    C5 3628   0.084   2.785  14.825  0.8187 -0.8073  0.1161
  239MPD1     H 3629   0.448   2.871  14.723 -0.3561 -0.2680  0.8780
  239MPD1    H1 3630   0.038   2.902  14.655  1.7809  1.5181 -1.7098
  239MPD1    H2 3631   0.159   2.676  14.971 -3.0684  2.3149  0.5500
  239MPD1    H3 3632   4.706   2.763  14.850 -0.0905  1.5776 -1.5767
  239MPD1     N 3633   0.261   2.979  14.561  0.0023  0.2120  0.8727
  239MPD1    H5 3634   0.177   3.008  14.512  1.4163  0.3184 -1.5396
  239MPD1    N1 3635   0.424   2.722  14.940  0.3678  0.2139  1.0469
  239MPD1    H6 3636   0.520   2.705  14.912  1.0893  2.9597  1.9568
  239MPD1    H7 3637   0.398   2.637  14.991  1.6441  0.0226  1.3722
  240MPD1     C 3638   4.412   3.139  14.368  0.2790  0.3751  0.4098
  240MPD1    C1 3639   4.432   3.045  14.267 -0.1285  0.0470 -0.3688
  240MPD1    C2 3640   4.451   2.910  14.310  0.4972  0.2974 -0.1583
  240MPD1    C3 3641   4.457   2.879  14.444  0.0330  1.2232  0.1086
  240MPD1    C4 3642   4.449   2.979  14.540 -0.8802  0.8337  0.2187
  240MPD1    C5 3643   4.427   3.108  14.505 -0.1977 -0.1083  0.5647
  240MPD1     H 3644   4.460   2.824  14.245 -2.9677  0.1253 -0.4200
  240MPD1    H1 3645   4.443   2.963  14.647 -1.0850  0.2526  0.1209
  240MPD1    H2 3646   4.379   3.237  14.335 -0.9048 -0.0247  0.4003
  240MPD1    H3 3647   4.401   3.183  14.580 -1.5917 -2.2581  2.2150
  240MPD1     N 3648   4.466   2.742  14.479  0.3163  0.1638 -0.1266
  240MPD1    H5 3649   4.459   2.679  14.399 -0.4815  0.6781 -0.4682
  240MPD1    N1 3650   4.391   3.078  14.140  0.3844  0.1371  0.5002
  240MPD1    H6 3651   4.402   3.005  14.069  1.1332  0.8127 -0.0703
  240MPD1    H7 3652   4.431   3.167  14.114 -0.4684  0.6671  0.9882
  241MPD1     C 3653   4.563   2.035  15.341 -0.6344 -0.0663  0.2712
  241MPD1    C1 3654   4.600   2.172  15.317  0.2826  0.0250  0.5910
  241MPD1    C2 3655   4.575   2.223  15.192  0.0944 -0.6675 -0.1116
  241MPD1    C3 3656   4.511   2.155  15.090 -0.0283 -0.1521 -0.6609
  241MPD1    C4 3657   4.466   2.030  15.113  0.2760 -0.6496  0.5323
  241MPD1    C5 3658   4.485   1.981  15.240 -0.3799 -0.3780  0.0860
  241MPD1     H 3659   4.608   2.325  15.177 -1.5648 -0.2721 -1.0537
  241MPD1    H1 3660   4.400   1.987  15.039 -1.9866  1.9318  1.0582
  241MPD1    H2 3661   4.567   1.997  15.443 -2.3603  1.3419  0.8619
  241MPD1    H3 3662   4.434   1.886  15.254 -1.7368 -0.1303 -3.1810
  241MPD1     N 3663   4.492   2.214  14.961 -0.4872 -0.2180  0.4377
  241MPD1    H5 3664   4.421   2.163  14.909 -0.1459 -0.0245 -0.2240
  241MPD1    N1 3665   4.682   2.242  15.400 -0.3380 -0.1249 -0.1942
  241MPD1    H6 3666   4.682   2.224  15.500 -1.4032  1.2270  0.0448
  241MPD1    H7 3667   4.665   2.342  15.387  0.6795 -0.0182 -0.7605
  242MPD1     C 3668   1.020   1.103  14.967  0.4611 -0.3328 -0.5938
  242MPD1    C1 3669   0.901   1.162  15.020 -0.0402 -0.4443 -0.6708
  242MPD1    C2 3670   0.789   1.090  14.986 -0.3182  0.6448  0.1142
  242MPD1    C3 3671   0.782   0.962  14.936 -0.0424 -0.0755  0.2831
  242MPD1    C4 3672   0.899   0.909  14.887  0.0691 -0.3118  0.7391
  242MPD1    C5 3673   1.021   0.979  14.902  0.4009 -0.5077 -0.5833
  242MPD1     H 3674   0.697   1.130  15.026 -0.6630 -0.3139  0.2820
  242MPD1    H1 3675   0.897   0.826  14.817  1.6384  0.5349 -0.3157
  242MPD1    H2 3676   1.117   1.152  14.964 -0.4208  1.4533  0.0192
  242MPD1    H3 3677   1.104   0.941  14.844  0.3494  1.0950 -1.7241
  242MPD1     N 3678   0.664   0.885  14.919  0.0802 -0.4517 -0.7043
  242MPD1    H5 3679   0.676   0.796  14.872 -1.2562 -0.5762 -0.8135
  242MPD1    N1 3680   0.897   1.286  15.070 -0.2690  0.2814 -0.0590
  242MPD1    H6 3681   0.974   1.327  15.124  0.0698 -1.8329  1.0496
  242MPD1    H7 3682   0.817   1.292  15.133  0.4414 -2.5440  1.1239
  243MPD1     C 3683   2.217   4.050  17.327 -0.4438 -0.1046  0.0352
  243MPD1    C1 3684   2.084   4.015  17.292  0.1472 -0.4830  0.7697
  243MPD1    C2 3685   1.997   4.121  17.266 -0.8860  0.5832  0.3229
  243MPD1    C3 3686   2.043   4.241  17.234  0.8654 -0.7088 -0.9658
  243MPD1    C4 3687   2.179   4.275  17.257 -0.2826 -0.1107  0.8254
  243MPD1    C5 3688   2.265   4.179  17.314 -0.4849 -0.1731  0.9610
  243MPD1     H 3689   1.892   4.096  17.252 -0.2890 -0.4129 -2.3705
  243MPD1    H1 3690   2.228   4.368  17.229  1.1797 -1.0226  0.3063
  243MPD1    H2 3691   2.281   3.975  17.372 -0.1872  0.2343  0.2362
  243MPD1    H3 3692   2.370   4.205  17.324 -0.8760  1.9093 -0.3604
  243MPD1     N 3693   1.942   4.336  17.200 -0.4871 -0.0099  0.4297
  243MPD1    H5 3694   1.845   4.308  17.186 -0.3064 -0.0334 -0.8409
  243MPD1    N1 3695   2.031   3.890  17.338  0.0794  0.3736 -0.2219
  243MPD1    H6 3696   2.094   3.811  17.325  1.7686  1.6341  0.2463
  243MPD1    H7 3697   1.937   3.872  17.305 -0.7112  1.5383  1.4107
  244MPD1     C 3698   2.056   0.588  17.303 -0.0447  0.0153 -0.0305
  244MPD1    C1 3699   2.006   0.503  17.399 -0.2219 -0.3039  0.0767
  244MPD1    C2 3700   1.944   0.388  17.359 -0.2833  0.3766 -0.8342
  244MPD1    C3 3701   1.938   0.353  17.229  0.0443 -0.4243  0.4213
  244MPD1    C4 3702   1.997   0.438  17.133 -0.0569  0.2363 -0.0983
  244MPD1    C5 3703   2.058   0.556  17.172  0.6448 -0.6218  0.0513
  244MPD1     H 3704   1.897   0.324  17.433  0.4137 -0.7397 -1.3582
  244MPD1    H1 3705   1.974   0.433  17.027  0.0771  0.3315 -0.1313
  244MPD1    H2 3706   2.104   0.680  17.335 -1.3872  0.4325  0.7955
  244MPD1    H3 3707   2.097   0.629  17.102  2.7727 -0.0277  1.8823
  244MPD1     N 3708   1.874   0.225  17.191 -0.6294  0.1210 -0.2988
  244MPD1    H5 3709   1.844   0.165  17.267  2.0657 -1.6186 -0.6224
  244MPD1    N1 3710   2.009   0.559  17.533  0.0364  0.1664  0.3251
  244MPD1    H6 3711   1.969   0.490  17.596 -0.2101 -1.2847 -1.4144
  244MPD1    H7 3712   2.105   0.576  17.562 -0.7569  3.4331  0.9845
  245MPD1     C 3713   2.954   0.123  13.334 -0.5795 -0.0701  0.1278
  245MPD1    C1 3714   3.094   0.119  13.334 -0.8645  0.1479 -0.3775
  245MPD1    C2 3715   3.162   0.226  13.393  0.6022 -0.5917  0.3278
  245MPD1    C3 3716   3.087   0.332  13.439 -0.1116  0.8286 -0.0329
  245MPD1    C4 3717   2.956   0.338  13.439 -0.1000  0.2113  0.4783
  245MPD1    C5 3718   2.888   0.232  13.384  1.0846 -0.2572  0.0454
  245MPD1     H 3719   3.267   0.228  13.419  0.5724  2.4960  0.2252
  245MPD1    H1 3720   2.897   0.416  13.485  1.3852  0.4729  1.9384
  245MPD1    H2 3721   2.896   0.046  13.284 -1.7941  1.0007 -0.1017
  245MPD1    H3 3722   2.780   0.237  13.377  1.2150  2.5545  0.0349
  245MPD1     N 3723   3.163   0.443  13.498  0.1605  0.3090 -0.2715
  245MPD1    H5 3724   3.261   0.430  13.517  0.1895 -0.6107 -1.0609
  245MPD1    N1 3725   3.154   4.721  13.305  0.3416 -0.0437 -0.1083
  245MPD1    H6 3726   3.241   0.011  13.255  0.4938 -1.5606 -0.3283
  245MPD1    H7 3727   3.094   4.654  13.257  0.2308 -0.8977  1.2205
  246MPD1     C 3728   1.898   2.543   8.570  0.1737 -0.7546 -0.5573
  246MPD1    C1 3729   1.975   2.657   8.558  0.2288  0.9461  0.2038
  246MPD1    C2 3730   2.105   2.668   8.617  0.0251 -0.8072 -0.5065
  246MPD1    C3 3731   2.146   2.554   8.688  0.6973 -0.1404 -0.1395
  246MPD1    C4 3732   2.081   2.434   8.692  1.0770  0.0702  0.2702
  246MPD1    C5 3733   1.957   2.430   8.630 -0.0511  0.0172 -0.1591
  246MPD1     H 3734   2.169   2.755   8.611  1.1473 -1.7828 -3.1316
  246MPD1    H1 3735   2.117   2.339   8.729  1.3984  0.0081 -0.2047
  246MPD1    H2 3736   1.797   2.528   8.533 -0.8540  0.4687  1.8335
  246MPD1    H3 3737   1.907   2.334   8.646 -0.8141  0.7636  1.9594
  246MPD1     N 3738   2.274   2.568   8.744  0.1507  0.7273 -0.6078
  246MPD1    H5 3739   2.322   2.656   8.734 -1.6110  1.4107 -3.0730
  246MPD1    N1 3740   1.918   2.771   8.508  0.0503 -0.5044  1.0275
  246MPD1    H6 3741   1.982   2.841   8.474 -0.5012 -0.0204  0.9881
  246MPD1    H7 3742   1.848   2.748   8.437 -0.2214  0.4249  0.9992
  247MPD1     C 3743   1.673   4.519  16.059  0.0239  0.0178 -0.4653
  247MPD1    C1 3744   1.742   4.636  16.048  0.6637 -0.0747  0.3838
  247MPD1    C2 3745   1.881   4.645  16.051 -0.0242 -0.0208 -0.0324
  247MPD1    C3 3746   1.961   4.532  16.041  0.0974 -0.7467 -0.6639
  247MPD1    C4 3747   1.888   4.415  16.044 -0.5859 -0.0813  0.7939
  247MPD1    C5 3748   1.753   4.412  16.048 -0.5745 -0.7318 -0.8839
  247MPD1     H 3749   1.919   0.021  16.043  2.1835 -0.6991  1.6132
  247MPD1    H1 3750   1.951   4.327  16.049  1.7950  1.5682 -0.2202
  247MPD1    H2 3751   1.568   4.514  16.086  0.4174  0.8985  1.2590
  247MPD1    H3 3752   1.712   4.312  16.061  0.3734 -0.7630  1.8765
  247MPD1     N 3753   2.100   4.528  16.045 -0.3764 -0.0027  0.0187
  247MPD1    H5 3754   2.131   4.432  16.041  0.1566  0.1774 -0.1900
  247MPD1    N1 3755   1.662   0.029  16.062 -0.0112 -0.6478 -0.1077
  247MPD1    H6 3756   1.703   0.106  16.010 -1.5244 -1.2087 -2.1292
  247MPD1    H7 3757   1.566   0.018  16.030 -0.1038 -0.1738  0.0151
  248MPD1     C 3758   4.558   2.049   0.630 -0.2746 -0.0402  0.0542
  248MPD1    C1 3759   4.444   2.112   0.676 -0.1301 -0.3476  0.1566
  248MPD1    C2 3760   4.342   2.032   0.725 -0.1117  1.0878  0.3836
  248MPD1    C3 3761   4.354   1.893   0.713  0.2991 -0.6252 -0.9543
  248MPD1    C4 3762   4.462   1.834   0.653 -0.3086  0.0131  0.8242
  248MPD1    C5 3763   4.565   1.907   0.609 -0.1561  0.4128  0.6300
  248MPD1     H 3764   4.257   2.079   0.772  0.5631  0.7373  1.9539
  248MPD1    H1 3765   4.478   1.727   0.639 -0.5431  0.1176 -0.2220
  248MPD1    H2 3766   4.636   2.110   0.585 -0.5050  1.1038  1.2144
  248MPD1    H3 3767   4.658   1.858   0.585 -0.5734  0.3006 -0.7302
  248MPD1     N 3768   4.258   1.813   0.770  0.6067  0.0875  0.1230
  248MPD1    H5 3769   4.176   1.861   0.805  0.5329  1.6607 -2.1415
  248MPD1    N1 3770   4.430   2.250   0.666 -0.5070 -1.0487 -0.6023
  248MPD1    H6 3771   4.515   2.302   0.647 -0.4814 -0.4901  0.9994
  248MPD1    H7 3772   4.417   2.288   0.760  1.6430  2.1918 -1.6178
  249MPD1     C 3773   0.134   4.618  10.855  0.2805 -0.3515 -0.3307
  249MPD1    C1 3774   0.236   4.693  10.795 -0.4833  0.1594  0.3125
  249MPD1    C2 3775   0.291   4.657  10.671 -0.2480  0.4930 -0.0318
  249MPD1    C3 3776   0.244   4.546  10.617  0.3040  0.0841 -0.3336
  249MPD1    C4 3777   0.160   4.456  10.686  0.6395 -0.1039 -0.0474
  249MPD1    C5 3778   0.090   4.500  10.795  0.0310 -0.6137 -0.1343
  249MPD1     H 3779   0.363   4.723  10.625 -1.8409  0.9757 -1.8264
  249MPD1    H1 3780   0.123   4.361  10.650 -1.0904  0.2405  0.8448
  249MPD1    H2 3781   0.078   4.660  10.937 -1.9799 -1.0502 -1.5208
  249MPD1    H3 3782   0.002   4.445  10.826  0.3366 -0.4553  1.0162
  249MPD1     N 3783   0.302   4.503  10.499  0.5863 -0.1646  0.4511
  249MPD1    H5 3784   0.357   4.571  10.448 -1.9276  1.2265 -0.4246
  249MPD1    N1 3785   0.280   0.079  10.858 -0.4798  0.5359 -0.0525
  249MPD1    H6 3786   0.377   0.100  10.833  0.0713  0.3562  1.9719
  249MPD1    H7 3787   0.272   0.057  10.957  0.3427 -0.6314 -0.2384
  250MPD2     C 3788   0.944   3.543  13.262  0.1567  0.1446  1.3254
  250MPD2    C1 3789   0.950   3.614  13.143 -0.3995 -0.0906 -0.8597
  250MPD2    C2 3790   0.887   3.572  13.028  0.1992  0.7018 -0.0639
  250MPD2    C3 3791   0.827   3.451  13.028 -0.2315  0.4340 -0.8583
  250MPD2    C4 3792   0.821   3.379  13.144  0.6261 -0.0908  0.1532
  250MPD2    C5 3793   0.877   3.426  13.257  0.1781  0.3435  0.0095
  250MPD2     H 3794   0.904   3.627  12.937 -2.1899 -2.4808 -2.4360
  250MPD2    H1 3795   0.769   3.283  13.149  0.2325  0.0535 -1.1713
  250MPD2    H2 3796   0.987   3.574  13.357  0.5142  1.2029  0.8208
  250MPD2    H3 3797   0.868   3.372  13.350  0.0900  0.1260 -0.1244
  250MPD2     N 3798   0.790   3.392  12.905  0.2773  0.6652  0.5144
  250MPD2    H5 3799   0.760   3.298  12.927  1.5288  0.6003  1.9266
  250MPD2    N1 3800   1.038   3.721  13.149  0.5605 -0.1262 -0.1481
  250MPD2    H7 3801   1.084   3.733  13.238 -1.2602  0.9008  0.6607
  251TMC3    C1 3802   1.192   3.875  13.097 -0.5202  0.8608  0.2563
  251TMC3    C2 3803   1.214   3.871  13.232 -0.0563 -0.1155 -0.6705
  251TMC3    C3 3804   1.344   3.865  13.276  0.2255  0.2222 -0.0633
  251TMC3    C4 3805   1.295   3.854  13.010 -0.0182  0.0983  0.0477
  251TMC3    C5 3806   1.422   3.845  13.064 -0.0951 -0.2426  0.3508
  251TMC3    C6 3807   1.451   3.849  13.196  0.1622 -0.3962 -0.1604
  251TMC3     C 3808   1.072   3.806  13.050  0.1276  0.0526  0.0566
  251TMC3     O 3809   1.060   3.792  12.926 -0.6192  0.0479  0.4598
  251TMC3     H 3810   1.137   3.913  13.296 -0.1097  0.7675 -1.3072
  251TMC3    H1 3811   1.274   3.859  12.904 -1.0689 -0.5647  0.2285
  251TMC3    H2 3812   1.551   3.835  13.235  1.4233  0.9964 -2.9062
  251TMC3    C7 3813   1.527   3.799  12.973 -0.6824  0.6077 -0.7536
  251TMC3    C8 3814   1.365   3.930  13.406 -0.0945 -0.2418 -0.1288
  251TMC3    O1 3815   1.643   3.800  13.012 -0.0972 -0.0782  0.0572
  251TMC3    O2 3816   1.288   4.021  13.433  0.5180 -0.7435  0.7669
  252TMC3    C1 3817   2.875   3.235   9.432  0.3018 -1.0694 -0.3794
  252TMC3    C2 3818   2.888   3.373   9.424  0.2673  0.3155  0.1668
  252TMC3    C3 3819   2.787   3.444   9.360 -0.5210 -0.2680  0.1385
  252TMC3    C4 3820   2.764   3.172   9.382 -0.4147 -0.3999 -0.4300
  252TMC3    C5 3821   2.660   3.246   9.328 -0.2426 -0.3137 -0.1982
  252TMC3    C6 3822   2.669   3.385   9.319 -0.3050 -0.5914 -0.2621
  252TMC3     C 3823   2.993   3.155   9.471  0.5992 -0.0348 -0.0102
  252TMC3     O 3824   2.973   3.038   9.460  0.1415  0.1907 -0.1595
  252TMC3     H 3825   2.979   3.426   9.448  3.1172 -2.8905 -3.4268
  252TMC3    H1 3826   2.735   3.068   9.395  0.1787 -0.6687 -1.2321
  252TMC3    H2 3827   2.587   3.447   9.282 -0.6826 -0.7312  0.3379
  252TMC3    C7 3828   2.558   3.167   9.265 -0.2196  0.4456  0.3969
  252TMC3    C8 3829   2.810   3.579   9.309  0.2434  0.2585 -0.6390
  252TMC3    O1 3830   2.594   3.057   9.226  0.7862  0.2743  0.1784
  252TMC3    O2 3831   2.770   3.605   9.197 -0.6301  0.2121 -0.0184
  253MPD2     C 3832   2.912   3.375  15.760 -0.0566 -0.0047  0.1829
  253MPD2    C1 3833   2.779   3.343  15.740 -0.0630  0.2143 -0.3415
  253MPD2    C2 3834   2.708   3.306  15.847 -0.0953  0.2010 -0.2408
  253MPD2    C3 3835   2.755   3.321  15.979 -0.1956  0.3639  0.4546
  253MPD2    C4 3836   2.893   3.350  16.001  0.4064  0.6554 -0.2093
  253MPD2    C5 3837   2.968   3.372  15.890 -0.4577  0.6380  0.7092
  253MPD2     H 3838   2.604   3.281  15.833 -0.2617  1.1241 -0.6711
  253MPD2    H1 3839   2.931   3.353  16.102 -0.0150  1.5479 -0.0712
  253MPD2    H2 3840   2.974   3.406  15.677  0.4351  0.4796  0.7293
  253MPD2    H3 3841   3.074   3.391  15.898  0.1121 -2.5920  0.5376
  253MPD2     N 3842   2.677   3.308  16.092 -0.2982 -0.1446  0.6342
  253MPD2    H5 3843   2.719   3.340  16.178  0.8228 -0.3929  0.1831
  253MPD2    N1 3844   2.707   3.346  15.623  0.0540 -0.0334 -0.0806
  253MPD2    H7 3845   2.611   3.313  15.627  0.1899 -0.7083 -2.4581
  254TMC3    C1 3846   2.486   3.271  16.229 -0.1005  0.2192 -0.6778
  254TMC3    C2 3847   2.348   3.301  16.234 -1.0088 -0.0441 -0.6443
  254TMC3    C3 3848   2.285   3.333  16.350 -0.0901 -0.0551 -0.2189
  254TMC3    C4 3849   2.560   3.290  16.343  0.2818  0.5410  0.5491
  254TMC3    C5 3850   2.500   3.326  16.463 -0.4059 -0.2237 -0.2247
  254TMC3    C6 3851   2.362   3.344  16.466 -0.2110  0.1180  0.2347
  254TMC3     C 3852   2.549   3.254  16.098  0.4971  0.5392 -0.6789
  254TMC3     O 3853   2.481   3.214  16.008 -0.4852  0.1035 -0.5104
  254TMC3     H 3854   2.296   3.310  16.139 -0.3826 -1.4762 -1.1159
  254TMC3    H1 3855   2.664   3.262  16.339  0.1982  0.6194 -1.9084
  254TMC3    H2 3856   2.323   3.385  16.559 -0.7340  1.4231 -0.5474
  254TMC3    C7 3857   2.554   3.305  16.597 -0.2708 -0.4017 -0.3008
  254TMC3    C8 3858   2.166   3.421  16.352 -0.3798  0.4283  0.6900
  254TMC3    O1 3859   2.517   3.368  16.696  0.2746  0.5046  0.0733
  254TMC3    O2 3860   2.162   3.515  16.437  0.0176 -0.2154 -0.0477
  255MPD2     C 3861   0.626   2.392  10.413 -0.0460 -0.3209  0.6360
  255MPD2    C1 3862   0.668   2.470  10.309  0.0269  0.0418 -0.1524
  255MPD2    C2 3863   0.794   2.441  10.250  0.0315 -0.5612 -0.6587
  255MPD2    C3 3864   0.875   2.344  10.305  0.5827 -0.8291 -0.4260
  255MPD2    C4 3865   0.834   2.270  10.417  0.3341  0.7615 -0.2495
  255MPD2    C5 3866   0.705   2.289  10.465 -0.2926 -0.8704  0.2656
  255MPD2     H 3867   0.819   2.492  10.158  1.6011  1.6017  0.9586
  255MPD2    H1 3868   0.904   2.198  10.458 -2.3845 -0.2548  2.5843
  255MPD2    H2 3869   0.526   2.411  10.451 -0.0131 -0.5937  0.8656
  255MPD2    H3 3870   0.664   2.228  10.545 -0.1354 -0.6528  0.5116
  255MPD2     N 3871   0.994   2.317  10.228 -0.3689 -0.0463 -0.1653
  255MPD2    H5 3872   1.033   2.392  10.170  1.0206 -1.0397 -0.5319
  255MPD2    N1 3873   0.567   2.557  10.251  0.2884  0.3467  0.4979
  255MPD2    H7 3874   0.471   2.553  10.285  1.0734 -0.9869  2.5517
  256TMC3    C1 3875   0.452   2.664  10.091  0.0553  0.3975 -0.0338
  256TMC3    C2 3876   0.449   2.777  10.023  1.0508  0.0916 -0.2150
  256TMC3    C3 3877   0.332   2.808   9.957  0.1246 -0.2277 -0.1572
  256TMC3    C4 3878   0.357   2.563  10.081  1.0995 -0.9074 -0.5765
  256TMC3    C5 3879   0.248   2.594  10.001 -0.2140  0.3380  0.1000
  256TMC3    C6 3880   0.233   2.716   9.941 -0.3606 -0.1797  0.3218
  256TMC3     C 3881   0.581   2.616  10.131  0.3902 -0.3598 -0.2256
  256TMC3     O 3882   0.683   2.653  10.074  0.5640  0.3644  0.6912
  256TMC3     H 3883   0.533   2.845  10.028 -0.7643  2.3154 -0.1833
  256TMC3    H1 3884   0.374   2.469  10.133 -2.7911 -1.4879 -0.3557
  256TMC3    H2 3885   0.148   2.738   9.878  0.3653  0.6439 -0.3604
  256TMC3    C7 3886   0.190   2.477   9.932  0.0887  0.3243  0.5819
  256TMC3    C8 3887   0.331   2.917   9.858  0.2447  0.1734  0.2738
  256TMC3    O1 3888   0.209   2.365   9.972  0.4700 -0.0144 -0.1886
  256TMC3    O2 3889   0.222   2.945   9.806 -0.2676  0.6962  0.3181
  257MPD2     C 3890   0.237   3.837  13.269 -0.0458 -0.1914 -0.3991
  257MPD2    C1 3891   0.180   3.741  13.185 -0.3735 -0.8163  0.0997
  257MPD2    C2 3892   0.137   3.620  13.233  0.5333 -0.5184 -0.4645
  257MPD2    C3 3893   0.158   3.587  13.368  1.2047 -1.1769 -0.1000
  257MPD2    C4 3894   0.224   3.679  13.448  0.2104  0.5998  0.0734
  257MPD2    C5 3895   0.259   3.797  13.396 -0.1519 -0.7870 -0.0563
  257MPD2     H 3896   0.100   3.547  13.162 -0.1875 -0.2265 -0.3786
  257MPD2    H1 3897   0.253   3.671  13.552  0.1375  0.8572  0.1133
  257MPD2    H2 3898   0.269   3.936  13.238  1.6443 -0.8444 -0.7515
  257MPD2    H3 3899   0.304   3.868  13.465 -0.3570  0.8918 -1.6209
  257MPD2     N 3900   0.106   3.464  13.414  0.2844  0.1987 -0.5029
  257MPD2    H5 3901   0.068   3.411  13.336 -0.4127 -1.3560  0.9058
  257MPD2    N1 3902   0.169   3.773  13.046  0.3729  0.9520  0.1628
  257MPD2    H7 3903   0.217   3.859  13.022  0.2532  0.9495 -0.0854
  258TMC3    C1 3904   0.029   3.313  13.574  0.5058  0.2329 -0.0974
  258TMC3    C2 3905   4.630   3.304  13.517 -0.3669 -0.2710  0.0792
  258TMC3    C3 3906   4.536   3.221  13.575 -0.8496  0.4806 -0.0414
  258TMC3    C4 3907   0.064   3.237  13.688 -0.1186 -0.0321  0.6370
  258TMC3    C5 3908   4.690   3.159  13.743  0.1708 -0.3515  0.2190
  258TMC3    C6 3909   4.564   3.159  13.691  0.0870 -0.0560  0.0537
  258TMC3     C 3910   0.121   3.416  13.542  0.1549  0.4682  0.0539
  258TMC3     O 3911   0.207   3.445  13.623  0.7337 -0.9377  0.2955
  258TMC3     H 3912   4.598   3.352  13.425 -0.9053  0.8457  0.8523
  258TMC3    H1 3913   0.166   3.235  13.725  0.9822  0.4653 -2.3449
  258TMC3    H2 3914   4.493   3.091  13.737  1.0490 -2.0401 -1.3755
  258TMC3    C7 3915   4.699   3.092  13.874  0.6088 -0.2588 -0.2462
  258TMC3    C8 3916   4.413   3.196  13.500  0.2330  0.5065 -0.1994
  258TMC3    O1 3917   4.597   3.075  13.934 -0.1272  0.2260 -0.2858
  258TMC3    O2 3918   4.403   3.239  13.388 -0.0285 -0.4806 -0.1960
  259MPD2     C 3919   4.527   0.829   1.079 -0.6753 -0.0977  0.0155
  259MPD2    C1 3920   4.496   0.701   1.086  1.1845 -1.1405  0.6162
  259MPD2    C2 3921   4.508   0.627   0.961  0.1614 -0.1658  0.3751
  259MPD2    C3 3922   4.545   0.689   0.841  0.3753  0.6314 -0.3292
  259MPD2    C4 3923   4.565   0.822   0.842 -0.2086  0.1079  0.1924
  259MPD2    C5 3924   4.562   0.887   0.962  0.5312  0.0802  0.6113
  259MPD2     H 3925   4.482   0.523   0.949 -1.8860  0.4395 -0.3929
  259MPD2    H1 3926   4.600   0.884   0.760 -0.2266  0.7840  0.6927
  259MPD2    H2 3927   4.527   0.901   1.161 -2.5711 -0.0985  0.0233
  259MPD2    H3 3928   4.584   0.993   0.969  3.0853 -0.4832  0.9383
  259MPD2     N 3929   4.562   0.612   0.729  0.6026 -0.4843  1.0760
  259MPD2    H5 3930   4.547   0.514   0.748 -0.0207 -0.7738 -0.9282
  259MPD2    N1 3931   4.467   0.646   1.211 -0.6923  0.0317 -0.3031
  259MPD2    H7 3932   4.497   0.697   1.293  0.8112  0.3653 -1.0694
  260TMC3    C1 3933   4.617   0.572   0.506  0.3780  0.1094 -0.6406
  260TMC3    C2 3934   4.569   0.588   0.376 -0.1056  0.1859 -0.2562
  260TMC3    C3 3935   4.592   0.485   0.285 -0.6493 -0.5244  0.6504
  260TMC3    C4 3936   4.671   0.450   0.551  0.5705  0.0132  0.4250
  260TMC3    C5 3937   4.703   0.363   0.454 -0.4282 -0.1844  0.4593
  260TMC3    C6 3938   4.668   0.378   0.320 -0.3963  0.4681  0.4237
  260TMC3     C 3939   4.572   0.666   0.603  0.6009  0.1747  1.1660
  260TMC3     O 3940   4.549   0.779   0.565 -0.2291  0.0562  0.0597
  260TMC3     H 3941   4.502   0.670   0.354  1.0685  0.8612 -1.3260
  260TMC3    H1 3942   4.705   0.433   0.653  0.0158 -0.6377  0.5076
  260TMC3    H2 3943   4.705   0.303   0.251 -0.2166  1.2212 -0.3038
  260TMC3    C7 3944   4.673   0.226   0.489 -0.0669 -0.5497  0.4479
  260TMC3    C8 3945   4.483   0.450   0.184  0.1202 -0.0179 -0.0952
  260TMC3    O1 3946   0.048   0.153   0.499  0.0138  0.1691 -0.0583
  260TMC3    O2 3947   4.370   0.499   0.195  0.2690  0.3819 -0.1869
  261MPD2     C 3948   0.561   3.475  12.074 -0.0172 -0.0024  0.4467
  261MPD2    C1 3949   0.610   3.543  12.184 -0.0638  0.6186 -0.0951
  261MPD2    C2 3950   0.646   3.673  12.170  0.2455 -0.4894  0.0597
  261MPD2    C3 3951   0.626   3.750  12.052 -0.4853  0.2244 -0.1852
  261MPD2    C4 3952   0.566   3.682  11.944 -0.0875  0.0115  0.5893
  261MPD2    C5 3953   0.534   3.547  11.958  1.0057  0.3057 -0.4426
  261MPD2     H 3954   0.676   3.734  12.255 -0.9628  1.0155 -0.5886
  261MPD2    H1 3955   0.556   3.727  11.846  0.8491  0.5803  0.7506
  261MPD2    H2 3956   0.532   3.370  12.072 -1.2226  0.3109  1.9557
  261MPD2    H3 3957   0.495   3.502  11.868  0.5808 -0.3808  0.0842
  261MPD2     N 3958   0.665   3.877  12.047 -0.4677 -0.4099  0.3986
  261MPD2    H5 3959   0.722   3.908  12.126  2.0267 -1.4331 -0.9962
  261MPD2    N1 3960   0.646   3.480  12.310  0.1598 -0.0153  0.2564
  261MPD2    H7 3961   0.695   3.537  12.378  0.9161 -1.6147  1.0296
  262TMC3    C1 3962   0.718   4.093  11.951  0.1103  0.1465 -0.1562
  262TMC3    C2 3963   0.670   4.186  11.864  0.0346 -0.5091  0.2183
  262TMC3    C3 3964   0.756   4.293  11.845 -0.3674  0.5148  0.6542
  262TMC3    C4 3965   0.845   4.097  12.001  0.3128  0.1149 -0.4742
  262TMC3    C5 3966   0.929   4.196  11.966  1.1060 -0.5802  0.2444
  262TMC3    C6 3967   0.884   4.293  11.887 -0.7419 -0.5960 -0.4360
  262TMC3     C 3968   0.640   3.970  11.943 -0.0557  0.4291  0.7022
  262TMC3     O 3969   0.568   3.952  11.847 -0.5954  0.5371 -0.2480
  262TMC3     H 3970   0.563   4.193  11.846  0.5092  1.2110 -2.0622
  262TMC3    H1 3971   0.879   4.009  12.056  0.5657  1.0908  0.9206
  262TMC3    H2 3972   0.940   4.383  11.865  0.8556 -1.2746  0.8279
  262TMC3    C7 3973   1.071   4.169  11.987  0.3915 -0.1976  0.3586
  262TMC3    C8 3974   0.722   4.410  11.769 -0.6048  0.1115 -0.7173
  262TMC3    O1 3975   1.101   4.104  12.087 -0.7339 -0.1298 -0.3477
  262TMC3    O2 3976   0.746   4.519  11.817 -0.0748  0.2080 -0.1955
  263MPD2     C 3977   2.266   2.718  11.112 -0.4082 -0.1165 -0.5774
  263MPD2    C1 3978   2.332   2.836  11.138 -0.2350 -0.4102 -0.0461
  263MPD2    C2 3979   2.326   2.937  11.040 -0.9136  0.1376  0.2829
  263MPD2    C3 3980   2.267   2.916  10.914 -0.0597  0.1669 -0.3253
  263MPD2    C4 3981   2.208   2.794  10.896 -0.0103  0.1174  0.4536
  263MPD2    C5 3982   2.211   2.694  10.986 -0.0714  0.5295 -0.0443
  263MPD2     H 3983   2.358   3.037  11.066 -3.3197  0.5559  1.6341
  263MPD2    H1 3984   2.157   2.778  10.802  0.4893 -0.4011  0.2712
  263MPD2    H2 3985   2.249   2.638  11.183 -0.4754  0.3283 -0.0982
  263MPD2    H3 3986   2.156   2.602  10.968 -0.4017  0.5880  0.6592
  263MPD2     N 3987   2.256   3.023  10.823 -0.4936  0.0589 -0.5680
  263MPD2    H5 3988   2.295   3.112  10.853  1.8509 -0.9825 -0.5157
  263MPD2    N1 3989   2.408   2.854  11.260  1.2030  0.2146 -0.3084
  263MPD2    H7 3990   2.405   2.776  11.325 -1.0934  0.3595 -0.2221
  264TMC3    C1 3991   2.242   3.139  10.611 -0.5635 -0.0201  0.1423
  264TMC3    C2 3992   2.232   3.256  10.680  0.1004 -0.0714  0.5751
  264TMC3    C3 3993   2.277   3.367  10.612  0.2261 -0.0892  0.6757
  264TMC3    C4 3994   2.312   3.126  10.492  0.0393 -0.3282  0.1487
  264TMC3    C5 3995   2.357   3.242  10.427 -0.4145  0.5142  0.3064
  264TMC3    C6 3996   2.331   3.364  10.488  0.0787 -1.4063  0.2824
  264TMC3     C 3997   2.224   3.013  10.689 -0.1516 -0.0601 -0.0920
  264TMC3     O 3998   2.229   2.908  10.623 -0.4402 -0.2627 -0.4070
  264TMC3     H 3999   2.179   3.273  10.773 -0.9563  0.6898 -0.1567
  264TMC3    H1 4000   2.347   3.030  10.458  1.4201 -0.7511  2.7839
  264TMC3    H2 4001   2.357   3.456  10.438 -1.2508 -1.3929 -0.3876
  264TMC3    C7 4002   2.445   3.232  10.310 -0.3469 -0.1851 -0.3777
  264TMC3    C8 4003   2.316   3.479  10.696 -0.3846  0.5131  0.5027
  264TMC3    O1 4004   2.455   3.116  10.271 -0.5158  0.5332  0.3619
  264TMC3    O2 4005   2.418   3.531  10.656  0.2463  0.0553 -0.1239
  265MPD2     C 4006   4.066   3.256  15.692 -0.4793 -0.2706 -0.5181
  265MPD2    C1 4007   4.081   3.365  15.616 -0.0366  0.1842  0.6532
  265MPD2    C2 4008   4.123   3.357  15.480  0.1107  0.1026 -0.3327
  265MPD2    C3 4009   4.161   3.241  15.430  0.5219  0.7930 -0.4485
  265MPD2    C4 4010   4.151   3.126  15.511  0.0047  0.5038  0.2905
  265MPD2    C5 4011   4.096   3.137  15.638  0.8894 -0.2024  0.2382
  265MPD2     H 4012   4.133   3.449  15.424 -0.0846 -0.6902 -1.6661
  265MPD2    H1 4013   4.179   3.025  15.481 -0.2665  0.4362  0.2632
  265MPD2    H2 4014   4.040   3.264  15.797  0.0558 -1.4503 -0.2963
  265MPD2    H3 4015   4.064   3.053  15.699  1.1818 -0.4987 -0.0124
  265MPD2     N 4016   4.207   3.229  15.299 -0.3520  0.4204 -0.1558
  265MPD2    H5 4017   4.226   3.135  15.266  1.2667  1.1333 -1.2372
  265MPD2    N1 4018   4.049   3.493  15.655 -0.6567  0.7646  0.5204
  265MPD2    H7 4019   4.041   3.550  15.571 -1.5697 -0.8264 -0.4652
  266TMC3    C1 4020   3.982   3.678  15.764 -0.0952 -0.1308  0.2137
  266TMC3    C2 4021   3.882   3.728  15.848  0.1700 -0.0545  0.5318
  266TMC3    C3 4022   3.843   3.850  15.820 -0.1396  0.7217 -1.0244
  266TMC3    C4 4023   4.045   3.748  15.671 -0.0533  0.0041  0.7068
  266TMC3    C5 4024   4.008   3.875  15.654  0.3585  0.1866  0.4233
  266TMC3    C6 4025   3.903   3.924  15.715 -0.5786  0.3138 -0.2617
  266TMC3     C 4026   4.004   3.540  15.773 -0.1787 -0.4621 -0.9169
  266TMC3     O 4027   3.970   3.476  15.878  0.4293  0.3630  0.0734
  266TMC3     H 4028   3.830   3.665  15.920  0.5563 -1.0213 -0.0270
  266TMC3    H1 4029   4.140   3.709  15.636 -0.6226  1.7438 -2.7796
  266TMC3    H2 4030   3.863   4.023  15.696 -1.0602  0.3762  1.0491
  266TMC3    C7 4031   4.072   3.944  15.542  0.1400 -0.2794  0.1728
  266TMC3    C8 4032   3.733   3.914  15.893 -0.3160  0.0486  0.0967
  266TMC3    O1 4033   4.118   3.859  15.461 -0.4185 -0.2384 -0.1155
  266TMC3    O2 4034   3.634   3.848  15.917  0.2890  0.6549 -0.0708
  267MPD2     C 4035   1.611   4.571   0.331  0.2574 -0.0943 -0.0979
  267MPD2    C1 4036   1.613   4.681   0.252 -0.1087  0.2503  0.4481
  267MPD2    C2 4037   1.593   4.680   0.114 -0.0700  0.2957  0.1115
  267MPD2    C3 4038   1.575   4.555   0.053 -0.1931  0.0299 -0.4367
  267MPD2    C4 4039   1.571   4.441   0.132 -0.3751  0.4779  0.3423
  267MPD2    C5 4040   1.584   4.450   0.270 -0.2423  0.2882 -0.1079
  267MPD2     H 4041   1.583   0.041   0.050  1.4481  0.0945 -0.4042
  267MPD2    H1 4042   1.550   4.346   0.083  0.3382  0.7213 -0.4150
  267MPD2    H2 4043   1.609   4.574   0.439  0.9941 -1.6320 -0.0329
  267MPD2    H3 4044   1.563   4.363   0.331 -0.5418  0.0498 -0.5591
  267MPD2     N 4045   1.542   4.536  17.622 -0.0719  0.2758 -0.7890
  267MPD2    H5 4046   1.513   4.443  17.594  1.5900  0.3060 -2.6012
  267MPD2    N1 4047   1.631   0.072   0.331  0.8001  0.2427 -0.2606
  267MPD2    H7 4048   1.634   0.059   0.431  0.9808 -0.8392 -0.4008
  268TMC3    C1 4049   1.681   0.307   0.371  0.3435  0.4698  0.5550
  268TMC3    C2 4050   1.641   0.431   0.328 -0.2505 -0.3759  0.2290
  268TMC3    C3 4051   1.612   0.516   0.430 -0.0120 -0.3897 -0.1098
  268TMC3    C4 4052   1.711   0.275   0.502 -0.0562 -0.6285 -1.1408
  268TMC3    C5 4053   1.699   0.375   0.595  0.4052 -0.4802  0.5467
  268TMC3    C6 4054   1.649   0.499   0.561  0.1871  0.4087 -0.2882
  268TMC3     C 4055   1.653   0.198   0.274  0.1545 -0.2082 -0.4349
  268TMC3     O 4056   1.659   0.232   0.155  0.0950 -0.1982 -0.4542
  268TMC3     H 4057   1.603   0.446   0.228  0.6375 -0.4665 -0.1191
  268TMC3    H1 4058   1.742   0.175   0.528 -0.1657 -0.1480  0.8636
  268TMC3    H2 4059   1.624   0.578   0.631  1.0725  0.5861 -0.1841
  268TMC3    C7 4060   1.734   0.354   0.732 -0.4757  0.0385  0.1069
  268TMC3    C8 4061   1.566   0.654   0.406 -0.1013  0.4101  0.2185
  268TMC3    O1 4062   1.730   0.237   0.764  0.0226  0.2776  0.0973
  268TMC3    O2 4063   1.495   0.702   0.490  0.5395  0.4807  0.3534
  269MPD2     C 4064   2.042   3.875  15.776  0.5459  0.3047 -0.1252
  269MPD2    C1 4065   1.908   3.908  15.779  0.3895  0.0507 -0.2312
  269MPD2    C2 4066   1.873   4.043  15.772  0.7032  0.8923  0.1765
  269MPD2    C3 4067   1.969   4.143  15.768 -0.4914  0.0621 -1.0389
  269MPD2    C4 4068   2.102   4.105  15.776  0.2666  0.2317  0.6371
  269MPD2    C5 4069   2.134   3.970  15.780 -0.1236  0.6316  0.6607
  269MPD2     H 4070   1.769   4.073  15.770  0.3646 -0.2000  1.7095
  269MPD2    H1 4071   2.180   4.179  15.762 -0.1700  0.6528  0.4102
  269MPD2    H2 4072   2.083   3.775  15.769  1.4819  0.7554 -1.1039
  269MPD2    H3 4073   2.240   3.952  15.769 -0.0087  0.8057  1.4542
  269MPD2     N 4074   1.923   4.275  15.743  0.6232 -0.2627  0.2055
  269MPD2    H5 4075   1.824   4.297  15.736  0.2579 -1.8959  0.3723
  269MPD2    N1 4076   1.820   3.793  15.785  0.3735 -0.0077  0.8667
  269MPD2    H7 4077   1.861   3.701  15.775 -1.5567 -0.9192  1.2718
  270TMC3    C1 4078   1.616   3.680  15.796  0.6914  0.3831  0.3840
  270TMC3    C2 4079   1.482   3.683  15.749 -0.6134  1.3445  0.2845
  270TMC3    C3 4080   1.422   3.567  15.761 -0.2020 -0.0647  0.4991
  270TMC3    C4 4081   1.676   3.576  15.856 -0.4979 -0.8087  0.1573
  270TMC3    C5 4082   1.609   3.464  15.859 -0.0048 -0.3437  0.0091
  270TMC3    C6 4083   1.486   3.452  15.803  0.5899 -0.7365  0.4384
  270TMC3     C 4084   1.687   3.807  15.795  0.2694  0.7152  0.5271
  270TMC3     O 4085   1.614   3.906  15.780  0.7380 -0.0138  0.2963
  270TMC3     H 4086   1.453   3.764  15.684  0.3003  0.8549 -0.7302
  270TMC3    H1 4087   1.779   3.568  15.887 -0.0562 -0.1560 -1.1173
  270TMC3    H2 4088   1.428   3.360  15.811 -0.3792 -0.2429 -0.8886
  270TMC3    C7 4089   1.682   3.338  15.870  0.2052  0.4693 -0.1357
  270TMC3    C8 4090   1.314   3.544  15.670 -0.0367 -0.2439  0.1859
  270TMC3    O1 4091   1.797   3.339  15.828 -0.1226  0.2073  0.1848
  270TMC3    O2 4092   1.227   3.631  15.655 -0.4682  0.1592  0.2402
  271MPD2     C 4093   0.784   3.397  14.038 -0.2517 -0.3952  0.4922
  271MPD2    C1 4094   0.715   3.397  14.155 -0.1303 -0.1271  0.3702
  271MPD2    C2 4095   0.618   3.487  14.178 -0.4201 -0.5946  0.2466
  271MPD2    C3 4096   0.570   3.573  14.082 -0.3302  0.4754 -0.2602
  271MPD2    C4 4097   0.635   3.572  13.963 -0.3143  0.2915  0.0607
  271MPD2    C5 4098   0.743   3.485  13.940 -0.0514 -0.0585 -0.6726
  271MPD2     H 4099   0.576   3.481  14.278  3.4290 -1.0071  1.8725
  271MPD2    H1 4100   0.618   3.647  13.886 -0.9989  0.7814  0.6916
  271MPD2    H2 4101   0.861   3.329  14.006  1.6377  1.2684  1.4566
  271MPD2    H3 4102   0.790   3.485  13.843 -0.0416 -0.2034 -0.6688
  271MPD2     N 4103   0.455   3.649  14.099  0.0634  0.0494 -0.0391
  271MPD2    H5 4104   0.406   3.674  14.014  1.9360  0.1225 -1.0937
  271MPD2    N1 4105   0.755   3.314  14.265  0.0360  0.2075 -0.1003
  271MPD2    H7 4106   0.723   3.343  14.357  0.3009  1.1257 -0.2954
  272TMC3    C1 4107   0.868   3.142  14.393  0.2202 -0.4511 -0.4001
  272TMC3    C2 4108   0.973   3.055  14.390 -0.2051  0.4038  0.5268
  272TMC3    C3 4109   1.031   3.017  14.509 -0.0673 -0.3787 -1.0251
  272TMC3    C4 4110   0.799   3.177  14.507  0.5174 -0.9288 -1.0330
  272TMC3    C5 4111   0.858   3.126  14.624 -0.0649  0.0721 -0.1107
  272TMC3    C6 4112   0.970   3.048  14.631 -0.2491  0.2089 -0.3082
  272TMC3     C 4113   0.857   3.212  14.263 -0.3647  0.2274 -0.1393
  272TMC3     O 4114   0.904   3.162  14.162 -0.0655 -0.9959  0.5729
  272TMC3     H 4115   1.034   3.041  14.302  0.8578  3.4222  0.7990
  272TMC3    H1 4116   0.703   3.225  14.493  1.3726  1.2794  0.7799
  272TMC3    H2 4117   1.005   3.012  14.726 -0.6363 -0.7629 -0.5323
  272TMC3    C7 4118   0.815   3.199  14.738  0.6262  0.0872  0.1039
  272TMC3    C8 4119   1.164   2.970  14.508 -0.2910  0.0909  0.4699
  272TMC3    O1 4120   0.697   3.224  14.739  0.0492 -0.1711 -0.5142
  272TMC3    O2 4121   1.226   3.002  14.407  0.3789  0.3094  0.1277
  273MPD2     C 4122   2.430   1.847  11.997  0.3042  0.2904 -0.0900
  273MPD2    C1 4123   2.497   1.950  11.941  0.5977 -0.1308  0.3665
  273MPD2    C2 4124   2.491   1.957  11.805 -0.3586  0.1851 -0.2358
  273MPD2    C3 4125   2.404   1.879  11.728  0.5157  0.0239  0.1867
  273MPD2    C4 4126   2.330   1.788  11.789 -0.4882 -0.2467 -0.4828
  273MPD2    C5 4127   2.348   1.769  11.920  0.2642  0.5686  0.4608
  273MPD2     H 4128   2.555   2.026  11.751 -1.1230 -0.9738 -2.6483
  273MPD2    H1 4129   2.264   1.728  11.726 -1.2592  2.2183 -2.0105
  273MPD2    H2 4130   2.446   1.836  12.104  2.2003  1.7131 -0.2384
  273MPD2    H3 4131   2.300   1.684  11.966  0.4270 -0.2991 -0.9715
  273MPD2     N 4132   2.390   1.887  11.585 -0.0939 -0.4793  0.4306
  273MPD2    H5 4133   2.306   1.842  11.550  2.3623 -4.6875 -0.1274
  273MPD2    N1 4134   2.581   2.031  12.024  0.0227  0.5002  0.4179
  273MPD2    H7 4135   2.577   2.012  12.123  2.5905 -1.0393  0.2192
  274TMC3    C1 4136   2.471   1.924  11.356 -0.6707 -0.7429 -0.3466
  274TMC3    C2 4137   2.345   1.892  11.309  0.5061 -0.2327 -0.1487
  274TMC3    C3 4138   2.336   1.906  11.167 -0.2619  0.1471  0.4630
  274TMC3    C4 4139   2.571   1.980  11.282 -1.0099  0.6049  0.4641
  274TMC3    C5 4140   2.548   2.001  11.148 -0.1402  0.1931  0.3839
  274TMC3    C6 4141   2.437   1.956  11.090  0.2696  0.5030 -0.6695
  274TMC3     C 4142   2.494   1.938  11.499  0.3545  0.6639  0.9661
  274TMC3     O 4143   2.596   1.996  11.540 -0.6807  0.1554 -0.3365
  274TMC3     H 4144   2.259   1.875  11.373  0.7786  1.0304  0.5568
  274TMC3    H1 4145   2.665   1.999  11.333 -0.8304 -1.1862  0.7979
  274TMC3    H2 4146   2.410   2.011  11.001  3.2469  0.6668 -1.4649
  274TMC3    C7 4147   2.641   2.087  11.071  0.3394 -0.1551 -0.2224
  274TMC3    C8 4148   2.209   1.900  11.101 -1.0111 -0.5951 -0.3665
  274TMC3    O1 4149   2.643   2.073  10.948  0.4831 -0.4445  0.1348
  274TMC3    O2 4150   2.115   1.955  11.157 -0.3303  0.0909 -0.1985
  275MPD2     C 4151   2.394   4.020  14.483  0.0445  0.1840  0.7293
  275MPD2    C1 4152   2.323   4.127  14.542 -0.0826 -1.4606  0.5853
  275MPD2    C2 4153   2.187   4.129  14.532  0.1176 -0.2735 -0.3763
  275MPD2    C3 4154   2.112   4.025  14.470 -0.3468  0.0846 -0.4047
  275MPD2    C4 4155   2.185   3.925  14.410  0.5011 -0.8833 -0.7520
  275MPD2    C5 4156   2.324   3.926  14.416 -0.5227 -0.0556  0.2647
  275MPD2     H 4157   2.137   4.215  14.575 -1.2797 -1.3898  0.2260
  275MPD2    H1 4158   2.126   3.860  14.347 -0.4050 -2.0316  1.2986
  275MPD2    H2 4159   2.500   3.998  14.491 -0.3016 -2.5323 -2.1593
  275MPD2    H3 4160   2.373   3.845  14.364  0.1570 -1.1020  2.5500
  275MPD2     N 4161   1.975   4.018  14.467 -0.2985  0.3167  0.5165
  275MPD2    H5 4162   1.942   3.934  14.420 -0.9357  0.8204  0.0548
  275MPD2    N1 4163   2.372   4.218  14.630 -0.3305 -0.1971 -0.3284
  275MPD2    H7 4164   2.303   4.270  14.683 -0.4899  0.3484 -1.0711
  276TMC3    C1 4165   2.515   4.303  14.798  0.0684  0.1987 -0.8104
  276TMC3    C2 4166   2.412   4.292  14.881  1.2617  0.3404 -0.4860
  276TMC3    C3 4167   2.423   4.362  14.996 -0.2302  0.6399 -0.6541
  276TMC3    C4 4168   2.631   4.368  14.820 -0.0812 -0.3608  0.3949
  276TMC3    C5 4169   2.634   4.442  14.936 -0.8926  0.3455 -0.3788
  276TMC3    C6 4170   2.524   4.444  15.021  0.8062  0.6013 -0.0935
  276TMC3     C 4171   2.507   4.229  14.670  0.0819  1.1695  0.2381
  276TMC3     O 4172   2.612   4.185  14.616  0.0983  0.2081 -0.0861
  276TMC3     H 4173   2.328   4.226  14.864  3.4384 -2.7428  0.6181
  276TMC3    H1 4174   2.706   4.382  14.743  0.5202  0.6423  1.1547
  276TMC3    H2 4175   2.519   4.502  15.112  1.1681 -3.5658  2.6070
  276TMC3    C7 4176   2.739   4.539  14.961  0.6698 -0.2512  0.3595
  276TMC3    C8 4177   2.338   4.329  15.112 -0.1155  0.0681  0.4374
  276TMC3    O1 4178   2.708   4.643  15.004  0.3742 -0.0142 -0.3196
  276TMC3    O2 4179   2.307   4.409  15.201  0.4287 -0.1842 -0.2960
  277MPD2     C 4180   4.263   3.488  13.558 -0.4245 -0.3282 -0.9421
  277MPD2    C1 4181   4.124   3.498  13.522  0.4661  0.0936 -0.1751
  277MPD2    C2 4182   4.032   3.486  13.625  0.0638 -0.3358  0.5865
  277MPD2    C3 4183   4.065   3.447  13.752 -0.6181 -0.8611  0.6288
  277MPD2    C4 4184   4.201   3.435  13.782 -0.1618 -0.7858 -0.0520
  277MPD2    C5 4185   4.300   3.464  13.689  0.4503 -0.2725 -0.7595
  277MPD2     H 4186   3.928   3.499  13.598  0.2586  0.1569  0.0786
  277MPD2    H1 4187   4.234   3.420  13.884 -1.2636 -1.8235  0.1553
  277MPD2    H2 4188   4.338   3.519  13.487 -0.1642 -0.1985 -0.6080
  277MPD2    H3 4189   4.404   3.458  13.718  0.4167 -0.7878 -0.7468
  277MPD2     N 4190   3.957   3.434  13.850  0.3380 -0.0350 -0.6965
  277MPD2    H5 4191   3.860   3.459  13.831  0.0265 -0.3802  0.4237
  277MPD2    N1 4192   4.101   3.523  13.387 -0.2533  0.3563  0.0151
  277MPD2    H7 4193   4.180   3.513  13.325  0.0287  0.3466  0.3767
  278TMC3    C1 4194   3.851   3.360  14.054  0.7018  0.3911  0.0011
  278TMC3    C2 4195   3.840   3.243  14.119  0.1897  0.0203  0.1995
  278TMC3    C3 4196   3.721   3.181  14.128 -0.1116 -0.6343 -0.5767
  278TMC3    C4 4197   3.746   3.418  13.995 -0.1501  0.8569 -0.5638
  278TMC3    C5 4198   3.619   3.354  14.014 -0.0891  0.3995  0.7279
  278TMC3    C6 4199   3.609   3.227  14.068  0.0190  0.1563  0.4542
  278TMC3     C 4200   3.974   3.383  13.978 -0.1853  0.4872  0.2462
  278TMC3     O 4201   4.071   3.338  14.033  0.0171 -0.3078  0.2162
  278TMC3     H 4202   3.929   3.185  14.144 -1.5749 -2.5178  0.6031
  278TMC3    H1 4203   3.749   3.521  13.961 -0.5549  1.2052  0.4278
  278TMC3    H2 4204   3.519   3.167  14.076 -0.8172  1.3351 -0.0277
  278TMC3    C7 4205   3.522   3.403  13.920  0.0850  0.7321  0.3522
  278TMC3    C8 4206   3.726   3.039  14.140 -0.2719 -0.2202  0.2004
  278TMC3    O1 4207   3.543   3.499  13.848  0.0292 -0.1088 -0.1847
  278TMC3    O2 4208   3.808   2.986  14.214  0.0175 -0.0157 -0.8644
  279MPD2     C 4209   2.802   4.435   0.880 -0.4266  0.9240 -0.0241
  279MPD2    C1 4210   2.755   4.331   0.808 -0.9187  0.0863  0.2918
  279MPD2    C2 4211   2.814   4.306   0.685  0.6947 -0.2187  0.3501
  279MPD2    C3 4212   2.915   4.389   0.638 -0.2482 -0.5989 -0.1104
  279MPD2    C4 4213   2.957   4.496   0.716  0.2281 -0.3172  0.1463
  279MPD2    C5 4214   2.895   4.528   0.830 -0.3820  0.4301 -0.5517
  279MPD2     H 4215   2.770   4.233   0.619  0.0085  0.8250 -0.3598
  279MPD2    H1 4216   3.030   4.568   0.681 -2.0193  0.6094 -2.6413
  279MPD2    H2 4217   2.772   4.444   0.984  2.2418 -1.9219  0.9807
  279MPD2    H3 4218   2.931   4.604   0.900 -1.6712  1.8945 -1.4802
  279MPD2     N 4219   2.979   4.370   0.512 -0.7112 -0.2746  0.7971
  279MPD2    H5 4220   3.055   4.434   0.491 -1.1251  0.1331  0.5376
  279MPD2    N1 4221   2.648   4.256   0.862 -0.5652  0.5555 -0.0420
  279MPD2    H7 4222   2.608   4.289   0.949  0.0140 -0.2150  0.5298
  280TMC3    C1 4223   2.470   4.095   0.859  0.0337  0.2682  0.0272
  280TMC3    C2 4224   2.421   4.007   0.762 -0.3204  0.3289 -0.5450
  280TMC3    C3 4225   2.307   4.034   0.693 -0.0591 -0.5005  0.1217
  280TMC3    C4 4226   2.390   4.195   0.897 -0.1633  0.2493 -0.2814
  280TMC3    C5 4227   2.263   4.214   0.844  0.7891  0.2661 -0.1799
  280TMC3    C6 4228   2.226   4.139   0.736  0.0130 -0.0690  0.9999
  280TMC3     C 4229   2.605   4.133   0.815  0.3081  0.4030 -0.5680
  280TMC3     O 4230   2.662   4.064   0.734  0.5764 -0.4935  0.2583
  280TMC3     H 4231   2.477   3.920   0.728  3.4704  2.9501 -1.0561
  280TMC3    H1 4232   2.419   4.279   0.959  0.5375  0.3248 -0.7104
  280TMC3    H2 4233   2.129   4.155   0.689  1.7544 -0.6689 -2.7476
  280TMC3    C7 4234   2.212   4.349   0.845 -0.2877  0.0977 -0.6374
  280TMC3    C8 4235   2.313   4.020   0.543 -0.0819 -0.0785 -0.4813
  280TMC3    O1 4236   2.246   4.421   0.945  0.1676  0.1059 -0.2428
  280TMC3    O2 4237   2.212   4.029   0.474 -0.0793 -0.6468 -0.0423
  281TMC3    C1 4238   2.078   3.621  13.040 -0.1485  0.8410  0.2158
  281TMC3    C2 4239   2.063   3.688  12.926  0.3587  0.2877  0.1611
  281TMC3    C3 4240   2.081   3.628  12.807 -0.3793 -0.1925  0.4546
  281TMC3    C4 4241   2.108   3.489  13.036  0.4323  0.1063  0.1455
  281TMC3    C5 4242   2.111   3.425  12.912  0.6534  0.4176  0.2231
  281TMC3    C6 4243   2.109   3.496  12.801 -0.1768  0.0576 -0.3440
  281TMC3     C 4244   2.081   3.684  13.167  0.8330 -0.2295  0.1331
  281TMC3     O 4245   2.136   3.621  13.257  0.2903  0.5500  0.6002
  281TMC3     H 4246   2.054   3.796  12.922  1.1668  0.2499 -2.1376
  281TMC3    H1 4247   2.126   3.431  13.126 -1.1836 -0.4230  0.1285
  281TMC3    H2 4248   2.113   3.448  12.705 -0.9929  1.2256 -0.9604
  281TMC3    C7 4249   2.004   3.324  12.908 -0.8718 -0.2538  0.0044
  281TMC3    C8 4250   1.964   3.669  12.727  0.9298 -0.2401 -0.1682
  281TMC3    O1 4251   1.948   3.302  12.803 -0.0751 -0.0470 -0.1480
  281TMC3    O2 4252   1.930   3.784  12.719 -0.1946  0.2096  0.3806
  282MPD2     C 4253   3.846   0.180  15.078 -0.8864  0.1918 -0.8973
  282MPD2    C1 4254   3.808   0.284  15.158  0.5750  0.8812  0.6047
  282MPD2    C2 4255   3.769   0.404  15.095  0.2236 -0.7321  0.3689
  282MPD2    C3 4256   3.771   0.413  14.954  0.3452  0.0305 -0.3017
  282MPD2    C4 4257   3.811   0.303  14.875  0.1163  0.1432  0.7209
  282MPD2    C5 4258   3.842   0.186  14.943  0.3055  0.4284  0.1380
  282MPD2     H 4259   3.747   0.490  15.157  0.6302 -0.3131 -0.0641
  282MPD2    H1 4260   3.812   0.305  14.767  0.7426 -1.3216  0.7023
  282MPD2    H2 4261   3.872   0.086  15.127 -1.3636 -0.0509 -1.1120
  282MPD2    H3 4262   3.856   0.093  14.889  0.9902  1.0408 -0.7435
  282MPD2     N 4263   3.718   0.530  14.903 -0.2930 -0.0761 -0.2749
  282MPD2    H5 4264   3.673   0.592  14.969  0.0383  0.3017 -0.4025
  282MPD2    N1 4265   3.811   0.268  15.298 -0.0832  0.0246 -0.1751
  282MPD2    H7 4266   3.817   0.172  15.331 -1.3204 -0.0310 -0.0936
  283TMC3    C1 4267   3.786   0.306  15.517 -0.4203 -0.1428 -0.4262
  283TMC3    C2 4268   3.856   0.382  15.607 -0.4870 -0.2708 -0.2658
  283TMC3    C3 4269   3.846   0.343  15.736 -0.6551  0.9578 -0.0918
  283TMC3    C4 4270   3.707   0.206  15.557  0.5663  1.0040  0.4296
  283TMC3    C5 4271   3.695   0.174  15.686  0.4837  0.3350 -0.0831
  283TMC3    C6 4272   3.765   0.239  15.780  0.2214 -0.0486  0.3896
  283TMC3     C 4273   3.779   0.362  15.388 -0.4131  0.4666 -0.6640
  283TMC3     O 4274   3.775   0.482  15.376  0.1660 -0.4307 -0.4399
  283TMC3     H 4275   3.934   0.453  15.580 -2.0282  1.6140  0.2320
  283TMC3    H1 4276   3.658   0.158  15.473 -2.1146  2.8661  0.8996
  283TMC3    H2 4277   3.744   0.232  15.886  0.9608 -0.0949  0.5317
  283TMC3    C7 4278   3.560   0.126  15.734  0.4374 -0.4207 -0.2234
  283TMC3    C8 4279   3.912   0.428  15.836 -0.0776  0.2016 -0.8213
  283TMC3    O1 4280   3.541   0.143  15.852 -0.1462 -0.2784 -0.2363
  283TMC3    O2 4281   3.928   0.379  15.946 -0.0938  0.1006  0.0336
  284MPD2     C 4282   2.337   0.109  11.588 -0.4327  0.7562  0.6186
  284MPD2    C1 4283   2.453   0.045  11.552  0.6304  0.2536  0.8388
  284MPD2    C2 4284   2.505   4.689  11.646  0.2889  0.9535 -0.0497
  284MPD2    C3 4285   2.444   4.654  11.764 -0.1358  0.0286  0.2351
  284MPD2    C4 4286   2.324   4.714  11.794 -0.1090 -0.4957  1.4187
  284MPD2    C5 4287   2.281   0.086  11.709  0.0882  0.1139  0.2164
  284MPD2     H 4288   2.600   4.641  11.627 -0.4776 -0.7005  0.3340
  284MPD2    H1 4289   2.256   4.696  11.876 -0.0859 -0.2106  1.5034
  284MPD2    H2 4290   2.292   0.184  11.523  0.5544  0.2088 -0.6917
  284MPD2    H3 4291   2.184   0.129  11.728  0.6938  1.8393 -0.6212
  284MPD2     N 4292   2.495   4.555  11.844 -0.1524 -0.2342 -0.4130
  284MPD2    H5 4293   2.595   4.542  11.834  0.1086  1.5621 -0.1838
  284MPD2    N1 4294   2.535   0.063  11.435 -0.5726 -0.1781  0.8500
  284MPD2    H7 4295   2.616   0.004  11.419 -0.7792 -0.0189 -0.8030
  285TMC3    C1 4296   2.626   0.147  11.245  0.3559  0.0425 -0.4616
  285TMC3    C2 4297   2.694   0.031  11.229  0.3773 -0.5401  0.3511
  285TMC3    C3 4298   2.826   0.035  11.201 -0.2779 -0.0356 -0.1540
  285TMC3    C4 4299   2.683   0.275  11.231  0.2715  0.5392 -0.0003
  285TMC3    C5 4300   2.818   0.275  11.196  0.4463  0.4306  0.2518
  285TMC3    C6 4301   2.887   0.153  11.176  0.3838 -0.6036  0.4097
  285TMC3     C 4302   2.521   0.156  11.335 -0.3877  0.5933 -0.1157
  285TMC3     O 4303   2.454   0.256  11.325  0.2131  0.1325  0.7484
  285TMC3     H 4304   2.642   4.662  11.224 -0.3772  0.0207 -2.7554
  285TMC3    H1 4305   2.645   0.373  11.257  1.8421  1.4898 -1.3090
  285TMC3    H2 4306   2.989   0.145  11.139  0.3545  3.8763 -0.6850
  285TMC3    C7 4307   2.891   0.391  11.220  0.0074  0.1570 -0.2443
  285TMC3    C8 4308   2.895   4.633  11.191 -0.3141  0.1880 -0.2366
  285TMC3    O1 4309   2.832   0.496  11.209 -0.4250  0.1239 -0.4049
  285TMC3    O2 4310   2.810   4.544  11.200  0.0941  0.1883  0.1492
  286MPD2     C 4311   1.656   3.136   1.584  0.3438 -0.1833 -0.4372
  286MPD2    C1 4312   1.737   3.207   1.497 -0.4738  0.1244 -0.0038
  286MPD2    C2 4313   1.854   3.162   1.454  0.4285 -0.3690 -0.6411
  286MPD2    C3 4314   1.912   3.054   1.520 -0.5067  0.0685 -0.4947
  286MPD2    C4 4315   1.834   2.972   1.605  0.2881 -0.0832  0.6914
  286MPD2    C5 4316   1.702   3.010   1.627  0.9527  0.3232 -0.4735
  286MPD2     H 4317   1.900   3.221   1.376 -0.1068  0.8389 -0.0444
  286MPD2    H1 4318   1.879   2.888   1.657  0.1251  0.0252  1.0076
  286MPD2    H2 4319   1.556   3.170   1.609  0.4647 -0.9006  1.0485
  286MPD2    H3 4320   1.640   2.945   1.688  1.1159  0.6551  0.0443
  286MPD2     N 4321   2.046   3.011   1.489  0.2904  0.2900  0.3752
  286MPD2    H5 4322   2.085   2.923   1.520  1.5685  1.1858  1.2802
  286MPD2    N1 4323   1.699   3.334   1.449 -0.1716 -0.4247 -0.2074
  286MPD2    H7 4324   1.749   3.377   1.372  1.1067  1.1809  1.5162
  287TMC3    C1 4325   2.271   3.032   1.447 -0.0962  0.4245 -0.1729
  287TMC3    C2 4326   2.306   2.918   1.380 -0.0745 -0.5739 -0.1720
  287TMC3    C3 4327   2.440   2.894   1.354 -0.2341  0.9696  0.6654
  287TMC3    C4 4328   2.361   3.123   1.482  0.1115 -0.0487  0.4481
  287TMC3    C5 4329   2.493   3.105   1.469 -0.3282 -0.3176  0.7875
  287TMC3    C6 4330   2.527   2.990   1.395  0.1675 -0.3496  0.1580
  287TMC3     C 4331   2.139   3.083   1.423  0.3348  0.2240 -0.0015
  287TMC3     O 4332   2.136   3.197   1.381  0.0085  0.1545 -0.2381
  287TMC3     H 4333   2.228   2.844   1.361 -1.2255  0.8948 -1.1377
  287TMC3    H1 4334   2.333   3.218   1.526  1.9810  0.9596 -0.4935
  287TMC3    H2 4335   2.630   2.977   1.363 -0.3254 -0.3276 -1.4550
  287TMC3    C7 4336   2.581   3.191   1.546 -0.4915  0.0943 -0.5991
  287TMC3    C8 4337   2.473   2.810   1.244 -0.1510 -0.4091  0.2386
  287TMC3    O1 4338   2.528   3.268   1.623  0.2591  0.7302  0.1912
  287TMC3    O2 4339   2.408   2.706   1.226 -0.1104 -0.3210 -0.7158
  288TMC3    C1 4340   3.833   2.777  14.582  0.4539 -0.7673 -0.4426
  288TMC3    C2 4341   3.811   2.715  14.700 -0.8344  0.0311 -0.1518
  288TMC3    C3 4342   3.759   2.800  14.788 -0.8948 -0.2104 -0.4203
  288TMC3    C4 4343   3.821   2.910  14.547 -0.1059 -0.3947  0.0570
  288TMC3    C5 4344   3.778   2.989  14.650  0.0133  0.7415  0.2404
  288TMC3    C6 4345   3.752   2.930  14.771 -0.1101  0.2840  0.3694
  288TMC3     C 4346   3.860   2.684  14.472  0.3110  0.6305  0.3738
  288TMC3     O 4347   3.827   2.571  14.490  0.0827  0.3029  0.0880
  288TMC3     H 4348   3.838   2.612  14.724 -0.2825  0.7168  2.2328
  288TMC3    H1 4349   3.825   2.943  14.444 -0.4234  1.8545  0.7717
  288TMC3    H2 4350   3.717   2.995  14.851  0.8219 -0.3211  1.2649
  288TMC3    C7 4351   3.808   3.132  14.643  0.2722  0.7321  0.1526
  288TMC3    C8 4352   3.749   2.766  14.934  0.3190  0.8086 -0.1434
  288TMC3    O1 4353   3.768   3.203  14.732  0.1819  0.1025 -0.1153
  288TMC3    O2 4354   3.760   2.857  15.011 -0.2918  0.2080 -0.2277
  289MPD2     C 4355   4.280   1.911  14.439 -0.2924  0.2079 -0.1144
  289MPD2    C1 4356   4.228   2.039  14.448 -0.7945 -0.2326 -0.1682
  289MPD2    C2 4357   4.100   2.067  14.403  0.7490 -0.5652  0.1488
  289MPD2    C3 4358   4.014   1.971  14.362 -0.0599 -0.5253  0.0919
  289MPD2    C4 4359   4.070   1.848  14.347 -0.0373  0.9798  0.0037
  289MPD2    C5 4360   4.202   1.816  14.381 -0.3998  0.2903 -0.8272
  289MPD2     H 4361   4.061   2.167  14.424 -0.9587 -1.4849  1.3560
  289MPD2    H1 4362   4.004   1.767  14.319  1.1717  0.7318 -2.0527
  289MPD2    H2 4363   4.369   1.878  14.492 -1.0142 -3.8019 -1.3711
  289MPD2    H3 4364   4.236   1.713  14.378  0.1036  0.4999 -2.4112
  289MPD2     N 4365   3.874   1.985  14.347  0.0662 -0.3017 -0.0678
  289MPD2    H5 4366   3.813   1.906  14.325 -0.4069  0.3315 -1.0132
  289MPD2    N1 4367   4.312   2.141  14.509 -0.0089  0.0231  0.1645
  289MPD2    H7 4368   4.397   2.114  14.556  0.7061  0.9976 -0.5732
  290TMC3    C1 4369   3.658   2.080  14.346 -0.3218  0.6393  0.1930
  290TMC3    C2 4370   3.572   2.189  14.311  0.1303  0.4542 -1.3620
  290TMC3    C3 4371   3.436   2.169  14.314 -0.0188  0.2619  0.1848
  290TMC3    C4 4372   3.599   1.956  14.380  0.5388  0.3364 -0.4104
  290TMC3    C5 4373   3.458   1.950  14.371 -0.0957  0.3682 -0.3043
  290TMC3    C6 4374   3.377   2.052  14.344  0.9302  0.4044  0.2485
  290TMC3     C 4375   3.804   2.103  14.345 -0.3067 -0.5113 -0.5176
  290TMC3     O 4376   3.839   2.221  14.338 -0.3188  0.4923 -0.2611
  290TMC3     H 4377   3.614   2.286  14.286 -0.9644  1.1342 -0.5575
  290TMC3    H1 4378   3.654   1.874  14.425 -0.7441  0.0319  0.6138
  290TMC3    H2 4379   3.269   2.054  14.351  1.0562  0.1511  2.3520
  290TMC3    C7 4380   3.390   1.834  14.432 -0.9078  0.7283  0.0463
  290TMC3    C8 4381   3.351   2.274  14.267  0.0316 -0.1613  0.5227
  290TMC3    O1 4382   3.279   1.846  14.482  0.4084 -0.6042  0.4996
  290TMC3    O2 4383   3.247   2.249  14.206  0.4495  0.7632  0.6710
  291MPD2     C 4384   3.133   2.811   0.031  0.0753  0.1146 -0.0376
  291MPD2    C1 4385   3.198   2.781   0.153  0.7422  0.2726 -0.2864
  291MPD2    C2 4386   3.275   2.874   0.218  0.6627 -0.3096 -0.2483
  291MPD2    C3 4387   3.307   2.989   0.154  0.3886 -0.1609  0.6531
  291MPD2    C4 4388   3.253   3.019   0.032 -0.2170  0.2064  0.1689
  291MPD2    C5 4389   3.155   2.937  17.687  0.4515  1.2996  0.6740
  291MPD2     H 4390   3.312   2.846   0.316  0.2097 -2.7173 -0.7502
  291MPD2    H1 4391   3.273   3.115  17.689 -1.0170 -0.8900 -2.4115
  291MPD2    H2 4392   3.051   2.755  17.691  1.8733 -0.2220 -2.9386
  291MPD2    H3 4393   3.103   2.971  17.598 -0.3937  1.6759  1.3120
  291MPD2     N 4394   3.398   3.080   0.208 -0.5694  0.3990  0.3321
  291MPD2    H5 4395   3.402   3.167   0.156 -1.2253 -0.4768 -1.1659
  291MPD2    N1 4396   3.179   2.662   0.222  0.5685 -0.3715 -0.2158
  291MPD2    H7 4397   3.233   2.648   0.307  0.3493  0.6873  0.0989
  292TMC3    C1 4398   3.119   2.450   0.272 -0.4904  0.1488  0.2898
  292TMC3    C2 4399   3.129   2.487   0.404 -0.6842 -0.5428  0.3678
  292TMC3    C3 4400   3.142   2.383   0.488 -0.3219  0.4309 -0.1677
  292TMC3    C4 4401   3.120   2.326   0.221 -0.2522  0.3193 -0.3654
  292TMC3    C5 4402   3.130   2.228   0.312  0.4619  0.0414 -0.3213
  292TMC3    C6 4403   3.152   2.252   0.446  0.0186 -0.0008  0.3521
  292TMC3     C 4404   3.121   2.554   0.171 -0.2790 -0.3082 -0.1675
  292TMC3     O 4405   3.059   2.531   0.067  0.1715 -0.2670  0.2335
  292TMC3     H 4406   3.131   2.590   0.438  0.0393  0.1009 -1.6923
  292TMC3    H1 4407   3.112   2.304   0.115 -0.1523  0.8175 -0.4745
  292TMC3    H2 4408   3.156   2.169   0.516 -1.2153  1.8554  2.6236
  292TMC3    C7 4409   3.140   2.090   0.276  0.2170  0.4820 -0.2702
  292TMC3    C8 4410   3.161   2.419   0.628  0.1350 -0.2427 -0.5961
  292TMC3    O1 4411   3.191   2.008   0.351 -0.2770  0.3305 -0.0697
  292TMC3    O2 4412   3.130   2.533   0.655 -0.0809  0.4201 -0.6450
  293MPD2     C 4413   0.318   3.612  12.545 -0.0802  0.1158  0.1431
  293MPD2    C1 4414   0.257   3.521  12.628  0.3349  0.2989  1.4346
  293MPD2    C2 4415   0.300   3.498  12.757  0.0562 -0.0588 -0.1320
  293MPD2    C3 4416   0.398   3.582  12.808  0.3168  0.5029  0.5323
  293MPD2    C4 4417   0.441   3.681  12.728  0.2676 -0.5412 -0.0818
  293MPD2    C5 4418   0.407   3.701  12.597  0.3954 -0.3642 -0.6789
  293MPD2     H 4419   0.246   3.427  12.819 -2.6863  0.9982 -1.3224
  293MPD2    H1 4420   0.504   3.764  12.760 -1.3807  0.3479  0.8358
  293MPD2    H2 4421   0.286   3.624  12.442 -1.3713 -0.1776  0.5175
  293MPD2    H3 4422   0.449   3.790  12.552  1.2928  1.8177  4.4238
  293MPD2     N 4423   0.429   3.568  12.945 -0.3810 -0.0244 -0.3578
  293MPD2    H5 4424   0.360   3.515  12.996  1.1329 -0.7667  0.9136
  293MPD2    N1 4425   0.149   3.461  12.565  0.5522  0.5592 -0.2475
  293MPD2    H7 4426   0.135   3.462  12.465 -0.3380 -0.5824 -0.1436
  294TMC3    C1 4427   4.664   3.346  12.535 -0.7384 -0.1041  0.0469
  294TMC3    C2 4428   4.599   3.235  12.577  0.7758  0.2882  0.7225
  294TMC3    C3 4429   4.518   3.168  12.501  0.0047 -0.5288 -0.6468
  294TMC3    C4 4430   4.655   3.399  12.406  0.2605 -0.7213 -0.1783
  294TMC3    C5 4431   4.561   3.333  12.327  0.3505  0.9591  0.0059
  294TMC3    C6 4432   4.490   3.222  12.375  0.8160 -1.1801 -0.6115
  294TMC3     C 4433   0.049   3.381  12.622  0.8943  0.4955 -0.5908
  294TMC3     O 4434   0.032   3.350  12.738 -0.4484 -0.1290 -0.0370
  294TMC3     H 4435   4.635   3.198  12.672 -1.2471 -0.6457  1.1344
  294TMC3    H1 4436   4.696   3.496  12.380  0.9157 -1.2513 -1.1111
  294TMC3    H2 4437   4.417   3.179  12.306  0.4723 -0.8177 -0.4729
  294TMC3    C7 4438   4.513   3.404  12.204  0.2135  0.4386  0.7906
  294TMC3    C8 4439   4.469   3.041  12.544 -0.4068  0.5706 -0.1709
  294TMC3    O1 4440   4.396   3.380  12.177  0.3014 -0.2136  0.3355
  294TMC3    O2 4441   4.451   3.026  12.665  0.5706 -0.0734  0.5709
  295MPD2     C 4442   1.431   1.618   0.873 -0.3738  0.2118 -0.0274
  295MPD2    C1 4443   1.346   1.728   0.889 -0.3136  0.2071  0.3189
  295MPD2    C2 4444   1.359   1.813   0.994 -0.2063  0.4164  0.1850
  295MPD2    C3 4445   1.455   1.797   1.093  0.5719  0.2161 -0.0545
  295MPD2    C4 4446   1.540   1.690   1.079 -0.4400 -0.6842  0.8650
  295MPD2    C5 4447   1.529   1.611   0.966  0.1701 -0.4158  0.2373
  295MPD2     H 4448   1.283   1.890   1.002 -1.2836 -0.7141  0.7155
  295MPD2    H1 4449   1.609   1.652   1.153 -0.7615 -4.6912 -0.8689
  295MPD2    H2 4450   1.416   1.538   0.802  3.1372 -1.6487  1.3429
  295MPD2    H3 4451   1.595   1.525   0.960  1.1023  0.4936 -2.3167
  295MPD2     N 4452   1.462   1.874   1.219 -0.1984  0.5226  0.0294
  295MPD2    H5 4453   1.519   1.842   1.298  0.0349 -1.0697 -0.7782
  295MPD2    N1 4454   1.244   1.760   0.799 -0.6460 -0.2018 -0.0422
  295MPD2    H7 4455   1.199   1.852   0.802 -0.2594 -0.0242  0.1973
  296TMC3    C1 4456   1.363   2.041   1.357  0.1891  0.4009 -0.3039
  296TMC3    C2 4457   1.321   2.166   1.363 -0.5206 -0.1812  0.0202
  296TMC3    C3 4458   1.334   2.224   1.486 -0.6207 -0.3283  0.0073
  296TMC3    C4 4459   1.410   1.970   1.468  0.2326  0.5288  0.2582
  296TMC3    C5 4460   1.425   2.041   1.587 -0.9719 -0.9494 -0.3265
  296TMC3    C6 4461   1.390   2.170   1.598 -0.4870 -0.1131 -0.1386
  296TMC3     C 4462   1.383   1.989   1.226 -0.7232 -0.0885  0.1250
  296TMC3     O 4463   1.348   2.057   1.132 -0.3936  0.6844  0.4932
  296TMC3     H 4464   1.257   2.210   1.287 -0.2841 -1.1412 -0.7401
  296TMC3    H1 4465   1.453   1.871   1.459  0.3094  0.5276  0.6513
  296TMC3    H2 4466   1.415   2.229   1.685 -0.8160  0.6234 -0.5459
  296TMC3    C7 4467   1.494   1.982   1.694  0.3346 -0.3556 -0.2196
  296TMC3    C8 4468   1.265   2.351   1.498 -0.8049 -0.6880 -0.1524
  296TMC3    O1 4469   1.513   2.057   1.788  0.3898 -0.2513 -1.2469
  296TMC3    O2 4470   1.256   2.413   1.392 -0.3958 -0.3669 -0.6466
  297MPD2     C 4471   3.047   4.357  15.923 -0.0115 -0.0283 -0.3907
  297MPD2    C1 4472   3.019   4.406  16.053  0.2496  0.2229  0.4127
  297MPD2    C2 4473   3.111   4.493  16.101 -0.6869 -0.3098 -0.6139
  297MPD2    C3 4474   3.218   4.539  16.030 -0.5538 -0.1113 -0.4446
  297MPD2    C4 4475   3.239   4.490  15.899 -0.2050 -0.0015 -0.5538
  297MPD2    C5 4476   3.154   4.399  15.845 -0.5790  0.2205 -0.3362
  297MPD2     H 4477   3.081   4.534  16.197  0.3385 -0.7327 -0.1022
  297MPD2    H1 4478   3.327   4.523  15.844 -1.0142  2.2466 -0.5347
  297MPD2    H2 4479   2.977   4.286  15.881 -1.8764  1.4446  0.1874
  297MPD2    H3 4480   3.158   4.367  15.741 -0.5963  1.0342 -0.5842
  297MPD2     N 4481   3.306   4.643  16.081 -0.6083 -0.3573 -0.1080
  297MPD2    H5 4482   3.377   4.673  16.015 -1.9360  0.2848 -1.2403
  297MPD2    N1 4483   2.918   4.355  16.139  0.3762 -0.1753  0.1235
  297MPD2    H7 4484   2.886   4.410  16.218 -0.8735  1.4189 -1.4993
  298TMC3    C1 4485   2.769   4.185  16.218 -0.7954  0.6339  0.5975
  298TMC3    C2 4486   2.725   4.057  16.200 -0.2461 -0.6471  0.6998
  298TMC3    C3 4487   2.603   4.016  16.242 -0.0065 -0.7398  0.8319
  298TMC3    C4 4488   2.693   4.277  16.279  0.2193  0.0525 -1.0405
  298TMC3    C5 4489   2.567   4.239  16.323  0.2443  0.7547  0.1383
  298TMC3    C6 4490   2.524   4.109  16.309 -0.0265 -0.3012  0.6130
  298TMC3     C 4491   2.868   4.229  16.117  0.0527 -0.5980 -0.4929
  298TMC3     O 4492   2.902   4.143  16.035 -0.5420 -0.4110 -0.1094
  298TMC3     H 4493   2.785   3.979  16.154 -1.1958 -0.7037 -0.4498
  298TMC3    H1 4494   2.722   4.381  16.292 -0.8958  0.2085  0.2696
  298TMC3    H2 4495   2.435   4.077  16.361 -1.0156 -0.4922 -1.1952
  298TMC3    C7 4496   2.476   4.348  16.350  0.3368  0.0228 -0.2303
  298TMC3    C8 4497   2.564   3.882  16.199  0.0863  0.7103 -0.8166
  298TMC3    O1 4498   2.530   4.456  16.354  0.1779 -0.0397 -0.2035
  298TMC3    O2 4499   2.652   3.798  16.177 -0.2552  0.2164 -0.1052
  299MPD2     C 4500   4.017   3.617  11.187  0.9759  0.0450 -0.1804
  299MPD2    C1 4501   4.055   3.679  11.067 -1.0140  0.0278  0.0385
  299MPD2    C2 4502   3.994   3.637  10.947 -0.6692 -0.0709 -0.7191
  299MPD2    C3 4503   3.902   3.536  10.957  0.1215  0.6133 -0.1518
  299MPD2    C4 4504   3.857   3.482  11.080  0.2008  0.4897  0.2749
  299MPD2    C5 4505   3.919   3.522  11.196 -0.3702  0.5143 -0.2907
  299MPD2     H 4506   4.023   3.677  10.851  3.1933  1.0304  0.8979
  299MPD2    H1 4507   3.777   3.409  11.083  1.9727 -1.5333 -1.4959
  299MPD2    H2 4508   4.078   3.634  11.276  0.4672  1.1497 -0.0417
  299MPD2    H3 4509   3.896   3.481  11.294  1.2279 -0.0615 -0.1461
  299MPD2     N 4510   3.842   3.488  10.840  0.1348  0.5774 -0.3379
  299MPD2    H5 4511   3.756   3.436  10.851  0.7963 -0.8746 -2.0180
  299MPD2    N1 4512   4.163   3.774  11.066 -0.1801  0.0165  0.1461
  299MPD2    H7 4513   4.210   3.790  11.154 -0.3591  3.0190 -0.3165
  300TMC3    C1 4514   3.786   3.474  10.605 -0.3854  0.5725  0.3973
  300TMC3    C2 4515   3.824   3.469  10.476  0.5320 -0.2394  0.3998
  300TMC3    C3 4516   3.736   3.421  10.379  0.0335  0.9441 -0.0134
  300TMC3    C4 4517   3.657   3.451  10.643  1.1046 -0.2918  0.1628
  300TMC3    C5 4518   3.582   3.393  10.548  0.2085 -0.3752 -0.1199
  300TMC3    C6 4519   3.614   3.375  10.415 -0.0469  0.2569  0.2115
  300TMC3     C 4520   3.884   3.516  10.707 -0.3974  0.0708  0.6633
  300TMC3     O 4521   3.993   3.556  10.669 -0.0335  0.0165 -0.4457
  300TMC3     H 4522   3.927   3.490  10.448  0.8244 -0.5584  1.2562
  300TMC3    H1 4523   3.624   3.461  10.745 -0.9264  0.0058 -0.5158
  300TMC3    H2 4524   3.546   3.325  10.346  1.0380  0.4920 -1.0419
  300TMC3    C7 4525   3.453   3.341  10.582  0.2899 -0.3279  0.0455
  300TMC3    C8 4526   3.730   3.535  10.287 -0.2411  0.0755  1.0703
  300TMC3    O1 4527   3.418   3.247  10.511  0.1281  0.4707 -0.2216
  300TMC3    O2 4528   3.836   3.592  10.264  0.1302  0.1232 -0.0797
  301MPD2     C 4529   1.564   0.051   1.608  0.7431 -0.0964  0.7125
  301MPD2    C1 4530   1.429   0.075   1.559  0.0704  0.4461  0.4048
  301MPD2    C2 4531   1.339   4.701   1.545 -0.4944  0.1502 -0.4325
  301MPD2    C3 4532   1.384   4.570   1.579  0.4214  0.1315 -0.4926
  301MPD2    C4 4533   1.510   4.545   1.637  0.0679  0.3420 -0.7208
  301MPD2    C5 4534   1.596   4.650   1.642 -0.6936 -0.0612  0.3030
  301MPD2     H 4535   1.238   4.706   1.508 -0.5276  0.0080 -0.3642
  301MPD2    H1 4536   1.539   4.447   1.672 -2.2029 -0.0419  0.0576
  301MPD2    H2 4537   1.641   0.127   1.607  1.2680 -0.6367 -0.2698
  301MPD2    H3 4538   1.697   4.623   1.670 -0.4263  0.2481 -0.3679
  301MPD2     N 4539   1.292   4.463   1.580  0.3685 -0.5027  0.1137
  301MPD2    H5 4540   1.331   4.373   1.605  0.9120  0.0241  1.1653
  301MPD2    N1 4541   1.387   0.201   1.515  0.1607  0.5037 -0.0904
  301MPD2    H7 4542   1.296   0.212   1.472 -0.1132 -1.4514  0.0217
  302TMC3    C1 4543   1.091   4.376   1.651 -0.4547  0.2736 -0.0371
  302TMC3    C2 4544   1.162   4.283   1.723 -0.0126 -0.7601 -0.4087
  302TMC3    C3 4545   1.087   4.175   1.770 -0.5278  0.0918  0.2979
  302TMC3    C4 4546   0.955   4.360   1.629 -0.3253  0.4321  0.6155
  302TMC3    C5 4547   0.893   4.258   1.683 -0.1554  0.4533 -0.6330
  302TMC3    C6 4548   0.951   4.152   1.750  0.1167  0.0922 -0.7354
  302TMC3     C 4549   1.157   4.481   1.571 -0.4489  0.3773  0.3092
  302TMC3     O 4550   1.091   4.564   1.509 -0.0344  0.2314  0.2426
  302TMC3     H 4551   1.263   4.289   1.761 -0.1740 -0.0430 -0.0875
  302TMC3    H1 4552   0.908   4.435   1.565 -2.1655 -2.4941 -1.4386
  302TMC3    H2 4553   0.889   4.081   1.804 -0.4663  1.1637  0.0181
  302TMC3    C7 4554   0.748   4.237   1.653 -0.1710  0.4253  1.1043
  302TMC3    C8 4555   1.162   4.059   1.804 -0.0530 -0.0139 -0.0149
  302TMC3    O1 4556   0.705   4.125   1.670 -0.1539  0.9861  0.3151
  302TMC3    O2 4557   1.282   4.063   1.773  0.3640 -0.1984  0.7242
  303MPD2     C 4558   1.127   3.619  10.662 -0.3210  0.0624  0.3104
  303MPD2    C1 4559   1.014   3.598  10.588 -0.0513  0.3490  0.2350
  303MPD2    C2 4560   0.998   3.667  10.473  0.0870 -0.1556  0.6318
  303MPD2    C3 4561   1.095   3.759  10.427  0.3164 -0.6344 -0.2106
  303MPD2    C4 4562   1.203   3.790  10.512  0.2167 -0.0394  0.6466
  303MPD2    C5 4563   1.222   3.718  10.627 -0.4813  0.2061  0.4489
  303MPD2     H 4564   0.904   3.662  10.418  0.3970  2.9150 -0.1551
  303MPD2    H1 4565   1.266   3.875  10.487  0.1015 -0.4898 -1.2294
  303MPD2    H2 4566   1.149   3.559  10.749  1.4720 -0.4253 -0.4687
  303MPD2    H3 4567   1.298   3.743  10.699  0.1521  1.6876 -0.7522
  303MPD2     N 4568   1.086   3.838  10.306 -0.3436 -0.1617  0.5015
  303MPD2    H5 4569   1.165   3.900  10.289 -1.7402  0.5779 -3.1767
  303MPD2    N1 4570   0.923   3.498  10.630  0.0083 -0.9469 -0.9105
  303MPD2    H7 4571   0.844   3.482  10.568  0.8507 -1.2236 -1.9105
  304TMC3    C1 4572   0.796   3.356  10.765 -0.2018  0.3567 -0.0535
  304TMC3    C2 4573   0.699   3.369  10.857  0.6401 -0.1089  0.0746
  304TMC3    C3 4574   0.581   3.307  10.846  0.6475  0.0756  0.5929
  304TMC3    C4 4575   0.770   3.277  10.654  0.1369  1.0967  0.8066
  304TMC3    C5 4576   0.660   3.192  10.658 -0.5703 -0.6294  0.1703
  304TMC3    C6 4577   0.572   3.205  10.758  0.0095  0.0632  0.1452
  304TMC3     C 4578   0.900   3.451  10.756  0.4961  0.5665  0.3147
  304TMC3     O 4579   0.957   3.463  10.862  0.4265  0.3636 -0.2103
  304TMC3     H 4580   0.720   3.442  10.934 -0.1749 -0.3717  0.5354
  304TMC3    H1 4581   0.851   3.253  10.586 -0.0425 -2.1695  1.7648
  304TMC3    H2 4582   0.479   3.149  10.753  1.3750 -2.3189  1.0271
  304TMC3    C7 4583   0.585   3.183  10.530  0.2499  0.0408 -0.9091
  304TMC3    C8 4584   0.461   3.395  10.848  0.5567 -0.4875  0.5973
  304TMC3    O1 4585   0.464   3.180  10.538  0.2424 -0.1614 -0.4588
  304TMC3    O2 4586   0.461   3.487  10.930  0.6831 -0.0554 -0.4327
  305MPD2     C 4587   3.887   1.028  13.918  0.3509 -0.6057  0.1895
  305MPD2    C1 4588   3.921   0.900  13.888 -0.4663  0.4781 -0.0172
  305MPD2    C2 4589   3.868   0.840  13.773 -0.2873  0.1225  0.0978
  305MPD2    C3 4590   3.810   0.920  13.674  0.0994  0.3091  0.6139
  305MPD2    C4 4591   3.799   1.055  13.696 -0.2674 -0.1858  0.2413
  305MPD2    C5 4592   3.830   1.101  13.819 -0.4214 -0.2491 -0.1544
  305MPD2     H 4593   3.880   0.734  13.755  1.1460  0.3191 -0.1331
  305MPD2    H1 4594   3.763   1.118  13.615 -0.1587  0.7521  0.9223
  305MPD2    H2 4595   3.913   1.073  14.013 -3.3213 -2.4410  2.0781
  305MPD2    H3 4596   3.804   1.204  13.841  0.7656 -0.3862  1.9274
  305MPD2     N 4597   3.757   0.874  13.547  0.3076 -0.1475  0.1831
  305MPD2    H5 4598   3.721   0.942  13.481 -0.0311 -1.0989 -0.6221
  305MPD2    N1 4599   3.999   0.834  13.992  0.1850  0.4880 -0.6678
  305MPD2    H7 4600   4.021   0.889  14.075 -2.1734  0.0527  0.2332
  306TMC3    C1 4601   4.142   0.676  14.094  0.0309  0.1034 -1.2485
  306TMC3    C2 4602   4.152   0.549  14.141  0.9249 -1.0792 -0.5741
  306TMC3    C3 4603   4.227   0.526  14.256 -0.2944 -0.2942  0.5594
  306TMC3    C4 4604   4.223   0.772  14.138 -0.5248  0.3932 -0.1338
  306TMC3    C5 4605   4.308   0.739  14.244  0.0254  0.5357 -0.1822
  306TMC3    C6 4606   4.312   0.615  14.307 -0.2063 -0.8824  0.1225
  306TMC3     C 4607   4.058   0.706  13.982  0.0888  0.9347  0.0371
  306TMC3     O 4608   4.038   0.623  13.898 -0.6418 -0.1137  0.3952
  306TMC3     H 4609   4.090   0.477  14.089 -3.2018  2.0935 -0.0126
  306TMC3    H1 4610   4.220   0.871  14.092 -1.3394  0.8127  0.8300
  306TMC3    H2 4611   4.373   0.585  14.391  1.9193  0.2576 -1.0054
  306TMC3    C7 4612   4.351   0.856  14.318  0.7619  0.1840  0.7187
  306TMC3    C8 4613   4.216   0.391  14.304 -0.2477 -0.3969 -0.5824
  306TMC3    O1 4614   4.306   0.967  14.285  0.4365  0.3583 -0.3109
  306TMC3    O2 4615   4.103   0.340  14.314  0.0178  0.4391 -0.3791
  307MPD2     C 4616   2.213   3.251   0.934 -0.0109  0.0433  0.1239
  307MPD2    C1 4617   2.158   3.322   0.824 -0.3450 -0.2689  0.0015
  307MPD2    C2 4618   2.038   3.388   0.842  0.2363 -0.9122 -0.4196
  307MPD2    C3 4619   1.965   3.387   0.961  0.0202 -0.0550  0.4407
  307MPD2    C4 4620   2.026   3.317   1.067 -0.1494 -0.2465  0.0146
  307MPD2    C5 4621   2.148   3.252   1.053  0.2114  0.5672 -0.3757
  307MPD2     H 4622   2.003   3.450   0.760 -0.9573 -0.5037  0.3993
  307MPD2    H1 4623   1.989   3.320   1.169  0.0802 -0.9648  0.1188
  307MPD2    H2 4624   2.316   3.217   0.929  0.0437  0.3951 -1.1035
  307MPD2    H3 4625   2.201   3.204   1.135 -0.2806  0.0274 -0.3685
  307MPD2     N 4626   1.843   3.459   0.965  0.1115  0.2019  0.3813
  307MPD2    H5 4627   1.812   3.495   0.875  0.7412  2.1444  0.9590
  307MPD2    N1 4628   2.214   3.326   0.699  0.0810 -0.1224  0.1483
  307MPD2    H7 4629   2.152   3.371   0.632 -0.9871 -2.8960 -0.7461
  308TMC3    C1 4630   1.422   3.556   1.022  0.6607 -0.6304  0.6546
  308TMC3    C2 4631   1.432   3.657   0.924 -0.4190 -0.3242 -0.4455
  308TMC3    C3 4632   1.564   3.696   0.891  0.0285 -0.2258  0.0560
  308TMC3    C4 4633   1.530   3.505   1.083 -0.1064  0.5621  1.0438
  308TMC3    C5 4634   1.653   3.545   1.044  0.5099  0.4896  0.2925
  308TMC3    C6 4635   1.674   3.643   0.949 -0.3929  0.4771  0.8357
  308TMC3     C 4636   1.313   3.458   1.011 -0.0722  0.0220  0.3073
  308TMC3     O 4637   1.339   3.338   1.025  0.0061  0.1408 -0.1229
  308TMC3     H 4638   1.352   3.713   0.877 -0.1421 -0.1292 -0.6814
  308TMC3    H1 4639   1.517   3.419   1.148  0.1441  0.4512  0.9490
  308TMC3    H2 4640   1.768   3.692   0.928 -0.4806  0.3219  0.0558
  308TMC3    C7 4641   1.763   3.460   1.075  0.7097 -0.4549 -0.2586
  308TMC3    C8 4642   1.590   3.797   0.785  0.4786  0.6545 -0.7512
  308TMC3    O1 4643   1.773   3.409   1.187 -0.2664 -0.1676 -0.3170
  308TMC3    O2 4644   1.668   3.888   0.808  0.3415 -0.0918 -0.2501
  309MPD2     C 4645   0.769   3.513  17.133 -0.8187  0.2290 -0.0421
  309MPD2    C1 4646   0.800   3.638  17.102 -0.7801 -0.3058 -0.0284
  309MPD2    C2 4647   0.732   3.747  17.156 -0.2224  0.2356  0.2210
  309MPD2    C3 4648   0.626   3.730  17.245  0.6025 -0.3673 -0.5782
  309MPD2    C4 4649   0.583   3.597  17.265 -0.0924 -0.1757 -0.0492
  309MPD2    C5 4650   0.663   3.493  17.212 -0.0727 -0.8901  0.0835
  309MPD2     H 4651   0.767   3.843  17.119 -1.7864  1.4464  1.8758
  309MPD2    H1 4652   0.493   3.572  17.320  0.0197 -1.8717 -0.6433
  309MPD2    H2 4653   0.805   3.421  17.087  0.3124  0.0486  1.2130
  309MPD2    H3 4654   0.638   3.388  17.214  0.4044 -1.0380 -1.5112
  309MPD2     N 4655   0.546   3.828  17.308  0.2592  0.0870 -0.1314
  309MPD2    H5 4656   0.479   3.808  17.382  1.4132 -0.7224  0.6954
  309MPD2    N1 4657   0.908   3.670  17.009 -0.6789 -0.4614  0.0214
  309MPD2    H7 4658   0.934   3.767  16.997  0.9264 -0.9902 -0.7401
  310TMC3    C1 4659   1.086   3.653  16.859  0.0798 -0.0542 -0.1556
  310TMC3    C2 4660   1.064   3.786  16.823 -0.0171 -0.4724 -0.7733
  310TMC3    C3 4661   1.154   3.835  16.733 -0.3978  0.4721 -0.0716
  310TMC3    C4 4662   1.194   3.578  16.818 -0.3804  0.3183 -0.1351
  310TMC3    C5 4663   1.286   3.634  16.732 -0.0790  0.7747  0.8822
  310TMC3    C6 4664   1.267   3.762  16.686 -0.1271  0.0662 -0.1248
  310TMC3     C 4665   0.982   3.582  16.935 -0.1726  0.2533  0.3493
  310TMC3     O 4666   0.985   3.461  16.932  0.3182  0.3288  0.7480
  310TMC3     H 4667   0.977   3.846  16.847  0.1616 -0.6502  0.3293
  310TMC3    H1 4668   1.206   3.473  16.843 -2.2805  0.3230  0.8146
  310TMC3    H2 4669   1.336   3.803  16.613 -1.5411  0.8183 -1.0422
  310TMC3    C7 4670   1.418   3.573  16.727 -0.3073 -0.1007 -0.0120
  310TMC3    C8 4671   1.112   3.947  16.648 -0.5716 -0.7853  0.6022
  310TMC3    O1 4672   1.422   3.452  16.745 -0.1009 -0.2567  0.0063
  310TMC3    O2 4673   0.992   3.963  16.633  0.2181 -0.5164  0.4271
  311MPD2     C 4674   2.881   0.007  12.967  0.1139  0.4640  0.5820
  311MPD2    C1 4675   2.844   0.131  13.005  0.4661  0.0018 -0.1344
  311MPD2    C2 4676   2.723   0.151  13.072 -0.9236 -0.1444 -0.5174
  311MPD2    C3 4677   2.630   0.053  13.089 -0.3165 -0.5786 -0.1598
  311MPD2    C4 4678   2.655   4.654  13.037  0.2309  0.0392  0.0655
  311MPD2    C5 4679   2.786   4.633  12.992  0.2487 -0.0403  0.0947
  311MPD2     H 4680   2.702   0.241  13.128  1.3909 -0.8531  1.4996
  311MPD2    H1 4681   2.577   4.579  13.044 -0.1369  0.1092 -3.0258
  311MPD2    H2 4682   2.971   4.720  12.908 -0.7789  0.1983 -0.7218
  311MPD2    H3 4683   2.814   4.533  12.961  1.6433 -0.0852  1.4863
  311MPD2     N 4684   2.517   0.097  13.161 -0.2764  0.0943 -0.1888
  311MPD2    H5 4685   2.506   0.193  13.191 -2.1647 -0.2010  0.0703
  311MPD2    N1 4686   2.927   0.242  12.998  0.2489  0.7210 -0.2146
  311MPD2    H7 4687   2.885   0.332  13.021 -1.4148  0.2428 -1.3643
  312TMC3    C1 4688   2.297   0.091  13.258 -0.9670  0.1650 -0.0848
  312TMC3    C2 4689   2.169   0.063  13.249 -0.5864  0.1656  0.2062
  312TMC3    C3 4690   2.077   0.168  13.281 -0.1774  0.5951 -0.6941
  312TMC3    C4 4691   2.344   0.198  13.324  0.5882  0.1791 -0.0595
  312TMC3    C5 4692   2.256   0.299  13.362 -0.2379 -0.8128  0.9056
  312TMC3    C6 4693   2.125   0.291  13.328  0.3744 -0.0770 -0.2868
  312TMC3     C 4694   2.403   0.020  13.184  0.0380 -0.3032  0.5569
  312TMC3     O 4695   2.378   4.644  13.122 -0.1565  0.4371  0.1465
  312TMC3     H 4696   2.137   4.694  13.205 -0.7683 -0.6448  2.0691
  312TMC3    H1 4697   2.447   0.198  13.356  0.1653  3.2600  1.3080
  312TMC3    H2 4698   2.062   0.375  13.355  1.0566  0.6770 -1.0521
  312TMC3    C7 4699   2.308   0.413  13.437  0.0647  0.1505 -0.3686
  312TMC3    C8 4700   1.969   0.164  13.186  0.1375  0.0589  0.1433
  312TMC3    O1 4701   2.229   0.504  13.426 -0.7828  0.7583 -0.4387
  312TMC3    O2 4702   1.935   0.054  13.140  0.1966 -0.0252  0.6260
  313MPD2     C 4703   3.444   4.404  10.346  0.3578 -0.1355  0.1541
  313MPD2    C1 4704   3.393   4.317  10.442  0.4552  0.9924 -0.2890
  313MPD2    C2 4705   3.322   4.201  10.406 -0.1146  0.2522  0.5256
  313MPD2    C3 4706   3.303   4.182  10.269  0.2130 -0.2944  0.0885
  313MPD2    C4 4707   3.369   4.254  10.176 -0.0833 -0.0828 -0.0726
  313MPD2    C5 4708   3.442   4.364  10.211 -0.0942 -0.6015  0.0788
  313MPD2     H 4709   3.273   4.131  10.472  3.7691 -0.5150  2.6318
  313MPD2    H1 4710   3.374   4.220  10.073  1.7593 -0.4738  0.1302
  313MPD2    H2 4711   3.479   4.502  10.377  0.1166  0.0169 -0.0605
  313MPD2    H3 4712   3.493   4.420  10.133 -0.6674  0.7322  0.6511
  313MPD2     N 4713   3.227   4.068  10.234 -0.4572 -0.4550  0.2154
  313MPD2    H5 4714   3.206   4.012  10.316  1.4796 -1.3967  0.0746
  313MPD2    N1 4715   3.389   4.360  10.573  0.5946  0.0940  0.6694
  313MPD2    H7 4716   3.409   4.458  10.588  0.8832 -0.0013  0.8951
  314TMC3    C1 4717   3.240   4.333  10.758  0.1253  0.3728 -0.5625
  314TMC3    C2 4718   3.234   4.467  10.767 -0.2802  0.4006  0.0200
  314TMC3    C3 4719   3.115   4.512  10.807  0.2722  0.0196  0.3499
  314TMC3    C4 4720   3.123   4.258  10.755  0.3427  0.0249  0.1559
  314TMC3    C5 4721   3.008   4.313  10.791 -0.6248 -0.0165  0.4753
  314TMC3    C6 4722   3.000   4.444  10.826  0.0797  0.0782  0.0473
  314TMC3     C 4723   3.346   4.276  10.675  0.1695 -0.6085  0.1479
  314TMC3     O 4724   3.351   4.150  10.683  0.1624 -0.0194  0.0066
  314TMC3     H 4725   3.329   4.516  10.784  0.1761 -0.7468  0.7962
  314TMC3    H1 4726   3.124   4.149  10.747  0.1570  0.0361 -0.0335
  314TMC3    H2 4727   2.908   4.482  10.869  0.3357 -0.3022  0.9417
  314TMC3    C7 4728   2.890   4.277  10.708  0.0289 -0.4563  0.1219
  314TMC3    C8 4729   3.110   4.655  10.821 -0.5313  0.6765 -0.5578
  314TMC3    O1 4730   2.788   4.248  10.767 -0.1200  0.4445 -0.1060
  314TMC3    O2 4731   3.217   4.714  10.829 -0.6454  0.2144  0.1920
  315MPD2     C 4732   1.730   4.091  17.550  0.9147 -0.7204 -0.3729
  315MPD2    C1 4733   1.773   4.090  17.682  0.7538 -0.2178 -0.1616
  315MPD2    C2 4734   1.824   4.210   0.026  0.4473  0.0198  0.0149
  315MPD2    C3 4735   1.827   4.322  17.653 -0.5276  1.1121  0.7989
  315MPD2    C4 4736   1.787   4.315  17.528  0.3328 -0.5463 -0.4354
  315MPD2    C5 4737   1.723   4.206  17.475  0.6431 -0.2255 -0.0416
  315MPD2     H 4738   1.859   4.220   0.128  0.2382 -0.8065  0.1696
  315MPD2    H1 4739   1.793   4.401  17.463 -1.9913 -2.7593 -3.6067
  315MPD2    H2 4740   1.690   4.004  17.499  0.3613 -1.5696  1.5330
  315MPD2    H3 4741   1.682   4.208  17.375  0.9405 -0.0421 -0.1622
  315MPD2     N 4742   1.890   4.437   0.002 -0.0706  0.0509 -0.4450
  315MPD2    H5 4743   1.916   4.431   0.100 -0.9057 -0.8514 -0.2736
  315MPD2    N1 4744   1.790   3.978   0.061 -0.1383 -0.9903 -0.1076
  315MPD2    H7 4745   1.858   3.991   0.135 -0.6259 -0.8424  0.3129
  316TMC3    C1 4746   1.993   4.655   0.015 -0.0943  0.5768  0.1467
  316TMC3    C2 4747   1.957   4.670   0.145  0.4428  0.2907 -0.2665
  316TMC3    C3 4748   1.998   0.058   0.200 -0.7777 -0.0695 -0.2258
  316TMC3    C4 4749   2.068   0.018  17.643  0.1942 -0.7001 -0.5736
  316TMC3    C5 4750   2.100   0.133   0.005 -0.6679 -0.1102 -0.2109
  316TMC3    C6 4751   2.064   0.155   0.135  0.0460 -0.2035 -0.2652
  316TMC3     C 4752   1.922   4.553  17.637 -0.0064  0.4283  0.0271
  316TMC3     O 4753   1.918   4.577  17.515  0.1857  0.1592  0.7638
  316TMC3     H 4754   1.886   4.606   0.195  0.7688  0.1554  0.0227
  316TMC3    H1 4755   2.089   0.001  17.538  1.4719 -1.0066 -0.2732
  316TMC3    H2 4756   2.105   0.245   0.177  0.9916 -0.0111 -1.6221
  316TMC3    C7 4757   2.187   0.238  17.647  0.2262  0.4692 -0.1780
  316TMC3    C8 4758   1.981   0.077   0.340  0.8573  0.5399  1.2433
  316TMC3    O1 4759   2.238   0.329   0.007 -0.7700 -0.5602 -0.1808
  316TMC3    O2 4760   1.991   0.194   0.381 -0.1736 -0.2387  0.1000
  317MPD2     C 4761   4.167   2.002  12.824 -0.3090 -0.3764 -0.3657
  317MPD2    C1 4762   4.270   1.914  12.794  0.0392  0.0465  0.1520
  317MPD2    C2 4763   4.339   1.861  12.899  0.2376 -0.0739 -0.1875
  317MPD2    C3 4764   4.307   1.892  13.031  0.0849 -0.4514 -0.0266
  317MPD2    C4 4765   4.210   1.986  13.058  0.0578 -0.0669 -0.6275
  317MPD2    C5 4766   4.140   2.038  12.953 -0.9258  0.2725 -0.0637
  317MPD2     H 4767   4.409   1.781  12.882  1.2359  0.8267 -0.3291
  317MPD2    H1 4768   4.180   2.006  13.160  1.6186  1.2600 -0.4413
  317MPD2    H2 4769   4.120   2.066  12.750 -1.3269 -1.0034 -0.2614
  317MPD2    H3 4770   4.069   2.119  12.966 -1.0504  0.5548 -2.4783
  317MPD2     N 4771   4.363   1.813  13.135  0.1130  0.6068  0.1363
  317MPD2    H5 4772   4.416   1.733  13.100 -2.0036 -0.6021 -0.3519
  317MPD2    N1 4773   4.301   1.866  12.662  0.0745  0.2912  0.2312
  317MPD2    H7 4774   4.379   1.802  12.654 -0.5944 -0.8033  2.3968
  318TMC3    C1 4775   4.455   1.755  13.338 -0.1699  0.5337 -0.8463
  318TMC3    C2 4776   4.445   1.618  13.327  0.1599 -0.7799 -0.1420
  318TMC3    C3 4777   4.499   1.545  13.432  0.2581  0.7137 -0.5651
  318TMC3    C4 4778   4.521   1.813  13.446  0.0518 -0.4410  0.2621
  318TMC3    C5 4779   4.576   1.736  13.548 -0.2250  0.5795 -0.1058
  318TMC3    C6 4780   4.561   1.600  13.548 -0.1141  0.4527 -0.8689
  318TMC3     C 4781   4.375   1.851  13.265 -0.0030  0.5425 -0.3249
  318TMC3     O 4782   4.347   1.954  13.318 -0.1507 -0.4118 -0.7745
  318TMC3     H 4783   4.395   1.576  13.240  0.6689 -1.0925 -0.2851
  318TMC3    H1 4784   4.536   1.920  13.437 -0.2502 -0.6085 -2.4123
  318TMC3    H2 4785   4.597   1.533  13.625 -0.1842  2.4526  0.9049
  318TMC3    C7 4786   4.688   1.798  13.610  0.1976 -0.1297 -0.4065
  318TMC3    C8 4787   4.420   1.432  13.464 -0.9517  0.1720 -0.0077
  318TMC3    O1 4788   4.680   1.918  13.633 -0.3341  0.7414  0.7283
  318TMC3    O2 4789   4.455   1.354  13.551  0.2744 -0.5030 -0.3640
  319MPD2     C 4790   0.261   3.766  17.171 -0.8471 -0.2437  0.1007
  319MPD2    C1 4791   0.200   3.639  17.188  0.3126 -0.1405 -0.3410
  319MPD2    C2 4792   0.150   3.579  17.072  0.1971 -0.0236  0.3217
  319MPD2    C3 4793   0.158   3.634  16.949 -0.4960 -0.5911  0.4737
  319MPD2    C4 4794   0.223   3.761  16.939  0.1628 -0.0312  0.2931
  319MPD2    C5 4795   0.283   3.821  17.043 -0.1229  0.3661 -0.1529
  319MPD2     H 4796   0.115   3.477  17.079  4.4517 -1.3244  2.2916
  319MPD2    H1 4797   0.233   3.804  16.840 -0.9197  1.7979  0.9675
  319MPD2    H2 4798   0.286   3.830  17.255  1.8031 -2.3154  0.8925
  319MPD2    H3 4799   0.329   3.918  17.031 -0.9646  0.4367 -2.6728
  319MPD2     N 4800   0.106   3.575  16.831  0.4483  0.8571  0.0903
  319MPD2    H5 4801   0.130   3.624  16.745 -0.7353 -2.6312 -2.2327
  319MPD2    N1 4802   0.194   3.570  17.314  0.4275  0.3277 -0.4117
  319MPD2    H7 4803   0.139   3.485  17.317  0.9406  0.0179  0.1824
  320TMC3    C1 4804   0.001   3.404  16.694 -0.0823  0.0528  0.0333
  320TMC3    C2 4805   4.698   3.503  16.603  0.6185  0.1897 -0.1120
  320TMC3    C3 4806   4.646   3.464  16.482  0.2545 -0.0645  0.7842
  320TMC3    C4 4807   4.694   3.269  16.677  0.2717 -0.2618  0.1019
  320TMC3    C5 4808   4.636   3.237  16.559 -0.0688  0.3728 -0.1111
  320TMC3    C6 4809   4.612   3.335  16.466  0.3168  0.5637 -0.4384
  320TMC3     C 4810   0.051   3.443  16.826  0.0585 -0.4087  0.4060
  320TMC3     O 4811   0.029   3.363  16.918  0.3398 -0.2723 -0.0076
  320TMC3     H 4812   4.715   3.609  16.621  1.4625 -0.0758  0.6668
  320TMC3    H1 4813   4.724   3.199  16.753  2.0439  0.5531  0.1593
  320TMC3    H2 4814   4.571   3.298  16.373  1.1077 -1.3306 -0.0343
  320TMC3    C7 4815   4.602   3.097  16.521 -0.1148 -0.0596  0.2128
  320TMC3    C8 4816   4.558   3.558  16.406 -0.2581  0.0846 -0.0330
  320TMC3    O1 4817   4.516   3.082  16.436 -0.0153 -0.0418  0.0745
  320TMC3    O2 4818   4.529   3.651  16.477 -0.4198  0.0560  0.1153
  321TMC3    C1 4819   0.233   3.518  17.539 -0.1281 -0.0851 -0.6178
  321TMC3    C2 4820   0.179   3.394  17.510  0.4821 -0.0914 -0.5439
  321TMC3    C3 4821   0.124   3.323  17.610 -0.6448 -1.3884 -0.0268
  321TMC3    C4 4822   0.240   3.568  17.666 -0.2266  0.2992 -0.3829
  321TMC3    C5 4823   0.180   3.499   0.056 -0.2545  0.1911  0.6081
  321TMC3    C6 4824   0.109   3.388   0.029  0.1706 -0.4165  0.5338
  321TMC3     C 4825   0.254   3.610  17.431 -0.1495 -0.6006 -0.2799
  321TMC3     O 4826   0.317   3.710  17.463  0.1910  0.5989  0.1091
  321TMC3     H 4827   0.189   3.348  17.412 -3.1356 -0.5380 -0.7042
  321TMC3    H1 4828   0.272   3.671  17.681 -1.5567  0.4588  1.3148
  321TMC3    H2 4829   0.073   3.335   0.116  1.8369  2.2381  2.8145
  321TMC3    C7 4830   0.245   3.483   0.184  0.8453 -0.7249  0.1067
  321TMC3    C8 4831   0.141   3.177  17.624  0.0710 -0.1061 -0.2011
  321TMC3    O1 4832   0.365   3.500   0.182  0.1022 -0.2933  0.4345
  321TMC3    O2 4833   0.097   3.137   0.028 -0.1445 -0.5417 -0.1863
  322MPD2     C 4834   3.944   4.681  13.401  0.6923 -0.3825  0.8146
  322MPD2    C1 4835   3.944   4.632  13.530  0.4663  0.3730  0.1056
  322MPD2    C2 4836   3.926   4.494  13.549 -0.5222  0.0698 -0.3664
  322MPD2    C3 4837   3.907   4.409  13.443 -0.3145 -0.3330  0.3472
  322MPD2    C4 4838   3.908   4.461  13.314  0.3263  0.3681  0.4233
  322MPD2    C5 4839   3.936   4.596  13.301  0.4209 -0.5470 -0.0180
  322MPD2     H 4840   3.933   4.459  13.651  0.5344 -0.7554 -0.7162
  322MPD2    H1 4841   3.886   4.398  13.227 -0.4387  0.1361  0.7834
  322MPD2    H2 4842   3.943   0.061  13.377 -0.8260 -0.7094 -0.5881
  322MPD2    H3 4843   3.914   4.637  13.203  0.0803  1.2662  0.8308
  322MPD2     N 4844   3.907   4.274  13.478 -0.2294 -0.2443 -0.0508
  322MPD2    H5 4845   3.903   4.253  13.578 -0.9672 -0.6696 -0.1639
  322MPD2    N1 4846   3.949   4.712  13.645 -0.3096  0.2370 -0.7372
  322MPD2    H7 4847   3.930   4.661  13.731  0.2877  0.1882 -0.6359
  323TMC3    C1 4848   4.036   0.143  13.790  0.3326 -0.5700  0.2159
  323TMC3    C2 4849   4.159   0.202  13.801 -0.1252 -0.1670  0.8153
  323TMC3    C3 4850   4.212   0.202  13.930  0.0465  1.0903  0.0046
  323TMC3    C4 4851   3.960   0.117  13.898 -0.2253  0.3165 -0.8560
  323TMC3    C5 4852   4.015   0.124  14.021 -0.3865  0.3563  0.0381
  323TMC3    C6 4853   4.136   0.180  14.043  0.0022 -0.1896 -0.5239
  323TMC3     C 4854   3.997   0.114  13.649  0.7178 -0.6196 -0.7828
  323TMC3     O 4855   4.059   0.168  13.557 -0.0576  0.3928 -0.2790
  323TMC3     H 4856   4.217   0.216  13.710  0.8965 -0.7640  1.3636
  323TMC3    H1 4857   3.863   0.070  13.889 -1.5408  2.9237 -0.4311
  323TMC3    H2 4858   4.181   0.173  14.142 -0.3184  0.2912 -0.3379
  323TMC3    C7 4859   3.953   0.046  14.129  0.9734 -0.1127  0.4165
  323TMC3    C8 4860   4.352   0.201  13.951  0.1373 -0.1464  0.1778
  323TMC3    O1 4861   3.899   4.670  14.095 -0.4064 -0.2594 -0.4181
  323TMC3    O2 4862   4.381   0.158  14.062  0.0731  0.1274 -0.4511
  324MPD2     C 4863   1.407   1.399  14.565  0.1682 -0.0516 -0.0825
  324MPD2    C1 4864   1.428   1.456  14.445 -0.0210 -0.5608 -0.7666
  324MPD2    C2 4865   1.321   1.473  14.352 -0.0537  0.5936 -0.1019
  324MPD2    C3 4866   1.195   1.433  14.381 -0.7596 -0.1360  0.3601
  324MPD2    C4 4867   1.175   1.371  14.499  0.0328 -0.1283  0.4268
  324MPD2    C5 4868   1.282   1.359  14.590 -0.0737  0.5712  0.3261
  324MPD2     H 4869   1.342   1.513  14.254  0.7340  3.8467  1.3819
  324MPD2    H1 4870   1.078   1.332  14.526  0.3724 -0.0410  1.7626
  324MPD2    H2 4871   1.477   1.382  14.645  1.7354  2.3320 -0.9585
  324MPD2    H3 4872   1.276   1.310  14.686  1.1752 -1.2117 -0.5034
  324MPD2     N 4873   1.087   1.443  14.291  0.5728 -0.4392  0.1978
  324MPD2    H5 4874   0.998   1.411  14.329  0.3453 -0.1887 -0.1234
  324MPD2    N1 4875   1.555   1.506  14.407 -0.9022  0.1622  0.4579
  324MPD2    H7 4876   1.563   1.560  14.322  1.2887 -0.0439  0.5298
  325TMC3    C1 4877   0.957   1.478  14.103 -0.5985 -0.0577  0.4305
  325TMC3    C2 4878   0.873   1.377  14.149  0.4572  0.6795  0.2033
  325TMC3    C3 4879   0.752   1.359  14.088  0.2514 -0.9746  0.6766
  325TMC3    C4 4880   0.921   1.575  14.008  0.6363 -0.3024  0.9183
  325TMC3    C5 4881   0.801   1.551  13.952 -0.4273  0.4634  0.6367
  325TMC3    C6 4882   0.713   1.457  13.998  0.1353  0.6471 -0.4908
  325TMC3     C 4883   1.090   1.490  14.164 -0.3058  0.0387 -0.2690
  325TMC3     O 4884   1.175   1.554  14.105 -0.5680  0.2092 -0.2792
  325TMC3     H 4885   0.897   1.298  14.219 -0.5817 -0.7872 -1.1092
  325TMC3    H1 4886   0.978   1.666  13.997  0.6911 -0.6377 -1.7397
  325TMC3    H2 4887   0.623   1.433  13.943  0.8997 -1.6330 -0.7425
  325TMC3    C7 4888   0.743   1.670  13.903 -0.4601 -0.1070  0.2052
  325TMC3    C8 4889   0.670   1.244  14.117  0.2725  0.5586  0.9501
  325TMC3    O1 4890   0.819   1.758  13.866  0.2442 -0.2542 -0.3552
  325TMC3    O2 4891   0.720   1.177  14.208  0.5220  0.0959  0.2185
  326MPD2     C 4892   2.022   2.333  11.172  0.7473  0.1750 -0.0773
  326MPD2    C1 4893   2.037   2.335  11.035 -0.5953  0.4675 -0.1553
  326MPD2    C2 4894   2.164   2.340  10.978  0.5286  0.2479  0.2683
  326MPD2    C3 4895   2.279   2.351  11.054  0.2228 -0.3021 -0.3171
  326MPD2    C4 4896   2.262   2.344  11.189 -0.2084 -0.2778 -0.0263
  326MPD2    C5 4897   2.138   2.337  11.244  0.0925 -0.0728 -0.0187
  326MPD2     H 4898   2.172   2.359  10.872 -1.0785  0.2004  0.1416
  326MPD2    H1 4899   2.352   2.359  11.248 -0.0100 -2.0498  0.1116
  326MPD2    H2 4900   1.923   2.339  11.216  0.4846  1.8125 -0.8645
  326MPD2    H3 4901   2.135   2.332  11.353 -1.2490  0.4412 -0.0387
  326MPD2     N 4902   2.411   2.357  11.004 -0.3372 -0.1318  0.3779
  326MPD2    H5 4903   2.479   2.394  11.070  1.9031 -2.3308 -0.6907
  326MPD2    N1 4904   1.930   2.351  10.946  0.3083 -0.2755  0.3234
  326MPD2    H7 4905   1.963   2.378  10.854 -1.4201 -0.5904 -0.3813
  327TMC3    C1 4906   1.728   2.385  10.850 -0.0153 -0.7221 -1.0342
  327TMC3    C2 4907   1.778   2.472  10.758  0.0121 -0.0901 -0.2493
  327TMC3    C3 4908   1.754   2.429  10.630  0.2445 -0.2500  0.5361
  327TMC3    C4 4909   1.665   2.269  10.832 -0.4134  0.0619 -0.0001
  327TMC3    C5 4910   1.647   2.226  10.705 -0.5444 -0.3914 -1.1420
  327TMC3    C6 4911   1.692   2.307  10.598  0.8860 -0.0471  0.3983
  327TMC3     C 4912   1.801   2.379  10.979  0.2088  0.0957 -0.1772
  327TMC3     O 4913   1.740   2.337  11.080  0.1799 -0.0713 -0.6091
  327TMC3     H 4914   1.818   2.569  10.786 -1.7828  0.5671  0.0563
  327TMC3    H1 4915   1.651   2.206  10.919  1.7804  0.1617  0.4356
  327TMC3    H2 4916   1.681   2.276  10.494 -4.0997  1.0722  0.6007
  327TMC3    C7 4917   1.718   2.099  10.693  0.5852 -0.3030 -0.1196
  327TMC3    C8 4918   1.785   2.525  10.527  0.2487  0.7276  0.4585
  327TMC3    O1 4919   1.698   2.046  10.584 -0.2910 -0.2778 -0.0203
  327TMC3    O2 4920   1.768   2.644  10.560  0.8072 -0.0153 -0.2467
  328MPD2     C 4921   0.191   2.522  17.471 -0.3445 -1.0431  0.0662
  328MPD2    C1 4922   0.084   2.548  17.552 -0.4808  0.1454 -0.1782
  328MPD2    C2 4923   4.685   2.507  17.507 -0.1238  0.2022 -0.4093
  328MPD2    C3 4924   4.673   2.466  17.372  0.0814 -0.2177  0.0446
  328MPD2    C4 4925   0.061   2.457  17.294  0.5045  0.1500  0.2316
  328MPD2    C5 4926   0.186   2.467  17.348  0.2483  0.7576  0.0523
  328MPD2     H 4927   4.594   2.531  17.561  1.6923  0.9342  2.3019
  328MPD2    H1 4928   0.054   2.402  17.201  2.0976  3.1564 -1.6893
  328MPD2    H2 4929   0.293   2.540  17.506 -0.0954  0.1221 -1.2659
  328MPD2    H3 4930   0.274   2.432  17.297  0.2932  0.4836  0.3210
  328MPD2     N 4931   4.546   2.456  17.297  0.2731  0.6870  0.4079
  328MPD2    H5 4932   4.552   2.455  17.196  1.8788 -2.4051  0.5144
  328MPD2    N1 4933   0.104   2.596  17.681  0.6222  0.0441 -0.2895
  328MPD2    H7 4934   0.201   2.616   0.002 -0.2002  1.6162  1.6297
  329TMC3    C1 4935   0.069   2.714   0.169  0.4035 -0.5098 -0.7903
  329TMC3    C2 4936   4.699   2.798   0.228  0.4443  0.1190  0.0628
  329TMC3    C3 4937   4.714   2.812   0.364 -0.4864 -0.4656 -0.8151
  329TMC3    C4 4938   0.173   2.653   0.235 -0.0563 -0.7226 -0.0005
  329TMC3    C5 4939   0.180   2.682   0.371  0.1421  0.6019  0.2006
  329TMC3    C6 4940   0.085   2.753   0.434  0.0144  0.3279 -0.0060
  329TMC3     C 4941   0.008   2.641   0.063 -0.3183  0.0301 -0.6460
  329TMC3     O 4942   4.612   2.646   0.044  0.4381  0.3323 -0.3692
  329TMC3     H 4943   4.617   2.841   0.171 -1.4644 -1.3144  1.7022
  329TMC3    H1 4944   0.222   2.565   0.195  0.6708  0.7088 -2.2335
  329TMC3    H2 4945   0.073   2.753   0.542  2.1951 -0.1049  0.2319
  329TMC3    C7 4946   0.275   2.611   0.459  0.1599 -0.1876  0.8992
  329TMC3    C8 4947   4.645   2.919   0.433 -0.2189  0.0819  0.6350
  329TMC3    O1 4948   0.339   2.513   0.417  0.8804 -0.2043 -0.0297
  329TMC3    O2 4949   4.687   2.954   0.545 -0.1291  0.0493 -0.5406
  330TMC3    C1 4950   2.005   1.999   9.695  0.1449 -0.1060 -0.2269
  330TMC3    C2 4951   1.983   1.868   9.689 -0.1643  1.0323 -0.4546
  330TMC3    C3 4952   2.092   1.798   9.665 -0.6405  0.3107 -0.4065
  330TMC3    C4 4953   2.127   2.052   9.673 -0.2181 -0.1398 -0.1257
  330TMC3    C5 4954   2.235   1.971   9.646  0.1887  0.0693 -0.6021
  330TMC3    C6 4955   2.222   1.837   9.652  0.4979 -0.1469  0.0214
  330TMC3     C 4956   1.892   2.096   9.705 -0.2677 -0.5161  0.6806
  330TMC3     O 4957   1.917   2.215   9.706  0.4306 -0.9791  0.4324
  330TMC3     H 4958   1.886   1.820   9.691  0.4483 -0.2118 -0.7182
  330TMC3    H1 4959   2.143   2.160   9.673 -3.9932  0.4159 -0.3183
  330TMC3    H2 4960   2.308   1.781   9.619  0.4584 -0.1440 -0.0864
  330TMC3    C7 4961   2.365   2.029   9.689  0.8235  0.1047  0.1522
  330TMC3    C8 4962   2.057   1.662   9.617  1.0698  0.7073 -0.1388
  330TMC3    O1 4963   2.394   2.141   9.649 -0.0800 -0.4353 -0.0696
  330TMC3    O2 4964   1.935   1.635   9.594  0.6333 -0.1010 -0.0343
  331MPD2     C 4965   0.404   0.389  13.076  0.1146  0.2186  0.0970
  331MPD2    C1 4966   0.496   0.426  12.982  0.2832 -1.1188  0.6759
  331MPD2    C2 4967   0.496   0.349  12.870 -0.7750  0.7418  0.5980
  331MPD2    C3 4968   0.415   0.237  12.854  0.2525  0.3862 -0.2252
  331MPD2    C4 4969   0.339   0.195  12.961 -0.0417 -0.5625 -0.8792
  331MPD2    C5 4970   0.327   0.277  13.070  0.6458 -0.1243 -0.5483
  331MPD2     H 4971   0.567   0.373  12.792 -1.6251 -0.8125 -0.6484
  331MPD2    H1 4972   0.282   0.103  12.955  0.6085 -0.9868 -0.5255
  331MPD2    H2 4973   0.398   0.435  13.174  2.0489 -1.2919  0.9113
  331MPD2    H3 4974   0.273   0.252  13.161 -1.9881 -1.0958 -2.3988
  331MPD2     N 4975   0.422   0.171  12.723 -0.0319 -0.1124  0.3621
  331MPD2    H5 4976   0.486   0.219  12.661 -1.1172  1.3506  0.3814
  331MPD2    N1 4977   0.575   0.543  13.002 -0.0136  0.1876 -0.1577
  331MPD2    H7 4978   0.556   0.609  13.077 -1.1032  0.5992 -0.7929
  332TMC3    C1 4979   0.404   0.016  12.551 -0.1377  0.7064  0.5909
  332TMC3    C2 4980   0.445   0.122  12.471 -0.2189 -0.1738 -0.6176
  332TMC3    C3 4981   0.532   0.086  12.375  0.0356  0.2181 -0.2537
  332TMC3    C4 4982   0.454   4.617  12.549 -0.4236  0.5845 -0.1434
  332TMC3    C5 4983   0.558   4.596  12.462  0.4783  0.0075 -0.1802
  332TMC3    C6 4984   0.587   4.686  12.367  0.5532 -0.3759  0.0199
  332TMC3     C 4985   0.350   0.062  12.684 -1.0965 -0.2302  0.2497
  332TMC3     O 4986   0.267   4.720  12.746 -0.3174 -0.3541  0.2858
  332TMC3     H 4987   0.430   0.227  12.494 -0.5679 -0.2071 -0.6988
  332TMC3    H1 4988   0.435   4.547  12.630 -1.9538  0.6789 -0.4336
  332TMC3    H2 4989   0.670   4.671  12.299 -0.0624 -0.1642 -0.7763
  332TMC3    C7 4990   0.666   4.509  12.502  0.7004  0.4150  0.1722
  332TMC3    C8 4991   0.572   0.182  12.272  0.4450  0.1075 -0.7004
  332TMC3    O1 4992   0.775   4.539  12.453 -0.2175 -0.1795 -0.3697
  332TMC3    O2 4993   0.552   0.298  12.302  0.0860 -0.2311  0.1328
  333MPD2     C 4994   1.077   0.543  11.254  0.2871  0.2206 -0.3672
  333MPD2    C1 4995   1.089   0.457  11.150 -0.0423  0.3028  0.1240
  333MPD2    C2 4996   0.998   0.354  11.140 -0.2326  0.0529  0.1678
  333MPD2    C3 4997   0.883   0.350  11.212  0.2615 -0.8686  0.0983
  333MPD2    C4 4998   0.872   0.441  11.316 -0.3696 -0.0705 -0.1023
  333MPD2    C5 4999   0.973   0.531  11.342  0.2172  0.4757 -0.5800
  333MPD2     H 5000   1.011   0.284  11.059  1.1022  2.9074 -2.0666
  333MPD2    H1 5001   0.784   0.440  11.379 -1.1254 -2.3539 -1.1995
  333MPD2    H2 5002   1.151   0.622  11.266 -0.0838  0.1931  2.0364
  333MPD2    H3 5003   0.965   0.597  11.428 -4.0044 -0.4845 -0.2103
  333MPD2     N 5004   0.793   0.245  11.191  0.0981  0.4579 -0.1710
  333MPD2    H5 5005   0.817   0.178  11.118  0.6256 -0.2814  0.6785
  333MPD2    N1 5006   1.204   0.472  11.067  0.0610 -0.2250  0.4456
  333MPD2    H7 5007   1.255   0.556  11.092 -0.2326  0.6738 -1.9947
  334TMC3    C1 5008   1.378   0.419  10.918 -0.0266 -0.5086  0.0238
  334TMC3    C2 5009   1.443   0.334  10.841 -0.5983 -0.1109  0.6556
  334TMC3    C3 5010   1.554   0.372  10.771 -0.2649 -0.1139 -0.3202
  334TMC3    C4 5011   1.410   0.554  10.918 -0.0117 -0.6397  0.6351
  334TMC3    C5 5012   1.505   0.596  10.833  0.1457  0.5888  0.0123
  334TMC3    C6 5013   1.588   0.504  10.773 -0.4991  0.2951 -0.4056
  334TMC3     C 5014   1.253   0.379  10.977 -1.5199  0.2784 -0.2004
  334TMC3     O 5015   1.205   0.268  10.953 -0.0965 -0.3571  0.3271
  334TMC3     H 5016   1.415   0.231  10.825  0.8866 -0.7111  1.9320
  334TMC3    H1 5017   1.354   0.628  10.974 -1.2357 -0.3358 -0.9676
  334TMC3    H2 5018   1.684   0.538  10.736  0.0632  1.3540  1.9924
  334TMC3    C7 5019   1.550   0.734  10.849 -0.4507  0.6855 -0.4513
  334TMC3    C8 5020   1.642   0.270  10.710 -0.1069  0.4474  0.4779
  334TMC3    O1 5021   1.500   0.803  10.935  0.1144 -0.5381 -0.3487
  334TMC3    O2 5022   1.622   0.153  10.740 -0.1253  0.2714  0.1571
  335TMC3    C1 5023   0.425   2.050   0.054  0.2807 -0.4743  0.1541
  335TMC3    C2 5024   0.350   2.005  17.653 -0.0190  0.1176  0.3216
  335TMC3    C3 5025   0.397   2.047  17.529  0.3685  0.8433  0.2019
  335TMC3    C4 5026   0.547   2.105   0.045 -0.1460  0.2283  0.3049
  335TMC3    C5 5027   0.593   2.143  17.619  0.2220 -0.6627  0.2020
  335TMC3    C6 5028   0.514   2.123  17.513  0.1811  0.9602 -0.1579
  335TMC3     C 5029   0.356   2.069   0.180 -0.6994  0.7603 -0.2775
  335TMC3     O 5030   0.241   2.029   0.180 -0.1564  0.3572  0.2505
  335TMC3     H 5031   0.252   1.960  17.666  0.2048 -0.1973  0.9155
  335TMC3    H1 5032   0.616   2.085   0.126  0.0983 -2.0525 -0.4535
  335TMC3    H2 5033   0.544   2.155  17.414 -0.0731 -1.2991 -0.9692
  335TMC3    C7 5034   0.736   2.151  17.591 -0.8671  0.4782 -0.5073
  335TMC3    C8 5035   0.320   2.015  17.404 -0.8393 -0.1636  0.1219
  335TMC3    O1 5036   0.760   2.130  17.472 -0.0631  0.5563 -0.5524
  335TMC3    O2 5037   0.325   2.098  17.315 -0.0735 -0.1198 -0.0856
  336MPD2     C 5038   4.723   4.619  16.089  0.4155 -0.3895 -0.4086
  336MPD2    C1 5039   4.632   4.532  16.024  0.2386  0.3789 -0.6431
  336MPD2    C2 5040   4.656   4.402  16.026 -0.0472 -0.2730  0.1119
  336MPD2    C3 5041   0.030   4.352  16.108 -0.6436 -0.3337  0.4679
  336MPD2    C4 5042   0.115   4.439  16.175 -0.5473  0.5787  0.0701
  336MPD2    C5 5043   0.098   4.567  16.159  0.3612 -0.4455 -0.4855
  336MPD2     H 5044   4.587   4.337  15.974 -2.0129  0.6091  1.6248
  336MPD2    H1 5045   0.193   4.394  16.236 -1.6924  0.7554  1.6897
  336MPD2    H2 5046   4.714   0.000  16.104 -1.7496 -0.7805  1.1130
  336MPD2    H3 5047   0.169   4.631  16.210 -1.4228 -0.1108  1.5747
  336MPD2     N 5048   0.042   4.217  16.142  0.3745  0.4302 -0.7705
  336MPD2    H5 5049   0.096   4.192  16.224 -2.2442  0.5619  1.0030
  336MPD2    N1 5050   4.511   4.586  15.963 -0.0665 -0.3570  0.1138
  336MPD2    H7 5051   4.444   4.515  15.934 -0.2008  0.2611 -1.1151
  337TMC3    C1 5052   4.361   0.031  15.889 -0.2404  0.3763  0.1549
  337TMC3    C2 5053   4.272   4.657  15.865 -0.0224  0.1428 -0.1358
  337TMC3    C3 5054   4.150   4.692  15.816  0.6816  0.0886  0.0433
  337TMC3    C4 5055   4.335   0.166  15.863 -0.1871  0.1791  0.0455
  337TMC3    C5 5056   4.211   0.199  15.809  0.3618  0.0987  1.0092
  337TMC3    C6 5057   4.122   0.097  15.780  0.0099  0.1965  0.0878
  337TMC3     C 5058   4.484   4.725  15.947 -0.3266 -0.5214  0.2663
  337TMC3     O 5059   4.570   0.090  15.958  0.5293 -0.3123 -0.2771
  337TMC3     H 5060   4.272   4.559  15.911  0.2137  0.0694 -0.2945
  337TMC3    H1 5061   4.411   0.239  15.889  0.4553 -0.4680 -0.0256
  337TMC3    H2 5062   4.025   0.123  15.739 -0.4612 -1.4866  0.1491
  337TMC3    C7 5063   4.216   0.318  15.717 -0.0296 -0.1471  0.2257
  337TMC3    C8 5064   4.053   4.584  15.781 -0.2487  0.2098  0.4452
  337TMC3    O1 5065   4.134   0.318  15.629 -0.1184  0.3125  0.1366
  337TMC3    O2 5066   4.099   4.478  15.736 -0.0454 -0.0160 -0.1745
  338MPD2     C 5067   0.100   3.505   1.043 -0.3930 -0.0501  0.5652
  338MPD2    C1 5068   0.072   3.598   0.938  0.1887  0.1079  0.1642
  338MPD2    C2 5069   4.670   3.638   0.909 -0.2597 -0.2570 -0.4665
  338MPD2    C3 5070   4.565   3.589   0.986  0.1995 -0.1428  0.2309
  338MPD2    C4 5071   4.585   3.500   1.091 -0.5234  0.6974 -0.5372
  338MPD2    C5 5072   4.717   3.462   1.121 -0.3490 -0.0651 -0.2496
  338MPD2     H 5073   4.659   3.716   0.834 -0.0703  0.9218  0.7337
  338MPD2    H1 5074   4.500   3.458   1.144  0.1290  0.8587  0.6215
  338MPD2    H2 5075   0.199   3.470   1.070 -0.1161 -1.5007 -2.3239
  338MPD2    H3 5076   0.013   3.393   1.202  1.4466  1.1250  0.2644
  338MPD2     N 5077   4.439   3.619   0.934 -0.2564  0.2149 -0.5249
  338MPD2    H5 5078   4.442   3.685   0.856 -1.0319  0.3913 -0.4067
  338MPD2    N1 5079   0.169   3.662   0.856 -0.3767  0.0582  0.0332
  338MPD2    H7 5080   0.138   3.738   0.796  0.0833  0.3134  0.1220
  339TMC3    C1 5081   4.205   3.606   0.900 -0.3443 -0.6804 -0.6726
  339TMC3    C2 5082   4.088   3.615   0.967  0.8142 -0.3237  0.1860
  339TMC3    C3 5083   3.975   3.646   0.902  0.1735 -0.1679 -0.1121
  339TMC3    C4 5084   4.211   3.632   0.769 -0.1251  0.2121  0.0695
  339TMC3    C5 5085   4.104   3.674   0.709  0.3720 -0.2524 -0.0346
  339TMC3    C6 5086   3.980   3.682   0.769  0.0997  0.4795 -0.8253
  339TMC3     C 5087   4.322   3.583   0.984  0.6597 -0.4555 -1.3793
  339TMC3     O 5088   4.288   3.556   1.102 -0.0792  0.0303 -0.2655
  339TMC3     H 5089   4.074   3.584   1.070 -0.3699 -0.4057  0.0056
  339TMC3    H1 5090   4.303   3.619   0.713  0.8749  0.7260  1.6013
  339TMC3    H2 5091   3.892   3.711   0.712 -0.6285 -0.3776 -0.1308
  339TMC3    C7 5092   4.126   3.769   0.599 -0.1707 -0.2426 -0.0848
  339TMC3    C8 5093   3.847   3.682   0.969 -0.1763  0.2205  0.1120
  339TMC3    O1 5094   4.238   3.761   0.548 -0.0736  0.0554  0.9360
  339TMC3    O2 5095   3.750   3.691   0.894  0.1836 -0.0978 -0.4886
  340MPD2     C 5096   4.600   2.282   9.575  0.4828  0.6214  0.1536
  340MPD2    C1 5097   4.702   2.218   9.643 -0.3972  0.1151  0.4818
  340MPD2    C2 5098   0.040   2.294   9.734  0.2922 -0.5717 -0.2217
  340MPD2    C3 5099   0.028   2.434   9.739 -0.2282  0.0479 -0.1731
  340MPD2    C4 5100   4.667   2.492   9.660  0.1974  0.2451 -0.0173
  340MPD2    C5 5101   4.576   2.418   9.584 -0.4069 -0.3645  0.1911
  340MPD2     H 5102   0.103   2.249   9.811  3.1657  0.1362 -2.1412
  340MPD2    H1 5103   4.664   2.600   9.659  2.5717  0.3089 -0.2087
  340MPD2    H2 5104   4.529   2.228   9.513  1.0697  1.1693 -0.9963
  340MPD2    H3 5105   4.492   2.465   9.534  0.8211  1.2162 -0.3826
  340MPD2     N 5106   0.108   2.520   9.828 -0.2049  0.2445  0.3538
  340MPD2    H5 5107   0.108   2.620   9.810 -0.2239  0.4500  1.4410
  340MPD2    N1 5108   4.707   2.077   9.636 -0.3848 -0.6508  0.3698
  340MPD2    H7 5109   4.633   2.038   9.579 -0.6492  0.4366 -0.0359
  341TMC3    C1 5110   0.066   1.862   9.655  0.6895 -0.3218 -0.3081
  341TMC3    C2 5111   4.660   1.819   9.630 -0.1610 -0.4577 -0.3494
  341TMC3    C3 5112   4.640   1.680   9.617  0.4933  0.5436 -0.2826
  341TMC3    C4 5113   0.166   1.773   9.681 -0.6846  0.1439 -0.7025
  341TMC3    C5 5114   0.142   1.636   9.662  0.2301 -0.1280 -0.0324
  341TMC3    C6 5115   0.020   1.594   9.633 -0.1509  0.8111 -0.0896
  341TMC3     C 5116   0.087   2.001   9.677  0.4366 -0.0610  0.2865
  341TMC3     O 5117   0.196   2.036   9.719 -0.4547 -0.0688 -0.4474
  341TMC3     H 5118   4.577   1.889   9.629 -0.7231 -1.1353 -0.9419
  341TMC3    H1 5119   0.263   1.807   9.717 -0.8694 -0.1469  0.0748
  341TMC3    H2 5120   4.724   1.488   9.646 -3.2457  1.5332  0.6320
  341TMC3    C7 5121   0.240   1.544   9.711  0.2333  0.0740  0.5110
  341TMC3    C8 5122   4.510   1.621   9.623 -1.0714  0.3256 -0.0131
  341TMC3    O1 5123   0.315   1.572   9.798 -0.8128  0.1619 -0.0652
  341TMC3    O2 5124   4.489   1.503   9.589 -0.0549  0.0054  0.3052
  342MPD2     C 5125   3.074   0.597   0.079 -1.2728  0.2823 -0.3177
  342MPD2    C1 5126   3.166   0.639  17.697 -0.1311 -0.5202  0.5841
  342MPD2    C2 5127   3.226   0.760   0.014  0.2253 -0.1704 -0.1308
  342MPD2    C3 5128   3.193   0.842   0.123 -0.7407  0.0737  0.6873
  342MPD2    C4 5129   3.102   0.790   0.217 -0.1705 -0.2862  0.7189
  342MPD2    C5 5130   3.037   0.673   0.190  0.2462 -0.8091 -0.0757
  342MPD2     H 5131   3.302   0.792  17.648  1.9656 -0.4367  1.6397
  342MPD2    H1 5132   3.067   0.847   0.303  1.6056  1.0140  0.5899
  342MPD2    H2 5133   3.022   0.505   0.059 -1.9372  0.9180 -1.5547
  342MPD2    H3 5134   2.950   0.645   0.249  0.0473  2.9405  1.3877
  342MPD2     N 5135   3.252   0.970   0.149  0.6783  0.1084  0.3874
  342MPD2    H5 5136   3.201   1.033   0.209 -0.0598  0.7428 -0.8948
  342MPD2    N1 5137   3.205   0.566  17.582 -0.0480  0.4040  0.3942
  342MPD2    H7 5138   3.271   0.621  17.529 -0.8863  1.5927  0.5887
  343TMC3    C1 5139   3.206   0.404  17.409  0.5661 -0.2322 -0.0138
  343TMC3    C2 5140   3.343   0.399  17.393 -0.0166 -0.4351 -0.0689
  343TMC3    C3 5141   3.403   0.283  17.336 -0.9747  0.1148 -0.0952
  343TMC3    C4 5142   3.133   0.302  17.352 -0.0827 -0.7359  0.2432
  343TMC3    C5 5143   3.195   0.205  17.286 -0.6127  0.3667  0.3777
  343TMC3    C6 5144   3.324   0.186  17.282 -0.2947 -0.5052 -0.1480
  343TMC3     C 5145   3.153   0.443  17.536 -0.4222 -0.0597  0.2380
  343TMC3     O 5146   3.063   0.376  17.576 -0.1873  0.1270 -0.6493
  343TMC3     H 5147   3.402   0.477  17.439 -0.9260  1.2816 -1.7906
  343TMC3    H1 5148   3.025   0.318  17.346  0.0307 -0.6664 -1.8208
  343TMC3    H2 5149   3.373   0.098  17.241  1.2955 -0.0169  0.6893
  343TMC3    C7 5150   3.130   0.077  17.307  0.7120 -0.5192  0.5773
  343TMC3    C8 5151   3.544   0.270  17.353  0.4484 -0.8980 -0.5836
  343TMC3    O1 5152   3.159   4.705  17.241  0.5209  0.2175  0.1006
  343TMC3    O2 5153   3.611   0.368  17.392 -0.5139  0.1463 -0.2281
  344MPD2     C 5154   4.384   4.557  10.785 -0.4487  0.2759  0.5873
  344MPD2    C1 5155   4.435   4.529  10.909 -0.5621 -0.0720  0.2310
  344MPD2    C2 5156   4.479   4.635  10.987  0.8843  0.0646  0.5949
  344MPD2    C3 5157   4.471   0.038  10.954 -0.0533  0.3394 -0.3770
  344MPD2    C4 5158   4.424   0.062  10.826 -0.5896 -0.9209  0.0661
  344MPD2    C5 5159   4.387   4.681  10.740 -0.8929 -0.3068 -0.1242
  344MPD2     H 5160   4.527   4.606  11.081  0.5995 -0.3573  0.6089
  344MPD2    H1 5161   4.417   0.161  10.784 -1.1050 -1.1114 -0.2960
  344MPD2    H2 5162   4.343   4.485  10.715 -0.9634  1.5899 -0.4473
  344MPD2    H3 5163   4.345   4.706  10.643  3.1938 -3.3037 -2.6378
  344MPD2     N 5164   4.517   0.149  11.023  0.0570 -0.1544  0.0759
  344MPD2    H5 5165   4.502   0.238  10.976  0.3086 -0.3971 -0.4521
  344MPD2    N1 5166   4.438   4.398  10.963  0.4838 -0.4621  0.1328
  344MPD2    H7 5167   4.461   4.383  11.061  0.9951  2.3208  0.4376
  345TMC3    C1 5168   4.650   0.263  11.164 -0.2624 -0.9797  0.8280
  345TMC3    C2 5169   4.607   0.353  11.251 -0.1885 -0.1869 -0.4554
  345TMC3    C3 5170   4.660   0.485  11.244  0.8497  0.0968  0.3328
  345TMC3    C4 5171   0.010   0.290  11.057  0.3784  0.1665 -0.2585
  345TMC3    C5 5172   0.067   0.419  11.047  0.5437 -0.0497 -0.6279
  345TMC3    C6 5173   0.032   0.512  11.151 -0.2691 -0.3386 -0.4093
  345TMC3     C 5174   4.586   0.141  11.142 -0.6579 -0.1564  0.1630
  345TMC3     O 5175   4.583   0.062  11.230 -0.0084  0.1784 -0.2765
  345TMC3     H 5176   4.538   0.320  11.329 -1.1148 -0.4209 -1.3744
  345TMC3    H1 5177   0.044   0.211  10.991 -1.3388  1.7304 -2.9671
  345TMC3    H2 5178   0.060   0.614  11.129 -2.7287  0.2321 -0.8603
  345TMC3    C7 5179   0.067   0.478  10.916  0.1054  0.3548  0.0948
  345TMC3    C8 5180   4.558   0.587  11.221  0.5629  0.7190  0.0865
  345TMC3    O1 5181   0.034   0.600  10.908  0.4847 -0.0704 -0.4234
  345TMC3    O2 5182   4.596   0.702  11.214 -0.5861  0.3159 -0.1026
  346MPD2     C 5183   4.214   1.385  14.420  0.7703  0.0551  0.3534
  346MPD2    C1 5184   4.312   1.372  14.325  0.3413  0.0456  0.1852
  346MPD2    C2 5185   4.436   1.432  14.344 -0.2426  0.0098  0.2057
  346MPD2    C3 5186   4.460   1.501  14.460  0.0460 -0.9885 -0.2658
  346MPD2    C4 5187   4.364   1.514  14.558  0.0775  0.8832  0.6198
  346MPD2    C5 5188   4.242   1.456  14.535  0.0022 -0.2657  0.0412
  346MPD2     H 5189   4.514   1.421  14.270  0.2231  2.0497  0.3818
  346MPD2    H1 5190   4.384   1.566  14.651  0.8967 -1.3018  1.6571
  346MPD2    H2 5191   4.118   1.334  14.415  1.5583 -1.2266 -1.8709
  346MPD2    H3 5192   4.164   1.461  14.610 -0.0161  0.4834 -0.0249
  346MPD2     N 5193   4.587   1.552  14.461 -0.1078  1.1413 -0.0370
  346MPD2    H5 5194   4.638   1.543  14.374 -0.1994  2.0698 -0.1897
  346MPD2    N1 5195   4.296   1.308  14.202  0.1819 -0.1055 -0.0703
  346MPD2    H7 5196   4.376   1.304  14.139 -1.2258  1.2899 -1.9702
  347TMC3    C1 5197   0.021   1.704  14.516  0.3999  0.3416 -0.1131
  347TMC3    C2 5198   0.027   1.739  14.381 -0.1751  0.3769  0.0609
  347TMC3    C3 5199   0.125   1.832  14.346 -0.3096  0.3143 -0.5989
  347TMC3    C4 5200   0.098   1.758  14.616 -1.2480  0.1948  0.3767
  347TMC3    C5 5201   0.195   1.850  14.575 -0.5586 -0.5985 -0.7677
  347TMC3    C6 5202   0.215   1.875  14.443  0.5094 -0.6750  0.0178
  347TMC3     C 5203   4.638   1.626  14.563  0.1652  0.4735 -0.1355
  347TMC3     O 5204   4.607   1.630  14.680 -0.2960  0.1509  0.3653
  347TMC3     H 5205   4.702   1.686  14.301  1.7941  1.8991 -2.1975
  347TMC3    H1 5206   0.075   1.740  14.721 -2.2038  1.6331  0.4150
  347TMC3    H2 5207   0.310   1.911  14.406  0.2555 -0.0357 -0.0153
  347TMC3    C7 5208   0.289   1.917  14.676 -0.1400 -0.3056  0.3543
  347TMC3    C8 5209   0.193   1.813  14.219 -0.4917 -0.0921  0.0672
  347TMC3    O1 5210   0.300   1.878  14.792  0.0551  0.7537  0.2871
  347TMC3    O2 5211   0.175   1.704  14.166  0.0607 -0.1410 -0.0003
  348MPD2     C 5212   2.688   1.069  12.121 -0.5994 -0.2338  0.6808
  348MPD2    C1 5213   2.815   1.129  12.123 -0.1315 -0.1424 -0.1191
  348MPD2    C2 5214   2.865   1.202  12.016 -0.4543 -0.4638 -0.1389
  348MPD2    C3 5215   2.793   1.230  11.903 -0.2615 -0.1406  0.5047
  348MPD2    C4 5216   2.666   1.170  11.902  0.3303  1.1828  0.0988
  348MPD2    C5 5217   2.619   1.098  12.007  0.2263  0.8120 -0.2854
  348MPD2     H 5218   2.964   1.246  12.026  0.0972 -1.4957 -1.1006
  348MPD2    H1 5219   2.594   1.178  11.821  1.2799 -1.1175 -0.9884
  348MPD2    H2 5220   2.645   1.017  12.206 -1.4071  0.1358  0.4975
  348MPD2    H3 5221   2.519   1.059  12.002 -0.4940  2.6862 -0.3967
  348MPD2     N 5222   2.833   1.308  11.789  0.7167 -0.0264  0.9419
  348MPD2    H5 5223   2.766   1.315  11.714 -0.2118 -0.3368  1.7351
  348MPD2    N1 5224   2.908   1.103  12.225  0.2738  0.1078  0.5328
  348MPD2    H7 5225   2.998   1.148  12.213 -0.1966  0.7011 -0.7391
  349TMC3    C1 5226   3.002   0.982  12.393 -0.0295 -0.6674  0.3342
  349TMC3    C2 5227   3.004   0.847  12.430  0.1828 -0.1254  0.5456
  349TMC3    C3 5228   3.103   0.772  12.370 -0.6559 -0.7635 -0.0675
  349TMC3    C4 5229   3.112   1.042  12.334 -0.5563  0.0069  0.1379
  349TMC3    C5 5230   3.208   0.963  12.279  0.0254  0.1562 -0.5453
  349TMC3    C6 5231   3.205   0.827  12.298 -0.4359  0.2358  0.1895
  349TMC3     C 5232   2.880   1.024  12.338 -0.2005  0.1202  0.7228
  349TMC3     O 5233   2.773   0.969  12.370 -0.2850  0.4177  0.1717
  349TMC3     H 5234   2.913   0.808  12.476 -0.7214 -0.5696 -1.6475
  349TMC3    H1 5235   3.133   1.147  12.352  0.7600 -0.2644  0.1686
  349TMC3    H2 5236   3.279   0.771  12.241 -1.2019 -0.7205  0.1430
  349TMC3    C7 5237   3.244   1.013  12.146 -0.3171 -1.0830 -0.2189
  349TMC3    C8 5238   3.104   0.633  12.391 -0.0208  0.2501  0.0837
  349TMC3    O1 5239   3.260   0.932  12.054 -0.1791 -0.2663  0.1672
  349TMC3    O2 5240   3.070   0.580  12.497 -0.4824 -0.2373 -0.2318
  350MPD2     C 5241   2.425   3.897   9.549  0.1247 -0.0385 -0.0063
  350MPD2    C1 5242   2.380   3.869   9.678  0.6605 -0.6012  0.1133
  350MPD2    C2 5243   2.476   3.851   9.780  0.2663 -0.1493 -0.5102
  350MPD2    C3 5244   2.611   3.838   9.756  0.0018 -0.5028  0.0957
  350MPD2    C4 5245   2.652   3.862   9.621 -0.3404  0.5002 -0.0364
  350MPD2    C5 5246   2.561   3.890   9.523 -0.4269 -0.0513  0.3334
  350MPD2     H 5247   2.439   3.837   9.881  0.3975  3.3505  0.0060
  350MPD2    H1 5248   2.757   3.853   9.595 -0.2911 -0.1097  0.3668
  350MPD2    H2 5249   2.353   3.925   9.473 -3.2401 -1.3498  2.7350
  350MPD2    H3 5250   2.589   3.907   9.420 -0.9837 -1.3188 -0.0340
  350MPD2     N 5251   2.700   3.810   9.864 -0.5184 -0.1692  0.0942
  350MPD2    H5 5252   2.662   3.816   9.958 -0.5634 -0.5497  0.0970
  350MPD2    N1 5253   2.242   3.855   9.713 -0.7089 -0.5531 -0.1579
  350MPD2    H7 5254   2.208   3.841   9.808  1.3135 -0.1680  0.6226
  351TMC3    C1 5255   2.023   3.781   9.679 -0.1775  1.2953 -0.3006
  351TMC3    C2 5256   1.975   3.659   9.635 -0.7446  0.2610  0.1558
  351TMC3    C3 5257   1.864   3.610   9.691 -0.0943  0.5479  0.2047
  351TMC3    C4 5258   1.957   3.851   9.774  0.0812  0.0195 -0.4192
  351TMC3    C5 5259   1.846   3.796   9.834  0.5271  0.5744 -0.0432
  351TMC3    C6 5260   1.801   3.675   9.796 -0.6829  0.3473 -0.3552
  351TMC3     C 5261   2.136   3.837   9.614  0.7097  0.2860  0.9075
  351TMC3     O 5262   2.139   3.837   9.492  0.2580 -0.7066 -0.3496
  351TMC3     H 5263   2.017   3.611   9.547 -0.1250  1.0639  0.0139
  351TMC3    H1 5264   2.001   3.949   9.788 -0.9619  0.6940 -1.9065
  351TMC3    H2 5265   1.724   3.626   9.854 -0.5165  1.6307  0.9587
  351TMC3    C7 5266   1.755   3.887   9.903 -0.1078 -0.5201  0.3496
  351TMC3    C8 5267   1.835   3.469   9.678  0.0117 -0.0552  0.3796
  351TMC3    O1 5268   1.645   3.843   9.931  0.9914 -0.1936  0.3039
  351TMC3    O2 5269   1.725   3.429   9.709  0.3021 -0.7223  0.0759
  352MPD2     C 5270   1.455   0.986   0.942 -0.3646 -0.2691 -0.6522
  352MPD2    C1 5271   1.401   1.036   1.056 -0.4283  0.5835 -0.3381
  352MPD2    C2 5272   1.419   0.968   1.178 -0.0276  0.6275 -0.5137
  352MPD2    C3 5273   1.463   0.837   1.175 -0.6078  0.4730  0.4283
  352MPD2    C4 5274   1.515   0.784   1.060 -0.0760 -0.2303  0.1974
  352MPD2    C5 5275   1.515   0.866   0.946  0.3417 -0.2546  0.8882
  352MPD2     H 5276   1.375   1.009   1.268  0.2743  0.7871 -0.4372
  352MPD2    H1 5277   1.564   0.688   1.056 -0.4773 -0.2946 -2.7176
  352MPD2    H2 5278   1.456   1.032   0.844  0.8681 -0.4661 -0.7373
  352MPD2    H3 5279   1.574   0.827   0.863  0.3358  0.9721  0.3205
  352MPD2     N 5280   1.454   0.752   1.289 -0.0186 -0.5476  0.8351
  352MPD2    H5 5281   1.472   0.653   1.272  0.3631 -0.6098  1.5988
  352MPD2    N1 5282   1.336   1.163   1.062  0.4619  0.0333  0.4571
  352MPD2    H7 5283   1.307   1.198   1.153  2.5383  2.9786 -0.0175
  353TMC3    C1 5284   1.356   0.666   1.479 -0.2615 -0.2214 -0.1181
  353TMC3    C2 5285   1.434   0.553   1.474 -0.1682  0.0784 -0.3275
  353TMC3    C3 5286   1.373   0.432   1.498  0.5076 -0.3592 -0.5025
  353TMC3    C4 5287   1.229   0.666   1.527  0.1813  0.1117 -0.3188
  353TMC3    C5 5288   1.177   0.544   1.560  0.0117 -0.3117 -0.6901
  353TMC3    C6 5289   1.247   0.429   1.556 -0.4077  0.1927 -0.5601
  353TMC3     C 5290   1.391   0.786   1.408  0.0544 -0.0956  0.0545
  353TMC3     O 5291   1.359   0.895   1.450 -0.0610  0.2470  0.1278
  353TMC3     H 5292   1.536   0.552   1.437  0.1646  0.3070  0.5668
  353TMC3    H1 5293   1.158   0.747   1.516  0.5081  0.1948 -1.7663
  353TMC3    H2 5294   1.203   0.339   1.599  1.4337 -0.6415 -0.4482
  353TMC3    C7 5295   1.034   0.528   1.582 -1.0009  0.5571  0.2823
  353TMC3    C8 5296   1.455   0.321   1.529  0.0125  0.4461  0.0941
  353TMC3    O1 5297   0.998   0.410   1.584  0.1465 -0.5337 -0.1824
  353TMC3    O2 5298   1.568   0.336   1.571 -0.1711 -0.1589  0.2476
  354TMC3    C1 5299   2.253   2.324  13.392 -0.0141  0.1403 -1.0064
  354TMC3    C2 5300   2.191   2.398  13.299 -0.0935 -0.6395 -0.0182
  354TMC3    C3 5301   2.222   2.395  13.168 -0.1204  0.4945 -0.6415
  354TMC3    C4 5302   2.350   2.238  13.352 -0.4205 -0.2350  0.9600
  354TMC3    C5 5303   2.362   2.222  13.220  0.1348 -0.0019  0.4862
  354TMC3    C6 5304   2.307   2.300  13.123 -0.0260  0.5770  0.4658
  354TMC3     C 5305   2.199   2.330  13.528  0.2132 -0.1877  0.2901
  354TMC3     O 5306   2.096   2.397  13.546  0.0223  0.2599  0.8213
  354TMC3     H 5307   2.118   2.471  13.333  0.6063 -0.2801  0.6879
  354TMC3    H1 5308   2.377   2.163  13.426 -0.9759 -3.0489 -1.7314
  354TMC3    H2 5309   2.312   2.284  13.016 -0.3774  3.2718  0.0344
  354TMC3    C7 5310   2.464   2.122  13.181  0.4646  0.4683  0.3774
  354TMC3    C8 5311   2.170   2.497  13.074 -0.8100 -0.5512  0.4650
  354TMC3    O1 5312   2.485   2.027  13.254 -0.3878 -0.5017 -0.1900
  354TMC3    O2 5313   2.205   2.483  12.957 -0.6525 -0.0129 -0.2081
  355MPD2     C 5314   2.193   3.315  11.707 -0.5776 -0.4928  0.3612
  355MPD2    C1 5315   2.272   3.316  11.590 -0.1201 -0.3962  0.2866
  355MPD2    C2 5316   2.402   3.267  11.594 -0.3319  0.3790  0.5789
  355MPD2    C3 5317   2.462   3.228  11.715 -0.2976 -0.0271  0.3471
  355MPD2    C4 5318   2.388   3.228  11.827 -0.5607 -0.0584 -1.1479
  355MPD2    C5 5319   2.256   3.269  11.816  0.3560  0.1002  0.0887
  355MPD2     H 5320   2.466   3.244  11.510  3.3897  0.9467  3.3039
  355MPD2    H1 5321   2.421   3.200  11.927 -1.2317 -1.3364 -1.2853
  355MPD2    H2 5322   2.090   3.349  11.715 -0.4205  0.3340 -1.2309
  355MPD2    H3 5323   2.197   3.274  11.907  2.1943  1.7106  1.2054
  355MPD2     N 5324   2.604   3.195  11.732  0.2275  0.1231 -0.4828
  355MPD2    H5 5325   2.630   3.168  11.826 -0.0515  0.6761 -0.2499
  355MPD2    N1 5326   2.201   3.347  11.466 -0.5530  0.5187  0.5012
  355MPD2    H7 5327   2.100   3.341  11.470 -0.5227 -1.7926 -2.4870
  356TMC3    C1 5328   2.830   3.228  11.686 -0.4515  0.5230 -0.3388
  356TMC3    C2 5329   2.921   3.276  11.599  0.3293  0.0521 -0.0216
  356TMC3    C3 5330   3.026   3.347  11.648 -0.6003 -0.2984  0.0410
  356TMC3    C4 5331   2.842   3.243  11.823  0.2136 -0.4062  0.3223
  356TMC3    C5 5332   2.948   3.322  11.867  0.2280 -0.2089  0.3474
  356TMC3    C6 5333   3.033   3.378  11.785 -0.2845 -0.0064  0.3691
  356TMC3     C 5334   2.698   3.206  11.628 -0.0171 -0.4060 -0.7430
  356TMC3     O 5335   2.687   3.226  11.507 -0.1056 -0.1638 -0.4360
  356TMC3     H 5336   2.908   3.265  11.492 -1.1682  1.3554  0.0204
  356TMC3    H1 5337   2.781   3.193  11.897  0.0667  1.3949  1.3961
  356TMC3    H2 5338   3.124   3.424  11.821 -1.3388  2.6789 -0.3980
  356TMC3    C7 5339   2.943   3.387  11.998 -1.0953  0.0689  0.0309
  356TMC3    C8 5340   3.127   3.365  11.553  0.3738  0.4616 -0.0046
  356TMC3    O1 5341   2.871   3.330  12.074  0.3233 -0.0086  0.2204
  356TMC3    O2 5342   3.138   3.286  11.459 -0.1796  0.8067  0.0718
  357MPD2     C 5343   1.808   3.135   0.771 -0.2606  0.0241 -0.2120
  357MPD2    C1 5344   1.844   3.070   0.883 -0.4677 -0.8314 -0.8488
  357MPD2    C2 5345   1.762   3.085   0.992  0.7453  0.1129  1.1771
  357MPD2    C3 5346   1.636   3.148   0.988 -0.4126  0.0949 -0.2473
  357MPD2    C4 5347   1.603   3.212   0.875 -0.4795 -0.2728  0.4534
  357MPD2    C5 5348   1.688   3.205   0.767 -0.0686  0.1721 -0.8325
  357MPD2     H 5349   1.773   3.015   1.075 -1.4328 -1.6440 -0.0162
  357MPD2    H1 5350   1.506   3.258   0.860  0.3442  1.4673  0.5090
  357MPD2    H2 5351   1.873   3.137   0.684  0.9676  1.4355  0.7290
  357MPD2    H3 5352   1.667   3.258   0.675 -0.9181  1.7029  0.2275
  357MPD2     N 5353   1.542   3.141   1.088  0.6001 -0.6655  0.0349
  357MPD2    H5 5354   1.466   3.206   1.068  1.5978  0.4013 -0.2503
  357MPD2    N1 5355   1.955   2.985   0.885 -0.4460 -0.4681  0.6935
  357MPD2    H7 5356   2.013   2.986   0.801  1.1390  0.5221  1.8156
  358TMC3    C1 5357   2.094   2.805   0.962  0.0594  0.2582 -0.6874
  358TMC3    C2 5358   2.058   2.729   0.854 -0.2426  0.0042 -0.0024
  358TMC3    C3 5359   2.066   2.594   0.861  0.2847  0.8303  0.6843
  358TMC3    C4 5360   2.131   2.747   1.077  0.0649  0.3955  0.6064
  358TMC3    C5 5361   2.111   2.614   1.091 -0.2497  0.4328  0.1302
  358TMC3    C6 5362   2.076   2.538   0.986  0.3337  0.2397 -0.4498
  358TMC3     C 5363   2.016   2.925   0.995  0.8306  0.4655  0.3173
  358TMC3     O 5364   1.999   2.950   1.115 -0.3162  0.1258 -0.1608
  358TMC3     H 5365   2.024   2.759   0.756 -0.6078 -1.0776 -0.2105
  358TMC3    H1 5366   2.175   2.800   1.161 -0.2750 -0.9206  1.6155
  358TMC3    H2 5367   2.102   2.433   0.994  0.0542  0.2666  0.8159
  358TMC3    C7 5368   2.118   2.550   1.219  0.7914  0.0104 -0.5526
  358TMC3    C8 5369   2.024   2.511   0.744  0.0396  0.1511  0.4756
  358TMC3    O1 5370   2.152   2.428   1.227 -0.1783 -0.2578 -0.4084
  358TMC3    O2 5371   2.025   2.568   0.632 -0.0001 -0.5239  0.2630
  359MPD2     C 5372   2.509   2.306  12.639  0.4700  0.4744 -0.2912
  359MPD2    C1 5373   2.563   2.202  12.583 -0.5438 -0.1756  0.1319
  359MPD2    C2 5374   2.545   2.074  12.628 -0.6964 -0.0654 -0.1801
  359MPD2    C3 5375   2.461   2.057  12.735 -0.3430 -0.2029 -0.6702
  359MPD2    C4 5376   2.406   2.167  12.797 -0.0732 -0.0119 -0.9543
  359MPD2    C5 5377   2.429   2.297  12.743  0.0108 -0.5993  1.1053
  359MPD2     H 5378   2.584   1.993  12.569 -0.2297  0.8728 -1.1542
  359MPD2    H1 5379   2.329   2.163  12.873  0.4665  1.4173 -0.3371
  359MPD2    H2 5380   2.513   2.408  12.602 -0.0135 -0.1120 -1.9711
  359MPD2    H3 5381   2.381   2.384  12.787  0.2253  0.2098 -0.2350
  359MPD2     N 5382   2.430   1.930  12.790 -0.2895  0.4575 -0.0764
  359MPD2    H5 5383   2.381   1.934  12.879 -2.1965  0.8639 -1.1341
  359MPD2    N1 5384   2.640   2.218  12.464  0.3684 -0.0199  0.3005
  359MPD2    H7 5385   2.668   2.137  12.411  0.1749  0.1019  0.0128
  360TMC3    C1 5386   2.751   2.300  12.288  0.1949  0.3233 -0.4743
  360TMC3    C2 5387   2.841   2.392  12.243 -0.4334  0.4426  0.2516
  360TMC3    C3 5388   2.903   2.364  12.121 -0.2046  0.5689  0.2040
  360TMC3    C4 5389   2.690   2.211  12.204 -0.9653  0.1688 -0.0415
  360TMC3    C5 5390   2.741   2.197  12.080 -0.2184  0.1645 -0.3133
  360TMC3    C6 5391   2.848   2.275  12.029 -0.5280  0.5378 -0.1188
  360TMC3     C 5392   2.692   2.329  12.410  0.2386  0.1855  0.3298
  360TMC3     O 5393   2.703   2.437  12.461 -0.0482 -0.1727  0.2381
  360TMC3     H 5394   2.899   2.446  12.317 -0.8811  0.3044  0.7069
  360TMC3    H1 5395   2.610   2.147  12.239  0.4606 -2.1716 -1.0158
  360TMC3    H2 5396   2.907   2.244  11.943  1.7746 -0.6735  1.8883
  360TMC3    C7 5397   2.669   2.119  11.976 -0.2248 -0.1709 -0.4175
  360TMC3    C8 5398   3.033   2.424  12.098 -0.1870 -0.1953 -0.3219
  360TMC3    O1 5399   2.701   2.141  11.862 -0.2182 -0.0388  0.3639
  360TMC3    O2 5400   3.040   2.544  12.120 -0.1490  0.3227 -0.9825
  361MPD2     C 5401   4.097   0.755  16.946  0.0132  0.5141  0.1078
  361MPD2    C1 5402   4.178   0.837  17.022  0.5593  0.2125  0.4822
  361MPD2    C2 5403   4.297   0.789  17.077 -0.2093 -0.2949  0.5097
  361MPD2    C3 5404   4.341   0.660  17.034 -0.1933  0.8224 -0.5343
  361MPD2    C4 5405   4.256   0.578  16.953  0.2808 -0.0189  0.8574
  361MPD2    C5 5406   4.132   0.628  16.916  0.7425 -0.2821 -0.5388
  361MPD2     H 5407   4.352   0.852  17.147  0.9745  0.6708 -1.2764
  361MPD2    H1 5408   4.281   0.480  16.916 -0.4982 -0.2331  0.9038
  361MPD2    H2 5409   4.008   0.793  16.896  0.9890  0.1766 -1.9206
  361MPD2    H3 5410   4.073   0.567  16.848 -0.4444 -0.1411  0.3697
  361MPD2     N 5411   4.459   0.601  17.081 -0.1906  0.1513 -0.4138
  361MPD2    H5 5412   4.475   0.511  17.036 -2.8122 -0.4872 -0.0417
  361MPD2    N1 5413   4.137   0.970  17.058  0.1753  0.0290  0.1482
  361MPD2    H7 5414   4.195   1.024  17.122  1.1302 -1.6233  0.6746
  362TMC3    C1 5415   4.008   1.175  17.061 -0.5600 -0.3344  0.3745
  362TMC3    C2 5416   4.025   1.203  17.193 -0.0868  0.4294 -0.2224
  362TMC3    C3 5417   3.987   1.326  17.238 -0.4843  0.0893  0.8385
  362TMC3    C4 5418   3.950   1.267  16.985 -0.5848  0.1447 -0.0161
  362TMC3    C5 5419   3.918   1.390  17.032  0.8110  0.7083  0.4916
  362TMC3    C6 5420   3.933   1.430  17.159 -0.0819 -0.1017  0.2393
  362TMC3     C 5421   4.030   1.042  17.004 -0.3514  0.4889 -0.3821
  362TMC3     O 5422   3.948   1.006  16.920  0.1582 -0.1782  0.3424
  362TMC3     H 5423   4.053   1.123  17.261 -1.7949  0.3584  0.4130
  362TMC3    H1 5424   3.942   1.245  16.879  0.7995 -1.8420  0.2824
  362TMC3    H2 5425   3.895   1.523  17.199  1.0570  0.3606  0.2544
  362TMC3    C7 5426   3.828   1.473  16.967  0.3352  0.2037  0.4696
  362TMC3    C8 5427   3.985   1.347  17.384 -0.2774 -0.5015 -0.1913
  362TMC3    O1 5428   3.805   1.583  17.017  0.9066 -0.0601  0.6025
  362TMC3    O2 5429   4.069   1.287  17.448 -0.0559  0.0249 -0.7097
  363TMC3    C1 5430   1.931   2.336   9.016  0.4488 -0.7196 -0.1736
  363TMC3    C2 5431   2.049   2.387   9.057 -0.2921 -1.0252  0.1167
  363TMC3    C3 5432   2.073   2.520   9.051 -0.3227  0.2427 -0.7302
  363TMC3    C4 5433   1.824   2.417   8.975 -0.2796  0.3806 -0.1201
  363TMC3    C5 5434   1.857   2.552   8.959  0.2643 -0.0586  0.7353
  363TMC3    C6 5435   1.979   2.601   8.999 -0.0538  0.0433  0.1899
  363TMC3     C 5436   1.908   2.195   9.037 -0.3011 -0.0199  0.1992
  363TMC3     O 5437   2.009   2.132   9.062 -0.2744 -0.2453 -0.4062
  363TMC3     H 5438   2.123   2.311   9.080 -1.5685 -1.3629  3.0223
  363TMC3    H1 5439   1.739   2.391   8.914  1.3863  1.2581 -2.8000
  363TMC3    H2 5440   1.996   2.708   8.997 -1.0988  0.2072 -0.3552
  363TMC3    C7 5441   1.753   2.647   8.939 -0.1410 -0.2818 -0.0895
  363TMC3    C8 5442   2.197   2.585   9.100 -0.1158 -0.1386  0.5852
  363TMC3    O1 5443   1.783   2.766   8.923 -0.4456 -0.1320 -0.2383
  363TMC3    O2 5444   2.189   2.706   9.113  1.3437  0.0898 -0.4011
  364MPD2     C 5445   2.016   2.655  10.089 -0.7459 -0.0928 -0.1243
  364MPD2    C1 5446   1.942   2.732  10.182  0.0208  0.3173  0.0039
  364MPD2    C2 5447   1.888   2.663  10.296 -0.3074  0.3583  0.4716
  364MPD2    C3 5448   1.889   2.526  10.304  0.4297  0.1748  1.0172
  364MPD2    C4 5449   1.961   2.455  10.213  0.1258  0.5770 -0.3789
  364MPD2    C5 5450   2.026   2.518  10.104 -0.0593 -0.2051 -0.3113
  364MPD2     H 5451   1.822   2.725  10.356 -0.0763 -0.4282  1.5401
  364MPD2    H1 5452   1.965   2.348  10.227  0.0749  0.4707 -1.1815
  364MPD2    H2 5453   2.057   2.696   9.997  1.2281  0.3810  0.9656
  364MPD2    H3 5454   2.086   2.460  10.035  0.0428 -0.5625  0.0834
  364MPD2     N 5455   1.837   2.462  10.416 -0.3876 -0.7458  0.3563
  364MPD2    H5 5456   1.850   2.361  10.409 -0.8638 -0.7645 -0.2006
  364MPD2    N1 5457   1.942   2.874  10.164 -0.1453 -0.1112  0.5016
  364MPD2    H7 5458   1.998   2.902  10.084 -0.9549  0.0642 -0.0052
  365TMC3    C1 5459   1.955   3.097  10.214 -0.2805  0.0386 -0.6792
  365TMC3    C2 5460   2.039   3.115  10.105  0.1179  0.2419  0.2900
  365TMC3    C3 5461   2.105   3.238  10.091  0.6752  0.0508 -0.1286
  365TMC3    C4 5462   1.938   3.202  10.306  0.0807  0.3550 -0.1150
  365TMC3    C5 5463   2.005   3.321  10.283  0.0651 -0.6115 -0.4293
  365TMC3    C6 5464   2.098   3.339  10.180 -0.5531 -0.1344  1.0402
  365TMC3     C 5465   1.915   2.968  10.258 -0.8338  0.1551 -0.3151
  365TMC3     O 5466   1.851   2.951  10.361 -0.9333 -0.2725 -0.0492
  365TMC3     H 5467   2.043   3.035  10.032 -1.7167  1.1112 -0.7705
  365TMC3    H1 5468   1.880   3.194  10.397 -0.9924  0.3005 -0.8013
  365TMC3    H2 5469   2.161   3.426  10.163  0.3565 -1.6282 -3.1594
  365TMC3    C7 5470   2.002   3.431  10.379 -0.0121 -0.0141 -0.3912
  365TMC3    C8 5471   2.209   3.258   9.991  0.3491 -0.6225 -0.4047
  365TMC3    O1 5472   2.028   3.542  10.335  0.1186  0.0892  0.1423
  365TMC3    O2 5473   2.221   3.366   9.930  0.0230  0.0627  0.7397
  366MPD2     C 5474   4.373   4.076  15.798 -0.1213 -0.0538  0.3033
  366MPD2    C1 5475   4.420   4.097  15.672  0.6549 -0.2518 -0.3441
  366MPD2    C2 5476   4.436   3.990  15.584  0.0343  0.1842 -0.0046
  366MPD2    C3 5477   4.399   3.860  15.628 -0.2009 -0.3281 -0.1716
  366MPD2    C4 5478   4.359   3.843  15.760  0.1295 -0.3490 -0.0556
  366MPD2    C5 5479   4.344   3.949  15.842 -0.2437 -0.0515  0.2061
  366MPD2     H 5480   4.479   4.008  15.486 -1.5073 -0.3764 -0.7859
  366MPD2    H1 5481   4.332   3.748  15.803 -0.8140 -0.1734 -0.2414
  366MPD2    H2 5482   4.355   4.155  15.869 -1.7952 -0.7140  0.6205
  366MPD2    H3 5483   4.310   3.936  15.944  0.9496  0.5459  0.6826
  366MPD2     N 5484   4.413   3.756  15.540  0.1801 -0.5279  0.6685
  366MPD2    H5 5485   4.435   3.783  15.445  0.3869  0.1407  0.9035
  366MPD2    N1 5486   4.442   4.225  15.628 -1.1074  0.6245 -0.6251
  366MPD2    H7 5487   4.470   4.234  15.531 -0.8994  1.7834 -0.4513
  367TMC3    C1 5488   4.458   4.447  15.611  0.8199 -0.1216  0.0420
  367TMC3    C2 5489   4.586   4.446  15.604  0.0806 -0.1996 -0.3705
  367TMC3    C3 5490   4.648   4.559  15.557 -0.5549 -0.2880  0.2104
  367TMC3    C4 5491   4.381   4.562  15.590 -0.1812 -0.4461 -1.0745
  367TMC3    C5 5492   4.437   4.678  15.541  0.2649  0.5746 -0.2672
  367TMC3    C6 5493   4.582   4.676  15.530  0.3272  0.1655  0.2285
  367TMC3     C 5494   4.405   4.341  15.694  0.3421  0.2445  1.1015
  367TMC3     O 5495   4.381   4.371  15.811 -0.1813  0.0799 -0.2120
  367TMC3     H 5496   4.643   4.366  15.649  1.0136  0.0529 -1.1163
  367TMC3    H1 5497   4.273   4.568  15.593 -0.1721 -1.1905  0.8378
  367TMC3    H2 5498   4.634   0.038  15.494  1.6688 -0.0664  1.6409
  367TMC3    C7 5499   4.354   0.004  15.432  0.2043 -0.2854 -0.2724
  367TMC3    C8 5500   0.059   4.572  15.604 -0.3195 -0.1296 -0.0359
  367TMC3    O1 5501   4.234   0.015  15.452  0.2059  0.5335 -0.3364
  367TMC3    O2 5502   0.115   4.465  15.625 -0.0156  1.1004  0.0718
  368MPD2     C 5503   1.565   0.758  13.592 -0.1428 -0.3891  0.1023
  368MPD2    C1 5504   1.561   0.738  13.450  0.5698  0.1987  0.3370
  368MPD2    C2 5505   1.686   0.748  13.376  0.8293 -0.0471 -0.0502
  368MPD2    C3 5506   1.803   0.771  13.445  0.1390 -0.0284 -0.2367
  368MPD2    C4 5507   1.797   0.788  13.584  0.0475 -0.6370  0.7272
  368MPD2    C5 5508   1.674   0.782  13.660 -0.2256  0.2506  0.9155
  368MPD2     H 5509   1.694   0.756  13.268  0.1484  0.6677 -0.0456
  368MPD2    H1 5510   1.886   0.801  13.644 -1.0519 -1.3489  2.5069
  368MPD2    H2 5511   1.470   0.747  13.644  0.4560  1.4684  1.5982
  368MPD2    H3 5512   1.675   0.779  13.769 -0.3370 -0.0018  0.9099
  368MPD2     N 5513   1.932   0.782  13.391  0.3289 -0.5355 -0.4523
  368MPD2    H5 5514   2.002   0.805  13.461  1.0184  0.0337 -1.3276
  368MPD2    N1 5515   1.436   0.713  13.386  0.3366  0.0284 -0.0888
  368MPD2    H7 5516   1.359   0.682  13.443 -0.2224  0.0089 -0.8552
  369TMC3    C1 5517   1.282   0.702  13.223 -0.2282 -0.5691  0.2853
  369TMC3    C2 5518   1.218   0.801  13.155  0.6632  0.4952  0.5668
  369TMC3    C3 5519   1.080   0.789  13.149  0.0539 -0.0066 -0.5307
  369TMC3    C4 5520   1.216   0.604  13.284  0.1857  0.0947  0.6328
  369TMC3    C5 5521   1.084   0.581  13.251 -0.1708  0.1498 -0.3798
  369TMC3    C6 5522   1.009   0.680  13.192  0.0544 -0.6252  0.2634
  369TMC3     C 5523   1.417   0.714  13.249 -0.6176  0.3705  0.2660
  369TMC3     O 5524   1.488   0.749  13.154 -0.8063 -0.2560 -0.0176
  369TMC3     H 5525   1.271   0.887  13.118  1.5700 -0.4613 -0.3699
  369TMC3    H1 5526   1.270   0.537  13.350  0.0245 -1.7272 -1.0925
  369TMC3    H2 5527   0.901   0.670  13.196 -0.1893  0.9698 -2.5442
  369TMC3    C7 5528   1.022   0.505  13.357  1.3503 -0.4326  0.4752
  369TMC3    C8 5529   1.031   0.927  13.164 -0.1286 -0.3573  0.8363
  369TMC3    O1 5530   1.083   0.489  13.462 -0.1060 -0.0384  0.1415
  369TMC3    O2 5531   1.103   1.013  13.119 -0.0434 -0.2309  0.3207
  370TMC3    C1 5532   0.374   1.611  16.299 -0.5313 -0.4933  0.0810
  370TMC3    C2 5533   0.296   1.527  16.377  0.2081  0.7725  0.0355
  370TMC3    C3 5534   0.283   1.389  16.347 -0.3489  0.1594 -1.3022
  370TMC3    C4 5535   0.432   1.566  16.185  1.1026 -0.4150 -0.4681
  370TMC3    C5 5536   0.423   1.429  16.163 -0.4261 -0.4126 -1.0970
  370TMC3    C6 5537   0.345   1.340  16.233 -0.2959 -0.7475  0.4590
  370TMC3     C 5538   0.466   1.682  16.387 -0.3703  0.0164  0.5542
  370TMC3     O 5539   0.470   1.650  16.503 -0.1462  0.3659  0.2676
  370TMC3     H 5540   0.243   1.569  16.462  1.2295  1.1575  0.4762
  370TMC3    H1 5541   0.499   1.627  16.126  2.5914 -2.7061 -1.1524
  370TMC3    H2 5542   0.324   1.238  16.203  0.5276 -1.7252  3.2384
  370TMC3    C7 5543   0.435   1.392  16.025  0.0940  0.0351  0.0478
  370TMC3    C8 5544   0.281   1.299  16.459 -0.3118 -0.3414 -0.2845
  370TMC3    O1 5545   0.397   1.472  15.941  0.0278  0.1992  0.1675
  370TMC3    O2 5546   0.330   1.191  16.437 -0.4275  0.7141 -0.3266
  371TMC3    C1 5547   1.917   4.508  15.689  0.3853  0.1629  1.3959
  371TMC3    C2 5548   1.785   4.521  15.724 -0.7264  0.5979  0.0656
  371TMC3    C3 5549   1.718   4.636  15.686  0.2588 -1.0876  0.0513
  371TMC3    C4 5550   1.982   4.598  15.615  0.2239 -0.0368  0.1100
  371TMC3    C5 5551   1.913   4.713  15.576 -0.1015  0.5307  0.4173
  371TMC3    C6 5552   1.781   0.008  15.612 -0.0146 -0.3529  0.3691
  371TMC3     C 5553   2.000   4.389  15.727  0.2070 -0.4991  0.4197
  371TMC3     O 5554   2.123   4.392  15.722 -0.4543 -0.4144 -0.0466
  371TMC3     H 5555   1.725   4.445  15.774  2.4083 -0.8965  1.5299
  371TMC3    H1 5556   2.087   4.581  15.599  0.0806 -1.6576  0.9699
  371TMC3    H2 5557   1.725   0.086  15.562 -1.7261 -1.9672 -0.1943
  371TMC3    C7 5558   1.947   0.058  15.451  1.3152  0.3321 -0.5755
  371TMC3    C8 5559   1.579   4.641  15.710  0.1199  0.8333 -0.9278
  371TMC3    O1 5560   1.898   0.171  15.438  0.3707 -0.4371  0.4723
  371TMC3    O2 5561   1.524   4.535  15.734  0.0876  0.0796 -0.4712
  372MPD2     C 5562   1.162   1.029  13.532 -0.7312 -0.5648 -0.5174
  372MPD2    C1 5563   1.271   1.007  13.618 -0.1967 -0.3879 -0.2920
  372MPD2    C2 5564   1.262   0.906  13.711 -0.0777 -0.5937 -0.1108
  372MPD2    C3 5565   1.149   0.832  13.734 -0.4622  0.3638  0.4571
  372MPD2    C4 5566   1.039   0.858  13.660 -0.3014  0.5110 -0.3907
  372MPD2    C5 5567   1.050   0.955  13.562  0.0055  0.2382  0.3364
  372MPD2     H 5568   1.351   0.873  13.764  1.9730  2.0161 -1.9030
  372MPD2    H1 5569   0.942   0.813  13.677 -0.8499  1.9421  0.3534
  372MPD2    H2 5570   1.163   1.101  13.451 -0.5913  0.1899  0.1576
  372MPD2    H3 5571   0.954   0.983  13.522 -0.9520 -1.2744  1.5799
  372MPD2     N 5572   1.153   0.726  13.826  0.8232  0.2364  0.4070
  372MPD2    H5 5573   1.236   0.726  13.885  1.6096 -1.7093 -0.7021
  372MPD2    N1 5574   1.398   1.076  13.609 -0.2782  0.2706  0.5473
  372MPD2    H7 5575   1.471   1.054  13.676 -0.2777  0.5547  0.6414
  373TMC3    C1 5576   1.120   0.507  13.898  0.8125  0.3776 -0.3099
  373TMC3    C2 5577   1.143   0.545  14.030  0.2266  0.2329  0.2892
  373TMC3    C3 5578   1.185   0.438  14.096  0.4497 -0.0933 -0.6867
  373TMC3    C4 5579   1.135   0.390  13.832  0.3904  0.1928  0.2302
  373TMC3    C5 5580   1.183   0.292  13.909 -0.7156  0.9747  0.1392
  373TMC3    C6 5581   1.198   0.311  14.043  0.3756  0.6935  0.2188
  373TMC3     C 5582   1.062   0.619  13.831  0.6721 -0.4883 -0.0874
  373TMC3     O 5583   0.962   0.597  13.769  0.3035 -0.4748 -0.0503
  373TMC3     H 5584   1.108   0.636  14.076 -2.4648 -0.3810 -0.5889
  373TMC3    H1 5585   1.108   0.389  13.727  0.8252 -0.3804  0.1229
  373TMC3    H2 5586   1.244   0.240  14.110  0.8022 -0.8086 -1.6340
  373TMC3    C7 5587   1.247   0.181  13.849 -0.5377 -0.6651 -0.5311
  373TMC3    C8 5588   1.185   0.453  14.245 -0.2165  0.2343  0.4178
  373TMC3    O1 5589   1.187   0.137  13.751  0.0724 -0.0727 -0.3344
  373TMC3    O2 5590   1.149   0.360  14.314 -0.3264  0.8681  0.0138
  374TMC3    C1 5591   1.923   1.136   9.782 -0.4395  0.4398 -0.4271
  374TMC3    C2 5592   1.996   1.238   9.824  0.6539 -0.2422  0.5918
  374TMC3    C3 5593   1.918   1.340   9.881 -0.1965 -0.2880  0.0915
  374TMC3    C4 5594   1.788   1.134   9.767 -0.2615  0.5160  0.6533
  374TMC3    C5 5595   1.720   1.239   9.805 -0.1252 -0.0735 -0.3648
  374TMC3    C6 5596   1.782   1.341   9.867 -0.1207 -0.4194 -0.1587
  374TMC3     C 5597   1.985   1.004   9.761  0.3000  0.1982 -0.1887
  374TMC3     O 5598   1.927   0.932   9.687  0.0153  0.5191 -0.0849
  374TMC3     H 5599   2.104   1.237   9.823  0.6261 -1.3078 -0.4074
  374TMC3    H1 5600   1.743   1.049   9.717  1.8767  0.0084 -0.4288
  374TMC3    H2 5601   1.717   1.415   9.912  1.2738  0.1687  0.9023
  374TMC3    C7 5602   1.578   1.252   9.775 -0.2340 -0.1692 -0.5057
  374TMC3    C8 5603   1.984   1.462   9.924 -0.3100  0.3213 -0.1436
  374TMC3    O1 5604   1.522   1.360   9.757 -0.7802  0.1145 -0.2383
  374TMC3    O2 5605   1.916   1.559   9.943  0.8793 -0.0774 -0.1589
  375MPD2     C 5606   1.478   1.126  17.114 -0.6428 -0.3908  0.5363
  375MPD2    C1 5607   1.558   1.239  17.106  0.4669 -0.0629  0.9176
  375MPD2    C2 5608   1.667   1.248  17.018 -0.0122 -0.3727 -0.3194
  375MPD2    C3 5609   1.694   1.143  16.935 -0.5749  0.1953 -0.1404
  375MPD2    C4 5610   1.606   1.043  16.923  0.2910 -0.0512  0.0842
  375MPD2    C5 5611   1.503   1.031  17.018  0.1256  0.5533  0.2944
  375MPD2     H 5612   1.725   1.339  17.009  0.1132 -0.0764  3.4156
  375MPD2    H1 5613   1.622   0.960  16.855  1.2772  0.7036 -0.6082
  375MPD2    H2 5614   1.391   1.131  17.178  0.6191  1.2986  2.1064
  375MPD2    H3 5615   1.440   0.943  17.004  1.1133  0.1602 -1.7210
  375MPD2     N 5616   1.812   1.129  16.852  0.3642  1.0783 -0.1487
  375MPD2    H5 5617   1.812   1.051  16.786  0.7829  0.8523  0.1218
  375MPD2    N1 5618   1.519   1.362  17.160  0.2209  0.0147 -0.8303
  375MPD2    H7 5619   1.581   1.438  17.132 -0.4256  0.0141 -2.2790
  376TMC3    C1 5620   2.013   1.192  16.746 -0.0895  0.8932 -0.0922
  376TMC3    C2 5621   2.139   1.246  16.755  0.4727  0.1337 -0.1081
  376TMC3    C3 5622   2.207   1.280  16.642  0.3700  0.4587  0.2005
  376TMC3    C4 5623   1.958   1.176  16.621 -0.2482 -0.8465 -0.7472
  376TMC3    C5 5624   2.032   1.211  16.509  0.6488 -0.2608 -0.1767
  376TMC3    C6 5625   2.157   1.264  16.516 -0.6946 -0.1218 -0.2834
  376TMC3     C 5626   1.927   1.199  16.865 -0.5110  0.7278 -0.2867
  376TMC3     O 5627   1.955   1.274  16.960  0.3553 -0.3817 -0.0787
  376TMC3     H 5628   2.178   1.267  16.854  1.1494  0.7750 -0.5051
  376TMC3    H1 5629   1.850   1.171  16.616 -0.3316  0.9977 -0.7186
  376TMC3    H2 5630   2.211   1.295  16.427  0.3653  1.2765  0.8542
  376TMC3    C7 5631   1.980   1.209  16.377  0.2911  0.4122 -0.1671
  376TMC3    C8 5632   2.304   1.384  16.662  0.9107 -0.2621 -0.7675
  376TMC3    O1 5633   2.029   1.275  16.287  0.4880  0.2404 -0.1747
  376TMC3    O2 5634   2.316   1.476  16.580  0.1619 -0.3397 -0.4734
  377MPD2     C 5635   4.270   1.353  12.320  0.7167 -0.0855 -0.5419
  377MPD2    C1 5636   4.312   1.360  12.456 -0.4068 -0.3828  0.2543
  377MPD2    C2 5637   4.245   1.436  12.548 -1.1820 -0.2264 -0.1575
  377MPD2    C3 5638   4.140   1.514  12.504  0.5202 -0.2873 -0.3905
  377MPD2    C4 5639   4.098   1.513  12.374  0.2599 -0.1341  0.1588
  377MPD2    C5 5640   4.165   1.436  12.284 -0.3613  0.0407 -0.3519
  377MPD2     H 5641   4.273   1.446  12.653  0.4572 -1.3224 -0.4859
  377MPD2    H1 5642   4.026   1.587  12.340 -0.2828 -0.3455  0.8340
  377MPD2    H2 5643   4.305   1.289  12.240 -2.3233 -3.5416  0.8911
  377MPD2    H3 5644   4.134   1.447  12.181 -0.8035 -0.3888 -0.2668
  377MPD2     N 5645   4.071   1.603  12.590 -0.0396  0.4868 -0.1094
  377MPD2    H5 5646   3.998   1.652  12.541 -1.8514 -1.9730  0.0995
  377MPD2    N1 5647   4.422   1.280  12.488  0.2106 -0.4615  0.7943
  377MPD2    H7 5648   4.455   1.231  12.406  2.8434 -1.8420  2.6777
  378TMC3    C1 5649   0.086   1.209  12.418 -0.0033  1.1109  0.1727
  378TMC3    C2 5650   4.678   1.233  12.433  0.1074 -0.1542  0.1458
  378TMC3    C3 5651   4.635   1.239  12.569  0.1157 -0.7863  0.2959
  378TMC3    C4 5652   0.178   1.199  12.516 -0.9160  0.6820  0.5752
  378TMC3    C5 5653   0.131   1.235  12.641  0.4275 -0.0973  0.2962
  378TMC3    C6 5654   0.001   1.251  12.673 -0.3198 -0.2144  0.0668
  378TMC3     C 5655   0.125   1.191  12.279 -0.3058  0.2833  0.4903
  378TMC3     O 5656   0.050   1.235  12.190 -0.3758  0.6456  0.0657
  378TMC3     H 5657   4.606   1.234  12.352 -1.6304  0.5753  1.7028
  378TMC3    H1 5658   0.284   1.179  12.501 -0.7159  1.3892  1.0534
  378TMC3    H2 5659   4.702   1.260  12.778  0.0914  0.6612  0.0911
  378TMC3    C7 5660   0.219   1.228  12.754  0.2900 -0.5425 -0.1100
  378TMC3    C8 5661   4.503   1.290  12.599  1.3041 -0.7149  0.1211
  378TMC3    O1 5662   0.184   1.210  12.872  0.0982  0.2646  0.2884
  378TMC3    O2 5663   4.479   1.348  12.703 -0.1394  0.7143  0.0944
  379MPD2     C 5664   1.149   4.216  16.216  0.5127 -0.6980 -0.1504
  379MPD2    C1 5665   1.038   4.195  16.296  0.9771  0.0626  0.2390
  379MPD2    C2 5666   1.058   4.146  16.427  0.1619  0.5880 -0.0019
  379MPD2    C3 5667   1.186   4.093  16.463 -1.8649 -0.4420 -0.5499
  379MPD2    C4 5668   1.294   4.121  16.380 -0.0914 -0.3151  0.2942
  379MPD2    C5 5669   1.273   4.190  16.262 -0.0870  0.1414  0.2495
  379MPD2     H 5670   0.975   4.131  16.495  0.8598 -2.5789  0.1400
  379MPD2    H1 5671   1.398   4.098  16.400 -0.4971 -2.5323 -0.0810
  379MPD2    H2 5672   1.152   4.257  16.115  1.5502  1.3973  0.7384
  379MPD2    H3 5673   1.351   4.216  16.192  0.7142 -0.1169  1.0455
  379MPD2     N 5674   1.212   4.015  16.579  0.6838 -0.4787  0.2706
  379MPD2    H5 5675   1.308   4.008  16.612  0.5129  2.2097  1.3781
  379MPD2    N1 5676   0.913   4.231  16.242  0.6994 -0.3447  0.3995
  379MPD2    H7 5677   0.913   4.248  16.142 -0.7916 -3.0614 -0.0695
  380TMC3    C1 5678   0.677   4.245  16.217 -0.2613  0.6238  0.9251
  380TMC3    C2 5679   0.571   4.157  16.222 -0.2092 -0.3615 -0.0921
  380TMC3    C3 5680   0.455   4.168  16.151 -0.3937  0.9527 -0.8213
  380TMC3    C4 5681   0.672   4.349  16.130 -0.3680  0.1054 -0.1929
  380TMC3    C5 5682   0.559   4.372  16.068 -0.0893 -0.5124 -0.7377
  380TMC3    C6 5683   0.449   4.285  16.066 -0.0638  0.1775 -0.5883
  380TMC3     C 5684   0.791   4.218  16.303 -0.8254 -0.8080  0.3682
  380TMC3     O 5685   0.765   4.158  16.407 -0.2076 -0.0553 -0.2118
  380TMC3     H 5686   0.596   4.076  16.290  2.1517  0.4991  0.0639
  380TMC3    H1 5687   0.762   4.403  16.102  0.4894 -1.9096 -1.3715
  380TMC3    H2 5688   0.358   4.295  16.007  0.3882 -0.2526 -1.3521
  380TMC3    C7 5689   0.536   4.509  16.037 -0.0925  0.0280  0.2534
  380TMC3    C8 5690   0.387   4.048  16.109  0.3668 -0.2355  0.2517
  380TMC3    O1 5691   0.594   4.599  16.094  0.5216 -0.0026  0.3987
  380TMC3    O2 5692   0.335   4.044  15.996  0.4035  0.0257 -0.4427
  381TMC3    C1 5693   0.436   0.665  16.204 -0.5120  0.6436  0.3795
  381TMC3    C2 5694   0.491   0.788  16.184 -0.5000 -0.2658  0.2757
  381TMC3    C3 5695   0.489   0.879  16.281  0.2713 -0.3909 -0.3479
  381TMC3    C4 5696   0.382   0.639  16.327 -0.6074 -0.8372 -0.1568
  381TMC3    C5 5697   0.374   0.743  16.419  0.3195  1.3371 -0.0092
  381TMC3    C6 5698   0.423   0.865  16.405 -0.6888  0.1329  0.5206
  381TMC3     C 5699   0.462   0.540  16.126 -0.3132  0.6397  0.3996
  381TMC3     O 5700   0.431   0.434  16.173  0.1623 -0.1302  0.0132
  381TMC3     H 5701   0.536   0.809  16.087  0.7298 -0.9597  0.7028
  381TMC3    H1 5702   0.342   0.543  16.356 -2.0259 -0.2550 -0.1373
  381TMC3    H2 5703   0.424   0.930  16.492  0.0798 -0.5826  1.0420
  381TMC3    C7 5704   0.384   0.682  16.552  0.5689 -0.7315  0.0761
  381TMC3    C8 5705   0.592   0.985  16.268  0.7389 -0.4447  0.2529
  381TMC3    O1 5706   0.443   0.573  16.551 -0.5227  0.4087 -0.1878
  381TMC3    O2 5707   0.666   0.975  16.174  0.5691 -0.0334 -0.0040
  382MPD2     C 5708   4.385   3.368  16.820 -0.6859 -0.3798 -0.0271
  382MPD2    C1 5709   4.422   3.412  16.947  0.0027 -0.7715 -0.8953
  382MPD2    C2 5710   4.436   3.318  17.052 -0.0255 -0.5290  0.9924
  382MPD2    C3 5711   4.409   3.183  17.030  0.1811  0.0959 -0.1721
  382MPD2    C4 5712   4.378   3.143  16.901 -0.4023 -0.6709 -0.6870
  382MPD2    C5 5713   4.372   3.239  16.797  0.5548  0.2026  0.0721
  382MPD2     H 5714   4.459   3.362  17.149  1.4658  0.5188  0.1581
  382MPD2    H1 5715   4.349   3.041  16.880  0.9003 -1.6388  2.1699
  382MPD2    H2 5716   4.378   3.436  16.736 -1.1088  1.2250  1.3030
  382MPD2    H3 5717   4.337   3.206  16.700 -0.6830 -1.8842  1.2409
  382MPD2     N 5718   4.419   3.087  17.131 -0.4200 -0.0431 -0.0192
  382MPD2    H5 5719   4.403   2.996  17.089 -0.5362  0.0870 -0.2649
  382MPD2    N1 5720   4.439   3.547  16.979 -0.3555 -0.0724  0.4853
  382MPD2    H7 5721   4.457   3.560  17.078 -1.1476 -1.5375  0.8335
  383TMC3    C1 5722   4.444   2.984  17.328 -0.1580  0.6542 -0.2640
  383TMC3    C2 5723   4.317   2.923  17.320 -0.0207 -0.2893  0.1490
  383TMC3    C3 5724   4.277   2.848  17.430  0.1898  0.1374  0.3941
  383TMC3    C4 5725   4.513   2.997  17.443 -0.3346  0.0703 -0.3560
  383TMC3    C5 5726   4.459   2.940  17.553 -1.1261  0.5755 -0.2507
  383TMC3    C6 5727   4.345   2.858  17.547  0.0281  0.2438  0.9349
  383TMC3     C 5728   4.467   3.099  17.256 -0.2598 -0.2985  0.4213
  383TMC3     O 5729   4.514   3.197  17.305  0.6428  0.0769 -0.1925
  383TMC3     H 5730   4.258   2.925  17.229  1.4757 -1.1101 -0.8360
  383TMC3    H1 5731   4.612   3.041  17.445  0.4373 -1.5176 -3.5149
  383TMC3    H2 5732   4.302   2.822  17.640 -0.2087 -1.5227  0.1327
  383TMC3    C7 5733   4.463   3.026  17.670 -0.6476 -0.3083  0.2173
  383TMC3    C8 5734   4.138   2.822  17.437  0.3188  0.9917 -0.0963
  383TMC3    O1 5735   4.419   2.985   0.075 -0.6952 -1.0162 -0.7580
  383TMC3    O2 5736   4.067   2.894  17.363 -0.1025 -0.4481 -0.0843
  384MPD2     C 5737   1.447   4.322  12.314 -0.7410  0.0051  0.0962
  384MPD2    C1 5738   1.411   4.197  12.363  0.5650 -0.3191 -0.1071
  384MPD2    C2 5739   1.493   4.088  12.352  0.0223 -0.5826 -0.3932
  384MPD2    C3 5740   1.619   4.104  12.300  0.1789  0.9890 -0.2379
  384MPD2    C4 5741   1.662   4.231  12.259 -0.2260 -0.1031 -0.6545
  384MPD2    C5 5742   1.577   4.342  12.272  0.2625 -0.1260 -0.1160
  384MPD2     H 5743   1.460   3.994  12.395  0.8653 -0.4964  0.4616
  384MPD2    H1 5744   1.758   4.253  12.215 -0.5214  1.9470 -0.3099
  384MPD2    H2 5745   1.383   4.407  12.335 -0.1621  0.5411 -0.3564
  384MPD2    H3 5746   1.618   4.437  12.241 -0.4379 -0.3328 -1.6381
  384MPD2     N 5747   1.701   3.991  12.301 -0.5141  0.2385 -0.5006
  384MPD2    H5 5748   1.659   3.913  12.350  0.6452  0.0076  0.1372
  384MPD2    N1 5749   1.287   4.180  12.433  0.6903 -0.1045  0.0466
  384MPD2    H7 5750   1.271   4.095  12.486  1.4298 -0.3564 -0.1354
  385TMC3    C1 5751   1.844   3.823  12.234  0.4335 -0.2382 -0.1590
  385TMC3    C2 5752   1.849   3.773  12.107  0.6645 -0.1123 -0.6905
  385TMC3    C3 5753   1.761   3.671  12.075 -0.5653  0.0176 -0.3985
  385TMC3    C4 5754   1.779   3.758  12.334 -0.6476 -0.3601 -0.1298
  385TMC3    C5 5755   1.698   3.654  12.299  0.5271  0.5408  0.1052
  385TMC3    C6 5756   1.668   3.623  12.167  0.8814  0.2184  0.4976
  385TMC3     C 5757   1.812   3.968  12.232  0.0356  0.0506  0.2304
  385TMC3     O 5758   1.891   4.041  12.171  0.1372  0.0125 -0.3029
  385TMC3     H 5759   1.911   3.826  12.035  1.0119  0.7612  0.2589
  385TMC3    H1 5760   1.801   3.783  12.437  2.0732  2.2709 -1.3547
  385TMC3    H2 5761   1.611   3.535  12.138 -0.8480  1.7116 -0.5690
  385TMC3    C7 5762   1.580   3.665  12.389  0.0529  0.4000  0.0264
  385TMC3    C8 5763   1.758   3.625  11.940 -0.0840 -1.3331  0.6069
  385TMC3    O1 5764   1.577   3.767  12.461 -0.0822 -0.2929  0.2682
  385TMC3    O2 5765   1.655   3.578  11.895  0.7071 -0.3538 -0.0233
  386TMC3    C1 5766   1.815   1.301  12.369 -0.2990 -0.1178  0.5748
  386TMC3    C2 5767   1.856   1.299  12.238 -0.2486  0.0245  0.1017
  386TMC3    C3 5768   1.773   1.354  12.143  0.1999 -0.1869  0.8512
  386TMC3    C4 5769   1.698   1.365  12.404  0.1114 -0.3812 -0.1657
  386TMC3    C5 5770   1.608   1.402  12.308 -0.3438 -0.3416  0.4488
  386TMC3    C6 5771   1.648   1.399  12.177 -0.1607  0.9872  0.4444
  386TMC3     C 5772   1.898   1.245  12.469 -0.0462  0.1913 -0.4113
  386TMC3     O 5773   1.903   1.306  12.577 -0.4539  0.4112  0.1852
  386TMC3     H 5774   1.951   1.254  12.210  0.0667 -0.4119  1.8690
  386TMC3    H1 5775   1.673   1.362  12.510  3.0169 -0.5829  0.5087
  386TMC3    H2 5776   1.593   1.459  12.106 -0.4723  0.4910  0.2669
  386TMC3    C7 5777   1.483   1.456  12.350  0.1341  0.0614  0.8388
  386TMC3    C8 5778   1.801   1.334  12.002  0.2731 -0.4410 -0.2192
  386TMC3    O1 5779   1.456   1.473  12.467 -0.4247  0.6208  0.0525
  386TMC3    O2 5780   1.757   1.419  11.926 -0.0544 -0.0635 -0.0464
  387MPD2     C 5781   3.994   1.071   9.790 -0.1275 -0.0433 -0.3517
  387MPD2    C1 5782   4.090   1.164   9.825  0.2093  0.0566 -0.5276
  387MPD2    C2 5783   4.214   1.127   9.875 -0.3870 -0.3904 -0.4488
  387MPD2    C3 5784   4.239   0.991   9.893  0.0447  0.3833 -0.5025
  387MPD2    C4 5785   4.144   0.900   9.849 -0.4943  0.1029 -0.7778
  387MPD2    C5 5786   4.031   0.941   9.790  0.0073 -0.1140  0.2133
  387MPD2     H 5787   4.285   1.202   9.907 -1.3772 -0.1161  1.1145
  387MPD2    H1 5788   4.158   0.792   9.855 -2.8377 -0.0955  1.0740
  387MPD2    H2 5789   3.897   1.100   9.752  0.6051 -0.0795 -2.2342
  387MPD2    H3 5790   3.960   0.866   9.758 -1.6468  2.0817 -1.2401
  387MPD2     N 5791   4.346   0.948   9.971 -1.0213 -0.1497 -0.0382
  387MPD2    H5 5792   4.417   1.018   9.989  0.2099 -0.9910 -1.7013
  387MPD2    N1 5793   4.074   1.303   9.817 -0.1870  0.2651  0.0278
  387MPD2    H7 5794   4.161   1.355   9.819  1.7227 -2.8632 -0.9469
  388TMC3    C1 5795   3.957   1.493   9.882  0.9103 -0.2059 -0.5069
  388TMC3    C2 5796   3.855   1.589   9.871 -0.2330 -0.2123  0.3138
  388TMC3    C3 5797   3.849   1.697   9.955 -0.1787 -0.0752  0.4052
  388TMC3    C4 5798   4.053   1.508   9.982  0.3629 -0.2551  0.7619
  388TMC3    C5 5799   4.042   1.620  10.061  0.0152 -0.5304 -0.1025
  388TMC3    C6 5800   3.947   1.711  10.048  0.2045 -0.3977 -0.1697
  388TMC3     C 5801   3.953   1.369   9.809 -0.2502 -0.0121 -0.3752
  388TMC3     O 5802   3.838   1.324   9.799 -0.0246  0.0710  0.4415
  388TMC3     H 5803   3.770   1.576   9.805  0.9959  0.5673 -1.4004
  388TMC3    H1 5804   4.125   1.433  10.015 -0.9294 -1.9866 -0.3492
  388TMC3    H2 5805   3.940   1.795  10.116  1.8985 -1.8035  1.7320
  388TMC3    C7 5806   4.139   1.640  10.176 -0.8103 -0.4765  0.4113
  388TMC3    C8 5807   3.761   1.811   9.923  0.4854 -0.0057 -0.0689
  388TMC3    O1 5808   4.127   1.738  10.250 -0.5457  0.1410 -0.1246
  388TMC3    O2 5809   3.711   1.800   9.810  0.4265  0.7825  0.1355
  389MPD2     C 5810   3.774   4.538  10.983 -0.3910  0.1984 -0.4440
  389MPD2    C1 5811   3.751   4.405  10.948  1.1825 -0.7337  0.4424
  389MPD2    C2 5812   3.711   4.317  11.046  0.4825  0.5246 -0.3877
  389MPD2    C3 5813   3.684   4.361  11.171 -0.2465 -0.2571 -0.9278
  389MPD2    C4 5814   3.698   4.487  11.203 -0.0809  0.5336  0.3931
  389MPD2    C5 5815   3.746   4.580  11.111 -0.2220  0.7570 -0.5403
  389MPD2     H 5816   3.700   4.216  11.008 -3.2476  0.7757  0.0576
  389MPD2    H1 5817   3.682   4.515  11.306 -2.4460 -0.1854  0.2310
  389MPD2    H2 5818   3.816   4.612  10.915 -1.5127 -1.1320 -2.5886
  389MPD2    H3 5819   3.761   4.682  11.146 -1.0175 -0.2156  2.6493
  389MPD2     N 5820   3.632   4.278  11.276  0.1180 -0.0895  0.0641
  389MPD2    H5 5821   3.603   4.327  11.360 -2.1917  1.8856 -1.8986
  389MPD2    N1 5822   3.784   4.373  10.818 -0.4380 -0.4675 -0.2399
  389MPD2    H7 5823   3.817   4.450  10.760  1.0639  0.7409  2.2015
  390TMC3    C1 5824   3.548   4.093  11.384 -0.0836 -0.3445 -0.3442
  390TMC3    C2 5825   3.438   4.010  11.361  0.9347  0.0509  0.0128
  390TMC3    C3 5826   3.334   4.008  11.443 -0.5400  0.4595 -0.2481
  390TMC3    C4 5827   3.550   4.180  11.491 -0.4304 -0.0503 -0.3349
  390TMC3    C5 5828   3.437   4.180  11.567  0.9912  0.2819 -0.4581
  390TMC3    C6 5829   3.331   4.091  11.549  0.8076  0.1243 -0.5236
  390TMC3     C 5830   3.613   4.142  11.266 -0.2813 -1.4026 -0.2911
  390TMC3     O 5831   3.638   4.066  11.174  0.1476 -0.5646  0.5695
  390TMC3     H 5832   3.444   3.954  11.269 -1.3261  2.0768 -1.3853
  390TMC3    H1 5833   3.633   4.243  11.520 -1.2189  0.1392  1.5504
  390TMC3    H2 5834   3.234   4.097  11.598  1.6432 -0.4413  1.1803
  390TMC3    C7 5835   3.429   4.294  11.658 -0.2014 -0.8950  0.3731
  390TMC3    C8 5836   3.248   3.888  11.446 -0.2371  0.6969  0.2912
  390TMC3    O1 5837   3.493   4.397  11.635  0.2631  0.2533  0.1566
  390TMC3    O2 5838   3.236   3.816  11.346  0.0153 -0.0538 -0.1457
  391MPD2     C 5839   2.589   1.192  11.250 -0.2235  0.5365 -0.3743
  391MPD2    C1 5840   2.708   1.261  11.219 -0.4004 -0.9485 -0.3418
  391MPD2    C2 5841   2.742   1.283  11.084 -0.0020 -0.1063 -0.2905
  391MPD2    C3 5842   2.653   1.251  10.984 -0.0458 -0.3574  0.3552
  391MPD2    C4 5843   2.541   1.177  11.020 -0.4731  0.3961  0.1053
  391MPD2    C5 5844   2.513   1.148  11.147  0.1532 -0.5493 -0.1456
  391MPD2     H 5845   2.831   1.339  11.057 -0.8678  1.2389 -0.3493
  391MPD2    H1 5846   2.469   1.151  10.944  1.8178 -1.5655 -1.4019
  391MPD2    H2 5847   2.568   1.157  11.350 -0.5799 -0.3664 -0.7604
  391MPD2    H3 5848   2.425   1.089  11.170 -0.0492 -0.5981 -1.0698
  391MPD2     N 5849   2.691   1.292  10.854 -0.1024 -0.4072 -0.5977
  391MPD2    H5 5850   2.777   1.346  10.846 -0.7610  0.7000 -0.0702
  391MPD2    N1 5851   2.796   1.288  11.324 -0.3262 -0.4185 -0.0448
  391MPD2    H7 5852   2.766   1.268  11.419 -0.7828  1.8944  0.2862
  392TMC3    C1 5853   2.641   1.362  10.636  0.2915 -0.5822  0.6304
  392TMC3    C2 5854   2.574   1.338  10.520 -0.5026 -0.1453 -0.2983
  392TMC3    C3 5855   2.598   1.425  10.417 -0.0752  0.6852 -0.5499
  392TMC3    C4 5856   2.727   1.466  10.650 -0.5771 -0.5261 -0.0006
  392TMC3    C5 5857   2.747   1.546  10.543 -0.4590 -0.3509  0.3190
  392TMC3    C6 5858   2.682   1.527  10.428 -0.1766 -0.5759 -0.4938
  392TMC3     C 5859   2.609   1.271  10.745  0.0070  0.3879 -0.2601
  392TMC3     O 5860   2.521   1.185  10.718 -0.8567  0.6476  0.5391
  392TMC3     H 5861   2.494   1.266  10.505 -1.6279  0.4628  2.6829
  392TMC3    H1 5862   2.752   1.510  10.745  1.9446 -3.6232  0.7734
  392TMC3    H2 5863   2.702   1.590  10.342  0.5959 -0.6244 -0.3507
  392TMC3    C7 5864   2.843   1.654  10.562 -0.0923 -0.2557  0.1859
  392TMC3    C8 5865   2.495   1.428  10.311  0.2798 -0.8087  0.0503
  392TMC3    O1 5866   2.887   1.674  10.677 -0.0412  0.3185  0.2760
  392TMC3    O2 5867   2.433   1.325  10.292  0.0838 -0.3792  0.3365
  393TMC3    C1 5868   2.130   4.043  10.763 -0.1229  0.2441  0.4359
  393TMC3    C2 5869   2.066   4.046  10.884  0.5656  0.0284 -0.2777
  393TMC3    C3 5870   2.148   4.034  10.997  0.3158  0.4400  0.6721
  393TMC3    C4 5871   2.266   4.022  10.752 -0.1145  0.3513  0.7533
  393TMC3    C5 5872   2.330   4.012  10.871 -0.0598  0.3675  0.2836
  393TMC3    C6 5873   2.278   4.022  10.995  0.2296  0.2739  0.4548
  393TMC3     C 5874   2.081   4.125  10.651 -0.0727  0.1101 -0.3387
  393TMC3     O 5875   2.126   4.101  10.540  0.0549 -0.3412 -0.3514
  393TMC3     H 5876   1.958   4.047  10.900  0.3427  1.5129 -1.9713
  393TMC3    H1 5877   2.316   4.030  10.656 -1.1134 -2.3890 -0.0027
  393TMC3    H2 5878   2.338   3.993  11.080 -2.6878  2.9326  3.4289
  393TMC3    C7 5879   2.475   4.010  10.870 -0.6173 -0.3970 -0.0088
  393TMC3    C8 5880   2.088   4.003  11.132 -0.1678 -0.2267 -0.1575
  393TMC3    O1 5881   2.527   4.084  10.952  0.0552  0.4239 -0.2888
  393TMC3    O2 5882   1.981   3.950  11.128  0.5143  0.1634 -0.4028
  394TMC3    C1 5883   3.777   4.263  10.610  0.2014 -0.2359 -0.0820
  394TMC3    C2 5884   3.701   4.176  10.542  0.3593 -1.0307  1.0141
  394TMC3    C3 5885   3.708   4.169  10.407 -0.1499  1.2512 -0.8428
  394TMC3    C4 5886   3.854   4.353  10.539  0.5495  0.3003  0.0607
  394TMC3    C5 5887   3.853   4.340  10.400  0.0387 -0.0810  0.7005
  394TMC3    C6 5888   3.782   4.248  10.330  0.0518  0.5244 -1.1904
  394TMC3     C 5889   3.777   4.251  10.758 -0.7690  0.2835  0.1254
  394TMC3     O 5890   3.742   4.137  10.790 -0.1360 -0.2511  0.2843
  394TMC3     H 5891   3.633   4.113  10.600  0.9045 -0.1688  2.5782
  394TMC3    H1 5892   3.918   4.420  10.594  1.6090  0.3368 -1.2161
  394TMC3    H2 5893   3.790   4.249  10.221 -1.1929  0.9051 -1.2701
  394TMC3    C7 5894   3.922   4.446  10.321  0.1865  0.1430 -0.5112
  394TMC3    C8 5895   3.698   4.036  10.355 -0.2250 -0.3507 -0.2723
  394TMC3    O1 5896   3.872   4.471  10.216  0.3444  0.3042 -0.2062
  394TMC3    O2 5897   3.715   3.945  10.436 -0.0302 -0.0536  0.1404
  395TMC3    C1 5898   2.420   1.609  14.548  0.4220 -1.1992  0.1026
  395TMC3    C2 5899   2.350   1.537  14.641  0.1389 -0.5716 -0.1935
  395TMC3    C3 5900   2.330   1.591  14.765 -0.2364  0.2821  0.1598
  395TMC3    C4 5901   2.465   1.728  14.582  0.0311  0.1585 -0.6441
  395TMC3    C5 5902   2.455   1.779  14.708  0.6607  0.2189 -0.1020
  395TMC3    C6 5903   2.378   1.712  14.803 -0.0200  0.1800  0.0040
  395TMC3     C 5904   2.398   1.580  14.409  0.4424 -0.0415 -0.4966
  395TMC3     O 5905   2.360   1.684  14.352  0.3035 -0.1144 -0.2063
  395TMC3     H 5906   2.301   1.449  14.602 -3.0761 -0.2011  2.9349
  395TMC3    H1 5907   2.537   1.769  14.512 -0.5228  0.7053 -0.8851
  395TMC3    H2 5908   2.389   1.736  14.908  0.5924 -0.0113 -0.0150
  395TMC3    C7 5909   2.570   1.837  14.765  0.0933  0.3933  0.2924
  395TMC3    C8 5910   2.315   1.500  14.870 -0.3807  0.7828  0.4804
  395TMC3    O1 5911   2.559   1.915  14.862  0.0967 -0.1115  0.6078
  395TMC3    O2 5912   2.271   1.529  14.981 -0.1167 -0.0743  0.4131
  396MPD2     C 5913   2.763   2.823   0.021  0.1518 -0.0370 -0.5622
  396MPD2    C1 5914   2.782   2.814  17.588 -0.3367  0.7612 -0.3310
  396MPD2    C2 5915   2.792   2.931  17.517 -0.0025  0.7892 -0.0512
  396MPD2    C3 5916   2.810   3.054  17.576  0.1288  0.7265 -0.2462
  396MPD2    C4 5917   2.813   3.062   0.012 -0.0159 -0.0755  0.0828
  396MPD2    C5 5918   2.793   2.944   0.077  0.1173 -0.1200 -0.5200
  396MPD2     H 5919   2.801   2.916  17.410  1.2221  1.0496  0.0069
  396MPD2    H1 5920   2.834   3.154   0.066 -1.1659  0.1719  0.1040
  396MPD2    H2 5921   2.746   2.739   0.087  1.3815 -0.6065 -0.9760
  396MPD2    H3 5922   2.780   2.947   0.185  0.0831  0.2626 -0.5355
  396MPD2     N 5923   2.809   3.167  17.492 -0.9897 -0.1709  0.4496
  396MPD2    H5 5924   2.781   3.145  17.397  1.3392  1.0668 -0.5262
  396MPD2    N1 5925   2.776   2.682  17.535 -0.5739 -0.6832 -0.5230
  396MPD2    H7 5926   2.756   2.610  17.603  0.5739 -1.4753 -1.0155
  397TMC3    C1 5927   2.806   2.495  17.379  0.5605  0.2951  0.4525
  397TMC3    C2 5928   2.847   2.470  17.250  0.0161 -0.6260  0.1555
  397TMC3    C3 5929   2.789   2.366  17.181 -0.4625 -0.1936 -0.6250
  397TMC3    C4 5930   2.691   2.429  17.427  0.1314  0.7097 -0.5435
  397TMC3    C5 5931   2.630   2.331  17.351 -0.5634  0.0789  0.0605
  397TMC3    C6 5932   2.681   2.295  17.230 -0.5158  0.1958  0.8800
  397TMC3     C 5933   2.817   2.639  17.404 -0.1953  0.3850  0.0841
  397TMC3     O 5934   2.830   2.713  17.310  0.5240 -0.5523  0.4787
  397TMC3     H 5935   2.945   2.512  17.227 -0.3940  1.5024  2.2618
  397TMC3    H1 5936   2.641   2.468  17.515  0.0547 -1.4446  0.3523
  397TMC3    H2 5937   2.649   2.209  17.173  0.0786 -0.7505  2.0048
  397TMC3    C7 5938   2.532   2.242  17.406 -0.1227  0.1178  0.3270
  397TMC3    C8 5939   2.814   2.361  17.042  0.0783 -0.1696  0.1861
  397TMC3    O1 5940   2.499   2.135  17.356 -0.5453  0.3103 -0.1263
  397TMC3    O2 5941   2.791   2.252  16.995 -0.4907 -0.2657  0.6314
  398MPD2     C 5942   0.954   2.827   0.049  0.1623  0.3782  0.4998
  398MPD2    C1 5943   1.093   2.827   0.037  0.1394 -0.1217  0.0737
  398MPD2    C2 5944   1.159   2.940  17.698 -0.5356 -0.1418  0.2894
  398MPD2    C3 5945   1.086   3.058  17.681 -0.1594  0.0267  0.7385
  398MPD2    C4 5946   0.952   3.057  17.694  0.2265 -0.3888  0.7546
  398MPD2    C5 5947   0.883   2.945   0.027  0.7775 -0.5371  0.2816
  398MPD2     H 5948   1.265   2.952   0.009 -0.5047 -0.3077  0.2098
  398MPD2    H1 5949   0.907   3.155  17.682  1.3569 -0.0037 -0.3693
  398MPD2    H2 5950   0.888   2.743   0.067  1.2360 -0.4930  0.3790
  398MPD2    H3 5951   0.779   2.955   0.055  0.8045 -0.5492  0.3870
  398MPD2     N 5952   1.161   3.178  17.657 -0.1119  0.3389 -0.3466
  398MPD2    H5 5953   1.261   3.161  17.648 -0.4441 -1.9134  0.3066
  398MPD2    N1 5954   1.181   2.718   0.062  0.2573  0.0627  0.1816
  398MPD2    H7 5955   1.279   2.739   0.078  0.9163 -0.8779 -2.5825
  399TMC3    C1 5956   1.243   2.488   0.082 -0.0129 -0.3149 -0.0564
  399TMC3    C2 5957   1.367   2.506   0.025  0.0662 -0.4212 -0.4103
  399TMC3    C3 5958   1.461   2.419   0.071  0.2358 -0.1529 -0.8246
  399TMC3    C4 5959   1.203   2.389   0.162 -0.1265 -0.3172  0.0064
  399TMC3    C5 5960   1.296   2.295   0.199  0.2696 -0.3977 -0.4393
  399TMC3    C6 5961   1.430   2.319   0.158  0.2503  0.8707  1.1087
  399TMC3     C 5962   1.144   2.585   0.067 -0.3048  0.5728  0.4707
  399TMC3     O 5963   1.034   2.541   0.042  0.7781  0.0470 -0.6054
  399TMC3     H 5964   1.402   2.592  17.673 -0.6397 -0.9220 -1.6141
  399TMC3    H1 5965   1.102   2.390   0.200  0.4999  0.3258  1.6380
  399TMC3    H2 5966   1.509   2.250   0.186 -0.4702 -0.3360  0.1714
  399TMC3    C7 5967   1.274   2.245   0.326  0.2074  0.0974 -1.0163
  399TMC3    C8 5968   1.603   2.459   0.061  0.3662  0.0770  0.0798
  399TMC3    O1 5969   1.198   2.310   0.397  0.8154 -0.7262 -0.0580
  399TMC3    O2 5970   1.678   2.429   0.149  0.1744  0.3642 -0.1981
  400TMC3    C1 5971   4.313   2.477  17.272  0.2634 -0.1085  0.2123
  400TMC3    C2 5972   4.190   2.435  17.323  0.1544 -0.0422 -0.5216
  400TMC3    C3 5973   4.077   2.462  17.249  0.1677 -0.1253 -0.3034
  400TMC3    C4 5974   4.324   2.544  17.154 -0.5875 -0.6777  0.3300
  400TMC3    C5 5975   4.208   2.586  17.088  0.7170 -0.0126  0.7652
  400TMC3    C6 5976   4.084   2.537  17.131 -0.8702  0.0652  0.0033
  400TMC3     C 5977   4.428   2.442  17.360  0.6230 -0.0614 -0.5587
  400TMC3     O 5978   4.408   2.416  17.479  0.2509 -0.7005  0.2648
  400TMC3     H 5979   4.191   2.391  17.422  1.0568  0.6694 -0.2123
  400TMC3    H1 5980   4.424   2.582  17.132 -0.2714 -2.0071 -0.5612
  400TMC3    H2 5981   3.994   2.557  17.075  0.6179  2.1759 -1.6321
  400TMC3    C7 5982   4.229   2.634  16.954  0.0991 -0.3249  0.3026
  400TMC3    C8 5983   3.964   2.386  17.283  0.1938 -0.5172  0.1441
  400TMC3    O1 5984   4.323   2.579  16.899  0.2958  0.1465  0.1458
  400TMC3    O2 5985   3.967   2.321  17.382 -0.3811 -0.2990  0.0844
  401MPD2     C 5986   3.290   1.554   1.526 -0.4207  0.1037 -0.1810
  401MPD2    C1 5987   3.429   1.556   1.517 -0.7006 -0.6430 -0.1372
  401MPD2    C2 5988   3.502   1.436   1.540  0.1168  0.9794 -0.3592
  401MPD2    C3 5989   3.433   1.328   1.591 -0.1559  0.8946 -0.0109
  401MPD2    C4 5990   3.301   1.319   1.598  0.4053 -0.1363 -0.5439
  401MPD2    C5 5991   3.230   1.438   1.572  0.4428  0.1723  0.1167
  401MPD2     H 5992   3.607   1.429   1.516  0.5693  4.2408  0.6224
  401MPD2    H1 5993   3.237   1.236   1.628 -1.2713  1.0123 -0.8985
  401MPD2    H2 5994   3.228   1.640   1.505 -0.4916 -0.1683 -1.1021
  401MPD2    H3 5995   3.123   1.437   1.587  0.2654 -3.8510 -1.5033
  401MPD2     N 5996   3.510   1.210   1.611  0.0560  0.0642 -0.7954
  401MPD2    H5 5997   3.608   1.224   1.591 -0.0402  0.2242 -1.1573
  401MPD2    N1 5998   3.510   1.657   1.464  0.4322  0.4541 -0.1215
  401MPD2    H7 5999   3.602   1.630   1.431  0.8021  0.7292  0.6992
  402TMC3    C1 6000   3.586   0.997   1.674 -0.1896  0.4622  0.0126
  402TMC3    C2 6001   3.551   0.873   1.719 -0.3889  0.7575  0.5739
  402TMC3    C3 6002   3.648   0.781   1.741 -0.4170 -0.4925 -0.4984
  402TMC3    C4 6003   3.708   1.018   1.632 -0.2785 -0.7976 -0.1879
  402TMC3    C5 6004   3.806   0.921   1.644 -0.4459  0.2330 -0.4009
  402TMC3    C6 6005   3.773   0.798   1.701  0.1414  0.4345  0.6089
  402TMC3     C 6006   3.474   1.093   1.665  0.3029 -1.0673  0.9894
  402TMC3     O 6007   3.367   1.048   1.697  0.6832  0.2849 -0.3624
  402TMC3     H 6008   3.447   0.866   1.749  0.2507  2.8627  3.3016
  402TMC3    H1 6009   3.747   1.118   1.618 -3.3557  0.5562  0.8862
  402TMC3    H2 6010   3.851   0.728   1.729  0.0410  1.0539  2.4627
  402TMC3    C7 6011   3.943   0.950   1.594  0.8077 -0.7199 -0.4412
  402TMC3    C8 6012   3.606   0.639   1.778 -0.0126 -0.7295  0.4638
  402TMC3    O1 6013   4.029   0.882   1.649 -0.4242  0.2956  0.5558
  402TMC3    O2 6014   3.690   0.552   1.764 -0.0406  0.2951  0.2455
  403MPD2     C 6015   0.832   4.104  13.372  0.7864  0.7884 -0.3737
  403MPD2    C1 6016   0.815   3.983  13.433 -0.0127 -0.0050 -0.0739
  403MPD2    C2 6017   0.886   3.965  13.550  0.1846  0.2502 -0.0004
  403MPD2    C3 6018   0.975   4.060  13.593 -0.1748  0.2174  0.7080
  403MPD2    C4 6019   1.012   4.166  13.514 -0.0446  0.0281 -0.2354
  403MPD2    C5 6020   0.934   4.196  13.402 -0.1700 -0.1743  0.0092
  403MPD2     H 6021   0.888   3.872  13.605  1.4137  0.7365  0.7808
  403MPD2    H1 6022   1.095   4.233  13.532  1.2671 -1.4712 -0.7636
  403MPD2    H2 6023   0.771   4.129  13.286 -1.2875 -0.3047  0.8134
  403MPD2    H3 6024   0.942   4.288  13.346 -1.0016 -0.8921 -1.2911
  403MPD2     N 6025   1.039   4.039  13.720  0.3725  0.5462  0.5248
  403MPD2    H5 6026   1.015   3.953  13.769  0.2510 -0.9042 -2.0866
  403MPD2    N1 6027   0.727   3.889  13.380 -0.0927 -0.0250  0.5987
  403MPD2    H7 6028   0.673   3.919  13.299  1.7672  0.1060 -0.5984
  404TMC3    C1 6029   0.590   3.700  13.370 -0.2338  0.5025 -0.0466
  404TMC3    C2 6030   0.554   3.575  13.418 -0.0643  0.1101  0.6287
  404TMC3    C3 6031   0.496   3.485  13.334 -0.1631  0.0669  0.3923
  404TMC3    C4 6032   0.565   3.734  13.239  0.2991  0.1808  0.3436
  404TMC3    C5 6033   0.520   3.633  13.155  0.6087  0.1798  0.4356
  404TMC3    C6 6034   0.482   3.510  13.200 -0.3463  0.4052  0.1390
  404TMC3     C 6035   0.694   3.771  13.442  0.1260  0.1473  0.4323
  404TMC3     O 6036   0.720   3.731  13.556 -0.1327  0.0039 -0.0713
  404TMC3     H 6037   0.567   3.562  13.525 -0.9930 -1.6682  0.5280
  404TMC3    H1 6038   0.576   3.835  13.201 -1.1474 -0.7431 -2.5802
  404TMC3    H2 6039   0.466   3.426  13.133  2.2230 -0.1508  0.2323
  404TMC3    C7 6040   0.517   3.653  13.008 -0.9961  0.2793 -0.4146
  404TMC3    C8 6041   0.515   3.351  13.377  0.6316 -0.9901  0.2128
  404TMC3    O1 6042   0.588   3.743  12.966  0.3382 -0.0323  0.0972
  404TMC3    O2 6043   0.531   3.263  13.297 -0.1038 -0.0838  0.5375
  405MPD2     C 6044   0.947   3.831  15.138 -0.9316 -0.2534  0.4230
  405MPD2    C1 6045   1.019   3.833  15.022  0.2481  0.5781 -0.1460
  405MPD2    C2 6046   1.097   3.939  14.988  0.2403  0.3905 -0.3097
  405MPD2    C3 6047   1.094   4.059  15.063 -0.0758 -0.4586  0.1195
  405MPD2    C4 6048   1.018   4.049  15.179  1.1118 -0.0051  0.3246
  405MPD2    C5 6049   0.943   3.938  15.205 -0.0818  0.5823  0.1083
  405MPD2     H 6050   1.152   3.953  14.895 -0.8039 -0.9015 -1.1294
  405MPD2    H1 6051   1.002   4.128  15.251 -2.5575 -0.7660  0.3649
  405MPD2    H2 6052   0.884   3.747  15.162 -0.5944 -0.1764  1.5537
  405MPD2    H3 6053   0.876   3.947  15.289  2.3518  0.1210  2.0724
  405MPD2     N 6054   1.153   4.172  15.013  0.0390 -0.5355  0.2913
  405MPD2    H5 6055   1.198   4.148  14.925  0.2094 -0.1848  0.2837
  405MPD2    N1 6056   1.014   3.718  14.939 -0.5146  0.4370  0.2484
  405MPD2    H7 6057   0.952   3.642  14.965  0.1569  0.0623  0.7881
  406TMC3    C1 6058   1.113   4.596  14.898  0.2740  0.4751  0.2565
  406TMC3    C2 6059   1.118   4.553  14.771  0.1826  0.1237  0.3059
  406TMC3    C3 6060   1.173   4.428  14.755 -0.0617 -0.4986 -0.4296
  406TMC3    C4 6061   1.163   4.523  15.005 -0.3129 -0.0247  0.3762
  406TMC3    C5 6062   1.213   4.396  14.985 -0.4932 -0.4054  0.6334
  406TMC3    C6 6063   1.225   4.351  14.854 -0.4593  0.7484  0.6479
  406TMC3     C 6064   1.007   4.698  14.928  0.5219  0.2808 -0.2695
  406TMC3     O 6065   1.021   0.042  15.028 -0.1349 -0.6201  0.0952
  406TMC3     H 6066   1.089   4.620  14.690  0.6957  0.6824  0.5905
  406TMC3    H1 6067   1.133   4.560  15.102  1.2710 -2.3440  1.7518
  406TMC3    H2 6068   1.276   4.257  14.837 -0.0633  1.2544 -0.9577
  406TMC3    C7 6069   1.151   4.297  15.070 -0.0472  1.3919  0.7307
  406TMC3    C8 6070   1.173   4.371  14.625  0.2863  0.7371  0.2251
  406TMC3    O1 6071   1.109   4.334  15.182 -0.1231 -0.2222  0.8113
  406TMC3    O2 6072   1.165   4.451  14.531 -0.0250  0.3438 -0.0591
  407MPD2     C 6073   3.472   1.474   9.776  0.1335 -0.2162 -0.8407
  407MPD2    C1 6074   3.408   1.594   9.787  0.1220 -0.0232  0.2233
  407MPD2    C2 6075   3.402   1.662   9.913 -0.0087  0.3524 -0.2708
  407MPD2    C3 6076   3.479   1.603  10.017  0.4728  0.0414  0.9751
  407MPD2    C4 6077   3.557   1.493   9.998 -0.7255 -0.6321 -0.1804
  407MPD2    C5 6078   3.550   1.429   9.878 -0.2558  0.8830 -0.7041
  407MPD2     H 6079   3.356   1.759   9.927 -0.0413  0.3190 -0.1407
  407MPD2    H1 6080   3.623   1.459  10.076 -1.5032  0.7432  1.0772
  407MPD2    H2 6081   3.480   1.422   9.682 -0.2269  1.0447 -1.5605
  407MPD2    H3 6082   3.608   1.338   9.872  0.4021  1.2454  0.1926
  407MPD2     N 6083   3.503   1.682  10.131 -0.3721 -0.2319  0.0323
  407MPD2    H5 6084   3.568   1.651  10.202  0.0263 -2.2987 -1.2453
  407MPD2    N1 6085   3.346   1.644   9.670 -0.1245 -0.4239 -0.5342
  407MPD2    H7 6086   3.358   1.588   9.586  0.8638  0.0452 -0.7115
  408TMC3    C1 6087   3.251   1.796   9.513  0.6565  1.3834 -0.4556
  408TMC3    C2 6088   3.326   1.734   9.415  0.1152 -0.6080 -0.3087
  408TMC3    C3 6089   3.294   1.763   9.285  0.3050 -0.1923 -0.0137
  408TMC3    C4 6090   3.157   1.894   9.482  0.3594  0.7115 -0.3386
  408TMC3    C5 6091   3.128   1.905   9.351  0.1292 -0.2023  0.2758
  408TMC3    C6 6092   3.185   1.838   9.249 -0.8071 -0.5620  0.6145
  408TMC3     C 6093   3.276   1.762   9.653  0.0109 -0.7937 -0.2068
  408TMC3     O 6094   3.259   1.848   9.738 -0.0091  0.1038 -0.5773
  408TMC3     H 6095   3.395   1.655   9.441 -3.2994 -3.4044  0.1988
  408TMC3    H1 6096   3.111   1.951   9.562 -0.6195  1.0686 -1.1573
  408TMC3    H2 6097   3.159   1.857   9.145 -0.2319 -0.9354  0.4020
  408TMC3    C7 6098   3.063   2.029   9.314 -0.1748 -0.6070 -0.0158
  408TMC3    C8 6099   3.387   1.717   9.185 -0.3559  0.4288 -0.1958
  408TMC3    O1 6100   3.005   2.023   9.205 -0.3618  0.2905 -0.9789
  408TMC3    O2 6101   3.356   1.722   9.070  0.5694 -0.2306 -0.6943
  409MPD2     C 6102   3.116   2.099  17.108  0.3426  0.3545 -0.5267
  409MPD2    C1 6103   3.159   2.180  17.213  0.6772 -0.4820 -0.4902
  409MPD2    C2 6104   3.184   2.314  17.185 -0.2316  0.4557 -0.5674
  409MPD2    C3 6105   3.212   2.356  17.054  0.2545  0.2264 -0.7324
  409MPD2    C4 6106   3.188   2.272  16.952  0.0057 -0.3410  0.1233
  409MPD2    C5 6107   3.130   2.146  16.981 -0.0187  0.3780  0.5361
  409MPD2     H 6108   3.201   2.380  17.268 -1.5948 -0.4679  0.4478
  409MPD2    H1 6109   3.205   2.298  16.849  2.0838  0.1832  0.5994
  409MPD2    H2 6110   3.100   1.993  17.122  0.9434  0.3828  0.4070
  409MPD2    H3 6111   3.100   2.075  16.905 -0.8075 -0.5967  1.7572
  409MPD2     N 6112   3.263   2.480  17.028  0.5315  0.3056 -0.1663
  409MPD2    H5 6113   3.298   2.495  16.934  2.4158 -1.9415  0.1607
  409MPD2    N1 6114   3.180   2.139  17.350 -0.6727  0.5286  0.1506
  409MPD2    H7 6115   3.226   2.209  17.408  0.5367 -0.9220  0.9303
  410TMC3    C1 6116   3.359   2.679  17.076  1.0043  0.3686  0.7799
  410TMC3    C2 6117   3.463   2.671  17.165  1.0010  0.7472  0.3589
  410TMC3    C3 6118   3.514   2.787  17.213 -0.2269  0.1469 -0.9930
  410TMC3    C4 6119   3.313   2.805  17.037 -0.3513  0.6992 -0.3055
  410TMC3    C5 6120   3.375   2.914  17.089  0.5839 -0.9005 -0.0358
  410TMC3    C6 6121   3.478   2.909  17.175 -0.1997  0.2154 -0.1663
  410TMC3     C 6122   3.260   2.585  17.116 -0.4380 -0.2682  0.0632
  410TMC3     O 6123   3.207   2.607  17.224 -1.1520  0.6044 -0.0548
  410TMC3     H 6124   3.489   2.576  17.211  0.4598  0.0896 -0.6850
  410TMC3    H1 6125   3.220   2.812  16.981  0.9711  0.5887 -2.4987
  410TMC3    H2 6126   3.522   2.999  17.216  1.3416  0.5268 -2.4728
  410TMC3    C7 6127   3.335   3.045  17.044 -0.1159 -0.0177 -0.0531
  410TMC3    C8 6128   3.636   2.779  17.302  0.1832 -0.4278 -0.2027
  410TMC3    O1 6129   3.367   3.136  17.119 -0.2895 -0.5353  0.0873
  410TMC3    O2 6130   3.711   2.874  17.288  0.5345 -0.3180  0.3358
  411MPD2     C 6131   3.420   2.304  14.711 -0.2444  0.7446  0.2770
  411MPD2    C1 6132   3.307   2.356  14.656 -0.2873 -0.0700 -0.9350
  411MPD2    C2 6133   3.196   2.277  14.646  0.4102  0.1602  0.1730
  411MPD2    C3 6134   3.201   2.139  14.660 -0.4060 -0.0884  0.3506
  411MPD2    C4 6135   3.322   2.085  14.687 -0.0763 -0.0536 -0.5048
  411MPD2    C5 6136   3.431   2.166  14.718 -0.1310  0.1372 -0.2982
  411MPD2     H 6137   3.108   2.328  14.610  1.6918  1.8131 -0.6327
  411MPD2    H1 6138   3.331   1.980  14.711  0.9595 -0.1168 -1.1255
  411MPD2    H2 6139   3.501   2.366  14.747 -0.3767  1.1930 -0.1978
  411MPD2    H3 6140   3.504   2.114  14.779 -0.2413  0.7638  0.3647
  411MPD2     N 6141   3.093   2.059  14.630 -0.1661 -0.3258 -0.0101
  411MPD2    H5 6142   3.115   1.967  14.596 -0.4586 -0.6227  0.5997
  411MPD2    N1 6143   3.304   2.496  14.627 -0.2894 -0.0057  0.3309
  411MPD2    H7 6144   3.380   2.555  14.659  0.7160 -0.3001 -1.5347
  412TMC3    C1 6145   2.878   2.024  14.526  0.4896  0.0677 -0.3147
  412TMC3    C2 6146   2.748   2.073  14.514  0.3348  0.3328 -0.7733
  412TMC3    C3 6147   2.672   2.031  14.405 -0.3792 -0.0725  0.4148
  412TMC3    C4 6148   2.940   1.946  14.441  0.1225 -0.3644  0.3644
  412TMC3    C5 6149   2.868   1.913  14.330 -0.2205 -0.2469 -0.6299
  412TMC3    C6 6150   2.735   1.951  14.314  0.4779  0.1070  0.5751
  412TMC3     C 6151   2.967   2.111  14.606 -0.0738  0.6280  0.0605
  412TMC3     O 6152   2.920   2.213  14.654  0.1291  0.2079  0.0765
  412TMC3     H 6153   2.710   2.157  14.570 -1.6887 -1.3246  0.3447
  412TMC3    H1 6154   3.047   1.934  14.450 -0.0127  0.1059  2.7229
  412TMC3    H2 6155   2.687   1.923  14.221  0.8508 -0.6656  0.6166
  412TMC3    C7 6156   2.928   1.904  14.203  0.0111 -0.0088  0.0460
  412TMC3    C8 6157   2.614   2.140  14.334  0.4882 -0.6227 -0.6869
  412TMC3    O1 6158   2.876   1.973  14.119 -0.2673  0.4047  0.2013
  412TMC3    O2 6159   2.551   2.220  14.404 -0.4257 -0.2312  0.8994
  413MPD2     C 6160   0.256   0.159  14.918  0.0085  0.0040 -0.1761
  413MPD2    C1 6161   0.341   0.241  14.991  0.3622  0.2048  0.8139
  413MPD2    C2 6162   0.439   0.185  15.063 -0.8671 -0.6316  0.3701
  413MPD2    C3 6163   0.462   0.046  15.066  0.3319 -0.7764 -0.0353
  413MPD2    C4 6164   0.382   4.692  14.990  0.1153  0.0721  0.0988
  413MPD2    C5 6165   0.276   0.023  14.923 -0.3220  0.1136  0.3527
  413MPD2     H 6166   0.489   0.259  15.126 -0.7972 -0.6066  0.2851
  413MPD2    H1 6167   0.369   4.584  14.989  1.1400 -0.0461 -0.5631
  413MPD2    H2 6168   0.176   0.193  14.854  1.3431  3.4496  0.0113
  413MPD2    H3 6169   0.215   4.674  14.873 -0.9788  1.1701 -0.4302
  413MPD2     N 6170   0.572   4.720  15.144 -0.2554 -0.6526 -0.4487
  413MPD2    H5 6171   0.626   0.061  15.199 -2.6092 -0.6700  1.9187
  413MPD2    N1 6172   0.320   0.377  14.972 -0.4653 -0.1393 -0.4384
  413MPD2    H7 6173   0.243   0.402  14.910 -0.2738 -0.4902 -0.8196
  414TMC3    C1 6174   0.728   4.564  15.215 -0.6376  0.0079  0.1170
  414TMC3    C2 6175   0.758   4.440  15.255  0.4304 -0.6169 -0.1604
  414TMC3    C3 6176   0.847   4.418  15.357  0.2052 -0.3145 -0.2884
  414TMC3    C4 6177   0.814   4.661  15.254  0.3828 -0.3563  0.0512
  414TMC3    C5 6178   0.914   4.637  15.348  0.4915  0.3457  0.2910
  414TMC3    C6 6179   0.929   4.513  15.408 -0.4712  0.3370  0.3794
  414TMC3     C 6180   0.606   4.588  15.145 -0.7072 -0.2452 -0.2249
  414TMC3     O 6181   0.526   4.495  15.119  0.2751  0.8747 -0.3911
  414TMC3     H 6182   0.697   4.365  15.205 -2.1118  1.6243 -0.3939
  414TMC3    H1 6183   0.803   0.037  15.217 -1.3862 -1.1031 -1.4742
  414TMC3    H2 6184   0.978   4.495  15.503  0.2614  1.0439  0.1291
  414TMC3    C7 6185   1.027   4.718  15.363 -0.0772 -0.6844  0.0991
  414TMC3    C8 6186   0.822   4.289  15.427 -0.2570 -0.0887 -0.6626
  414TMC3    O1 6187   1.010   0.113  15.345  0.5345 -0.0922  0.5448
  414TMC3    O2 6188   0.718   4.228  15.403  0.4057  0.2397 -0.1032
  415TMC3    C1 6189   0.983   3.925  10.112 -0.4383 -0.0970  0.2184
  415TMC3    C2 6190   1.102   3.949  10.033 -0.3622 -0.1517 -0.2944
  415TMC3    C3 6191   1.080   4.032   9.925 -0.0473 -0.1741 -0.1312
  415TMC3    C4 6192   0.860   3.971  10.071 -0.0449  0.2863  0.3789
  415TMC3    C5 6193   0.857   4.062   9.963  1.5378 -0.4179 -0.5953
  415TMC3    C6 6194   0.967   4.097   9.889 -0.6442 -0.6000  0.1596
  415TMC3     C 6195   0.976   3.847  10.232 -0.1985  0.7914 -0.1291
  415TMC3     O 6196   0.877   3.777  10.244  0.0529 -1.0542 -0.2929
  415TMC3     H 6197   1.202   3.915  10.061 -0.1963 -0.5743 -1.3612
  415TMC3    H1 6198   0.773   3.956  10.134  0.8388 -1.9760  1.0925
  415TMC3    H2 6199   0.965   4.162   9.802 -3.5462 -1.7516 -0.6521
  415TMC3    C7 6200   0.727   4.085   9.907  0.0120  0.0741 -0.2568
  415TMC3    C8 6201   1.195   4.078   9.848 -0.3032  0.0971 -0.0862
  415TMC3    O1 6202   0.709   4.188   9.840  0.3866  0.0112  0.4026
  415TMC3    O2 6203   1.212   4.200   9.835 -1.0000 -0.4989  0.4473
  416MPD2     C 6204   2.919   2.506  11.027 -0.9361 -0.2582 -0.3469
  416MPD2    C1 6205   2.890   2.492  11.163 -0.5668  0.2946  0.6041
  416MPD2    C2 6206   2.853   2.367  11.205  0.1228  0.0544  0.1413
  416MPD2    C3 6207   2.804   2.272  11.117  0.1296  0.1080 -0.2323
  416MPD2    C4 6208   2.845   2.284  10.984  0.3319 -0.0626  0.4233
  416MPD2    C5 6209   2.904   2.398  10.940  0.0822  0.3242  0.5027
  416MPD2     H 6210   2.829   2.351  11.310  0.6314  0.7304  0.3603
  416MPD2    H1 6211   2.823   2.203  10.914 -2.0037 -0.3151  1.4766
  416MPD2    H2 6212   2.935   2.608  10.994  1.3106 -0.6990 -0.5542
  416MPD2    H3 6213   2.917   2.418  10.834 -1.6888  1.4325  0.4966
  416MPD2     N 6214   2.712   2.171  11.153  0.1795 -0.1347  0.2817
  416MPD2    H5 6215   2.682   2.170  11.250  0.7560 -0.1205  0.4556
  416MPD2    N1 6216   2.875   2.612  11.245  0.1534 -0.0453  0.1482
  416MPD2    H7 6217   2.894   2.700  11.198 -0.1626  0.2037  0.4926
  417TMC3    C1 6218   2.761   2.732  11.419  0.0940 -0.6468  0.5541
  417TMC3    C2 6219   2.738   2.741  11.551 -0.2778 -0.1615  0.1971
  417TMC3    C3 6220   2.639   2.825  11.593 -0.3885 -0.2932 -0.4263
  417TMC3    C4 6221   2.687   2.804  11.327 -0.0790  0.1278  0.0789
  417TMC3    C5 6222   2.598   2.898  11.374 -0.6994 -0.4493 -0.0527
  417TMC3    C6 6223   2.567   2.905  11.510  0.1536 -0.2314  0.1045
  417TMC3     C 6224   2.835   2.613  11.378 -0.8272 -0.8317 -0.2775
  417TMC3     O 6225   2.837   2.516  11.454  0.1850 -0.3513 -0.8426
  417TMC3     H 6226   2.795   2.676  11.617 -1.1073 -1.3454 -0.2547
  417TMC3    H1 6227   2.697   2.797  11.219  1.6853 -1.2506  0.3350
  417TMC3    H2 6228   2.485   2.965  11.547  0.1599  0.0441 -0.3269
  417TMC3    C7 6229   2.503   2.948  11.278  0.0529  0.3231  0.3477
  417TMC3    C8 6230   2.586   2.809  11.726 -0.1858  0.2661  0.1042
  417TMC3    O1 6231   2.521   3.048  11.208  0.3575  0.2044 -0.2756
  417TMC3    O2 6232   2.519   2.900  11.767  0.6388 -0.5938 -0.0485
  418TMC3    C1 6233   1.472   3.433  17.625  0.5933 -0.3162  0.7849
  418TMC3    C2 6234   1.352   3.368  17.591  0.1975 -0.3178 -0.6125
  418TMC3    C3 6235   1.237   3.405  17.646 -0.6240 -0.1862  0.6559
  418TMC3    C4 6236   1.475   3.539   0.007 -0.3897  0.3344  0.5034
  418TMC3    C5 6237   1.353   3.578   0.060  0.4509 -0.1920  0.3975
  418TMC3    C6 6238   1.237   3.505   0.033  0.0819  0.9485  0.0979
  418TMC3     C 6239   1.597   3.382  17.568  0.3912 -0.5583  0.1141
  418TMC3     O 6240   1.595   3.329  17.459  0.1486 -0.0370  0.1661
  418TMC3     H 6241   1.352   3.297  17.509 -0.3599 -1.3592  0.2878
  418TMC3    H1 6242   1.569   3.584   0.036 -0.1895 -0.1597  0.6191
  418TMC3    H2 6243   1.147   3.519   0.092  1.1455  1.3910  1.6114
  418TMC3    C7 6244   1.364   3.637   0.188 -0.5365 -0.0208  0.1043
  418TMC3    C8 6245   1.121   3.309  17.638 -0.2777  0.2516 -0.1228
  418TMC3    O1 6246   1.316   3.578   0.287 -0.1432 -0.0867 -0.2347
  418TMC3    O2 6247   1.013   3.369  17.648  0.0138 -1.2216  0.0430
  419MPD2     C 6248   0.004   2.012  12.363  1.0380 -0.8848 -0.2853
  419MPD2    C1 6249   4.617   2.089  12.374  0.1397 -0.6744 -0.6503
  419MPD2    C2 6250   4.561   2.115  12.499  0.1743 -0.0515  0.3729
  419MPD2    C3 6251   4.622   2.060  12.607 -0.2616  0.0888  0.4285
  419MPD2    C4 6252   0.006   1.983  12.596 -0.0543  0.0192 -0.4028
  419MPD2    C5 6253   0.063   1.953  12.472  0.1131 -0.0192  0.3399
  419MPD2     H 6254   4.475   2.180  12.515  1.5409  1.7628  0.4110
  419MPD2    H1 6255   0.062   1.939  12.678 -0.5489 -0.4506 -0.3152
  419MPD2    H2 6256   0.050   1.991  12.267 -0.8795 -2.1260 -0.9402
  419MPD2    H3 6257   0.153   1.894  12.462  1.6056  2.5218 -1.3300
  419MPD2     N 6258   4.563   2.100  12.732  0.4877  0.9464  0.3357
  419MPD2    H5 6259   4.482   2.160  12.727  1.5442  2.4788  1.8464
  419MPD2    N1 6260   4.554   2.150  12.258 -0.0271  0.1913 -0.2039
  419MPD2    H7 6261   4.457   2.181  12.262  0.1251  1.0646 -3.4568
  420TMC3    C1 6262   4.552   2.164  12.948 -0.9937  0.1914  1.2540
  420TMC3    C2 6263   4.435   2.237  12.922  0.5904  0.5451 -0.0718
  420TMC3    C3 6264   4.370   2.300  13.026  0.2246  0.0644  0.4500
  420TMC3    C4 6265   4.602   2.159  13.076  0.1168  0.0847 -0.3635
  420TMC3    C5 6266   4.532   2.227  13.171  0.5330  0.1976  1.0189
  420TMC3    C6 6267   4.411   2.285  13.153  1.0997  1.0458  0.7740
  420TMC3     C 6268   4.630   2.097  12.852  0.2952  0.0237  0.3842
  420TMC3     O 6269   4.725   2.030  12.886 -0.0249  0.0771  0.0395
  420TMC3     H 6270   4.398   2.262  12.824 -0.1321 -1.4305 -0.3105
  420TMC3    H1 6271   4.691   2.100  13.097  0.8653  1.4726  0.3438
  420TMC3    H2 6272   4.356   2.338  13.229 -0.4352 -2.1463  1.8916
  420TMC3    C7 6273   4.591   2.239  13.300  0.4060 -0.2315  0.7704
  420TMC3    C8 6274   4.253   2.372  13.001 -0.6066 -0.5094  0.5680
  420TMC3    O1 6275   4.523   2.214  13.396  0.1864  0.2575 -0.2291
  420TMC3    O2 6276   4.249   2.436  12.896 -0.4328  0.1609 -0.5300
  421TMC3    C1 6277   1.181   4.055  13.897  0.3735 -0.0477  0.7820
  421TMC3    C2 6278   1.229   4.144  13.993 -0.6970  0.0749  0.7300
  421TMC3    C3 6279   1.344   4.113  14.055  0.2167  0.1908  0.1294
  421TMC3    C4 6280   1.229   3.927  13.888  0.1080 -0.3066 -0.0567
  421TMC3    C5 6281   1.341   3.900  13.966 -0.4082 -0.3484  1.0668
  421TMC3    C6 6282   1.398   3.992  14.049  0.1442  0.7546  0.4663
  421TMC3     C 6283   1.134   4.122  13.779  0.3592  0.1132 -0.0878
  421TMC3     O 6284   1.202   4.216  13.740  0.2783  0.0539 -0.4951
  421TMC3     H 6285   1.185   4.243  13.996 -0.0175  0.5074 -3.0928
  421TMC3    H1 6286   1.196   3.859  13.810 -1.4124 -0.0370  0.3691
  421TMC3    H2 6287   1.486   3.964  14.106  0.7255  0.0212 -0.7849
  421TMC3    C7 6288   1.388   3.768  13.971  0.2992 -0.2130  0.2335
  421TMC3    C8 6289   1.391   4.212  14.154 -0.1941  0.0417 -0.5822
  421TMC3    O1 6290   1.509   3.766  13.992 -0.0660  1.3190 -0.5523
  421TMC3    O2 6291   1.326   4.309  14.185 -0.0235  0.2335 -0.0845
  422TMC3    C1 6292   3.255   0.518  12.913  0.3170  0.1259 -1.0855
  422TMC3    C2 6293   3.197   0.607  13.001 -0.4520 -0.2236  1.3394
  422TMC3    C3 6294   3.106   0.565  13.090  0.4660 -0.2896  0.1046
  422TMC3    C4 6295   3.220   0.388  12.914  0.5771  0.0382 -1.1051
  422TMC3    C5 6296   3.122   0.352  13.008  0.3815  0.0487  0.0541
  422TMC3    C6 6297   3.063   0.435  13.096 -0.6687 -0.9288  0.3054
  422TMC3     C 6298   3.335   0.571  12.798  0.5239 -0.6979  0.3099
  422TMC3     O 6299   3.341   0.692  12.782  0.4492 -0.5646 -0.4036
  422TMC3     H 6300   3.210   0.711  12.974 -1.6690 -0.5732 -0.5845
  422TMC3    H1 6301   3.277   0.314  12.859  0.6312 -0.3467 -0.5321
  422TMC3    H2 6302   3.020   0.392  13.185 -2.0629  0.9657  0.5411
  422TMC3    C7 6303   3.059   0.232  12.976 -0.1366 -0.2572 -0.0167
  422TMC3    C8 6304   3.049   0.649  13.185 -0.6643  0.0452  0.1400
  422TMC3    O1 6305   3.133   0.142  12.943 -0.2906  0.1415  0.1672
  422TMC3    O2 6306   2.941   0.621  13.234  0.1680 -0.3942 -0.5125
  423MPD2     C 6307   0.776   1.669   0.684 -0.6948 -0.0245  0.3250
  423MPD2    C1 6308   0.825   1.540   0.685 -0.4775  0.3358 -0.3892
  423MPD2    C2 6309   0.801   1.463   0.572  0.4254  0.1468  0.3673
  423MPD2    C3 6310   0.707   1.500   0.473  0.1447  0.0335 -0.1511
  423MPD2    C4 6311   0.658   1.635   0.485 -0.7122  0.6810 -0.4251
  423MPD2    C5 6312   0.693   1.718   0.585 -0.8558 -0.6632  0.3889
  423MPD2     H 6313   0.853   1.369   0.553 -3.2604 -1.6083 -1.0043
  423MPD2    H1 6314   0.599   1.670   0.401 -1.0632  2.0328  0.3739
  423MPD2    H2 6315   0.802   1.745   0.758  1.1602 -0.9277  0.5966
  423MPD2    H3 6316   0.679   1.825   0.574  1.3654 -0.1200  2.6691
  423MPD2     N 6317   0.670   1.413   0.367 -0.3077  0.2511  0.5703
  423MPD2    H5 6318   0.605   1.462   0.306  0.7020  1.0656  0.1438
  423MPD2    N1 6319   0.918   1.489   0.779 -0.5859  0.3297  0.0297
  423MPD2    H7 6320   0.953   1.396   0.761 -0.6220 -0.0013  1.6255
  424TMC3    C1 6321   1.044   1.490   0.991 -0.5160  0.2021  0.6103
  424TMC3    C2 6322   1.127   1.401   0.933 -0.3686 -0.1237 -0.0702
  424TMC3    C3 6323   1.238   1.362   1.004  0.0031 -0.5563 -0.6352
  424TMC3    C4 6324   1.085   1.564   1.102 -0.2698  0.0541  0.5563
  424TMC3    C5 6325   1.205   1.536   1.164 -0.5639  0.5199  0.3600
  424TMC3    C6 6326   1.277   1.427   1.120 -0.3564 -0.1881  0.1083
  424TMC3     C 6327   0.941   1.551   0.904  0.3677 -0.3704 -0.0649
  424TMC3     O 6328   0.900   1.658   0.944  0.3011 -0.1644 -0.5021
  424TMC3     H 6329   1.099   1.347   0.843 -2.9959 -0.8257  1.1633
  424TMC3    H1 6330   1.012   1.629   1.148  2.1678  1.8989  1.8185
  424TMC3    H2 6331   1.368   1.394   1.169 -1.5822 -1.3844  1.5783
  424TMC3    C7 6332   1.224   1.567   1.307 -1.0407  0.0114  0.2555
  424TMC3    C8 6333   1.310   1.250   0.963 -0.5800  0.3015  0.2075
  424TMC3    O1 6334   1.289   1.494   1.379 -0.0796 -0.1728 -0.0619
  424TMC3    O2 6335   1.328   1.236   0.844  0.4570 -0.0407  0.1297
  425MPD2     C 6336   3.668   1.104  17.101 -0.4368  0.1779  0.7276
  425MPD2    C1 6337   3.694   1.023  17.210  0.1735 -0.3104  0.5410
  425MPD2    C2 6338   3.658   1.068  17.337  0.4223  0.8099  0.1997
  425MPD2    C3 6339   3.591   1.183  17.350  0.9136 -0.3323  0.0018
  425MPD2    C4 6340   3.552   1.252  17.238 -0.7184 -0.4912  0.3624
  425MPD2    C5 6341   3.581   1.207  17.115  0.1606 -0.4271 -0.0959
  425MPD2     H 6342   3.686   1.011  17.425 -0.9220 -0.5126 -0.2299
  425MPD2    H1 6343   3.483   1.336  17.234  0.8621  0.7461 -0.5649
  425MPD2    H2 6344   3.709   1.084  17.003 -0.1835 -1.7538  1.2279
  425MPD2    H3 6345   3.555   1.266  17.029 -2.0191 -1.4216 -0.1059
  425MPD2     N 6346   3.550   1.217  17.485  0.2597  0.1263 -0.0558
  425MPD2    H5 6347   3.571   1.149  17.558  3.7866  0.7171 -0.5098
  425MPD2    N1 6348   3.776   0.909  17.186 -1.1763 -0.1533 -0.2913
  425MPD2    H7 6349   3.778   0.881  17.088  1.2241  1.1324 -0.6314
  426TMC3    C1 6350   3.897   0.711  17.249  0.6656  0.1103  0.0035
  426TMC3    C2 6351   3.836   0.637  17.150  0.0975  0.1464  0.6349
  426TMC3    C3 6352   3.893   0.520  17.115 -0.1549  0.2461  0.1606
  426TMC3    C4 6353   4.019   0.669  17.305 -0.1994  0.2319  0.4354
  426TMC3    C5 6354   4.080   0.555  17.258  0.1740 -0.5714 -0.4077
  426TMC3    C6 6355   4.010   0.479  17.166 -0.3551  0.1360 -0.1891
  426TMC3     C 6356   3.855   0.850  17.285  0.2831  0.3634 -0.1884
  426TMC3     O 6357   3.905   0.900  17.386  0.1405  0.5622 -0.1461
  426TMC3     H 6358   3.747   0.669  17.097  0.0870  1.1373  1.2637
  426TMC3    H1 6359   4.063   0.729  17.384  1.4792 -0.5467  0.0953
  426TMC3    H2 6360   4.057   0.390  17.125 -0.2709  1.3191 -2.6710
  426TMC3    C7 6361   4.209   0.506  17.306  0.8583 -0.0523  1.2430
  426TMC3    C8 6362   3.825   0.422  17.032 -0.1339 -0.4430 -0.1360
  426TMC3    O1 6363   4.253   0.403  17.260 -0.2434  0.2468  0.0311
  426TMC3    O2 6364   3.903   0.348  16.971 -0.2123 -0.4127  0.3159
  427MPD2     C 6365   2.370   2.323  14.807 -0.5918 -0.4665  0.5942
  427MPD2    C1 6366   2.344   2.325  14.942  0.2217 -0.1818 -0.1587
  427MPD2    C2 6367   2.218   2.368  14.982  0.0685  0.1623 -0.0707
  427MPD2    C3 6368   2.120   2.425  14.898 -0.4628  0.4152  0.2887
  427MPD2    C4 6369   2.152   2.428  14.770 -0.8406  0.5758  0.3928
  427MPD2    C5 6370   2.271   2.372  14.722  0.0553  0.1556  0.9716
  427MPD2     H 6371   2.185   2.343  15.082  2.2472  0.1656  0.6430
  427MPD2    H1 6372   2.078   2.469  14.702 -0.7842 -0.9337 -0.5802
  427MPD2    H2 6373   2.463   2.291  14.761 -1.0445  0.4346 -0.9532
  427MPD2    H3 6374   2.287   2.376  14.615 -0.0439  0.8967  0.9854
  427MPD2     N 6375   2.000   2.471  14.944  0.1286  0.4839  0.1069
  427MPD2    H5 6376   1.932   2.497  14.873  0.3688  0.8565  0.0071
  427MPD2    N1 6377   2.435   2.273  15.043  0.1623  0.3835  0.7476
  427MPD2    H7 6378   2.413   2.262  15.142  2.3058  1.0636  1.3099
  428TMC3    C1 6379   2.626   2.201  15.135  0.5429  0.2217  0.4557
  428TMC3    C2 6380   2.589   2.086  15.196 -0.2724 -0.0833  0.3267
  428TMC3    C3 6381   2.676   2.037  15.288 -0.6012 -0.2650 -0.2902
  428TMC3    C4 6382   2.750   2.258  15.149 -0.2363 -0.0538  0.3905
  428TMC3    C5 6383   2.834   2.213  15.247  0.0060  0.3999  0.5051
  428TMC3    C6 6384   2.802   2.097  15.314 -0.1417 -0.2853  0.1642
  428TMC3     C 6385   2.561   2.229  15.012  0.3086  0.2955 -0.0860
  428TMC3     O 6386   2.630   2.237  14.908  0.3179 -0.1993  0.0775
  428TMC3     H 6387   2.504   2.029  15.161 -1.9759  1.2992  2.2586
  428TMC3    H1 6388   2.777   2.351  15.101  1.7257  0.1260  1.8251
  428TMC3    H2 6389   2.871   2.045  15.379 -0.8944 -2.5868 -0.8870
  428TMC3    C7 6390   2.950   2.293  15.292  0.0306 -0.0201  0.7151
  428TMC3    C8 6391   2.681   1.891  15.273  0.4712 -0.1623  0.2325
  428TMC3    O1 6392   2.994   2.269  15.406  0.1527 -0.1080  0.6380
  428TMC3    O2 6393   2.795   1.851  15.245 -0.3061 -0.0942  0.4753
  429MPD2     C 6394   3.504   3.356  17.404  0.0023 -0.5170  0.0145
  429MPD2    C1 6395   3.624   3.288  17.369 -0.3911 -1.0501 -0.3262
  429MPD2    C2 6396   3.693   3.324  17.255 -0.5841  0.0186  0.3917
  429MPD2    C3 6397   3.663   3.427  17.172  0.2277  0.5458  0.1319
  429MPD2    C4 6398   3.561   3.501  17.212  0.6139  1.1431 -0.0161
  429MPD2    C5 6399   3.483   3.470  17.319  0.3667 -0.4297  0.1457
  429MPD2     H 6400   3.784   3.269  17.231 -0.4082  0.1808  0.6931
  429MPD2    H1 6401   3.536   3.591  17.156  2.1623  1.8739  0.4557
  429MPD2    H2 6402   3.440   3.319  17.483  0.4032 -2.6682 -0.6701
  429MPD2    H3 6403   3.400   3.536  17.341  0.1007 -1.0086  0.8871
  429MPD2     N 6404   3.745   3.451  17.061  0.2504 -0.4848 -0.8054
  429MPD2    H5 6405   3.805   3.373  17.036  0.5747 -0.3265 -0.5226
  429MPD2    N1 6406   3.684   3.184  17.454  0.1666  0.2126 -0.1806
  429MPD2    H7 6407   3.766   3.140  17.414 -0.0417 -0.9733  0.6916
  430TMC3    C1 6408   3.802   3.524  16.853  0.1200 -0.3496  0.3864
  430TMC3    C2 6409   3.719   3.525  16.738  0.3805  0.4359 -0.0055
  430TMC3    C3 6410   3.759   3.447  16.633  0.0786 -0.2209  0.4631
  430TMC3    C4 6411   3.903   3.434  16.854 -0.5109 -0.0644  0.4648
  430TMC3    C5 6412   3.943   3.361  16.750  1.0596  0.0525 -0.3305
  430TMC3    C6 6413   3.871   3.368  16.636 -0.1573  0.3034 -0.5065
  430TMC3     C 6414   3.729   3.556  16.975  0.6770 -0.2136  0.2295
  430TMC3     O 6415   3.638   3.642  16.969  0.5569 -0.0317  0.3988
  430TMC3     H 6416   3.625   3.578  16.732 -1.6421 -2.7938  2.9890
  430TMC3    H1 6417   3.970   3.440  16.939  1.4457 -2.2889 -0.9252
  430TMC3    H2 6418   3.885   3.304  16.550  0.1673 -2.4908  1.6425
  430TMC3    C7 6419   3.990   3.229  16.793 -0.5175 -0.0077  0.3621
  430TMC3    C8 6420   3.673   3.437  16.522 -0.2475  0.4554  0.2063
  430TMC3    O1 6421   3.985   3.198  16.910 -0.8213 -0.5512  0.0492
  430TMC3    O2 6422   3.560   3.421  16.553 -0.4283  0.5845 -0.2076
  431MPD2     C 6423   4.284   2.807  12.541 -1.0776  0.7476 -0.0850
  431MPD2    C1 6424   4.366   2.843  12.437  0.2146 -0.8940  0.0082
  431MPD2    C2 6425   4.362   2.763  12.327  0.0761  0.1486  0.0041
  431MPD2    C3 6426   4.299   2.637  12.321 -0.1029 -0.1424  0.1738
  431MPD2    C4 6427   4.233   2.596  12.432 -0.3216  0.0275 -0.7152
  431MPD2    C5 6428   4.231   2.675  12.538 -0.7554 -0.0112 -0.5636
  431MPD2     H 6429   4.429   2.789  12.246  0.2030 -3.9283 -1.1668
  431MPD2    H1 6430   4.183   2.500  12.439 -1.1097  0.3517 -2.0599
  431MPD2    H2 6431   4.282   2.863  12.634 -1.7666 -2.2517  1.7262
  431MPD2    H3 6432   4.182   2.638  12.627 -1.8875 -1.2233 -1.7018
  431MPD2     N 6433   4.316   2.543  12.215 -0.8243 -0.7031 -0.1756
  431MPD2    H5 6434   4.292   2.446  12.230 -2.6346 -0.3496 -0.7769
  431MPD2    N1 6435   4.439   2.962  12.434  0.2396 -0.0247 -0.2691
  431MPD2    H7 6436   4.491   2.982  12.350  1.2592  2.8180  1.0397
  432TMC3    C1 6437   4.418   2.453  12.027  0.7577 -0.1933  0.3432
  432TMC3    C2 6438   4.454   2.480  11.898  0.2288 -0.2223 -0.9306
  432TMC3    C3 6439   4.523   2.378  11.850  0.7528 -0.0465 -0.5024
  432TMC3    C4 6440   4.445   2.344  12.109  0.1931 -0.2544  0.0270
  432TMC3    C5 6441   4.527   2.253  12.047 -0.4128 -0.2678  0.8302
  432TMC3    C6 6442   4.563   2.264  11.915  0.6487 -0.6476  0.2858
  432TMC3     C 6443   4.373   2.576  12.097  0.0508 -0.5360 -0.2573
  432TMC3     O 6444   4.385   2.684  12.038  0.4825 -0.1241 -0.4139
  432TMC3     H 6445   4.427   2.574  11.850 -1.1605 -0.0094  0.2751
  432TMC3    H1 6446   4.424   2.346  12.215 -0.8081 -0.6545 -0.1580
  432TMC3    H2 6447   4.634   2.191  11.877 -0.3681 -0.9771 -1.0188
  432TMC3    C7 6448   4.606   2.152  12.130 -0.1667 -0.2915 -0.1267
  432TMC3    C8 6449   4.582   2.388  11.720  0.2675  0.0913 -0.1546
  432TMC3    O1 6450   4.714   2.121  12.077 -0.8235  0.4901 -0.5270
  432TMC3    O2 6451   4.628   2.278  11.680 -0.5074 -0.0419  0.3165
  433MPD2     C 6452   3.578   1.894  10.869 -0.3334  0.3006 -0.2360
  433MPD2    C1 6453   3.571   1.768  10.929  0.1703 -1.3576 -0.5278
  433MPD2    C2 6454   3.555   1.762  11.067  0.3263  0.2386  0.0409
  433MPD2    C3 6455   3.544   1.877  11.145 -0.0632 -0.2976  0.2917
  433MPD2    C4 6456   3.566   1.996  11.083 -0.1903 -0.6459  0.1080
  433MPD2    C5 6457   3.587   2.001  10.947 -0.5999 -0.1211 -0.2960
  433MPD2     H 6458   3.549   1.659  11.103 -0.6177 -0.2388 -1.4992
  433MPD2    H1 6459   3.572   2.088  11.140  1.0915 -1.4194  1.1896
  433MPD2    H2 6460   3.600   1.900  10.763  0.6064 -1.2983 -0.1205
  433MPD2    H3 6461   3.606   2.101  10.910 -1.3679  0.1070 -0.0770
  433MPD2     N 6462   3.514   1.868  11.288 -0.1324  0.2223 -0.1677
  433MPD2    H5 6463   3.476   1.780  11.319  1.7658 -0.7398 -0.5746
  433MPD2    N1 6464   3.585   1.642  10.860  0.3210 -0.0727 -0.3211
  433MPD2    H7 6465   3.608   1.561  10.917  0.0383 -0.2127 -0.4039
  434TMC3    C1 6466   3.660   1.490  10.698 -0.3774 -0.3327  0.2083
  434TMC3    C2 6467   3.710   1.414  10.798  0.0257 -0.1979 -0.0071
  434TMC3    C3 6468   3.750   1.292  10.770  0.7975 -0.4713  1.0094
  434TMC3    C4 6469   3.647   1.430  10.572  0.3262  0.5000  0.0811
  434TMC3    C5 6470   3.688   1.301  10.544  0.5724 -0.0722 -0.2031
  434TMC3    C6 6471   3.749   1.235  10.646  0.1328  0.6683  0.8585
  434TMC3     C 6472   3.607   1.625  10.725  0.8369  0.3343  0.6431
  434TMC3     O 6473   3.593   1.702  10.632 -0.2267 -0.0855 -0.1464
  434TMC3     H 6474   3.739   1.445  10.898 -2.7297  0.5641  0.5431
  434TMC3    H1 6475   3.610   1.489  10.489  0.8422 -0.1682 -0.6304
  434TMC3    H2 6476   3.794   1.137  10.638  0.5742  1.0609 -1.4789
  434TMC3    C7 6477   3.656   1.249  10.408 -0.1122 -0.2405  0.1497
  434TMC3    C8 6478   3.820   1.223  10.884 -0.3580  0.2594 -0.3818
  434TMC3    O1 6479   3.610   1.322  10.321 -0.5776 -0.3636 -0.1571
  434TMC3    O2 6480   3.872   1.290  10.973  0.7034  0.3944  0.6241
  435MPD2     C 6481   0.232   1.932  15.636  0.4218 -0.5725  0.3332
  435MPD2    C1 6482   0.183   1.806  15.682 -0.4727 -0.3584  0.2686
  435MPD2    C2 6483   0.285   1.710  15.703  1.0226 -0.6596  0.0579
  435MPD2    C3 6484   0.421   1.744  15.694  0.1816  0.2021  0.6552
  435MPD2    C4 6485   0.461   1.861  15.650 -0.1334  0.3084  0.5105
  435MPD2    C5 6486   0.366   1.953  15.616  0.9328 -0.5784  0.4095
  435MPD2     H 6487   0.267   1.610  15.740  1.0096 -1.0285 -0.9390
  435MPD2    H1 6488   0.562   1.896  15.670  0.4359  0.1596 -2.1669
  435MPD2    H2 6489   0.168   2.014  15.606  2.5773  0.5379 -1.2716
  435MPD2    H3 6490   0.397   2.051  15.581 -0.9861  0.3919  1.4299
  435MPD2     N 6491   0.510   1.641  15.731  0.4352 -0.2545 -0.6533
  435MPD2    H5 6492   0.465   1.560  15.772  2.3083 -1.2147 -0.5302
  435MPD2    N1 6493   0.045   1.776  15.688 -0.3658  0.3958 -0.1086
  435MPD2    H7 6494   0.020   1.680  15.710  0.7428 -0.1688 -1.3220
  436TMC3    C1 6495   4.309   1.856  15.621  0.0784  0.2428 -0.9633
  436TMC3    C2 6496   4.429   1.906  15.661  0.4001  0.1457 -0.7760
  436TMC3    C3 6497   4.539   1.821  15.650 -0.6120 -0.5294 -0.2529
  436TMC3    C4 6498   4.290   1.742  15.552  0.0603 -0.1632 -0.6382
  436TMC3    C5 6499   4.402   1.673  15.522 -0.1252 -0.1894 -0.3636
  436TMC3    C6 6500   4.527   1.709  15.574  0.2091  0.2158  0.3836
  436TMC3     C 6501   4.196   1.939  15.664  0.0066  0.0914 -0.0505
  436TMC3     O 6502   4.105   1.938  15.589 -0.3859  0.3353 -0.0306
  436TMC3     H 6503   4.447   2.004  15.702 -0.2730 -0.5354  1.1255
  436TMC3    H1 6504   4.189   1.725  15.518  0.3752  1.5107 -2.4740
  436TMC3    H2 6505   4.620   1.665  15.540 -1.5783 -1.6042 -2.1301
  436TMC3    C7 6506   4.403   1.565  15.420  0.0928  0.9148  0.0352
  436TMC3    C8 6507   4.670   1.875  15.672 -0.2421 -0.3437 -0.0264
  436TMC3    O1 6508   4.512   1.532  15.372 -0.4392  0.1845 -1.0792
  436TMC3    O2 6509   4.686   1.995  15.689 -0.8232 -0.0151 -0.6826
  437TMC3    C1 6510   3.734   3.570  12.668 -0.6724 -0.2066  0.4912
  437TMC3    C2 6511   3.613   3.638  12.658  0.1924  0.0664 -0.2671
  437TMC3    C3 6512   3.594   3.716  12.544  0.0024  0.3135 -0.1433
  437TMC3    C4 6513   3.841   3.583  12.577 -0.5482  0.5450 -1.1792
  437TMC3    C5 6514   3.814   3.670  12.475 -0.2151  0.5215  0.6537
  437TMC3    C6 6515   3.695   3.729  12.456  0.8035 -0.2461 -0.4003
  437TMC3     C 6516   3.766   3.492  12.792 -0.2073  0.8483 -0.7441
  437TMC3     O 6517   3.670   3.434  12.836  0.9578 -0.4837  0.2452
  437TMC3     H 6518   3.530   3.623  12.726  0.2167 -0.0296 -0.2579
  437TMC3    H1 6519   3.929   3.521  12.572 -1.3861 -0.6608 -1.0171
  437TMC3    H2 6520   3.681   3.797  12.373 -0.4543  1.3244  1.0987
  437TMC3    C7 6521   3.922   3.699  12.380 -0.5537  0.2470 -0.6818
  437TMC3    C8 6522   3.473   3.802  12.533  0.2963 -0.4568  0.1540
  437TMC3    O1 6523   3.900   3.700  12.260 -0.2391 -0.1350 -0.1761
  437TMC3    O2 6524   3.484   3.910  12.475  0.4495 -0.4287 -0.1272
  438MPD2     C 6525   1.321   4.299  16.814 -0.6399 -0.4440  0.7275
  438MPD2    C1 6526   1.416   4.192  16.813  0.2304  0.1053 -0.5631
  438MPD2    C2 6527   1.395   4.096  16.902  0.3333 -0.5770 -0.8874
  438MPD2    C3 6528   1.283   4.101  16.985  0.8742 -0.4736 -0.4202
  438MPD2    C4 6529   1.194   4.212  16.983 -0.6484  0.2584  1.1541
  438MPD2    C5 6530   1.218   4.321  16.901 -0.1316 -0.1673  0.2010
  438MPD2     H 6531   1.465   4.014  16.906  0.2390 -0.5737  0.5999
  438MPD2    H1 6532   1.100   4.209  17.038  0.5597  0.9074  3.2834
  438MPD2    H2 6533   1.332   4.378  16.740 -0.0264 -4.2670 -3.2344
  438MPD2    H3 6534   1.160   4.412  16.888  1.7098  0.7476 -1.7344
  438MPD2     N 6535   1.243   3.995  17.071 -0.6015  1.4137 -0.5767
  438MPD2    H5 6536   1.154   4.005  17.118 -0.4986 -3.1854  0.6731
  438MPD2    N1 6537   1.519   4.185  16.719  0.0695  0.4387  0.8720
  438MPD2    H7 6538   1.548   4.278  16.691 -0.3059  0.9175  2.0611
  439TMC3    C1 6539   1.677   4.078  16.586 -0.2487 -0.3366  0.1634
  439TMC3    C2 6540   1.704   3.987  16.486 -0.4938 -0.4213 -0.5595
  439TMC3    C3 6541   1.833   3.986  16.426 -0.1130 -0.4396 -0.1335
  439TMC3    C4 6542   1.790   4.147  16.646 -0.2541  0.4088  0.0090
  439TMC3    C5 6543   1.906   4.147  16.579 -0.2301 -0.1636 -0.4738
  439TMC3    C6 6544   1.935   4.068  16.475 -0.3341  0.9109  0.6025
  439TMC3     C 6545   1.562   4.068  16.661  0.0608  0.8553 -0.2581
  439TMC3     O 6546   1.507   3.958  16.657  0.0334  0.1614  0.6637
  439TMC3     H 6547   1.621   3.928  16.448 -1.4853 -1.2625  2.8777
  439TMC3    H1 6548   1.776   4.206  16.737  1.6233  1.2080 -0.2189
  439TMC3    H2 6549   2.039   4.065  16.444 -0.4573  0.9715  0.1941
  439TMC3    C7 6550   2.024   4.173  16.652  0.2848 -0.7759  0.1064
  439TMC3    C8 6551   1.876   3.867  16.373  0.1908  0.2947 -0.7721
  439TMC3    O1 6552   2.110   4.085  16.654  0.7071  0.1171 -0.1804
  439TMC3    O2 6553   1.998   3.849  16.380  0.2940  0.0131  0.2086
  440MPD2     C 6554   0.171   4.132  15.236 -0.7973  0.0223 -0.0786
  440MPD2    C1 6555   0.288   4.145  15.306  0.6883 -0.0853 -0.1549
  440MPD2    C2 6556   0.350   4.031  15.337  0.6107  0.7130  0.3774
  440MPD2    C3 6557   0.285   3.905  15.329 -0.3716  0.1385  0.9179
  440MPD2    C4 6558   0.166   3.894  15.273 -0.6072  0.0703  0.6228
  440MPD2    C5 6559   0.110   4.014  15.221  0.0090 -0.2732  0.5136
  440MPD2     H 6560   0.439   4.039  15.398 -1.0739 -0.0272  2.9317
  440MPD2    H1 6561   0.114   3.802  15.251  0.5766 -0.8215  1.5510
  440MPD2    H2 6562   0.122   4.222  15.200  1.3814  1.4553  0.4904
  440MPD2    H3 6563   0.017   4.007  15.166  0.4220 -1.4380 -0.0401
  440MPD2     N 6564   0.337   3.785  15.372  0.2881  0.5556  0.0972
  440MPD2    H5 6565   0.274   3.706  15.368 -0.5686  1.2764 -0.8682
  440MPD2    N1 6566   0.349   4.263  15.348 -0.5150 -0.6084  0.0049
  440MPD2    H7 6567   0.435   4.259  15.403  0.3501  1.2676 -1.1842
  441TMC3    C1 6568   0.497   3.635  15.447  0.6276 -0.4722 -0.1144
  441TMC3    C2 6569   0.632   3.623  15.451 -0.0960  0.1436 -0.4785
  441TMC3    C3 6570   0.695   3.578  15.567  0.8920 -0.1441  0.0269
  441TMC3    C4 6571   0.425   3.596  15.556  0.3693  0.9090 -0.2657
  441TMC3    C5 6572   0.489   3.559  15.669 -0.1014  0.1971  0.8016
  441TMC3    C6 6573   0.624   3.552  15.680 -0.0699  0.9602 -0.3466
  441TMC3     C 6574   0.470   3.765  15.399 -0.3026  0.0634 -1.2620
  441TMC3     O 6575   0.567   3.845  15.400 -0.2320  0.0024 -0.7564
  441TMC3     H 6576   0.683   3.629  15.355  1.3007 -0.2083  0.2494
  441TMC3    H1 6577   0.317   3.587  15.558  0.4912 -0.3337  0.9236
  441TMC3    H2 6578   0.661   3.551  15.782  0.0755  2.3740 -0.3765
  441TMC3    C7 6579   0.433   3.635  15.776  0.6046  0.6958 -0.0213
  441TMC3    C8 6580   0.813   3.648  15.607  0.1233  0.2039  0.3181
  441TMC3    O1 6581   0.398   3.747  15.752 -0.6993 -0.3106  0.4729
  441TMC3    O2 6582   0.877   3.595  15.696  0.0293 -0.4783 -0.2424
  442MPD2     C 6583   3.710   0.698  16.752 -0.2980 -0.1646 -0.2039
  442MPD2    C1 6584   3.580   0.656  16.728  0.0636 -0.1748 -0.4871
  442MPD2    C2 6585   3.550   0.541  16.652  0.6291  0.0209 -1.3277
  442MPD2    C3 6586   3.654   0.462  16.606  0.4402  0.2424 -0.0232
  442MPD2    C4 6587   3.781   0.498  16.637  0.1493  0.7156 -0.4232
  442MPD2    C5 6588   3.811   0.623  16.699 -0.5976  0.2334 -0.1020
  442MPD2     H 6589   3.446   0.519  16.633  1.0326 -2.1250 -1.0152
  442MPD2    H1 6590   3.863   0.431  16.615 -0.8856 -1.5252  2.5561
  442MPD2    H2 6591   3.743   0.791  16.798 -1.0830  0.6336 -1.2458
  442MPD2    H3 6592   3.915   0.655  16.706 -0.5634  0.1482 -0.2054
  442MPD2     N 6593   3.635   0.366  16.508 -0.3070  0.4903 -0.3564
  442MPD2    H5 6594   3.722   0.321  16.482 -1.0446 -1.1924  0.1324
  442MPD2    N1 6595   3.475   0.730  16.782 -0.4277 -0.4795  0.5926
  442MPD2    H7 6596   3.385   0.683  16.787  0.1184 -1.6181 -0.3515
  443TMC3    C1 6597   3.357   0.914  16.868 -0.5162  0.0981  0.2440
  443TMC3    C2 6598   3.259   0.901  16.770  0.5935 -0.0778  0.1912
  443TMC3    C3 6599   3.127   0.900  16.810 -0.1103  0.0836  0.0935
  443TMC3    C4 6600   3.312   0.928  16.999  0.0490 -0.8365  0.1725
  443TMC3    C5 6601   3.179   0.933  17.033  0.2915 -0.3557  0.4303
  443TMC3    C6 6602   3.086   0.914  16.937  0.0413 -0.2473 -0.8039
  443TMC3     C 6603   3.484   0.851  16.843 -0.3742 -0.6780 -0.0312
  443TMC3     O 6604   3.584   0.921  16.867  0.0967  0.2900 -0.2242
  443TMC3     H 6605   3.285   0.857  16.675  2.0484 -1.8288  1.3940
  443TMC3    H1 6606   3.388   0.926  17.077  0.4648 -2.2111 -0.2781
  443TMC3    H2 6607   2.984   0.946  16.953 -0.6283 -3.1048  0.5748
  443TMC3    C7 6608   3.155   0.878  17.162 -0.1406  0.0739  0.2213
  443TMC3    C8 6609   3.023   0.861  16.706 -0.8445  0.5222 -1.1007
  443TMC3    O1 6610   3.243   0.909  17.245 -0.1702 -0.5276 -0.0121
  443TMC3    O2 6611   2.949   0.769  16.724 -0.2704  0.4399  0.2459
  444MPD2     C 6612   3.836   0.210  17.320 -0.1442 -0.2677  0.4292
  444MPD2    C1 6613   3.736   0.128  17.273  1.0404 -0.5196 -0.3482
  444MPD2    C2 6614   3.776   0.020  17.203 -0.1907 -0.5014 -0.5180
  444MPD2    C3 6615   3.909   4.710  17.188 -0.3693 -0.4800 -0.3029
  444MPD2    C4 6616   4.010   0.068  17.235  0.8555 -0.1352  0.3015
  444MPD2    C5 6617   3.970   0.176  17.307 -0.4675 -0.0976  0.3127
  444MPD2     H 6618   3.711   4.668  17.163  0.7995 -1.9500  0.7106
  444MPD2    H1 6619   4.118   0.055  17.227  0.8971  0.1121  0.4655
  444MPD2    H2 6620   3.825   0.299  17.381 -2.9064 -0.7688  0.6373
  444MPD2    H3 6621   4.048   0.234  17.354  0.5809 -0.8144 -0.5388
  444MPD2     N 6622   3.933   4.595  17.106  0.5487  0.0148 -0.6427
  444MPD2    H5 6623   3.857   4.552  17.055  0.4279 -0.2299 -0.2567
  444MPD2    N1 6624   3.597   0.155  17.296  0.0950  0.0008  0.7330
  444MPD2    H7 6625   3.538   0.088  17.248  0.7285 -0.6854  0.9067
  445TMC3    C1 6626   4.058   4.431  16.991 -0.5343 -0.3053  0.4365
  445TMC3    C2 6627   3.940   4.389  16.929 -0.6990  0.5312 -0.0645
  445TMC3    C3 6628   3.951   4.318  16.813 -1.5735 -0.0085 -0.0120
  445TMC3    C4 6629   4.176   4.382  16.941 -0.3203  0.5369  0.6882
  445TMC3    C5 6630   4.178   4.297  16.834  0.1931  0.2067 -0.1407
  445TMC3    C6 6631   4.068   4.260  16.767  0.3512  0.2653 -1.0172
  445TMC3     C 6632   4.058   4.545  17.080  0.5465  0.7005 -0.0356
  445TMC3     O 6633   4.168   4.582  17.119 -0.3297 -0.8146  0.7373
  445TMC3     H 6634   3.849   4.415  16.981 -0.5554  1.4025 -0.2430
  445TMC3    H1 6635   4.264   4.417  16.993 -1.1678  0.3191  2.2691
  445TMC3    H2 6636   4.070   4.179  16.695 -0.0499 -1.2622  0.7083
  445TMC3    C7 6637   4.299   4.235  16.784  0.1155 -0.7662 -0.0816
  445TMC3    C8 6638   3.827   4.290  16.749 -0.7323 -0.6940 -0.0587
  445TMC3    O1 6639   4.288   4.177  16.678 -0.4358  0.1360  0.5916
  445TMC3    O2 6640   3.723   4.338  16.800 -0.2761  0.2051  0.1799
  446MPD2     C 6641   3.528   0.958  11.370 -1.2880 -0.6321 -0.0317
  446MPD2    C1 6642   3.535   1.008  11.237 -0.1662  0.5075  1.4185
  446MPD2    C2 6643   3.601   1.124  11.220 -0.8925 -0.2121  0.4972
  446MPD2    C3 6644   3.683   1.176  11.322 -0.3607  0.4978  0.3052
  446MPD2    C4 6645   3.680   1.129  11.452 -0.0466  0.3401 -0.7049
  446MPD2    C5 6646   3.600   1.017  11.474 -0.1653  0.3829 -0.2820
  446MPD2     H 6647   3.610   1.160  11.118 -1.2812  0.8179  0.8368
  446MPD2    H1 6648   3.732   1.178  11.534  0.1970  0.0096 -0.6611
  446MPD2    H2 6649   3.472   0.872  11.405  1.7523 -2.3766  0.5007
  446MPD2    H3 6650   3.584   0.977  11.574  2.1434 -1.0156 -0.4808
  446MPD2     N 6651   3.771   1.284  11.294  0.1387 -0.1259  0.1395
  446MPD2    H5 6652   3.783   1.302  11.195  1.2848  0.9445  0.4751
  446MPD2    N1 6653   3.459   0.950  11.132  0.3582 -0.7964  0.3410
  446MPD2    H7 6654   3.439   1.003  11.047 -0.2312 -0.5793  0.6176
  447TMC3    C1 6655   3.955   1.438  11.298 -0.5294  1.0361 -0.2929
  447TMC3    C2 6656   3.917   1.496  11.181  0.1179  0.2267  0.1526
  447TMC3    C3 6657   4.012   1.551  11.102  0.1218  0.6039  0.0662
  447TMC3    C4 6658   4.075   1.458  11.355 -0.4971  0.2197  0.4463
  447TMC3    C5 6659   4.170   1.521  11.282  0.1948 -0.4741 -0.4178
  447TMC3    C6 6660   4.141   1.568  11.154  0.3530  0.6431  0.9138
  447TMC3     C 6661   3.872   1.332  11.369 -0.1714  0.0984 -0.0469
  447TMC3     O 6662   3.919   1.291  11.475 -0.6815 -0.0390 -0.3291
  447TMC3     H 6663   3.825   1.466  11.132  1.1594 -1.2230 -0.9287
  447TMC3    H1 6664   4.092   1.442  11.461  0.5176 -0.9065  0.1088
  447TMC3    H2 6665   4.225   1.587  11.089 -0.9434  0.6837 -0.7342
  447TMC3    C7 6666   4.303   1.479  11.309  0.2475 -0.3428 -0.5201
  447TMC3    C8 6667   3.964   1.612  10.980  0.3042  0.2882  0.2967
  447TMC3    O1 6668   4.380   1.467  11.214 -0.8090 -0.4883  0.1680
  447TMC3    O2 6669   3.845   1.628  10.964 -0.3051  0.1898  0.4749
  448TMC3    C1 6670   1.911   1.216  17.286 -0.0951 -0.0456 -0.8392
  448TMC3    C2 6671   1.943   1.105  17.217  0.0475 -0.3280  0.0870
  448TMC3    C3 6672   1.874   0.989  17.241 -0.5123  0.5131  0.7266
  448TMC3    C4 6673   1.814   1.210  17.387  0.5929  0.6527  0.1542
  448TMC3    C5 6674   1.748   1.091  17.416  0.1450 -0.0970 -0.2677
  448TMC3    C6 6675   1.783   0.978  17.342 -0.7804  0.0388 -0.1322
  448TMC3     C 6676   2.019   1.317  17.300  0.0400  0.0251 -0.1912
  448TMC3     O 6677   2.024   1.365  17.411 -0.3518 -0.6842 -0.4347
  448TMC3     H 6678   2.014   1.102  17.135 -1.8212  0.4141 -1.5670
  448TMC3    H1 6679   1.787   1.301  17.440 -0.9551 -0.4021  1.1985
  448TMC3    H2 6680   1.727   0.887  17.363 -0.8657 -0.0132 -0.5777
  448TMC3    C7 6681   1.668   1.100  17.531  0.1074  0.3623 -0.3564
  448TMC3    C8 6682   1.892   0.882  17.141  0.3330  0.1917 -0.2142
  448TMC3    O1 6683   1.603   1.206  17.542  0.3011 -0.5525  0.8246
  448TMC3    O2 6684   1.984   0.883  17.062  0.1719  0.0785  0.4827
  449MPD2     C 6685   3.396   4.021  13.824  0.1086  0.0383 -0.4077
  449MPD2    C1 6686   3.267   4.010  13.756 -0.2291 -0.8486  0.5295
  449MPD2    C2 6687   3.179   3.911  13.795  0.2993  0.1819  0.1962
  449MPD2    C3 6688   3.203   3.824  13.897  0.7731 -0.6805 -0.0319
  449MPD2    C4 6689   3.319   3.841  13.968  0.3867  0.1251  0.3724
  449MPD2    C5 6690   3.412   3.936  13.930 -0.4712 -0.1082  0.5602
  449MPD2     H 6691   3.083   3.897  13.747  0.1980 -1.3010  0.8195
  449MPD2    H1 6692   3.338   3.774  14.051 -0.4538  0.5249  0.8868
  449MPD2    H2 6693   3.458   4.107  13.803 -0.2510  0.4287  0.1296
  449MPD2    H3 6694   3.502   3.944  13.990  0.1566  0.9985 -0.5386
  449MPD2     N 6695   3.102   3.732  13.921 -0.3359 -0.5674 -0.4257
  449MPD2    H5 6696   3.016   3.737  13.867 -0.8148  1.4502  0.5706
  449MPD2    N1 6697   3.216   4.102  13.661  0.8226  0.3870  0.9862
  449MPD2    H7 6698   3.122   4.083  13.627  0.7407  1.4141  0.6499
  450TMC3    C1 6699   3.202   4.255  13.498  0.4913 -0.2036 -0.1129
  450TMC3    C2 6700   3.241   4.233  13.371  0.1969  0.1883 -0.3323
  450TMC3    C3 6701   3.148   4.221  13.275 -0.5233 -0.3735  0.3797
  450TMC3    C4 6702   3.070   4.257  13.523 -0.5461  0.1718 -0.2439
  450TMC3    C5 6703   2.974   4.236  13.427 -1.3694 -0.4647  0.1452
  450TMC3    C6 6704   3.014   4.219  13.300 -0.3777 -0.0767  0.4098
  450TMC3     C 6705   3.290   4.204  13.603 -0.0073  0.3832 -0.4876
  450TMC3     O 6706   3.411   4.224  13.601 -0.1818  0.1391 -0.3674
  450TMC3     H 6707   3.347   4.228  13.350 -0.3090 -2.5374 -2.2736
  450TMC3    H1 6708   3.048   4.280  13.627  0.3917  0.9703 -0.2219
  450TMC3    H2 6709   2.940   4.210  13.221 -1.4464 -2.3402  1.7014
  450TMC3    C7 6710   2.899   4.125  13.474 -0.0584 -0.0063 -0.3514
  450TMC3    C8 6711   3.178   4.169  13.139  0.4896  0.1804  0.3789
  450TMC3    O1 6712   2.952   4.072  13.569 -0.3347 -0.1454 -0.3131
  450TMC3    O2 6713   3.108   4.214  13.048 -0.1504  0.4781 -0.1354
  451MPD2     C 6714   4.641   2.995   0.933 -0.0747 -0.3790 -0.0906
  451MPD2    C1 6715   4.622   3.067   1.044 -0.2320  0.1028 -0.1654
  451MPD2    C2 6716   0.004   3.121   1.109 -0.9118 -0.3243 -0.2434
  451MPD2    C3 6717   0.134   3.078   1.066 -0.0098  0.5706 -0.1608
  451MPD2    C4 6718   0.155   3.005   0.956 -0.8222  0.4323  0.4732
  451MPD2    C5 6719   0.045   2.969   0.887  0.1198  0.0320 -0.0061
  451MPD2     H 6720   4.713   3.177   1.201  0.7734 -1.5850  0.8208
  451MPD2    H1 6721   0.251   2.990   0.908 -1.5002 -1.2049 -0.3774
  451MPD2    H2 6722   4.553   2.966   0.876 -0.5036  0.0268  0.3693
  451MPD2    H3 6723   0.060   2.906   0.800  1.9985  0.3285  0.0931
  451MPD2     N 6724   0.248   3.117   1.133  0.5897 -0.6473 -0.4491
  451MPD2    H5 6725   0.336   3.078   1.101  0.8662  0.1991 -0.7083
  451MPD2    N1 6726   4.485   3.089   1.073 -0.1697 -0.6712  0.1579
  451MPD2    H7 6727   4.420   3.034   1.018  0.3119  0.6890 -1.7621
  452TMC3    C1 6728   0.394   3.190   1.310  0.4553  0.5771 -0.9731
  452TMC3    C2 6729   0.416   3.275   1.417  0.2583 -0.0639  0.6118
  452TMC3    C3 6730   0.544   3.280   1.462  0.3249 -0.1264  0.2216
  452TMC3    C4 6731   0.488   3.097   1.262  0.1736 -1.0299  0.1788
  452TMC3    C5 6732   0.617   3.116   1.305 -0.8781 -1.4693  0.3063
  452TMC3    C6 6733   0.643   3.208   1.409 -0.4673  0.2129  1.2706
  452TMC3     C 6734   0.257   3.183   1.257  0.1929 -0.4101 -0.0263
  452TMC3     O 6735   0.177   3.238   1.336  0.6818  0.5516 -0.6291
  452TMC3     H 6736   0.340   3.336   1.464  1.5632  2.3843 -0.4101
  452TMC3    H1 6737   0.478   3.023   1.184 -0.0253 -0.2467 -0.5465
  452TMC3    H2 6738   0.744   3.208   1.449  1.5248 -2.1622 -3.8019
  452TMC3    C7 6739   0.721   3.019   1.273  0.6363  0.5883 -0.0851
  452TMC3    C8 6740   0.570   3.295   1.607 -0.1314 -0.3461  0.4748
  452TMC3    O1 6741   0.681   2.916   1.217 -0.0258  0.0742 -0.2143
  452TMC3    O2 6742   0.638   3.205   1.657  0.1895  0.0155  0.3554
  453TMC3    C1 6743   1.191   0.339  11.605  1.3275  0.1901  0.6318
  453TMC3    C2 6744   1.067   0.288  11.578  0.7711  0.6964 -0.5197
  453TMC3    C3 6745   1.045   0.196  11.478 -0.2284 -0.1353 -0.7856
  453TMC3    C4 6746   1.286   0.324  11.508  0.2064 -0.3059  0.3509
  453TMC3    C5 6747   1.266   0.240  11.406 -0.5052 -0.2812 -0.6236
  453TMC3    C6 6748   1.149   0.163  11.392  0.4473 -0.1015  0.8201
  453TMC3     C 6749   1.229   0.370  11.747  0.2131  0.0284 -0.3205
  453TMC3     O 6750   1.339   0.415  11.763 -0.4787 -0.6522  0.4043
  453TMC3     H 6751   0.994   0.285  11.658  0.6143  1.4442 -0.6329
  453TMC3    H1 6752   1.386   0.361  11.525  0.0833  0.5394 -0.8024
  453TMC3    H2 6753   1.156   0.069  11.338 -1.5004 -0.0810  0.5085
  453TMC3    C7 6754   1.373   0.217  11.308 -0.0432 -0.5365  0.9330
  453TMC3    C8 6755   0.953   0.086  11.515  0.4534  0.1850 -0.3197
  453TMC3    O1 6756   1.378   0.109  11.248  0.2636 -0.2327  0.3459
  453TMC3    O2 6757   0.911   0.080  11.626 -0.2043 -0.4308 -0.1699
  454MPD2     C 6758   4.575   4.555  16.460 -0.2559 -0.2081 -0.9065
  454MPD2    C1 6759   4.494   4.440  16.453 -0.5161  1.3463  0.1543
  454MPD2    C2 6760   4.359   4.450  16.495  0.1729 -0.6005  0.3039
  454MPD2    C3 6761   4.303   4.576  16.523 -0.1432  0.1400 -0.0099
  454MPD2    C4 6762   4.386   4.684  16.522  0.5426 -0.4837 -0.1641
  454MPD2    C5 6763   4.521   4.677  16.491  0.2100 -0.5172  0.8560
  454MPD2     H 6764   4.299   4.361  16.507 -2.5406  1.0617 -1.0373
  454MPD2    H1 6765   4.343   0.056  16.544 -0.0780 -0.1215 -2.9958
  454MPD2    H2 6766   4.680   4.547  16.433  0.0938  2.3030 -0.2861
  454MPD2    H3 6767   4.585   0.039  16.492  0.0678 -0.3955 -0.9244
  454MPD2     N 6768   4.165   4.595  16.532 -0.0891  0.1298  0.1855
  454MPD2    H5 6769   4.135   4.690  16.555  1.3708  0.5875  0.2389
  454MPD2    N1 6770   4.539   4.314  16.400 -0.2400 -0.3133 -0.3116
  454MPD2    H7 6771   4.639   4.303  16.402 -0.0134  1.9494  0.8298
  455TMC3    C1 6772   3.938   4.564  16.485  0.9105  0.2055 -0.3497
  455TMC3    C2 6773   3.887   4.622  16.596 -0.0447 -0.1650 -0.5756
  455TMC3    C3 6774   3.755   4.642  16.620  0.1077 -0.6506 -1.4364
  455TMC3    C4 6775   3.849   4.523  16.389 -0.5943  0.2924 -0.8659
  455TMC3    C5 6776   3.714   4.549  16.408  0.2884  0.1944 -0.1768
  455TMC3    C6 6777   3.665   4.605  16.522 -0.1314  0.2315 -0.5630
  455TMC3     C 6778   4.068   4.505  16.489  0.5346  0.1244 -0.0260
  455TMC3     O 6779   4.076   4.390  16.447 -0.1677  0.3124 -0.1334
  455TMC3     H 6780   3.962   4.653  16.668  0.9798  1.1759 -2.2047
  455TMC3    H1 6781   3.894   4.479  16.300  2.2398  0.6704  0.3947
  455TMC3    H2 6782   3.558   4.621  16.535  0.1013 -0.3771  2.0611
  455TMC3    C7 6783   3.618   4.481  16.322  0.0040  0.1474 -0.7309
  455TMC3    C8 6784   3.726   0.006  16.734 -0.2447  0.2008 -0.2042
  455TMC3    O1 6785   3.495   4.493  16.341  0.2995  0.1967  0.0217
  455TMC3    O2 6786   3.825   0.021  16.806 -0.2834  0.3317  0.1653
  456MPD2     C 6787   2.107   4.362  16.333 -0.0352  0.7812 -0.1114
  456MPD2    C1 6788   2.234   4.402  16.377 -0.5595 -0.1772 -0.6145
  456MPD2    C2 6789   2.248   4.530  16.435  0.6553  0.4168  0.0343
  456MPD2    C3 6790   2.133   4.607  16.457  0.5391 -0.6120 -0.5038
  456MPD2    C4 6791   2.005   4.559  16.422  0.0359  0.0940  0.6194
  456MPD2    C5 6792   1.994   4.437  16.360 -0.4334 -0.0022 -0.2929
  456MPD2     H 6793   2.350   4.562  16.454  0.0452  1.9210  0.7078
  456MPD2    H1 6794   1.919   4.619  16.449 -0.3568 -0.0226 -0.3981
  456MPD2    H2 6795   2.093   4.270  16.277  2.8956  0.1251  0.2184
  456MPD2    H3 6796   1.896   4.415  16.320 -0.4543 -0.6382  0.1082
  456MPD2     N 6797   2.148   4.718  16.543 -0.0808 -0.6502  0.1347
  456MPD2    H5 6798   2.245   0.001  16.574 -0.4404  0.3597  0.9954
  456MPD2    N1 6799   2.338   4.312  16.340  0.1433 -0.0046 -0.2240
  456MPD2    H7 6800   2.305   4.220  16.314  0.9947 -1.3325  3.4124
  457TMC3    C1 6801   2.094   0.178  16.683  0.1505 -0.5048 -0.2785
  457TMC3    C2 6802   2.067   0.304  16.650 -0.1960 -0.0139  0.0815
  457TMC3    C3 6803   2.117   0.401  16.734 -0.1084  0.5484 -0.0368
  457TMC3    C4 6804   2.183   0.134  16.779 -0.6361 -0.0282 -0.1600
  457TMC3    C5 6805   2.235   0.231  16.858 -0.2745  0.5264  0.2638
  457TMC3    C6 6806   2.207   0.364  16.832  0.5548 -0.4923  0.5465
  457TMC3     C 6807   2.055   0.085  16.576  0.5221 -0.2706 -0.0127
  457TMC3     O 6808   1.947   0.109  16.529 -0.4023 -0.6091 -0.4185
  457TMC3     H 6809   2.010   0.322  16.560 -4.2350  1.7253  3.0090
  457TMC3    H1 6810   2.206   0.032  16.806  1.3556  0.9324  1.7195
  457TMC3    H2 6811   2.227   0.437  16.909 -2.0650  0.9978 -0.1973
  457TMC3    C7 6812   2.277   0.199  16.994  0.2046 -0.1743  0.0986
  457TMC3    C8 6813   2.036   0.518  16.771  0.3215 -0.3587  0.1584
  457TMC3    O1 6814   2.223   0.106  17.049  0.1725 -0.0453  0.1948
  457TMC3    O2 6815   2.094   0.622  16.805 -0.3495  0.2963 -0.6628
  458MPD2     C 6816   4.414   3.820  12.237  0.7372 -0.5725  0.1463
  458MPD2    C1 6817   4.412   3.790  12.376  0.5100  0.3008 -0.3258
  458MPD2    C2 6818   4.292   3.743  12.433 -0.0664 -0.5264  0.3932
  458MPD2    C3 6819   4.169   3.744  12.364 -0.1683  0.0826  0.2300
  458MPD2    C4 6820   4.178   3.772  12.233 -0.3360  0.7065 -0.0664
  458MPD2    C5 6821   4.296   3.813  12.174 -1.2604 -0.0167 -0.2839
  458MPD2     H 6822   4.283   3.722  12.539 -1.3259  2.3955  0.8869
  458MPD2    H1 6823   4.089   3.769  12.172  0.0262 -0.5150 -0.5351
  458MPD2    H2 6824   4.504   3.850  12.184  0.4508 -2.6607 -1.5053
  458MPD2    H3 6825   4.295   3.823  12.066  1.4660  1.4974 -0.1789
  458MPD2     N 6826   4.043   3.708  12.437 -0.1710  1.0436  0.2574
  458MPD2    H5 6827   4.057   3.709  12.537  0.4232  1.1194  0.1723
  458MPD2    N1 6828   4.527   3.807  12.445 -0.4001 -0.2584  0.4927
  458MPD2    H7 6829   4.600   3.853  12.393  1.6025 -1.7291  2.0116
  459TMC3    C1 6830   4.681   3.783  12.627  0.3611  0.7036  0.7574
  459TMC3    C2 6831   0.036   3.885  12.577  0.2017 -0.3065  1.4191
  459TMC3    C3 6832   0.142   3.929  12.659 -0.6668 -0.0602 -0.3454
  459TMC3    C4 6833   4.723   3.719  12.732 -0.3770 -0.9761  1.0987
  459TMC3    C5 6834   0.091   3.767  12.817 -0.0708 -0.6420 -0.0663
  459TMC3    C6 6835   0.171   3.872  12.780 -0.2981 -0.1219  0.2797
  459TMC3     C 6836   4.548   3.768  12.573  0.4771 -0.3442 -0.2271
  459TMC3     O 6837   4.470   3.714  12.652  0.2734 -0.2915 -0.2768
  459TMC3     H 6838   0.003   3.947  12.494  0.6730 -1.1325  0.6245
  459TMC3    H1 6839   4.665   3.630  12.753 -2.7390  0.2771 -0.1245
  459TMC3    H2 6840   0.254   3.897  12.845 -0.1084 -0.1632  0.0543
  459TMC3    C7 6841   0.098   3.707  12.949  0.0975  0.3262 -0.9462
  459TMC3    C8 6842   0.245   4.020  12.615 -0.3863 -0.6517 -0.2689
  459TMC3    O1 6843   0.020   3.618  12.966  0.3958 -0.8927  0.3130
  459TMC3    O2 6844   0.335   4.053  12.690  0.7238 -0.4194  0.1582
  460MPD2     C 6845   4.178   1.772  10.726 -0.0300 -0.6235  0.1747
  460MPD2    C1 6846   4.058   1.740  10.787 -0.4745 -0.6533  0.0704
  460MPD2    C2 6847   3.938   1.791  10.739  0.2239  0.4454  0.2980
  460MPD2    C3 6848   3.938   1.856  10.620  0.9725  0.1802 -0.5025
  460MPD2    C4 6849   4.053   1.885  10.555 -0.4057  0.9110  0.4229
  460MPD2    C5 6850   4.171   1.831  10.599  0.5116  0.0673  0.0149
  460MPD2     H 6851   3.841   1.776  10.784  0.3752 -0.4618  0.3293
  460MPD2    H1 6852   4.069   1.936  10.460  0.1265 -1.2240 -0.6288
  460MPD2    H2 6853   4.275   1.744  10.765  0.1236 -0.9434 -0.4254
  460MPD2    H3 6854   4.256   1.844  10.533  1.2210  0.9830  1.1119
  460MPD2     N 6855   3.814   1.890  10.564  0.4953  0.0222  0.8066
  460MPD2    H5 6856   3.726   1.852  10.598  0.3939 -1.8428 -1.5502
  460MPD2    N1 6857   4.065   1.670  10.912  0.8339 -0.4435 -0.2834
  460MPD2    H7 6858   4.157   1.642  10.944  1.0005 -0.7031 -0.9856
  461TMC3    C1 6859   3.649   1.937  10.415 -0.3674 -1.6309  0.1830
  461TMC3    C2 6860   3.618   1.855  10.313 -0.3734  0.0439 -0.1480
  461TMC3    C3 6861   3.485   1.844  10.299  0.0475 -0.8555  0.1661
  461TMC3    C4 6862   3.558   2.010  10.488  0.1133 -0.3799  1.1409
  461TMC3    C5 6863   3.430   1.998  10.459  0.3259 -0.0386  0.5832
  461TMC3    C6 6864   3.388   1.907  10.364  0.0369 -0.6527 -0.1437
  461TMC3     C 6865   3.786   1.950  10.443 -0.0325  0.5917 -0.6609
  461TMC3     O 6866   3.859   1.972  10.348  0.0655 -0.0508 -0.0368
  461TMC3     H 6867   3.693   1.816  10.245 -0.5396  3.0967 -2.0590
  461TMC3    H1 6868   3.598   2.087  10.553 -1.3672  0.9403  0.4787
  461TMC3    H2 6869   3.283   1.889  10.344  0.1578 -0.6113 -0.8001
  461TMC3    C7 6870   3.380   2.127  10.428  0.2292  0.4979 -0.0305
  461TMC3    C8 6871   3.432   1.795  10.174  0.0065  0.6353  0.0380
  461TMC3    O1 6872   3.405   2.221  10.500 -0.3679 -0.3591  0.4074
  461TMC3    O2 6873   3.334   1.853  10.126  0.3174 -0.0053  0.4855
  462TMC3    C1 6874   3.755   3.260   0.178  0.0547  0.4679 -0.0238
  462TMC3    C2 6875   3.860   3.228   0.258  0.4844  0.2388  0.4219
  462TMC3    C3 6876   3.831   3.142   0.361  0.5168  0.1098  0.5967
  462TMC3    C4 6877   3.629   3.222   0.191 -0.4832  0.1658  0.5023
  462TMC3    C5 6878   3.608   3.146   0.303  0.4174 -0.0717  0.1531
  462TMC3    C6 6879   3.705   3.101   0.384 -0.7848  0.4484  0.7767
  462TMC3     C 6880   3.783   3.365   0.090  0.0865 -0.0952  0.5870
  462TMC3     O 6881   3.903   3.389   0.086 -0.6571 -0.0116  0.0406
  462TMC3     H 6882   3.950   3.288   0.273  0.4712  0.1707  0.7945
  462TMC3    H1 6883   3.559   3.242   0.110  1.4397  4.3702 -0.1110
  462TMC3    H2 6884   3.686   3.061   0.482 -0.5758 -0.6242  0.3763
  462TMC3    C7 6885   3.494   3.057   0.305  0.7303 -0.1361  0.1808
  462TMC3    C8 6886   3.938   3.112   0.453  0.4426  0.2348  0.7450
  462TMC3    O1 6887   3.507   2.959   0.385 -0.1731 -0.0058 -0.3750
  462TMC3    O2 6888   3.912   3.075   0.566 -0.5883  0.4772 -0.0517
  463MPD2     C 6889   1.302   0.540   1.898 -0.3510  0.5997  0.6398
  463MPD2    C1 6890   1.249   0.665   1.890  0.0373  0.2540  0.5483
  463MPD2    C2 6891   1.326   0.768   1.844 -0.7039 -0.4662 -0.3432
  463MPD2    C3 6892   1.467   0.746   1.827 -0.4106  0.2286  0.0954
  463MPD2    C4 6893   1.522   0.621   1.842  0.1637  0.4060  0.1515
  463MPD2    C5 6894   1.434   0.518   1.863 -0.5274 -0.0452  0.3139
  463MPD2     H 6895   1.286   0.864   1.812  1.5053  0.3783 -0.5883
  463MPD2    H1 6896   1.629   0.609   1.827  0.6331  0.9273  2.9222
  463MPD2    H2 6897   1.241   0.452   1.917  2.1576 -1.2834 -0.0596
  463MPD2    H3 6898   1.456   0.412   1.865  2.0431  0.4667 -1.7384
  463MPD2     N 6899   1.560   0.848   1.798 -0.1865  0.4411  0.3495
  463MPD2    H5 6900   1.658   0.822   1.795 -0.0153  1.1746 -0.3290
  463MPD2    N1 6901   1.106   0.688   1.915  0.4084  0.0064  0.1023
  463MPD2    H7 6902   1.078   0.785   1.900  0.4159 -0.2848 -1.7962
  464TMC3    C1 6903   0.878   0.645   1.936 -0.2621 -0.3038 -0.2017
  464TMC3    C2 6904   0.843   0.777   1.922 -0.2362 -0.2476 -0.7799
  464TMC3    C3 6905   0.710   0.809   1.908 -0.4450  0.0417 -0.4615
  464TMC3    C4 6906   0.781   0.546   1.944 -0.4860  0.3124 -0.1284
  464TMC3    C5 6907   0.645   0.576   1.932 -0.0501  0.6921 -0.1068
  464TMC3    C6 6908   0.609   0.710   1.910 -0.0628  0.1905 -0.3209
  464TMC3     C 6909   1.015   0.601   1.964  0.2882 -0.4070  0.2430
  464TMC3     O 6910   1.020   0.487   2.003 -0.5728  0.1914  0.0872
  464TMC3     H 6911   0.919   0.853   1.936 -1.0227  0.2928  0.6009
  464TMC3    H1 6912   0.817   0.444   1.953  0.0395  0.5852  0.8350
  464TMC3    H2 6913   0.507   0.742   1.894  0.0370  0.3554 -0.6389
  464TMC3    C7 6914   0.557   0.467   1.913 -0.1543 -0.3824 -0.4394
  464TMC3    C8 6915   0.672   0.951   1.891 -0.5917 -0.0385 -0.2309
  464TMC3    O1 6916   0.617   0.359   1.918 -0.0651  0.0905  0.6487
  464TMC3    O2 6917   0.752   1.031   1.850  0.3950  0.3502  0.0835
  465MPD2     C 6918   1.634   4.469  16.531  0.3820  0.3342  0.3868
  465MPD2    C1 6919   1.546   4.527  16.613  0.0429  0.2733  0.0118
  465MPD2    C2 6920   1.417   4.557  16.562 -0.1834 -0.2179  0.3419
  465MPD2    C3 6921   1.386   4.517  16.435  0.1638  0.2213 -0.2577
  465MPD2    C4 6922   1.472   4.456  16.356 -0.4049  0.0353  0.2891
  465MPD2    C5 6923   1.600   4.436  16.404  0.0966  0.0624  0.3658
  465MPD2     H 6924   1.343   4.608  16.624  0.1207 -0.1571  0.6534
  465MPD2    H1 6925   1.447   4.425  16.255  0.2643  2.2296 -0.5436
  465MPD2    H2 6926   1.739   4.450  16.550  0.6393  0.7526 -0.6159
  465MPD2    H3 6927   1.671   4.382  16.342 -0.1654  0.6536 -0.4557
  465MPD2     N 6928   1.253   4.544  16.393 -0.3890 -0.1132  0.0651
  465MPD2    H5 6929   1.192   4.583  16.464  1.0975  0.1619  1.1859
  465MPD2    N1 6930   1.583   4.563  16.752  0.1077 -0.0543 -0.5249
  465MPD2    H7 6931   1.523   4.625  16.805  2.3441  1.8183 -0.1470
  466TMC3    C1 6932   0.855   4.620  16.311  0.7049  0.3527  0.4089
  466TMC3    C2 6933   0.829   0.005  16.231 -0.1251 -0.6660  0.5927
  466TMC3    C3 6934   0.937   0.045  16.157  0.0596  0.2288  0.0619
  466TMC3    C4 6935   0.974   4.557  16.331 -0.0489 -0.0972  0.8480
  466TMC3    C5 6936   1.080   4.602  16.253 -0.7493  0.3712 -0.5561
  466TMC3    C6 6937   1.059   4.701  16.158 -0.7073 -0.1546 -0.0718
  466TMC3     C 6938   0.750   4.562  16.397 -0.1599  0.4138  0.7596
  466TMC3     O 6939   0.775   4.500  16.497  0.0661 -0.2043 -0.2524
  466TMC3     H 6940   0.736   0.061  16.231 -0.0940 -0.6111  0.3326
  466TMC3    H1 6941   0.993   4.474  16.399 -2.2451 -0.7306  0.6899
  466TMC3    H2 6942   1.154   0.020  16.131 -1.4361 -0.2681 -2.8238
  466TMC3    C7 6943   1.210   4.555  16.262 -0.6247 -0.1627 -0.1038
  466TMC3    C8 6944   0.946   0.187  16.142  0.4165  0.0862  0.1734
  466TMC3    O1 6945   1.287   4.560  16.167 -0.0694  0.5203  0.1645
  466TMC3    O2 6946   1.041   0.218  16.073 -0.0862  0.0569 -0.0677
  467TMC3    C1 6947   1.683   3.257  13.727  0.1770 -0.4457  0.7281
  467TMC3    C2 6948   1.628   3.317  13.615  0.1044  0.4339  0.6432
  467TMC3    C3 6949   1.503   3.271  13.570  0.1921 -0.0028 -0.5170
  467TMC3    C4 6950   1.619   3.154  13.794 -0.1045 -0.5365  0.1760
  467TMC3    C5 6951   1.490   3.126  13.747  0.5088  0.2325  1.2710
  467TMC3    C6 6952   1.428   3.192  13.641 -0.0199 -0.3997 -0.5221
  467TMC3     C 6953   1.823   3.277  13.752  0.3407 -0.1005  0.0687
  467TMC3     O 6954   1.890   3.173  13.762 -0.3012 -0.2616 -0.1238
  467TMC3     H 6955   1.690   3.384  13.556 -0.3839  1.9072  1.7975
  467TMC3    H1 6956   1.677   3.095  13.865 -3.1219 -0.0982  2.9934
  467TMC3    H2 6957   1.341   3.156  13.587 -0.7573  1.5308 -0.6200
  467TMC3    C7 6958   1.452   2.993  13.785 -0.2204  0.0880  0.0299
  467TMC3    C8 6959   1.493   3.259  13.426  0.2553  0.1834 -0.3936
  467TMC3    O1 6960   1.542   2.924  13.831 -0.5130  0.4814 -0.2590
  467TMC3    O2 6961   1.381   3.278  13.374  0.1815  0.1773  0.3829
  468MPD2     C 6962   1.796   1.147  10.670  0.6100  0.5279  0.1786
  468MPD2    C1 6963   1.741   1.125  10.794 -0.0510  0.6187 -0.3210
  468MPD2    C2 6964   1.683   1.003  10.822 -0.4199  0.2844  0.4118
  468MPD2    C3 6965   1.689   0.899  10.723  0.2832 -0.2070 -0.3695
  468MPD2    C4 6966   1.750   0.924  10.602  0.0456 -0.5282  0.2797
  468MPD2    C5 6967   1.803   1.048  10.576 -0.4387 -0.2317 -0.1255
  468MPD2     H 6968   1.631   0.987  10.915  2.1786  0.5538  1.9200
  468MPD2    H1 6969   1.762   0.852  10.521 -0.8451  0.1893 -0.4950
  468MPD2    H2 6970   1.832   1.248  10.655  1.2247  0.2549 -0.1830
  468MPD2    H3 6971   1.847   1.070  10.480 -0.9695 -0.1219 -0.3409
  468MPD2     N 6972   1.627   0.772  10.744 -0.4966  0.4686  0.1783
  468MPD2    H5 6973   1.621   0.713  10.662  0.6393  1.0864 -0.3425
  468MPD2    N1 6974   1.747   1.213  10.901 -1.0540 -0.1528 -0.1746
  468MPD2    H7 6975   1.707   1.182  10.988  0.3794 -1.2894  0.0672
  469TMC3    C1 6976   1.845   1.383  11.039 -0.8697 -1.1144  0.4430
  469TMC3    C2 6977   1.819   1.301  11.149 -0.4561 -0.9967 -0.0739
  469TMC3    C3 6978   1.884   1.317  11.263  0.2775  0.4136 -0.6069
  469TMC3    C4 6979   1.944   1.471  11.056 -0.5040 -0.2398 -0.2110
  469TMC3    C5 6980   2.024   1.472  11.163 -0.5211 -0.1445  0.0778
  469TMC3    C6 6981   1.999   1.396  11.278 -0.3864  0.1459 -0.8084
  469TMC3     C 6982   1.825   1.327  10.899 -0.5448 -0.4118  0.4679
  469TMC3     O 6983   1.907   1.369  10.815  0.6401 -0.6512 -0.2736
  469TMC3     H 6984   1.730   1.238  11.152  0.1331 -1.9033 -1.5998
  469TMC3    H1 6985   1.963   1.542  10.976 -0.4829  0.5906  0.5366
  469TMC3    H2 6986   2.060   1.378  11.365 -0.8695  0.3213 -0.4336
  469TMC3    C7 6987   2.154   1.525  11.134 -0.0221 -0.1650 -0.2087
  469TMC3    C8 6988   1.861   1.222  11.362 -0.0512 -0.3572  0.6306
  469TMC3    O1 6989   2.184   1.554  11.019 -0.5960  0.7877  1.1183
  469TMC3    O2 6990   1.799   1.121  11.330 -0.3444  0.5153  0.6297
  470TMC3    C1 6991   2.819   2.503   0.716 -0.1232  0.5719  0.2821
  470TMC3    C2 6992   2.825   2.629   0.773 -0.5244  0.5676 -0.4268
  470TMC3    C3 6993   2.854   2.636   0.914  0.7498  0.2597 -0.2256
  470TMC3    C4 6994   2.829   2.394   0.793  0.5085  0.7102  0.0058
  470TMC3    C5 6995   2.869   2.403   0.918  0.2924  0.1211 -0.1310
  470TMC3    C6 6996   2.896   2.524   0.980 -0.5992 -0.9211 -0.1945
  470TMC3     C 6997   2.809   2.492   0.571  0.5151 -0.5026 -0.3049
  470TMC3     O 6998   2.835   2.588   0.504 -0.0468 -0.7348 -0.0758
  470TMC3     H 6999   2.816   2.718   0.712 -0.7678  0.1082 -1.0618
  470TMC3    H1 7000   2.832   2.294   0.750 -1.1799  0.6568  0.0001
  470TMC3    H2 7001   2.931   2.533   1.082 -0.8947 -0.9105 -0.0950
  470TMC3    C7 7002   2.907   2.289   0.992 -0.0786  0.2117  0.3894
  470TMC3    C8 7003   2.902   2.760   0.971  0.6926 -0.6480 -0.3262
  470TMC3    O1 7004   2.926   2.187   0.930  0.3953  0.0758  0.7334
  470TMC3    O2 7005   2.890   2.762   1.093 -0.0375 -0.8239  0.3828
  471MPD2     C 7006   3.572   3.430  16.026  0.2591  0.1911  0.4143
  471MPD2    C1 7007   3.486   3.415  16.130  0.5715 -0.8294 -0.2386
  471MPD2    C2 7008   3.540   3.435  16.254  0.0921 -0.1434 -0.1265
  471MPD2    C3 7009   3.671   3.471  16.271 -0.0639  0.5252 -0.1871
  471MPD2    C4 7010   3.754   3.496  16.166  0.2580 -0.4572  0.4300
  471MPD2    C5 7011   3.703   3.466  16.045  0.2828 -0.1814  0.3194
  471MPD2     H 7012   3.473   3.423  16.339 -1.4609 -0.1192 -1.3387
  471MPD2    H1 7013   3.856   3.527  16.180  0.1127 -1.0029  2.7646
  471MPD2    H2 7014   3.531   3.417  15.927 -0.1659 -3.1401  1.0169
  471MPD2    H3 7015   3.768   3.469  15.959  1.0122 -3.6334  0.7424
  471MPD2     N 7016   3.731   3.478  16.404  0.2913 -0.1448 -0.1680
  471MPD2    H5 7017   3.826   3.511  16.416 -0.2959  0.8503  1.7648
  471MPD2    N1 7018   3.354   3.363  16.116 -0.1590 -0.2970 -0.1150
  471MPD2    H7 7019   3.304   3.393  16.199 -0.0114  2.8140 -1.1780
  472TMC3    C1 7020   3.199   3.184  16.101  1.0276  0.4612 -0.5978
  472TMC3    C2 7021   3.139   3.085  16.028 -0.1577 -0.8601 -0.4586
  472TMC3    C3 7022   3.042   3.012  16.088 -0.3508  0.0432  0.4137
  472TMC3    C4 7023   3.155   3.211  16.227 -0.2986  0.4364  0.0638
  472TMC3    C5 7024   3.059   3.137  16.288  0.3089  0.0069  0.6279
  472TMC3    C6 7025   2.999   3.035  16.216 -1.5488  0.6239 -0.2066
  472TMC3     C 7026   3.318   3.246  16.046  0.1650 -0.8040 -0.3010
  472TMC3     O 7027   3.388   3.183  15.967 -0.8447 -0.7318  0.1662
  472TMC3     H 7028   3.176   3.060  15.929  1.3682  1.1208 -0.3927
  472TMC3    H1 7029   3.192   3.301  16.277  1.9353  0.1266 -1.0227
  472TMC3    H2 7030   2.918   2.983  16.267  0.2018 -2.0399 -0.1653
  472TMC3    C7 7031   3.081   3.123  16.434  1.0832 -0.1602  0.4193
  472TMC3    C8 7032   2.981   2.909  16.005  0.0660  0.3688  0.6778
  472TMC3    O1 7033   3.077   3.005  16.476  0.1183 -0.3061 -0.1943
  472TMC3    O2 7034   2.990   2.926  15.882 -0.1450 -0.3040  0.3038
  473MPD2     C 7035   3.725   0.453  14.034 -0.4421 -0.4612 -0.7425
  473MPD2    C1 7036   3.664   0.574  14.032  0.3600 -0.6375 -0.0366
  473MPD2    C2 7037   3.690   0.664  14.127 -0.4800 -0.2769  0.0666
  473MPD2    C3 7038   3.777   0.632  14.227 -0.4654 -0.2762  0.0464
  473MPD2    C4 7039   3.833   0.508  14.236 -0.3638 -0.7083  0.0144
  473MPD2    C5 7040   3.812   0.428  14.131 -0.2683  0.8043 -0.2911
  473MPD2     H 7041   3.659   0.768  14.120 -1.1933 -0.5499 -0.7953
  473MPD2    H1 7042   3.904   0.484  14.314 -0.1999  0.0889  0.1047
  473MPD2    H2 7043   3.702   0.376  13.961 -1.5587 -1.2007  0.4157
  473MPD2    H3 7044   3.850   0.327  14.137  1.2241  1.5114  2.4006
  473MPD2     N 7045   3.812   0.731  14.325 -0.0464  0.3719  0.3008
  473MPD2    H5 7046   3.865   0.695  14.404  1.5664  1.0354 -0.4983
  473MPD2    N1 7047   3.560   0.610  13.937  0.6858 -0.1063 -0.0319
  473MPD2    H7 7048   3.521   0.703  13.945  0.9262  0.0663 -0.9858
  474TMC3    C1 7049   3.841   0.935  14.443 -0.1811 -0.4685 -0.0355
  474TMC3    C2 7050   3.778   1.055  14.475 -0.2756  0.1741 -0.8078
  474TMC3    C3 7051   3.823   1.113  14.598 -0.5145 -0.3321  0.2644
  474TMC3    C4 7052   3.942   0.878  14.512  0.3287  0.0848  0.1923
  474TMC3    C5 7053   3.976   0.936  14.635 -0.3196 -0.0971 -0.0779
  474TMC3    C6 7054   3.926   1.060  14.674 -0.4337 -0.6002  0.0046
  474TMC3     C 7055   3.780   0.863  14.326 -0.2616  0.0787  0.1262
  474TMC3     O 7056   3.702   0.927  14.256  0.3783  0.4252 -0.4341
  474TMC3     H 7057   3.686   1.086  14.426 -0.9090  0.6402  0.6605
  474TMC3    H1 7058   4.002   0.802  14.464 -0.8052 -0.6460 -0.0530
  474TMC3    H2 7059   3.961   1.130  14.749  2.4463  0.5753 -2.4160
  474TMC3    C7 7060   4.104   0.892  14.678 -0.1593 -0.3393  0.5261
  474TMC3    C8 7061   3.743   1.220  14.645  0.7374 -0.3841  0.3433
  474TMC3    O1 7062   4.171   0.814  14.603 -0.6455 -0.1180  0.3967
  474TMC3    O2 7063   3.750   1.230  14.767 -0.1678  0.2166 -0.0517
  475MPD2     C 7064   2.932   3.895  10.668 -0.0755 -0.2915  0.8016
  475MPD2    C1 7065   2.834   3.864  10.573 -0.1970 -0.0884  0.0075
  475MPD2    C2 7066   2.703   3.874  10.609 -0.5164  0.5236 -0.0362
  475MPD2    C3 7067   2.662   3.929  10.728 -0.0805 -0.1491  0.6602
  475MPD2    C4 7068   2.760   3.956  10.826 -0.5013  0.4234  0.3316
  475MPD2    C5 7069   2.894   3.935  10.791  0.2054 -0.1962 -0.2230
  475MPD2     H 7070   2.626   3.837  10.543 -0.9072  0.9750  0.1646
  475MPD2    H1 7071   2.742   4.007  10.919  1.2375  1.4841  0.0735
  475MPD2    H2 7072   3.039   3.890  10.652  0.1376  1.5038  1.6798
  475MPD2    H3 7073   2.973   3.965  10.858  1.3957 -0.2076 -1.6082
  475MPD2     N 7074   2.523   3.950  10.759  0.2802 -0.2830  0.9155
  475MPD2    H5 7075   2.449   3.912  10.701  1.0532  2.8990 -2.1330
  475MPD2    N1 7076   2.882   3.831  10.448 -0.2110 -0.4144  0.1028
  475MPD2    H7 7077   2.983   3.832  10.438 -0.4136 -0.0672 -1.7743
  476TMC3    C1 7078   2.898   3.826  10.214  0.1991  0.4523 -0.4616
  476TMC3    C2 7079   2.844   3.779  10.098  0.2839 -0.2301 -0.7173
  476TMC3    C3 7080   2.904   3.833   9.983  0.2399 -0.0044 -0.3354
  476TMC3    C4 7081   3.006   3.909  10.224  0.3029 -0.0259 -0.3956
  476TMC3    C5 7082   3.070   3.943  10.109 -0.7840 -0.5575 -0.3543
  476TMC3    C6 7083   3.020   3.910   9.991  0.0115  0.9658  0.6701
  476TMC3     C 7084   2.814   3.811  10.332 -0.7415  0.1936 -0.0168
  476TMC3     O 7085   2.697   3.785  10.315 -0.1697  0.3916  0.6692
  476TMC3     H 7086   2.747   3.732  10.087 -0.7181  1.3615  1.5093
  476TMC3    H1 7087   3.034   3.955  10.318  1.4919 -0.7244 -0.4173
  476TMC3    H2 7088   3.075   3.938   9.903  0.2713  3.1509  1.5391
  476TMC3    C7 7089   3.184   4.034  10.110 -0.4518  0.1374 -0.2719
  476TMC3    C8 7090   2.835   3.834   9.853 -0.4386  0.1044  0.9743
  476TMC3    O1 7091   3.200   4.097  10.003  0.0759 -0.4012  0.0545
  476TMC3    O2 7092   2.906   3.885   9.764  0.2828 -0.0641  0.0656
  477MPD2     C 7093   0.021   0.712  11.511  0.7208  0.6727  0.3098
  477MPD2    C1 7094   4.660   0.741  11.621 -0.0404 -0.4448  0.0272
  477MPD2    C2 7095   4.679   0.661  11.737 -0.2712 -0.0335 -0.2044
  477MPD2    C3 7096   0.064   0.575  11.742  1.0021 -0.4141  0.5023
  477MPD2    C4 7097   0.136   0.552  11.631  0.1890 -0.4431  0.2181
  477MPD2    C5 7098   0.118   0.618  11.515  0.8018  0.2280 -0.4341
  477MPD2     H 7099   4.609   0.674  11.818  1.3364  1.1577  1.0058
  477MPD2    H1 7100   0.213   0.476  11.638  1.4611  0.6807 -1.5774
  477MPD2    H2 7101   4.724   0.757  11.415  0.1060 -1.4818 -0.5520
  477MPD2    H3 7102   0.167   0.591  11.422  0.5993 -0.1231 -0.4376
  477MPD2     N 7103   0.097   0.498  11.861  0.2776 -0.1102 -0.3031
  477MPD2    H5 7104   0.183   0.445  11.856  0.5033  0.1322  1.0759
  477MPD2    N1 7105   4.551   0.826  11.606  0.0751  0.5294 -0.6639
  477MPD2    H7 7106   4.530   0.866  11.515  1.3579  2.0245 -0.3029
  478TMC3    C1 7107   4.340   0.931  11.651  0.0923  0.4009  0.7641
  478TMC3    C2 7108   4.267   1.016  11.734 -0.6327 -0.2075 -0.8495
  478TMC3    C3 7109   4.159   1.083  11.684  0.3225  0.5592  0.6815
  478TMC3    C4 7110   4.291   0.899  11.526  0.1859  0.6540  0.5817
  478TMC3    C5 7111   4.177   0.961  11.487  0.1012 -0.3716 -0.3598
  478TMC3    C6 7112   4.109   1.055  11.560 -0.4324 -0.1567 -0.4942
  478TMC3     C 7113   4.456   0.860  11.705 -0.0300  0.6592  0.0081
  478TMC3     O 7114   4.461   0.839  11.825  0.0888 -0.6296 -0.0171
  478TMC3     H 7115   4.306   1.031  11.834 -1.3452  1.3225 -0.8130
  478TMC3    H1 7116   4.336   0.820  11.466 -2.0616 -1.1360  1.2454
  478TMC3    H2 7117   4.009   1.082  11.528  0.0192  1.3935 -0.5847
  478TMC3    C7 7118   4.113   0.898  11.375 -0.5050 -0.2427 -0.5299
  478TMC3    C8 7119   4.072   1.122  11.791  0.5764  0.1663  0.1610
  478TMC3    O1 7120   4.139   0.778  11.364 -0.1793 -0.1872 -0.2520
  478TMC3    O2 7121   4.085   1.073  11.900  0.1806 -0.0430  0.0115
  479MPD2     C 7122   3.153   2.504  15.085 -0.0443  0.1664 -0.3947
  479MPD2    C1 7123   3.109   2.445  15.199  0.6386  0.3128 -0.5491
  479MPD2    C2 7124   3.171   2.482  15.318 -0.2520 -0.1733 -0.3533
  479MPD2    C3 7125   3.256   2.583  15.327  0.1706  0.1144  0.0924
  479MPD2    C4 7126   3.293   2.642  15.211  0.2117 -0.1281  0.6632
  479MPD2    C5 7127   3.249   2.605  15.093  0.8107 -0.0497  0.0828
  479MPD2     H 7128   3.140   2.422  15.403 -0.1442 -0.0552 -0.2307
  479MPD2    H1 7129   3.363   2.725  15.207 -0.6636  0.5545 -0.4028
  479MPD2    H2 7130   3.100   2.495  14.991  2.1901  0.2049 -1.6613
  479MPD2    H3 7131   3.280   2.663  15.007  1.2201 -1.4298 -0.7016
  479MPD2     N 7132   3.317   2.644  15.440 -0.5718 -0.3880 -0.5187
  479MPD2    H5 7133   3.393   2.710  15.428 -0.6284 -0.2794 -0.2870
  479MPD2    N1 7134   3.001   2.354  15.186  0.0641 -0.2923  0.2599
  479MPD2    H7 7135   2.961   2.335  15.095 -0.9105  0.8494  0.4530
  480TMC3    C1 7136   3.019   2.415  15.688  0.1787  0.0022  0.2095
  480TMC3    C2 7137   2.909   2.471  15.629 -0.4563 -0.1959  0.6225
  480TMC3    C3 7138   2.925   2.588  15.558 -0.2232 -0.0136  0.2447
  480TMC3    C4 7139   3.144   2.469  15.684  0.1190  0.2747  0.4015
  480TMC3    C5 7140   3.155   2.579  15.602  0.5736  0.4040 -0.5362
  480TMC3    C6 7141   3.053   2.642  15.535 -0.3228  0.5323  1.0644
  480TMC3     C 7142   3.001   2.295  15.774  1.0329 -0.6079  0.2801
  480TMC3     O 7143   3.066   2.284  15.878 -0.6298 -0.9157  0.2961
  480TMC3     H 7144   2.806   2.446  15.652 -1.0490  1.3929 -0.2892
  480TMC3    H1 7145   3.233   2.418  15.721 -0.2518 -0.2110  0.6189
  480TMC3    H2 7146   3.056   2.735  15.481  3.4752 -0.6781 -0.7796
  480TMC3    C7 7147   3.293   2.610  15.575 -0.3012  0.1749  0.7360
  480TMC3    C8 7148   2.823   2.617  15.461  0.0861 -0.8665 -0.7212
  480TMC3    O1 7149   3.367   2.621  15.670  0.8630 -0.1625  0.1500
  480TMC3    O2 7150   2.722   2.559  15.488  0.3688  0.9522  0.2291
  481MPD2     C 7151   0.077   2.444  14.502 -0.4239 -0.3233 -0.2699
  481MPD2    C1 7152   0.040   2.306  14.498  0.4810  0.6543 -0.2878
  481MPD2    C2 7153   0.050   2.237  14.622 -0.0222 -0.3237 -0.1711
  481MPD2    C3 7154   0.102   2.298  14.738  0.4649 -0.2593  0.2022
  481MPD2    C4 7155   0.128   2.432  14.729 -0.3200 -0.6481 -0.8319
  481MPD2    C5 7156   0.133   2.505  14.611  0.2612  0.1870 -0.6549
  481MPD2     H 7157   0.031   2.131  14.618 -1.1896 -0.0163 -3.2203
  481MPD2    H1 7158   0.164   2.491  14.812  0.9593 -2.9216  0.2171
  481MPD2    H2 7159   0.083   2.491  14.404 -1.1938  0.8639  0.2428
  481MPD2    H3 7160   0.165   2.608  14.607  1.7104 -0.2642 -0.4237
  481MPD2     N 7161   0.125   2.233  14.866  0.1874 -0.2285 -0.1425
  481MPD2    H5 7162   0.158   2.296  14.938 -2.4457  1.4050 -0.3856
  481MPD2    N1 7163   0.003   2.254  14.372  0.4994  0.5357  0.3104
  481MPD2    H7 7164   4.722   2.319  14.295 -0.6318 -0.1829 -0.2031
  482TMC3    C1 7165   4.655   2.112  14.205 -0.4790 -0.4583  0.2919
  482TMC3    C2 7166   4.546   2.034  14.168  0.2880 -0.5375 -0.0758
  482TMC3    C3 7167   4.533   2.021  14.034 -0.3579  0.4094  0.7288
  482TMC3    C4 7168   0.029   2.152  14.117  0.6633  0.2603  0.6519
  482TMC3    C5 7169   0.004   2.136  13.982 -0.3631 -0.8554 -0.1796
  482TMC3    C6 7170   4.623   2.062  13.938  0.1218 -0.0336  0.3956
  482TMC3     C 7171   4.678   2.129  14.348  0.1977 -0.1771 -0.0093
  482TMC3     O 7172   4.639   2.046  14.430 -0.2184 -0.0889  0.1873
  482TMC3     H 7173   4.469   2.000  14.235  0.2219  1.5736  0.8937
  482TMC3    H1 7174   0.121   2.199  14.150  0.8486  0.8761 -0.7301
  482TMC3    H2 7175   4.608   2.027  13.837 -0.1395 -1.4584  0.9294
  482TMC3    C7 7176   0.102   2.184  13.891 -0.2658  0.2340  0.2570
  482TMC3    C8 7177   4.429   1.926  13.987  0.1547  0.7089 -0.0345
  482TMC3    O1 7178   0.178   2.269  13.935  0.5220 -0.0239 -0.1306
  482TMC3    O2 7179   4.360   1.863  14.066 -0.0158 -0.0371 -0.0572
  483TMC3    C1 7180   3.560   1.852   1.354  0.1344 -0.5401  0.0586
  483TMC3    C2 7181   3.517   1.920   1.251 -0.2894 -0.0349 -0.0455
  483TMC3    C3 7182   3.595   1.942   1.143 -1.0017 -0.0933 -0.4233
  483TMC3    C4 7183   3.690   1.806   1.354  0.3876  0.2922  0.1600
  483TMC3    C5 7184   3.772   1.830   1.246  0.7812  0.2995  0.4421
  483TMC3    C6 7185   3.727   1.904   1.140 -0.0248  0.4648 -0.3832
  483TMC3     C 7186   3.463   1.778   1.423 -0.1789  1.6089  0.1053
  483TMC3     O 7187   3.351   1.824   1.446 -0.2363  0.0441  0.2545
  483TMC3     H 7188   3.410   1.938   1.247 -0.3353 -0.5324 -0.9245
  483TMC3    H1 7189   3.727   1.740   1.432 -2.2968 -1.2071  0.1321
  483TMC3    H2 7190   3.783   1.922   1.049 -1.3061  1.5828 -0.9524
  483TMC3    C7 7191   3.902   1.765   1.257  0.8473 -0.1247 -0.6426
  483TMC3    C8 7192   3.535   2.025   1.033  0.0223  0.2579  0.2869
  483TMC3    O1 7193   3.915   1.672   1.333 -0.5168 -0.1434  0.2962
  483TMC3    O2 7194   3.571   2.002   0.920  0.4744  0.2772  0.1309
  484MPD2     C 7195   0.281   4.198  12.292  0.0148 -0.9238  0.0402
  484MPD2    C1 7196   0.324   4.134  12.407  0.5764 -0.4848  0.3307
  484MPD2    C2 7197   0.455   4.133  12.431  0.3637  0.5591  0.3136
  484MPD2    C3 7198   0.547   4.191  12.350 -0.0509 -0.5281 -0.8382
  484MPD2    C4 7199   0.502   4.264  12.240  0.3052 -0.5057  0.9520
  484MPD2    C5 7200   0.366   4.278  12.224 -0.1128  0.1662 -0.3895
  484MPD2     H 7201   0.492   4.073  12.513  0.1000  0.0413  0.0545
  484MPD2    H1 7202   0.563   4.332  12.182 -1.0936 -0.1510 -0.0832
  484MPD2    H2 7203   0.174   4.208  12.275  0.2144 -0.3636 -0.8988
  484MPD2    H3 7204   0.323   4.352  12.157 -1.0334  0.8505  0.9588
  484MPD2     N 7205   0.688   4.189  12.377 -0.9449  0.6083  0.2079
  484MPD2    H5 7206   0.745   4.249  12.319  1.1655 -1.0227  0.6028
  484MPD2    N1 7207   0.232   4.059  12.484 -0.9282 -0.4597 -0.1766
  484MPD2    H7 7208   0.140   4.049  12.442 -1.2182  0.7393  0.1651
  485TMC3    C1 7209   0.887   4.114  12.494  0.2468 -0.1014  0.5636
  485TMC3    C2 7210   0.941   4.005  12.563  0.0725 -0.8448 -0.2012
  485TMC3    C3 7211   1.062   4.011  12.631 -0.4318  0.4250  0.0629
  485TMC3    C4 7212   0.962   4.233  12.476  0.1661 -0.9719 -0.9198
  485TMC3    C5 7213   1.083   4.234  12.535  0.0432 -0.2744  0.2651
  485TMC3    C6 7214   1.130   4.127  12.607 -0.3667  0.3853  0.4940
  485TMC3     C 7215   0.750   4.095  12.460 -0.4054 -0.0321 -0.4872
  485TMC3     O 7216   0.696   3.992  12.511  0.4841 -0.4492 -0.4334
  485TMC3     H 7217   0.885   3.913  12.578 -1.1246  0.3416  2.6626
  485TMC3    H1 7218   0.923   4.310  12.411 -0.8958 -1.4352 -0.8355
  485TMC3    H2 7219   1.222   4.150  12.660  0.4204 -0.8054 -0.3325
  485TMC3    C7 7220   1.187   4.273  12.444  0.0474  0.9944 -0.5237
  485TMC3    C8 7221   1.152   3.899  12.618 -0.5209  0.0318 -0.6590
  485TMC3    O1 7222   1.172   4.389  12.403  0.6111  0.2315  0.0573
  485TMC3    O2 7223   1.269   3.923  12.619 -0.0891 -0.3099 -0.4819
  486MPD2     C 7224   3.191   3.051  12.688  0.1259  0.2604 -0.4477
  486MPD2    C1 7225   3.094   2.975  12.645 -0.1465 -0.0862 -0.9835
  486MPD2    C2 7226   2.978   3.040  12.605  0.5475 -0.1536 -0.7393
  486MPD2    C3 7227   2.961   3.179  12.617 -0.5852  0.0978  0.3320
  486MPD2    C4 7228   3.059   3.246  12.674 -0.1114 -0.0810 -0.2439
  486MPD2    C5 7229   3.173   3.186  12.707 -0.1224 -0.1991  0.1190
  486MPD2     H 7230   2.899   2.980  12.562  0.8918 -0.3242 -1.1405
  486MPD2    H1 7231   3.056   3.352  12.694 -0.0488  0.2087 -1.8468
  486MPD2    H2 7232   3.284   3.009  12.725  0.3091 -0.1478 -1.3647
  486MPD2    H3 7233   3.238   3.250  12.766 -2.5646  2.1323  0.2972
  486MPD2     N 7234   2.838   3.240  12.574  0.1757  0.2807 -0.1349
  486MPD2    H5 7235   2.776   3.185  12.514 -1.7552  1.1525  1.0738
  486MPD2    N1 7236   3.114   2.839  12.650 -0.1977  0.4319  0.8128
  486MPD2    H7 7237   3.210   2.812  12.668 -0.0947  0.1328 -0.1754
  487TMC3    C1 7238   3.073   2.607  12.646  0.1441 -0.3143 -0.3145
  487TMC3    C2 7239   2.980   2.508  12.618  0.1237  0.2113 -0.5667
  487TMC3    C3 7240   3.013   2.375  12.643 -0.2367 -0.9648  0.1100
  487TMC3    C4 7241   3.187   2.585  12.713  0.6838  0.3786  0.1541
  487TMC3    C5 7242   3.224   2.453  12.736  0.1214  0.6813 -0.1148
  487TMC3    C6 7243   3.147   2.356  12.677 -0.1295  0.3180  0.3950
  487TMC3     C 7244   3.011   2.744  12.636 -0.7605  1.0626 -0.0457
  487TMC3     O 7245   2.888   2.757  12.613 -0.1414  0.3160 -0.1368
  487TMC3     H 7246   2.887   2.542  12.574 -0.1465  0.8812  0.5336
  487TMC3    H1 7247   3.249   2.664  12.753  0.3855  0.6055  0.1688
  487TMC3    H2 7248   3.157   2.256  12.718 -1.3604 -0.6631 -1.6662
  487TMC3    C7 7249   3.269   2.426  12.869  0.0534  0.3065  0.4512
  487TMC3    C8 7250   2.920   2.328  12.755  0.7189  0.0469 -0.2525
  487TMC3    O1 7251   3.261   2.510  12.955 -0.0441 -0.2962 -0.5490
  487TMC3    O2 7252   2.859   2.421  12.810  0.5261  0.0416 -0.0768
  488MPD2     C 7253   2.782   4.564  16.571  0.1819 -0.7146  0.1233
  488MPD2    C1 7254   2.794   4.699  16.584 -0.5902  0.4811 -0.4230
  488MPD2    C2 7255   2.777   0.030  16.706 -0.2450  0.1436  0.6350
  488MPD2    C3 7256   2.748   4.677  16.815 -0.5409 -0.6899 -0.3990
  488MPD2    C4 7257   2.743   4.543  16.804 -0.4404  0.1427  0.1373
  488MPD2    C5 7258   2.751   4.486  16.684  0.2814 -0.1319 -0.4473
  488MPD2     H 7259   2.781   0.138  16.722 -0.7735  0.2677 -0.0987
  488MPD2    H1 7260   2.728   4.477  16.889 -0.0746 -0.7676 -0.5010
  488MPD2    H2 7261   2.795   4.512  16.477 -1.8208 -1.8953  0.5088
  488MPD2    H3 7262   2.738   4.379  16.675  1.0724  0.0227 -3.2525
  488MPD2     N 7263   2.733   0.015  16.938 -0.8605 -0.0344 -0.2365
  488MPD2    H5 7264   2.746   0.115  16.938 -1.0040 -0.0106 -1.1831
  488MPD2    N1 7265   2.842   0.054  16.484 -0.4974 -0.4169  0.2642
  488MPD2    H7 7266   2.886   0.138  16.518  0.5689  0.2153 -2.6688
  489TMC3    C1 7267   2.673   0.041  17.165 -0.7304 -0.2237 -0.1222
  489TMC3    C2 7268   2.744   0.159  17.157 -0.4103  0.2242  0.4286
  489TMC3    C3 7269   2.724   0.233  17.266 -0.5670  0.2809 -0.2449
  489TMC3    C4 7270   2.597   4.720  17.271  0.6475 -0.2907 -0.4172
  489TMC3    C5 7271   2.595   0.079  17.385 -0.3192  0.2668  0.1006
  489TMC3    C6 7272   2.644   0.204  17.373  0.3323  0.2122 -0.1821
  489TMC3     C 7273   2.672   4.683  17.046 -0.0450 -0.6876  0.3657
  489TMC3     O 7274   2.608   4.579  17.057 -0.5670  0.1493 -0.3028
  489TMC3     H 7275   2.829   0.186  17.095  0.7656  0.6546  2.2264
  489TMC3    H1 7276   2.573   4.614  17.274  0.5244 -0.2769 -0.8298
  489TMC3    H2 7277   2.629   0.267  17.460 -0.0754 -0.7393  0.4497
  489TMC3    C7 7278   2.525   0.040  17.501  0.3588  0.5800  0.2126
  489TMC3    C8 7279   2.771   0.371  17.247 -0.6754  0.0745 -0.4424
  489TMC3    O1 7280   2.543   0.095  17.611  0.3138  0.1032  0.1315
  489TMC3    O2 7281   2.799   0.402  17.133 -0.6807  0.0472 -0.0326
  490MPD2     C 7282   3.242   0.143   0.055  0.1915 -0.1184  0.4215
  490MPD2    C1 7283   3.283   0.014   0.034  0.1651 -0.6554 -0.2689
  490MPD2    C2 7284   3.412   4.712  17.697 -0.5182 -0.0385 -0.0498
  490MPD2    C3 7285   3.503   0.089  17.676  0.6009  0.1057 -0.2304
  490MPD2    C4 7286   3.462   0.219  17.694 -0.1563 -0.0901  0.5844
  490MPD2    C5 7287   3.330   0.248   0.034 -0.3143  2.0363 -0.2605
  490MPD2     H 7288   3.456   4.615  17.676 -2.7330 -0.8452 -1.0500
  490MPD2    H1 7289   3.529   0.304  17.689  2.1931 -2.1542 -2.3418
  490MPD2    H2 7290   3.145   0.171   0.095  0.1005 -0.4008  0.3965
  490MPD2    H3 7291   3.292   0.349   0.045 -1.5728  1.4905  0.4315
  490MPD2     N 7292   3.634   0.054  17.649  0.2100 -0.0749 -0.0207
  490MPD2    H5 7293   3.656   4.681  17.645  0.0831 -0.1868  2.1065
  490MPD2    N1 7294   3.201   4.632   0.058 -0.2214  0.2200  0.7636
  490MPD2    H7 7295   3.238   4.541   0.034 -1.4573  0.1192 -0.7836
  491TMC3    C1 7296   3.031   4.508   0.143 -0.1705  0.2817  0.0169
  491TMC3    C2 7297   3.003   4.471   0.272  0.4020 -0.5631 -0.3313
  491TMC3    C3 7298   2.987   4.340   0.290 -0.4185  0.0034  0.3918
  491TMC3    C4 7299   3.040   4.424   0.039  0.0367  0.0724  0.6507
  491TMC3    C5 7300   3.011   4.288   0.056 -0.7336  0.0821 -0.1633
  491TMC3    C6 7301   2.980   4.249   0.182 -0.2482  0.0278  0.2210
  491TMC3     C 7302   3.084   4.640   0.132  0.0984 -0.7447  0.0618
  491TMC3     O 7303   3.039   0.001   0.202 -0.1838  0.5865 -0.2230
  491TMC3     H 7304   2.993   4.545   0.350 -2.8171 -0.2886 -0.9902
  491TMC3    H1 7305   3.064   4.471  17.648 -0.2101  0.6629  0.8851
  491TMC3    H2 7306   2.946   4.147   0.201  0.0246 -0.0388  0.3450
  491TMC3    C7 7307   3.008   4.189  17.652 -0.6984  0.6911 -0.0652
  491TMC3    C8 7308   2.939   4.287   0.412  0.5473  0.3926  0.2113
  491TMC3    O1 7309   2.949   4.082  17.678  0.1569 -0.0195 -0.4669
  491TMC3    O2 7310   2.848   4.208   0.407  0.2609  0.1332 -0.3824
  492MPD2     C 7311   4.354   4.009  11.629  0.2396 -0.4093  0.8010
  492MPD2    C1 7312   4.272   3.956  11.522 -0.0499  0.1633  0.8392
  492MPD2    C2 7313   4.180   3.860  11.555 -0.5578 -0.2241 -0.4167
  492MPD2    C3 7314   4.153   3.826  11.680 -0.4309  0.2329 -0.6000
  492MPD2    C4 7315   4.216   3.891  11.785  0.4268  0.0005 -0.5863
  492MPD2    C5 7316   4.316   3.975  11.757 -0.5044 -0.1124 -0.2903
  492MPD2     H 7317   4.127   3.818  11.470  0.2054  0.6780 -1.3399
  492MPD2    H1 7318   4.196   3.869  11.889  1.6230  0.3891 -0.2725
  492MPD2    H2 7319   4.435   4.081  11.624  0.1404 -0.2383  1.7503
  492MPD2    H3 7320   4.374   4.018  11.838  2.9959  1.0654 -3.3851
  492MPD2     N 7321   4.046   3.734  11.711  0.2545 -0.1668  0.1996
  492MPD2    H5 7322   4.027   3.708  11.808 -0.3891 -0.0644  0.0985
  492MPD2    N1 7323   4.296   3.983  11.385  0.0330 -0.3326  0.4097
  492MPD2    H7 7324   4.238   3.934  11.317 -2.3826  1.2761  1.3284
  493TMC3    C1 7325   4.396   4.055  11.188 -0.0928 -0.5341  0.1011
  493TMC3    C2 7326   4.403   4.168  11.112 -0.3080  0.2526  0.4788
  493TMC3    C3 7327   4.366   4.169  10.981 -0.3493 -0.6957  0.1227
  493TMC3    C4 7328   4.342   3.940  11.140  0.4121  0.3401 -0.6784
  493TMC3    C5 7329   4.310   3.941  11.003  0.2563  0.3483 -0.3322
  493TMC3    C6 7330   4.329   4.048  10.926  0.2533  0.4714 -0.0356
  493TMC3     C 7331   4.383   4.079  11.333  0.3709 -0.5447 -0.1835
  493TMC3     O 7332   4.448   4.171  11.381 -0.1100  0.8962  0.2208
  493TMC3     H 7333   4.436   4.257  11.165 -1.7652 -0.2954  2.3074
  493TMC3    H1 7334   4.358   3.846  11.192  0.4014 -0.2270 -1.6982
  493TMC3    H2 7335   4.297   4.042  10.823 -0.0582  0.2767  0.0705
  493TMC3    C7 7336   4.213   3.838  10.953 -0.4176  0.4380  0.2270
  493TMC3    C8 7337   4.391   4.287  10.897 -0.4706 -0.0234  0.0077
  493TMC3    O1 7338   4.169   3.849  10.839 -0.1412 -0.2003  0.0346
  493TMC3    O2 7339   4.376   4.262  10.778  0.7587  0.0934  0.0585
  494TMC3    C1 7340   0.604   1.089   0.743  0.5481  0.4689 -0.0638
  494TMC3    C2 7341   0.628   0.958   0.780 -0.4285  0.4416 -1.0522
  494TMC3    C3 7342   0.575   0.858   0.702  0.0509 -0.2341 -0.7664
  494TMC3    C4 7343   0.534   1.128   0.639 -0.5948 -0.2518 -0.6110
  494TMC3    C5 7344   0.484   1.021   0.565  0.9860  0.4102  0.8132
  494TMC3    C6 7345   0.499   0.887   0.594  0.3538 -0.0657 -0.3991
  494TMC3     C 7346   0.663   1.196   0.823  0.8645 -0.5326  0.7230
  494TMC3     O 7347   0.615   1.308   0.808  0.2030 -0.4451  0.1792
  494TMC3     H 7348   0.679   0.929   0.871 -0.4354  1.3651 -0.7573
  494TMC3    H1 7349   0.542   1.229   0.602  1.4070 -0.1555  0.1365
  494TMC3    H2 7350   0.455   0.812   0.529 -1.5278 -0.1084  0.9082
  494TMC3    C7 7351   0.406   1.049   0.446 -0.3152 -0.3598  0.1499
  494TMC3    C8 7352   0.550   0.737   0.783  0.0595  0.6264  0.4830
  494TMC3    O1 7353   0.421   0.974   0.354  0.2205  0.4467 -0.0323
  494TMC3    O2 7354   0.566   0.747   0.907  0.0356  0.0114 -0.1217
  495TMC3    C1 7355   3.194   2.699  14.558  0.7278 -0.4227 -0.0240
  495TMC3    C2 7356   3.104   2.748  14.464 -0.0930 -0.4519  0.2470
  495TMC3    C3 7357   3.002   2.831  14.499  0.1388  0.2961 -0.0244
  495TMC3    C4 7358   3.185   2.743  14.687 -0.5570  0.0030 -0.1177
  495TMC3    C5 7359   3.084   2.826  14.725  0.1363 -0.7442  0.6285
  495TMC3    C6 7360   2.993   2.870  14.629 -0.6872 -0.3936  0.9758
  495TMC3     C 7361   3.204   2.559  14.552  0.4898 -0.0801  0.5023
  495TMC3     O 7362   3.125   2.500  14.480 -0.4626  0.5515 -0.2605
  495TMC3     H 7363   3.119   2.713  14.362 -1.3439 -3.1269  0.9770
  495TMC3    H1 7364   3.256   2.715  14.764  0.3494 -1.0333 -1.3365
  495TMC3    H2 7365   2.913   2.932  14.668 -0.8951 -0.6911  1.0197
  495TMC3    C7 7366   3.055   2.818  14.864 -0.0677 -0.6097 -0.1971
  495TMC3    C8 7367   2.904   2.881  14.402 -0.0893  0.2595 -0.0638
  495TMC3    O1 7368   3.137   2.852  14.947 -0.2866 -0.2599 -0.0541
  495TMC3    O2 7369   2.812   2.951  14.449  0.5051 -0.7566 -0.0277
  496MPD2     C 7370   0.203   2.760  15.255 -0.2046 -0.0198 -0.2978
  496MPD2    C1 7371   0.276   2.745  15.366  0.1053 -0.4625  0.4867
  496MPD2    C2 7372   0.225   2.785  15.486 -0.3183  0.4368  0.4771
  496MPD2    C3 7373   0.100   2.838  15.490  0.2297  0.1423 -0.2153
  496MPD2    C4 7374   0.020   2.839  15.374  0.2682  0.1077 -0.4941
  496MPD2    C5 7375   0.075   2.807  15.257  0.4556 -1.0158  0.9032
  496MPD2     H 7376   0.283   2.757  15.574  0.8319 -0.2150 -0.4946
  496MPD2    H1 7377   4.641   2.867  15.373 -0.6716 -3.2934  2.7383
  496MPD2    H2 7378   0.246   2.726  15.162  0.1574  0.2283 -0.2237
  496MPD2    H3 7379   0.014   2.810  15.167 -2.0526 -1.9404  2.5660
  496MPD2     N 7380   0.049   2.881  15.616  0.8465 -0.6401 -0.2707
  496MPD2    H5 7381   4.674   2.886  15.631  0.5776 -1.5411 -1.7387
  496MPD2    N1 7382   0.402   2.689  15.345  0.3254 -0.2011 -0.2031
  496MPD2    H7 7383   0.412   2.648  15.252  2.2712  2.0541 -0.9744
  497TMC3    C1 7384   0.054   2.935  15.853 -0.0506 -0.4773  0.1489
  497TMC3    C2 7385   4.644   2.984  15.851  0.8437  0.1481 -0.0052
  497TMC3    C3 7386   4.578   3.008  15.971  0.6243  0.2035  0.5803
  497TMC3    C4 7387   0.118   2.912  15.972 -0.2249  0.4809 -0.7227
  497TMC3    C5 7388   0.040   2.929  16.088  0.2324  0.4090 -1.1468
  497TMC3    C6 7389   4.641   2.983  16.088 -0.3309 -0.3051 -0.6597
  497TMC3     C 7390   0.125   2.897  15.732 -0.1909 -0.7558  0.7483
  497TMC3     O 7391   0.245   2.899  15.741  0.1742  0.5309  0.6561
  497TMC3     H 7392   4.606   3.026  15.759  0.5517 -2.5945 -1.1285
  497TMC3    H1 7393   0.213   2.862  15.984  0.0074  0.8961 -0.8548
  497TMC3    H2 7394   4.591   2.993  16.184  0.2920 -3.2255 -0.0568
  497TMC3    C7 7395   0.065   2.850  16.201  0.3248  0.5821  0.5896
  497TMC3    C8 7396   4.444   3.051  15.968  0.0824 -0.1999  0.2480
  497TMC3    O1 7397   4.701   2.782  16.257  0.1854 -0.1439  0.3465
  497TMC3    O2 7398   4.392   3.042  15.862  0.3997  0.3551 -0.7167
  498MPD2     C 7399   1.622   4.002   9.585  0.0904 -0.0762 -0.2201
  498MPD2    C1 7400   1.543   3.888   9.587 -0.2062  0.4261 -0.6327
  498MPD2    C2 7401   1.429   3.881   9.663  0.2994  0.3243  0.3257
  498MPD2    C3 7402   1.389   3.983   9.740 -0.0785  0.2051 -0.2039
  498MPD2    C4 7403   1.453   4.102   9.731  0.3475 -0.2516 -0.1245
  498MPD2    C5 7404   1.571   4.104   9.659  1.1163 -0.2666  0.8584
  498MPD2     H 7405   1.378   3.786   9.666  2.4471 -0.7662  2.2477
  498MPD2    H1 7406   1.431   4.189   9.792 -1.2196 -0.7003 -0.0693
  498MPD2    H2 7407   1.705   4.024   9.518 -0.7115  2.4795 -0.3592
  498MPD2    H3 7408   1.622   4.199   9.645 -3.8717  2.0632 -1.2903
  498MPD2     N 7409   1.264   3.970   9.804  0.0256 -0.8894  0.2419
  498MPD2    H5 7410   1.220   3.879   9.811 -1.7548 -0.0097  0.5117
  498MPD2    N1 7411   1.567   3.775   9.504  0.0400 -0.2289 -0.4699
  498MPD2    H7 7412   1.510   3.692   9.517 -0.1744  0.1651  1.0438
  499TMC3    C1 7413   1.694   3.627   9.367 -0.4804  0.1942 -0.4348
  499TMC3    C2 7414   1.583   3.541   9.361 -0.0220 -0.6052  0.0560
  499TMC3    C3 7415   1.602   3.412   9.321 -0.2620  0.0169 -0.8577
  499TMC3    C4 7416   1.818   3.588   9.335  0.6724  0.1782 -0.9944
  499TMC3    C5 7417   1.829   3.458   9.294 -0.3716 -0.0549  0.2244
  499TMC3    C6 7418   1.727   3.366   9.278  0.5557 -0.0024  0.1477
  499TMC3     C 7419   1.683   3.757   9.437  0.4441  0.2826  0.5409
  499TMC3     O 7420   1.784   3.828   9.433 -0.6269 -0.8732 -0.0704
  499TMC3     H 7421   1.487   3.582   9.390 -1.0598 -1.2587 -2.4595
  499TMC3    H1 7422   1.902   3.656   9.342  0.8283 -0.2931  1.5012
  499TMC3    H2 7423   1.734   3.263   9.245 -2.1322  0.1247 -0.8345
  499TMC3    C7 7424   1.964   3.425   9.254  0.6297 -0.8062 -0.3074
  499TMC3    C8 7425   1.487   3.321   9.336 -0.4286  0.0318 -0.3460
  499TMC3    O1 7426   2.052   3.506   9.272  0.0410 -0.3179 -0.4515
  499TMC3    O2 7427   1.511   3.204   9.331  0.5091  0.5629  0.1240
  500MPD2     C 7428   3.740   4.677   9.939  0.0453  0.1128  0.1659
  500MPD2    C1 7429   3.630   4.696  10.023 -0.2198 -0.2453 -0.3254
  500MPD2    C2 7430   3.515   4.627  10.006  0.2973  0.0191  0.1375
  500MPD2    C3 7431   3.504   4.543   9.897 -0.2922 -1.0794  0.6709
  500MPD2    C4 7432   3.611   4.520   9.818  0.3643  0.7284 -0.8129
  500MPD2    C5 7433   3.730   4.586   9.841 -0.5615  0.8526  0.2598
  500MPD2     H 7434   3.439   4.640  10.081  0.1326 -0.5533  0.0684
  500MPD2    H1 7435   3.594   4.460   9.730 -0.2405  1.0929 -0.9418
  500MPD2    H2 7436   3.836   4.723   9.958 -0.2998  0.6007  0.7215
  500MPD2    H3 7437   3.810   4.579   9.769  0.0637 -0.5676  1.0921
  500MPD2     N 7438   3.387   4.476   9.861  0.2305  0.4510 -0.3898
  500MPD2    H5 7439   3.398   4.409   9.786 -2.7061 -1.5004  0.9188
  500MPD2    N1 7440   3.634   0.061  10.130 -0.4469  0.4447 -0.5187
  500MPD2    H7 7441   3.559   0.056  10.198  0.5559  0.8362  0.6034
  501TMC3    C1 7442   3.689   0.229  10.273 -0.5712  0.0320 -1.3803
  501TMC3    C2 7443   3.672   0.364  10.239  0.3228  0.2371  0.5278
  501TMC3    C3 7444   3.608   0.444  10.333  0.2522  0.1532  0.3832
  501TMC3    C4 7445   3.649   0.173  10.394 -0.0409  0.0645  0.0600
  501TMC3    C5 7446   3.578   0.261  10.482  0.0385  0.5896 -0.9344
  501TMC3    C6 7447   3.561   0.395  10.457 -0.7492 -0.4645  0.2574
  501TMC3     C 7448   3.734   0.153  10.160  0.1884 -0.8376 -0.0023
  501TMC3     O 7449   3.826   0.188  10.088 -0.1195  0.1155  0.1382
  501TMC3     H 7450   3.716   0.408  10.150 -0.1529 -0.8575 -0.2459
  501TMC3    H1 7451   3.639   0.065  10.404  0.2352  0.0634  0.3003
  501TMC3    H2 7452   3.522   0.467  10.529  0.6512  0.2836  0.2588
  501TMC3    C7 7453   3.629   0.232  10.618  0.0851 -0.0657  0.1798
  501TMC3    C8 7454   3.651   0.584  10.347 -0.2143 -0.4439 -0.0878
  501TMC3    O1 7455   3.723   0.149  10.622  0.5013  0.1552  0.4670
  501TMC3    O2 7456   3.656   0.629  10.463 -0.2096  0.5306 -0.4827
  502TMC3    C1 7457   2.632   3.422  15.415  0.4705 -0.1090  0.1697
  502TMC3    C2 7458   2.611   3.544  15.358  0.9447  0.0628  0.1112
  502TMC3    C3 7459   2.481   3.583  15.326  0.6035  0.0826  0.1840
  502TMC3    C4 7460   2.537   3.336  15.442 -0.0363  0.3902 -1.2842
  502TMC3    C5 7461   2.413   3.374  15.415 -0.5094  0.0068  0.7201
  502TMC3    C6 7462   2.381   3.499  15.361 -0.7092 -0.0861  0.4406
  502TMC3     C 7463   2.739   3.426  15.515  0.0251 -0.1422  0.3708
  502TMC3     O 7464   2.823   3.519  15.506 -0.5718 -0.1395 -0.3928
  502TMC3     H 7465   2.693   3.608  15.330  1.8843 -1.1429  0.1169
  502TMC3    H1 7466   2.562   3.234  15.471  0.6123  0.0366 -3.0652
  502TMC3    H2 7467   2.280   3.517  15.327 -0.7086 -0.7015  0.1072
  502TMC3    C7 7468   2.301   3.273  15.422  0.0840 -0.4879 -0.6541
  502TMC3    C8 7469   2.459   3.725  15.301  0.0776 -0.3766  0.0223
  502TMC3    O1 7470   2.328   3.156  15.442 -0.9831 -0.9915 -0.8169
  502TMC3    O2 7471   2.554   3.793  15.268  0.4166 -0.2337  0.4295
  503MPD2     C 7472   0.011   4.662  16.907  0.4039  0.1137  0.0690
  503MPD2    C1 7473   0.042   4.694  17.033  0.4741  0.0843 -0.3613
  503MPD2    C2 7474   0.078   4.589  17.113  0.2058 -0.0080 -1.1766
  503MPD2    C3 7475   0.091   4.453  17.066 -0.5151  0.1858  0.6960
  503MPD2    C4 7476   0.066   4.427  16.938  0.5434 -0.1806  0.6886
  503MPD2    C5 7477   0.016   4.529  16.865 -0.3275  0.0851  0.1520
  503MPD2     H 7478   0.080   4.599  17.221 -1.0506  1.5749 -1.2892
  503MPD2    H1 7479   0.088   4.332  16.891 -1.3953 -0.8228  1.0655
  503MPD2    H2 7480   4.709   0.018  16.842  0.6931  0.1691  0.0175
  503MPD2    H3 7481   4.721   4.505  16.762 -1.2060 -0.0518  0.3658
  503MPD2     N 7482   0.147   4.358  17.157  0.5754 -0.1971  0.1141
  503MPD2    H5 7483   0.146   4.379  17.257 -0.7020 -0.2643  0.1239
  503MPD2    N1 7484   0.031   0.099  17.081  1.0618 -1.0267  0.3776
  503MPD2    H7 7485   0.033   0.115  17.182 -2.4167  0.0219  0.2783
  504TMC3    C1 7486   0.285   4.191  17.234 -0.1677 -0.4407  0.6045
  504TMC3    C2 7487   0.220   4.182  17.351  0.0851  0.3611 -0.4021
  504TMC3    C3 7488   0.266   4.096  17.449  0.5123  0.3122  0.8282
  504TMC3    C4 7489   0.411   4.140  17.216  0.3519 -0.0973  0.0954
  504TMC3    C5 7490   0.455   4.051  17.316  0.6999  0.5753 -0.1613
  504TMC3    C6 7491   0.378   4.021  17.424 -0.4202  0.7391 -0.3823
  504TMC3     C 7492   0.214   4.246  17.121 -0.2244 -0.5256  0.2285
  504TMC3     O 7493   0.249   4.216  17.007 -0.3109 -0.7844 -0.0691
  504TMC3     H 7494   0.136   4.241  17.383 -0.1695  0.1216 -0.6246
  504TMC3    H1 7495   0.466   4.159  17.125 -2.2005  0.6378 -1.2909
  504TMC3    H2 7496   0.422   3.952  17.495  1.5487 -0.0450 -2.3578
  504TMC3    C7 7497   0.563   3.960  17.278  0.0988 -0.6834  0.0333
  504TMC3    C8 7498   0.171   4.062  17.554  0.8419 -0.4514 -0.2417
  504TMC3    O1 7499   0.627   4.008  17.186  0.1320 -0.4572 -0.1587
  504TMC3    O2 7500   0.062   4.117  17.549 -0.0020 -0.4899  0.7296
  505MPD2     C 7501   0.004   3.539  10.666 -0.4033  0.5259  0.0357
  505MPD2    C1 7502   0.067   3.459  10.575  0.4699 -0.1066 -0.0325
  505MPD2    C2 7503   0.184   3.398  10.613 -0.4945  0.1272 -0.2185
  505MPD2    C3 7504   0.246   3.425  10.727 -0.3835  0.3152  0.1086
  505MPD2    C4 7505   0.193   3.521  10.808  0.3646  0.5024 -0.0044
  505MPD2    C5 7506   0.064   3.572  10.787  0.4533 -0.2990  1.4096
  505MPD2     H 7507   0.227   3.325  10.545  0.2531  0.9300 -0.6232
  505MPD2    H1 7508   0.235   3.560  10.900  2.1552  2.4029 -1.6479
  505MPD2    H2 7509   4.630   3.577  10.648 -0.1548  1.3642  0.4164
  505MPD2    H3 7510   0.026   3.641  10.862  1.9248  1.6135  0.4064
  505MPD2     N 7511   0.371   3.356  10.757 -0.5188  0.5313  0.1401
  505MPD2    H5 7512   0.395   3.278  10.697 -1.3498 -1.5124  2.4673
  505MPD2    N1 7513   0.014   3.443  10.442  0.1914 -0.2045 -1.2768
  505MPD2    H7 7514   4.647   3.484  10.431 -0.4878 -1.5628 -0.5888
  506TMC3    C1 7515   0.013   3.424  10.199  0.1467  0.2173 -0.7528
  506TMC3    C2 7516   0.004   3.559  10.180  0.4072  0.0234  0.3351
  506TMC3    C3 7517   0.053   3.613  10.065 -0.2764  0.2711  0.0779
  506TMC3    C4 7518   0.080   3.348  10.111  0.4132 -0.2859 -0.1411
  506TMC3    C5 7519   0.157   3.408  10.015 -0.6751 -0.1055  0.2104
  506TMC3    C6 7520   0.144   3.543   9.988  0.6099  0.6036  0.0448
  506TMC3     C 7521   0.077   3.393  10.331  0.5075 -0.1972  0.5936
  506TMC3     O 7522   0.187   3.340  10.320 -0.3028  0.3006 -0.2049
  506TMC3     H 7523   4.670   3.615  10.251 -2.0682  0.0454 -1.7733
  506TMC3    H1 7524   0.081   3.240  10.119 -3.3328 -0.3123  0.0474
  506TMC3    H2 7525   0.186   3.584   9.897 -0.6589  0.8761 -0.4198
  506TMC3    C7 7526   0.290   3.351   9.980  0.9029  0.0001  0.1104
  506TMC3    C8 7527   0.079   3.758  10.068 -0.6384  0.5363  0.8548
  506TMC3    O1 7528   0.347   3.396   9.883 -0.2938  0.0176 -0.0965
  506TMC3    O2 7529   4.709   3.833  10.040  0.1604 -0.1159  0.1229
  507TMC3    C1 7530   0.847   3.557  14.616 -0.2187 -0.9809  0.1182
  507TMC3    C2 7531   0.920   3.546  14.506  0.4537  0.4795 -0.2724
  507TMC3    C3 7532   1.049   3.574  14.513  0.3026 -0.3670 -0.9497
  507TMC3    C4 7533   0.897   3.588  14.735 -0.1192  0.3544 -0.0034
  507TMC3    C5 7534   1.035   3.600  14.734 -0.7862 -0.0815  0.2485
  507TMC3    C6 7535   1.116   3.583  14.628  0.6923 -0.9215 -0.6359
  507TMC3     C 7536   0.703   3.510  14.605 -0.5903  0.2454 -0.4838
  507TMC3     O 7537   0.675   3.462  14.498 -0.4710 -0.2113  0.1864
  507TMC3     H 7538   0.872   3.529  14.410 -1.0667 -0.3368  0.6301
  507TMC3    H1 7539   0.841   3.604  14.826 -4.6059 -1.7612 -2.3685
  507TMC3    H2 7540   1.221   3.608  14.637  0.2172  1.6326 -2.0524
  507TMC3    C7 7541   1.090   3.700  14.823 -0.1290 -0.2831 -0.3536
  507TMC3    C8 7542   1.077   3.682  14.422 -0.7872  0.1913 -0.3056
  507TMC3    O1 7543   1.177   3.771  14.785  1.2371  0.5711 -0.4358
  507TMC3    O2 7544   1.012   3.683  14.321  0.2074  0.0099 -0.6357
  508MPD2     C 7545   1.641   1.100  16.279  0.7598 -0.0085  0.3743
  508MPD2    C1 7546   1.765   1.158  16.270 -0.0185  0.5105 -0.0433
  508MPD2    C2 7547   1.776   1.253  16.166 -0.5751  0.5044  0.8016
  508MPD2    C3 7548   1.663   1.288  16.091  0.0015 -0.9697  0.1807
  508MPD2    C4 7549   1.545   1.220  16.106  0.4220 -0.7039  0.3781
  508MPD2    C5 7550   1.537   1.120  16.194  0.4831 -0.1016 -1.2327
  508MPD2     H 7551   1.863   1.313  16.140  0.0404  0.0069  1.7210
  508MPD2    H1 7552   1.464   1.247  16.039 -0.2796  0.6832  1.7991
  508MPD2    H2 7553   1.609   1.035  16.360 -0.1802 -0.5206 -0.4079
  508MPD2    H3 7554   1.446   1.065  16.215  0.5413 -0.3549 -1.6470
  508MPD2     N 7555   1.686   1.409  16.030  0.4245 -0.7457  0.0115
  508MPD2    H5 7556   1.780   1.443  16.016 -0.6083  1.3333 -1.9798
  508MPD2    N1 7557   1.858   1.144  16.374  0.2895 -0.2059  0.0041
  508MPD2    H7 7558   1.835   1.081  16.449  1.0145  1.6114  1.7619
  509TMC3    C1 7559   1.587   1.809  15.808 -0.0552  0.9604 -0.9516
  509TMC3    C2 7560   1.700   1.872  15.851 -0.0519 -0.2230  0.4182
  509TMC3    C3 7561   1.797   1.788  15.903 -0.1797 -0.6788 -0.3369
  509TMC3    C4 7562   1.552   1.685  15.836  0.0405 -0.4657  0.4039
  509TMC3    C5 7563   1.637   1.610  15.918  0.1953 -0.4040 -0.6207
  509TMC3    C6 7564   1.765   1.657  15.945  0.9917 -0.4805  0.6431
  509TMC3     C 7565   1.478   1.887  15.761  0.2915  1.0537 -0.2399
  509TMC3     O 7566   1.364   1.868  15.810 -0.4325  0.0457  0.4001
  509TMC3     H 7567   1.710   1.975  15.818  0.7167 -0.7963 -1.1109
  509TMC3    H1 7568   1.453   1.668  15.796  0.6801 -0.8015 -1.0356
  509TMC3    H2 7569   1.839   1.601  16.001 -0.9638 -1.8197  1.8792
  509TMC3    C7 7570   1.589   1.488  15.975  0.2055 -0.3731 -0.4140
  509TMC3    C8 7571   1.942   1.810  15.890 -0.3521  1.0127  0.0246
  509TMC3    O1 7572   1.472   1.456  15.969  0.0324 -0.2828 -0.4380
  509TMC3    O2 7573   2.010   1.713  15.866 -0.0745  0.6927 -0.1410
  510MPD2     C 7574   4.438   3.590  14.473 -0.1652  0.4089 -0.7145
  510MPD2    C1 7575   4.479   3.491  14.564 -0.0121 -0.4254  0.1884
  510MPD2    C2 7576   4.589   3.417  14.536 -0.0589  0.8683 -0.5523
  510MPD2    C3 7577   4.667   3.440  14.425 -0.6335 -0.3931 -0.2027
  510MPD2    C4 7578   4.638   3.556  14.351  0.4650 -0.2029 -0.2400
  510MPD2    C5 7579   4.525   3.627  14.376  0.3853  0.1736  0.7094
  510MPD2     H 7580   4.608   3.335  14.604 -2.5490  1.6532  1.1006
  510MPD2    H1 7581   4.707   3.589  14.274  0.4448 -0.7682 -0.4960
  510MPD2    H2 7582   4.349   3.644  14.503  0.5160  0.2314  1.6815
  510MPD2    H3 7583   4.511   3.721  14.322 -0.0782  0.8392  1.9867
  510MPD2     N 7584   0.059   3.364  14.404  0.5685  0.5071 -0.5195
  510MPD2    H5 7585   0.076   3.282  14.461 -3.1839 -0.1608 -0.3753
  510MPD2    N1 7586   4.399   3.471  14.679  0.3699 -0.5979  0.7528
  510MPD2    H7 7587   4.309   3.518  14.681 -0.7869 -2.8152  0.1730
  511TMC3    C1 7588   4.316   3.358  14.870  0.1003  0.4088 -0.0861
  511TMC3    C2 7589   4.329   3.358  15.003  0.8504 -0.6126  0.4247
  511TMC3    C3 7590   4.251   3.279  15.079  0.9573  0.1538  0.5752
  511TMC3    C4 7591   4.249   3.254  14.809 -0.2680 -0.0266 -0.2305
  511TMC3    C5 7592   4.186   3.170  14.888  0.0736 -0.6637  0.3123
  511TMC3    C6 7593   4.170   3.186  15.023  0.2100  0.0965  0.2684
  511TMC3     C 7594   4.431   3.389  14.786  0.4495 -0.5139 -0.0033
  511TMC3     O 7595   4.543   3.354  14.820 -0.2784 -0.2593  0.0144
  511TMC3     H 7596   4.396   3.425  15.054  1.1640  0.2508 -1.1307
  511TMC3    H1 7597   4.248   3.239  14.702  0.3423 -3.4660  0.2356
  511TMC3    H2 7598   4.080   3.142  15.064 -0.6871 -0.0091 -1.8160
  511TMC3    C7 7599   4.157   3.033  14.827 -0.0893  0.0256 -0.6089
  511TMC3    C8 7600   4.219   3.333  15.213 -0.7287  0.3925 -0.6273
  511TMC3    O1 7601   4.166   3.027  14.705  0.7266 -0.3828  0.2046
  511TMC3    O2 7602   4.212   3.452  15.223  0.6097  0.0254  0.4072
  512TMC3    C1 7603   3.388   2.622  13.343  0.1744 -0.1886  0.3691
  512TMC3    C2 7604   3.419   2.623  13.475  0.3402 -0.6820 -0.1305
  512TMC3    C3 7605   3.493   2.517  13.522  0.2411 -0.4230 -0.1740
  512TMC3    C4 7606   3.446   2.533  13.255 -0.6720 -0.6008  0.7144
  512TMC3    C5 7607   3.511   2.420  13.314  0.0288  0.5944 -0.5797
  512TMC3    C6 7608   3.537   2.415  13.445 -0.3584 -0.3157  0.5431
  512TMC3     C 7609   3.289   2.718  13.297 -0.8361  0.1986 -0.4020
  512TMC3     O 7610   3.281   2.822  13.364 -0.2263 -0.1469 -0.0795
  512TMC3     H 7611   3.357   2.687  13.537 -0.3714 -1.2683 -0.2427
  512TMC3    H1 7612   3.431   2.543  13.148  0.4850 -0.6970  0.5431
  512TMC3    H2 7613   3.607   2.344  13.487 -0.8418 -1.8746 -1.3063
  512TMC3    C7 7614   3.579   2.335  13.222 -0.0146 -0.0557 -0.2135
  512TMC3    C8 7615   3.525   2.514  13.662 -0.6948 -0.0441 -0.5469
  512TMC3    O1 7616   3.586   2.372  13.104 -0.1905 -0.3468  0.7585
  512TMC3    O2 7617   3.554   2.410  13.716 -0.8388  0.5592 -0.2190
  513MPD2     C 7618   0.147   2.368  12.937 -0.4155  0.1000  0.9395
  513MPD2    C1 7619   0.114   2.504  12.964 -0.5659 -0.1922 -1.1829
  513MPD2    C2 7620   0.186   2.568  13.059 -0.1248  0.3480  0.0361
  513MPD2    C3 7621   0.291   2.509  13.125 -0.2320  0.9445  0.2664
  513MPD2    C4 7622   0.321   2.373  13.106 -0.0851  0.1515 -0.3868
  513MPD2    C5 7623   0.252   2.307  13.008  0.4940 -0.3609 -0.3427
  513MPD2     H 7624   0.167   2.674  13.076  0.1708  0.1221  1.8181
  513MPD2    H1 7625   0.399   2.331  13.168  0.2917  1.3002 -0.0869
  513MPD2    H2 7626   0.115   2.311  12.851 -4.1578  2.2821  0.8823
  513MPD2    H3 7627   0.291   2.213  12.970  1.0929 -1.0517  2.0125
  513MPD2     N 7628   0.372   2.592  13.207 -0.0014 -0.9489  0.5519
  513MPD2    H5 7629   0.340   2.689  13.212  1.2073 -0.4863 -0.6538
  513MPD2    N1 7630   0.038   2.586  12.881  0.7568  0.0172  0.3452
  513MPD2    H7 7631   0.027   2.683  12.908  0.8645  0.3705 -0.8759
  514TMC3    C1 7632   4.638   2.628  12.678 -0.3673 -1.1288  0.6093
  514TMC3    C2 7633   4.630   2.584  12.548  0.2004 -0.0321 -0.1962
  514TMC3    C3 7634   4.686   2.654  12.447  0.4795 -0.5102  0.4085
  514TMC3    C4 7635   4.680   2.759  12.691 -0.0131 -0.6031  0.5691
  514TMC3    C5 7636   4.722   2.834  12.585 -0.7230  0.3725  0.9183
  514TMC3    C6 7637   0.010   2.782  12.460  0.5384  0.0944 -0.1071
  514TMC3     C 7638   4.697   2.533  12.776 -0.1945 -0.3338  0.1432
  514TMC3     O 7639   4.680   2.416  12.742 -0.0042 -0.0556  0.0126
  514TMC3     H 7640   4.585   2.487  12.531 -1.7281  0.6135  1.1630
  514TMC3    H1 7641   4.656   2.808  12.785 -2.0704  0.1076 -0.3292
  514TMC3    H2 7642   0.036   2.851  12.380 -1.9024  0.7115 -0.3552
  514TMC3    C7 7643   0.089   2.940  12.618 -0.6302  1.0920 -0.1613
  514TMC3    C8 7644   4.698   2.587  12.320 -0.0932 -0.1417 -0.1578
  514TMC3    O1 7645   0.123   3.014  12.531  0.2029 -0.2576  0.2558
  514TMC3    O2 7646   4.645   2.479  12.311  0.0152  0.4603  0.3428
  515MPD2     C 7647   3.563   4.454  14.398 -1.2183  0.2514 -0.2389
  515MPD2    C1 7648   3.531   4.339  14.466  1.3389 -0.4327 -0.9416
  515MPD2    C2 7649   3.537   4.346  14.606  0.5383 -0.8407 -0.3074
  515MPD2    C3 7650   3.572   4.464  14.676 -0.3016 -0.1340 -0.2010
  515MPD2    C4 7651   3.586   4.578  14.594  0.0654 -0.9618  0.0447
  515MPD2    C5 7652   3.579   4.573  14.459 -0.5086 -0.3061  0.1645
  515MPD2     H 7653   3.499   4.266  14.669  1.1245  0.1759  1.3585
  515MPD2    H1 7654   3.606   4.668  14.651 -0.8188 -1.8718  1.8024
  515MPD2    H2 7655   3.564   4.451  14.289  0.0803  1.5391 -0.2607
  515MPD2    H3 7656   3.591   4.660  14.394  2.9687  0.1118  1.3075
  515MPD2     N 7657   3.585   4.478  14.816  0.3191  0.3265  0.4856
  515MPD2    H5 7658   3.605   4.571  14.851  1.7791  0.1814  0.0625
  515MPD2    N1 7659   3.479   4.230  14.397  0.0917 -0.0319  1.1214
  515MPD2    H7 7660   3.456   4.241  14.299  3.5251 -3.2565 -0.0294
  516TMC3    C1 7661   3.371   4.018  14.374  0.7808 -0.2228 -0.0419
  516TMC3    C2 7662   3.270   4.070  14.301 -0.2743 -0.0171 -0.0442
  516TMC3    C3 7663   3.175   3.990  14.255  0.0021 -0.3862 -0.5297
  516TMC3    C4 7664   3.366   3.889  14.425 -0.4919 -0.6857  0.0038
  516TMC3    C5 7665   3.256   3.815  14.393 -0.1363  0.3847  0.1002
  516TMC3    C6 7666   3.162   3.860  14.302 -0.0068 -0.2776  0.1444
  516TMC3     C 7667   3.447   4.111  14.455 -0.1776  0.2121 -0.8320
  516TMC3     O 7668   3.471   4.069  14.567  0.0004  0.3565  0.2330
  516TMC3     H 7669   3.246   4.175  14.304  1.2650  0.3818 -1.7489
  516TMC3    H1 7670   3.435   3.854  14.502 -0.8465 -0.8654  0.2374
  516TMC3    H2 7671   3.080   3.799  14.266  1.4499 -1.6307 -0.8990
  516TMC3    C7 7672   3.227   3.707  14.487  0.4914 -0.0312 -0.6874
  516TMC3    C8 7673   3.072   4.050  14.165  0.2856 -0.0850 -0.0974
  516TMC3    O1 7674   3.273   3.707  14.602  0.0192  0.2802 -0.2493
  516TMC3    O2 7675   2.962   3.993  14.159 -0.0512  0.2556 -0.1463
  517MPD2     C 7676   2.968   1.690   0.013 -0.1323 -0.6682  0.3545
  517MPD2    C1 7677   3.086   1.702   0.081 -0.0993 -0.2166 -0.1751
  517MPD2    C2 7678   3.129   1.825   0.122 -0.0105  0.0545  0.0804
  517MPD2    C3 7679   3.045   1.936   0.110 -0.2073  0.5926 -0.2465
  517MPD2    C4 7680   2.929   1.919   0.046 -0.3113  0.2105 -0.9712
  517MPD2    C5 7681   2.884   1.795   0.001 -0.1528 -0.1236  1.1733
  517MPD2     H 7682   3.231   1.831   0.159 -0.0669 -0.2843  0.2869
  517MPD2    H1 7683   2.863   2.002   0.023 -0.3662  0.5794  0.5469
  517MPD2    H2 7684   2.930   1.595  17.681 -1.5743  0.5017 -1.2089
  517MPD2    H3 7685   2.791   1.782  17.652  0.2912  0.1069  0.3346
  517MPD2     N 7686   3.069   2.068   0.159  0.3434  0.5491  0.0107
  517MPD2    H5 7687   3.006   2.141   0.127 -0.5591  0.1477  0.8797
  517MPD2    N1 7688   3.176   1.593   0.106  0.1007 -0.7591  0.1631
  517MPD2    H7 7689   3.262   1.602   0.160  0.0354  2.9141 -0.2967
  518TMC3    C1 7690   3.266   1.380   0.074  0.1864  0.1175  0.4065
  518TMC3    C2 7691   3.271   1.253   0.133  0.4076 -0.2506 -0.4813
  518TMC3    C3 7692   3.378   1.166   0.105  0.2265  0.9875 -0.6437
  518TMC3    C4 7693   3.360   1.429  17.697  0.1935  0.4460 -0.3074
  518TMC3    C5 7694   3.460   1.342  17.661 -0.5733 -0.3960 -0.0924
  518TMC3    C6 7695   3.476   1.215   0.015  0.0491  0.7712 -0.3492
  518TMC3     C 7696   3.147   1.464   0.081  0.5045  0.6583  0.3287
  518TMC3     O 7697   3.036   1.410   0.087  0.3608  0.5681  0.5986
  518TMC3     H 7698   3.188   1.216   0.193  1.1301  0.6113  1.0507
  518TMC3    H1 7699   3.347   1.527  17.651 -1.3807 -0.9028 -2.7632
  518TMC3    H2 7700   3.571   1.163   0.003 -0.7545 -0.0563 -2.9928
  518TMC3    C7 7701   3.499   1.338  17.522  0.3659  0.7219 -0.4002
  518TMC3    C8 7702   3.365   1.020   0.088 -0.6293  0.4750 -0.0664
  518TMC3    O1 7703   3.441   1.422  17.456 -0.8264  0.1899 -0.4942
  518TMC3    O2 7704   3.449   0.965   0.015 -0.8211 -0.5446 -0.0734
  519MPD2     C 7705   4.574   4.281  14.686  0.4886 -0.0192  0.3547
  519MPD2    C1 7706   4.556   4.288  14.549  0.5228 -0.3176  1.0461
  519MPD2    C2 7707   4.621   4.194  14.462  0.0126  0.8088  0.1391
  519MPD2    C3 7708   4.715   4.102  14.513  0.1510  0.1031 -1.3472
  519MPD2    C4 7709   0.013   4.108  14.652  0.0173 -0.1376  0.0686
  519MPD2    C5 7710   4.670   4.195  14.737  0.7225  0.0588 -1.0188
  519MPD2     H 7711   4.599   4.195  14.356  0.3218  0.8741  0.0756
  519MPD2    H1 7712   0.091   4.051  14.702 -0.2530 -0.2375  0.3790
  519MPD2    H2 7713   4.550   4.367  14.748  0.4591  0.5645 -0.4582
  519MPD2    H3 7714   4.706   4.203  14.839 -0.1574  0.8723 -0.7742
  519MPD2     N 7715   0.056   4.004  14.438 -0.8061 -0.5159  0.2019
  519MPD2    H5 7716   0.133   3.952  14.479  1.8716  1.9939 -1.6012
  519MPD2    N1 7717   4.457   4.366  14.484 -0.0391 -0.2157 -0.5042
  519MPD2    H7 7718   4.394   4.409  14.551 -1.3088 -0.5326 -1.4790
  520TMC3    C1 7719   0.081   3.877  14.231  0.5349  0.2207  0.3203
  520TMC3    C2 7720   0.022   3.842  14.106 -0.4045 -0.2819  0.8517
  520TMC3    C3 7721   0.085   3.753  14.023 -0.4814  0.2361 -0.4154
  520TMC3    C4 7722   0.193   3.815  14.269  0.2317 -0.1156 -0.3137
  520TMC3    C5 7723   0.248   3.715  14.183 -0.5433 -0.3946 -0.4762
  520TMC3    C6 7724   0.201   3.696  14.060 -0.3515 -1.0673  0.4142
  520TMC3     C 7725   0.006   3.971  14.308  0.2829 -0.5147  0.2419
  520TMC3     O 7726   4.643   4.020  14.239  0.6134  0.0279  0.0840
  520TMC3     H 7727   4.687   3.916  14.057 -1.9213 -2.3090 -0.3267
  520TMC3    H1 7728   0.253   3.844  14.355  0.5403  0.8424 -0.8478
  520TMC3    H2 7729   0.240   3.629  13.985 -4.3415 -1.1064 -1.6148
  520TMC3    C7 7730   0.373   3.647  14.210  1.0543  0.5227  0.3524
  520TMC3    C8 7731   0.052   3.763  13.886  0.0855 -0.2395  0.1848
  520TMC3    O1 7732   0.391   3.612  14.323 -0.2122  0.1995  0.6077
  520TMC3    O2 7733   0.144   3.752  13.808 -0.0379  0.2105 -0.4668
  521MPD2     C 7734   0.992   2.072   0.124 -0.4039  0.2463  0.1212
  521MPD2    C1 7735   0.936   2.069   0.003 -0.1310  0.3761  0.0767
  521MPD2    C2 7736   0.980   1.989  17.600  0.9240  0.4247 -0.6004
  521MPD2    C3 7737   1.088   1.911  17.624 -0.2946  0.3149  0.1543
  521MPD2    C4 7738   1.155   1.918   0.039 -0.2535 -0.2448  0.2528
  521MPD2    C5 7739   1.118   2.012   0.137 -1.1090  0.3536  0.6620
  521MPD2     H 7740   0.921   1.968  17.512 -0.0263  0.5746 -0.0036
  521MPD2    H1 7741   1.247   1.863   0.052 -1.5434 -2.5081 -0.1506
  521MPD2    H2 7742   0.949   2.135   0.201  1.1615  1.3803  0.0732
  521MPD2    H3 7743   1.168   2.011   0.233 -1.3758  1.1024  0.8032
  521MPD2     N 7744   1.121   1.820  17.520  0.1185  0.3502 -0.1988
  521MPD2    H5 7745   1.062   1.825  17.438 -1.7231  0.3860  1.1538
  521MPD2    N1 7746   0.818   2.141  17.699 -0.1891  0.5689  0.2181
  521MPD2    H7 7747   0.779   2.177   0.082 -0.7064 -1.6509  0.9109
  522TMC3    C1 7748   1.243   1.669  17.393  1.0183  0.5401 -0.0294
  522TMC3    C2 7749   1.320   1.552  17.386  0.2459 -0.2632  0.8627
  522TMC3    C3 7750   1.384   1.524  17.273  0.0993 -0.4436 -0.2619
  522TMC3    C4 7751   1.222   1.749  17.281 -0.3735  0.1185 -0.6910
  522TMC3    C5 7752   1.291   1.711  17.167  0.2651  0.1058 -0.2681
  522TMC3    C6 7753   1.367   1.594  17.164 -0.4626  0.3770 -0.0128
  522TMC3     C 7754   1.217   1.725  17.522  0.5116  0.1893 -0.2328
  522TMC3     O 7755   1.260   1.664  17.619  0.7712  0.3343  0.6450
  522TMC3     H 7756   1.331   1.504  17.483  2.8048  1.4200  1.3969
  522TMC3    H1 7757   1.166   1.841  17.272 -1.8602 -0.6200  1.0361
  522TMC3    H2 7758   1.425   1.568  17.077  0.0662  1.2571  0.0757
  522TMC3    C7 7759   1.301   1.795  17.054  0.4792  0.6305 -0.2681
  522TMC3    C8 7760   1.416   1.388  17.247  0.1572 -0.1292 -0.6563
  522TMC3    O1 7761   1.403   1.786  16.989  0.6136  0.1870  0.6267
  522TMC3    O2 7762   1.337   1.314  17.307 -0.4285  0.6327 -0.2983
  523MPD2     C 7763   3.286   2.356  10.263 -0.0164  0.1649 -0.0766
  523MPD2    C1 7764   3.266   2.225  10.225 -0.6480 -0.3211 -0.6627
  523MPD2    C2 7765   3.213   2.200  10.102 -0.4335 -0.1491  0.0007
  523MPD2    C3 7766   3.165   2.306  10.031  0.8909  0.2228 -0.5988
  523MPD2    C4 7767   3.172   2.434  10.076  0.1481  0.0970  0.1713
  523MPD2    C5 7768   3.245   2.463  10.184  0.6999 -0.0769  0.1633
  523MPD2     H 7769   3.208   2.099  10.064 -0.0050 -0.0042 -0.4494
  523MPD2    H1 7770   3.127   2.514  10.019 -0.5926 -1.5339 -1.5370
  523MPD2    H2 7771   3.329   2.387  10.358  1.4086  0.8393 -0.9502
  523MPD2    H3 7772   3.260   2.563  10.222  0.5587 -0.9676  2.5526
  523MPD2     N 7773   3.091   2.286   9.906 -0.6826 -0.0864  0.0066
  523MPD2    H5 7774   3.046   2.364   9.860 -0.5670 -0.6046 -0.9856
  523MPD2    N1 7775   3.316   2.118  10.303 -0.1946  0.4431 -0.1630
  523MPD2    H7 7776   3.317   2.030  10.252 -0.5210 -0.0399  0.6594
  524TMC3    C1 7777   2.938   2.172   9.769 -1.3500  0.3125 -0.2263
  524TMC3    C2 7778   2.896   2.054   9.717 -0.4897 -0.4475 -0.0814
  524TMC3    C3 7779   2.790   2.046   9.631  0.4681 -0.0859 -0.0812
  524TMC3    C4 7780   2.877   2.287   9.727  0.0179  0.4744  0.4591
  524TMC3    C5 7781   2.779   2.282   9.630 -0.0893 -0.4191  0.5575
  524TMC3    C6 7782   2.723   2.161   9.596  1.0798  0.2892  0.1827
  524TMC3     C 7783   3.027   2.165   9.883 -0.2737  0.7045 -0.5587
  524TMC3     O 7784   3.036   2.054   9.936 -0.0933  0.3848  0.0530
  524TMC3     H 7785   2.935   1.962   9.759  1.5546 -0.5628 -2.2642
  524TMC3    H1 7786   2.909   2.384   9.765  1.2598 -0.6102  2.2204
  524TMC3    H2 7787   2.631   2.156   9.538  1.2735  1.2031 -0.1944
  524TMC3    C7 7788   2.714   2.414   9.595  0.3222  0.4677  0.1771
  524TMC3    C8 7789   2.749   1.910   9.582  0.2436  0.3869 -0.5275
  524TMC3    O1 7790   2.734   2.515   9.660 -0.0570  0.0313  0.0370
  524TMC3    O2 7791   2.797   1.812   9.636  0.1363 -0.0822  0.0575
  525MPD2     C 7792   1.351   3.324  14.522 -0.1605  0.0712  0.0208
  525MPD2    C1 7793   1.424   3.356  14.632 -1.0613  0.0281 -0.1364
  525MPD2    C2 7794   1.499   3.477  14.640 -0.0564 -0.4809  0.1525
  525MPD2    C3 7795   1.482   3.570  14.536  0.5156 -0.2082 -0.4020
  525MPD2    C4 7796   1.401   3.539  14.431 -0.2162 -0.9485  0.3658
  525MPD2    C5 7797   1.350   3.414  14.416  0.1229  0.1734  0.0871
  525MPD2     H 7798   1.569   3.514  14.714  0.9981 -0.8458 -0.6576
  525MPD2    H1 7799   1.399   3.606  14.345 -1.2139 -1.3316  0.0971
  525MPD2    H2 7800   1.299   3.229  14.517 -0.9250  0.5972 -1.9920
  525MPD2    H3 7801   1.293   3.398  14.325  1.2929  1.5500 -0.8853
  525MPD2     N 7802   1.541   3.693  14.541 -0.4543  0.4714  0.1203
  525MPD2    H5 7803   1.598   3.718  14.621 -0.6341 -0.2316  0.4660
  525MPD2    N1 7804   1.436   3.272  14.742 -0.2627 -0.0558  0.6975
  525MPD2    H7 7805   1.508   3.292  14.810 -0.5865 -0.9320  1.2995
  526TMC3    C1 7806   1.381   3.085  14.886  0.3954 -0.0775  0.5832
  526TMC3    C2 7807   1.294   3.082  14.989 -0.2419 -0.1544  0.3819
  526TMC3    C3 7808   1.330   3.001  15.099 -0.3114 -0.6893  0.8405
  526TMC3    C4 7809   1.505   3.024  14.879 -0.6568 -0.1776 -0.0886
  526TMC3    C5 7810   1.537   2.954  14.990 -0.0584  0.5606  0.5901
  526TMC3    C6 7811   1.450   2.936  15.091 -0.2740  0.4560 -0.5983
  526TMC3     C 7812   1.342   3.177  14.780  0.0161 -0.1808  0.1800
  526TMC3     O 7813   1.228   3.168  14.739  1.2330  0.0617 -0.1096
  526TMC3     H 7814   1.216   3.157  14.991 -1.0798 -0.9513 -3.0436
  526TMC3    H1 7815   1.572   3.051  14.799  0.4357 -1.7717  0.3029
  526TMC3    H2 7816   1.474   2.882  15.182 -0.9580  0.1531 -0.5954
  526TMC3    C7 7817   1.674   2.912  15.021  0.0351  0.1835  0.6805
  526TMC3    C8 7818   1.325   3.076  15.220  0.5930 -0.2383  0.6858
  526TMC3    O1 7819   1.695   2.897  15.142  0.1177  0.2334 -0.4067
  526TMC3    O2 7820   1.434   3.099  15.269  0.1306  0.4135  0.2373
  527MPD2     C 7821   1.100   1.833   1.717  0.8244 -0.8039 -0.9138
  527MPD2    C1 7822   1.056   1.907   1.608 -0.2077  0.4292 -0.6958
  527MPD2    C2 7823   1.087   1.864   1.482  0.3426  0.3086 -0.2679
  527MPD2    C3 7824   1.153   1.734   1.471  0.2256 -0.0196  0.2445
  527MPD2    C4 7825   1.194   1.668   1.582 -0.3974  0.3369  0.6538
  527MPD2    C5 7826   1.167   1.715   1.706  0.0603  0.4453  0.5970
  527MPD2     H 7827   1.055   1.922   1.396 -1.6587 -1.4506 -0.7308
  527MPD2    H1 7828   1.246   1.573   1.583 -2.1513 -0.6415 -1.0007
  527MPD2    H2 7829   1.087   1.869   1.819  1.6437 -0.1966 -1.0183
  527MPD2    H3 7830   1.200   1.654   1.789  0.4668 -0.0638  0.0675
  527MPD2     N 7831   1.160   1.678   1.342  0.3781 -0.0302  0.3083
  527MPD2    H5 7832   1.126   1.730   1.262  0.7791  0.8221  0.7030
  527MPD2    N1 7833   0.978   2.030   1.607 -0.1191  0.3521 -0.1280
  527MPD2    H7 7834   0.959   2.069   1.515 -0.6374  1.5451  0.4807
  528TMC3    C1 7835   0.873   2.220   1.704 -0.4953 -0.0665  0.4297
  528TMC3    C2 7836   0.894   2.321   1.792 -0.0726  0.5520 -0.2110
  528TMC3    C3 7837   0.808   2.424   1.782  0.4318 -0.3828 -0.5837
  528TMC3    C4 7838   0.781   2.226   1.604  0.0259  0.7392  0.0742
  528TMC3    C5 7839   0.710   2.346   1.590 -0.0971 -0.3998 -0.1994
  528TMC3    C6 7840   0.720   2.442   1.683 -0.4659  0.1815  0.1515
  528TMC3     C 7841   0.947   2.097   1.724  0.6062 -0.1627 -0.5094
  528TMC3     O 7842   0.964   2.065   1.843 -0.1665  0.0671  0.7037
  528TMC3     H 7843   0.976   2.314   1.863  0.0784 -0.8336 -0.5214
  528TMC3    H1 7844   0.763   2.135   1.548 -0.1154  0.2632  0.9080
  528TMC3    H2 7845   0.648   2.523   1.677 -0.1328  0.4462 -0.3277
  528TMC3    C7 7846   0.607   2.359   1.487 -0.2512  0.0085 -0.3757
  528TMC3    C8 7847   0.777   2.501   1.901 -0.9259  0.2177 -0.3650
  528TMC3    O1 7848   0.533   2.452   1.495  0.1357  0.2724  0.4605
  528TMC3    O2 7849   0.698   2.594   1.893  0.2689 -0.0743 -0.4531
  529MPD2     C 7850   1.864   0.476   1.212 -0.3608 -0.1467 -0.5220
  529MPD2    C1 7851   1.855   0.356   1.150  0.2600 -0.0838  0.2774
  529MPD2    C2 7852   1.829   0.346   1.011 -0.2867  0.0384 -0.0152
  529MPD2    C3 7853   1.810   0.464   0.936 -0.0401 -0.9105 -0.3591
  529MPD2    C4 7854   1.832   0.586   0.998  0.5126  0.0436  0.3510
  529MPD2    C5 7855   1.847   0.592   1.132 -0.2913  0.0535  0.3789
  529MPD2     H 7856   1.841   0.248   0.967  2.1531 -1.1649  3.3185
  529MPD2    H1 7857   1.820   0.679   0.943 -1.0959 -0.1506  0.3637
  529MPD2    H2 7858   1.880   0.486   1.319 -0.2015  2.2377 -0.7704
  529MPD2    H3 7859   1.840   0.680   1.194  1.1416  0.1276  0.4383
  529MPD2     N 7860   1.771   0.468   0.798 -0.4817  0.2149  0.0517
  529MPD2    H5 7861   1.764   0.561   0.757 -2.4384  0.8647  1.8514
  529MPD2    N1 7862   1.863   0.231   1.224  0.1510 -0.0380 -0.2020
  529MPD2    H7 7863   1.846   0.145   1.172 -0.5914  0.0073 -0.0395
  530TMC3    C1 7864   1.900   0.089   1.408  0.1421 -0.4950 -0.1194
  530TMC3    C2 7865   2.002   0.062   1.496 -0.2484 -0.6391 -0.3069
  530TMC3    C3 7866   2.016   4.656   1.544  0.0397 -0.4074 -0.4424
  530TMC3    C4 7867   1.813   4.720   1.360 -0.7625 -0.8383  0.1962
  530TMC3    C5 7868   1.834   4.592   1.404 -0.1098 -0.2549  0.1191
  530TMC3    C6 7869   1.931   4.567   1.498 -0.0433 -0.4058  1.0858
  530TMC3     C 7870   1.907   0.220   1.352 -0.6721 -0.0056 -0.0074
  530TMC3     O 7871   1.967   0.307   1.417 -0.0871 -0.0803  0.1745
  530TMC3     H 7872   2.066   0.137   1.541 -1.8645 -0.0239  0.9751
  530TMC3    H1 7873   1.731   0.019   1.293  1.4396  1.0228 -1.8392
  530TMC3    H2 7874   1.929   4.472   1.551 -0.5359 -0.7483  0.4681
  530TMC3    C7 7875   1.723   4.500   1.390 -0.1486 -0.0874  0.2631
  530TMC3    C8 7876   2.093   4.629   1.664  0.6092  0.4522 -0.2675
  530TMC3    O1 7877   1.619   4.551   1.348 -0.9227 -0.0896 -0.0065
  530TMC3    O2 7878   2.091   4.717   1.746 -0.1073  0.0364 -0.3057
  531MPD2     C 7879   0.460   3.175  12.898  0.7963  0.7186 -0.9851
  531MPD2    C1 7880   0.394   3.078  12.969  0.2245  0.2705 -0.2664
  531MPD2    C2 7881   0.294   2.992  12.916  0.0143 -0.4661  0.2368
  531MPD2    C3 7882   0.250   3.015  12.791 -0.3392  0.1779  0.2352
  531MPD2    C4 7883   0.307   3.126  12.727  0.3933  0.3286  0.1651
  531MPD2    C5 7884   0.420   3.189  12.772  0.3072 -0.5813  0.0881
  531MPD2     H 7885   0.253   2.912  12.976 -0.0665 -0.7063 -0.1351
  531MPD2    H1 7886   0.276   3.151  12.626 -0.4914  0.7894  0.5550
  531MPD2    H2 7887   0.534   3.243  12.938 -0.3954  1.3490  0.1614
  531MPD2    H3 7888   0.465   3.269  12.714  1.3069 -0.9058  0.4040
  531MPD2     N 7889   0.155   2.917  12.740 -0.2846 -0.1717 -0.5437
  531MPD2    H5 7890   0.117   2.847  12.803 -0.3673 -0.2633 -0.6960
  531MPD2    N1 7891   0.436   3.065  13.107 -0.3137 -0.1122 -0.2335
  531MPD2    H7 7892   0.505   3.131  13.140  1.0775 -2.0558  0.7643
  532TMC3    C1 7893   0.497   2.912  13.290  0.2905  0.4441 -0.6922
  532TMC3    C2 7894   0.464   2.786  13.333 -0.0884  0.2369  0.1579
  532TMC3    C3 7895   0.550   2.679  13.307  0.2425  0.1172 -0.0962
  532TMC3    C4 7896   0.631   2.942  13.258 -0.3225  0.0147 -0.8314
  532TMC3    C5 7897   0.723   2.830  13.257  0.3711  0.5879 -0.3825
  532TMC3    C6 7898   0.681   2.700  13.280 -0.3573  0.4964  0.5480
  532TMC3     C 7899   0.395   2.959  13.192 -0.2463  0.4142  0.0498
  532TMC3     O 7900   0.301   2.883  13.178  0.0512 -0.6614  0.2837
  532TMC3     H 7901   0.360   2.768  13.359  0.0305 -0.7007 -0.0015
  532TMC3    H1 7902   0.664   3.043  13.237 -1.7311  0.4007 -1.2209
  532TMC3    H2 7903   0.754   2.622  13.258  0.0453  0.7956  0.8111
  532TMC3    C7 7904   0.865   2.865  13.227  0.1245  0.3404  0.3504
  532TMC3    C8 7905   0.497   2.562  13.245  0.2681 -0.7777  0.6369
  532TMC3    O1 7906   0.882   2.984  13.191  0.5395  0.7390  0.2055
  532TMC3    O2 7907   0.568   2.469  13.219 -0.4470 -0.1838  0.0477
  533TMC3    C1 7908   1.594   3.902  14.480  0.3353 -0.6080  0.1886
  533TMC3    C2 7909   1.719   3.946  14.459  0.0467 -0.0081 -0.4275
  533TMC3    C3 7910   1.753   4.061  14.535  0.0820  0.1958  0.4028
  533TMC3    C4 7911   1.507   3.956  14.576  0.2235  0.0373 -0.3136
  533TMC3    C5 7912   1.546   4.065  14.642 -0.1951  0.7379 -0.6154
  533TMC3    C6 7913   1.667   4.115  14.622  0.7777  0.5280 -0.6589
  533TMC3     C 7914   1.560   3.775  14.429  0.0414 -0.3173 -0.9025
  533TMC3     O 7915   1.564   3.750  14.309 -0.5640  0.1453  0.3426
  533TMC3     H 7916   1.787   3.888  14.398 -0.0495 -0.7724  0.1974
  533TMC3    H1 7917   1.412   3.906  14.593  0.1552  0.1886 -0.2480
  533TMC3    H2 7918   1.709   4.200  14.676 -0.1966 -0.2107  1.2574
  533TMC3    C7 7919   1.482   4.091  14.769 -0.7032 -0.5072 -0.4925
  533TMC3    C8 7920   1.889   4.090  14.552  0.4519  0.7347  0.4059
  533TMC3    O1 7921   1.371   4.041  14.787  0.6790  0.2224  0.6312
  533TMC3    O2 7922   1.924   4.175  14.630 -0.3429  0.5241  0.0295
  534MPD2     C 7923   0.344   0.259   1.904  0.0392 -0.4573 -0.0082
  534MPD2    C1 7924   0.325   0.388   1.862  0.0169  0.9059 -1.0397
  534MPD2    C2 7925   0.198   0.423   1.801 -0.5136 -0.8432  0.5858
  534MPD2    C3 7926   0.104   0.336   1.771  0.2166 -0.2974  0.8032
  534MPD2    C4 7927   0.128   0.209   1.814 -0.2789 -0.0706 -0.1203
  534MPD2    C5 7928   0.242   0.172   1.883 -0.0058  0.2293  0.6297
  534MPD2     H 7929   0.183   0.524   1.765 -3.6030 -1.2526  0.7261
  534MPD2    H1 7930   0.059   0.126   1.802 -2.1449  1.3554  0.8466
  534MPD2    H2 7931   0.437   0.225   1.949  0.4846 -0.9650 -1.3180
  534MPD2    H3 7932   0.253   0.066   1.905 -0.1790 -0.2592 -1.5868
  534MPD2     N 7933   4.711   0.360   1.695 -0.6470 -0.1244 -0.0332
  534MPD2    H5 7934   4.653   0.277   1.689  0.2609 -0.5051 -3.3051
  534MPD2    N1 7935   0.426   0.490   1.879  0.2202 -0.1829  0.1660
  534MPD2    H7 7936   0.397   0.586   1.863  0.4878 -0.5649 -2.6118
  535TMC3    C1 7937   4.555   0.449   1.539  0.1043 -0.3405  0.5338
  535TMC3    C2 7938   4.458   0.377   1.608 -0.0584 -0.6273  0.0895
  535TMC3    C3 7939   4.340   0.356   1.536  0.1740 -0.5012  0.3336
  535TMC3    C4 7940   4.536   0.500   1.421  0.0272  0.2881  0.1883
  535TMC3    C5 7941   4.415   0.492   1.366 -0.1126 -0.0940 -0.0198
  535TMC3    C6 7942   4.319   0.398   1.411 -0.4931  0.6675  0.8569
  535TMC3     C 7943   4.682   0.463   1.610  0.0379 -0.1736 -0.5707
  535TMC3     O 7944   0.032   0.554   1.576  0.4606 -0.0994 -0.0836
  535TMC3     H 7945   4.454   0.370   1.716  1.9296 -0.8214  0.1377
  535TMC3    H1 7946   4.613   0.558   1.372  1.8883 -1.8462  0.5867
  535TMC3    H2 7947   4.226   0.371   1.364  0.2644 -0.1128 -0.1976
  535TMC3    C7 7948   4.414   0.524   1.224  0.4855  0.1818 -0.0945
  535TMC3    C8 7949   4.236   0.275   1.592  0.0311 -0.2211  0.6833
  535TMC3    O1 7950   4.345   0.459   1.148  0.1571  0.3132 -0.5947
  535TMC3    O2 7951   4.119   0.288   1.543  0.4073  0.0193 -0.3295
  536MPD2     C 7952   2.908   3.064  16.882  0.3265 -0.5488 -0.1994
  536MPD2    C1 7953   2.846   3.190  16.897  0.1531  0.3035 -0.1923
  536MPD2    C2 7954   2.771   3.237  16.791 -0.2568  0.6277  0.6080
  536MPD2    C3 7955   2.733   3.160  16.687 -0.3688  0.5761  0.2702
  536MPD2    C4 7956   2.788   3.037  16.673 -0.4559  0.6017  0.3800
  536MPD2    C5 7957   2.878   2.994  16.770  0.6940  0.6004  0.4527
  536MPD2     H 7958   2.731   3.338  16.795 -0.5484  0.4801  1.3475
  536MPD2    H1 7959   2.765   2.969  16.592  1.9850 -0.7345  0.8172
  536MPD2    H2 7960   2.968   3.017  16.959 -0.5352 -0.0144  0.8083
  536MPD2    H3 7961   2.915   2.892  16.770 -1.2412 -0.0865  1.3707
  536MPD2     N 7962   2.651   3.205  16.583 -0.0089  0.0669 -0.0758
  536MPD2    H5 7963   2.645   3.139  16.506 -0.5695  0.0372 -0.0034
  536MPD2    N1 7964   2.873   3.262  17.016  0.7848 -0.9489  0.4924
  536MPD2    H7 7965   2.923   3.216  17.092 -0.1726 -1.8961  0.5489
  537TMC3    C1 7966   2.844   3.431  17.185 -0.7416 -0.7038  0.0490
  537TMC3    C2 7967   2.864   3.565  17.208 -0.1470 -0.6792 -0.3583
  537TMC3    C3 7968   2.869   3.607  17.337  0.0035 -0.0191  0.3081
  537TMC3    C4 7969   2.828   3.333  17.284 -0.3676 -0.0075 -0.1063
  537TMC3    C5 7970   2.817   3.382  17.416  0.4724  0.2416 -0.1893
  537TMC3    C6 7971   2.845   3.513  17.440  0.4946  0.4281  0.0019
  537TMC3     C 7972   2.828   3.389  17.047 -0.1758 -0.1661 -0.6708
  537TMC3     O 7973   2.752   3.462  16.981 -0.1356 -0.2186 -0.2295
  537TMC3     H 7974   2.886   3.630  17.124 -1.2447  1.6800  1.1689
  537TMC3    H1 7975   2.792   3.234  17.256 -1.0725  0.5988 -1.3600
  537TMC3    H2 7976   2.861   3.549  17.541 -1.5717 -0.8196  0.7650
  537TMC3    C7 7977   2.826   3.296  17.530  0.9355  0.1636 -0.4404
  537TMC3    C8 7978   2.933   3.732  17.368  0.4278 -0.5333  0.6524
  537TMC3    O1 7979   2.826   3.356  17.637  0.0166  0.1990 -0.7671
  537TMC3    O2 7980   2.948   3.754  17.485 -0.1723  0.4963  0.2546
  538TMC3    C1 7981   4.267   1.989  11.112 -0.1204 -0.0311  0.0597
  538TMC3    C2 7982   4.374   1.969  11.031 -0.1566 -0.1662 -0.8199
  538TMC3    C3 7983   4.363   2.016  10.900  0.1881  0.7919  0.3075
  538TMC3    C4 7984   4.155   2.063  11.074  0.0193 -0.8825  0.0398
  538TMC3    C5 7985   4.146   2.100  10.941 -0.0013 -0.1619  0.7735
  538TMC3    C6 7986   4.250   2.076  10.853 -0.2426  0.0023  0.3161
  538TMC3     C 7987   4.272   1.934  11.242  0.2105 -0.2988  0.6126
  538TMC3     O 7988   4.195   1.979  11.325  0.5307  0.5820 -0.4882
  538TMC3     H 7989   4.478   1.955  11.058 -0.2378  2.0660  0.5915
  538TMC3    H1 7990   4.070   2.078  11.140  0.6317 -2.3415  1.1867
  538TMC3    H2 7991   4.229   2.079  10.747  1.3464 -2.0121 -0.0393
  538TMC3    C7 7992   4.023   2.155  10.897 -1.0636  0.4380  0.4482
  538TMC3    C8 7993   4.472   1.971  10.808  0.4387  0.4080  0.1566
  538TMC3    O1 7994   3.925   2.131  10.972 -0.5068  0.4851 -0.3201
  538TMC3    O2 7995   4.550   1.888  10.857  0.8024  0.4892  0.0311
  539MPD2     C 7996   3.886   1.269  11.974 -1.1191 -0.5130  0.0715
  539MPD2    C1 7997   3.896   1.295  11.841 -0.3784 -0.4382  0.4442
  539MPD2    C2 7998   3.797   1.365  11.772 -0.1700 -0.0875  0.3009
  539MPD2    C3 7999   3.706   1.440  11.851  0.9362 -0.1434 -0.2210
  539MPD2    C4 8000   3.699   1.418  11.991  0.2650  0.1015  0.2795
  539MPD2    C5 8001   3.790   1.333  12.048 -0.3533 -0.3811 -0.3745
  539MPD2     H 8002   3.791   1.375  11.664  0.6299  1.0659  0.3634
  539MPD2    H1 8003   3.632   1.478  12.052  1.5533  0.9805  0.8263
  539MPD2    H2 8004   3.959   1.216  12.034  1.9888  1.2362 -2.1408
  539MPD2    H3 8005   3.799   1.348  12.155  2.1231 -0.8964 -0.5080
  539MPD2     N 8006   3.613   1.534  11.799 -0.4296 -0.0928 -0.3630
  539MPD2    H5 8007   3.539   1.568  11.860 -1.0326 -0.2201 -1.0282
  539MPD2    N1 8008   3.984   1.225  11.760  0.0013 -0.5204 -0.2109
  539MPD2    H7 8009   3.971   1.245  11.661 -1.9654 -3.1304 -0.4800
  540TMC3    C1 8010   3.539   1.718  11.669 -0.2611  0.1865 -1.3020
  540TMC3    C2 8011   3.530   1.776  11.545  0.2089 -0.7558 -0.3773
  540TMC3    C3 8012   3.527   1.909  11.517 -0.7004  0.7830  0.4424
  540TMC3    C4 8013   3.531   1.799  11.779 -0.2729  0.4404  0.9817
  540TMC3    C5 8014   3.534   1.936  11.755 -0.0720  0.3790  0.6649
  540TMC3    C6 8015   3.531   1.994  11.629 -0.3703 -0.2531  0.5358
  540TMC3     C 8016   3.615   1.591  11.670  0.0088 -0.2379  0.6186
  540TMC3     O 8017   3.682   1.569  11.571 -0.4986 -0.7374  0.0686
  540TMC3     H 8018   3.522   1.706  11.463 -1.1458 -0.0647 -0.8369
  540TMC3    H1 8019   3.552   1.766  11.880 -0.6020 -2.6910  0.0216
  540TMC3    H2 8020   3.519   2.098  11.602  0.1327  0.0854  1.6259
  540TMC3    C7 8021   3.491   2.013  11.863  0.9342 -0.5150  0.8135
  540TMC3    C8 8022   3.540   1.966  11.379 -0.2708  0.0032 -0.1076
  540TMC3    O1 8023   3.410   1.961  11.938  0.5496  0.2498 -0.1436
  540TMC3    O2 8024   3.580   2.078  11.364  0.1336  0.0148 -0.2419
  541MPD2     C 8025   1.986   2.802  13.126  0.2054  0.0076  0.2952
  541MPD2    C1 8026   2.062   2.721  13.059  0.5871  0.0926  0.3181
  541MPD2    C2 8027   2.089   2.756  12.928 -0.0080 -0.0713  0.4235
  541MPD2    C3 8028   2.040   2.867  12.867  0.6302  0.1566  0.2363
  541MPD2    C4 8029   1.967   2.955  12.945 -0.3486  0.1622 -0.4764
  541MPD2    C5 8030   1.935   2.918  13.073  0.4958 -0.0079  0.7653
  541MPD2     H 8031   2.162   2.698  12.872  0.8309  0.3440  1.0882
  541MPD2    H1 8032   1.918   3.045  12.910 -1.0267 -0.0095  0.0349
  541MPD2    H2 8033   1.960   2.770  13.227 -0.2092 -3.0226 -0.7850
  541MPD2    H3 8034   1.873   2.982  13.135  0.4137 -0.4585  1.1392
  541MPD2     N 8035   2.066   2.911  12.732  0.6003  0.4897  0.3384
  541MPD2    H5 8036   2.013   2.990  12.698  1.1026  0.6645 -0.0404
  541MPD2    N1 8037   2.100   2.598  13.126  0.2373  0.1359 -0.5006
  541MPD2    H7 8038   2.077   2.595  13.225  1.2409  1.5249 -0.2210
  542TMC3    C1 8039   2.160   2.928  12.512  0.8276 -0.6344 -0.3587
  542TMC3    C2 8040   2.229   2.863  12.414 -0.5055 -0.3238 -0.6537
  542TMC3    C3 8041   2.253   2.939  12.304  0.7811  0.3421 -0.1543
  542TMC3    C4 8042   2.110   3.057  12.505 -0.7210  0.6680 -0.2242
  542TMC3    C5 8043   2.134   3.129  12.389 -0.2238  0.0216  0.7238
  542TMC3    C6 8044   2.216   3.073  12.291  0.1930  0.3313  0.4850
  542TMC3     C 8045   2.144   2.851  12.636 -0.2765  0.2978  0.5965
  542TMC3     O 8046   2.188   2.735  12.647  0.2504 -0.2953 -0.9438
  542TMC3     H 8047   2.260   2.760  12.430  0.4016 -0.3149 -2.3272
  542TMC3    H1 8048   2.052   3.098  12.587  0.1936  2.9969 -0.7512
  542TMC3    H2 8049   2.245   3.141  12.212 -1.9497 -0.4189 -0.9579
  542TMC3    C7 8050   2.133   3.272  12.413  0.9043  0.7660  0.4601
  542TMC3    C8 8051   2.326   2.888  12.195  0.1315 -0.8665  0.2943
  542TMC3    O1 8052   2.172   3.306  12.522  0.2825  0.0354  0.0638
  542TMC3    O2 8053   2.339   2.963  12.100 -0.2829  0.3467  0.1864
  543TMC3    C1 8054   1.253   3.795  17.193 -0.0034  0.7354 -0.4214
  543TMC3    C2 8055   1.278   3.656  17.185  0.1644 -0.3787  0.1566
  543TMC3    C3 8056   1.224   3.578  17.290 -0.0466  0.4104 -0.1270
  543TMC3    C4 8057   1.201   3.860  17.302 -0.1821 -0.0467 -0.2645
  543TMC3    C5 8058   1.151   3.774  17.401 -0.4791 -0.6478 -0.3880
  543TMC3    C6 8059   1.158   3.636  17.391  0.4108  0.0673 -0.2730
  543TMC3     C 8060   1.305   3.872  17.081 -0.1375  0.1514  0.0115
  543TMC3     O 8061   1.394   3.820  17.015 -0.2292  0.1658  0.3336
  543TMC3     H 8062   1.320   3.601  17.102 -0.9428  0.2742 -0.8492
  543TMC3    H1 8063   1.211   3.965  17.325 -2.2985  0.0147  0.4201
  543TMC3    H2 8064   1.118   3.577  17.473 -0.5716  1.0744 -0.0271
  543TMC3    C7 8065   1.124   3.847  17.526  0.0715  0.3900  0.5666
  543TMC3    C8 8066   1.208   3.440  17.256 -0.1962 -0.1425  0.1116
  543TMC3    O1 8067   1.181   3.955  17.548 -0.2186 -0.6117 -0.2854
  543TMC3    O2 8068   1.298   3.384  17.189 -0.3376  0.1202 -0.4127
  544MPD2     C 8069   0.921   3.021  17.212 -0.2265  0.1081  0.0941
  544MPD2    C1 8070   1.051   3.047  17.165  0.0995 -0.1343  0.4950
  544MPD2    C2 8071   1.100   3.177  17.188  0.2750  0.5943 -0.0709
  544MPD2    C3 8072   1.032   3.267  17.272  0.3582 -0.4887 -0.4750
  544MPD2    C4 8073   0.907   3.237  17.315 -0.1473  0.4336 -0.1129
  544MPD2    C5 8074   0.856   3.113  17.294 -0.2948 -0.1528 -0.0134
  544MPD2     H 8075   1.196   3.203  17.144  0.8327 -0.6332  0.4137
  544MPD2    H1 8076   0.844   3.295  17.382 -0.2788 -0.3731  0.4694
  544MPD2    H2 8077   0.876   2.924  17.190 -1.0182  0.1720  1.4277
  544MPD2    H3 8078   0.756   3.082  17.320  0.3905 -0.9811  1.6645
  544MPD2     N 8079   1.086   3.390  17.300 -0.0561  0.1138  0.0414
  544MPD2    H5 8080   1.027   3.458  17.347  0.8924  0.8052  0.2377
  544MPD2    N1 8081   1.120   2.949  17.087  0.9600 -0.4858  0.7869
  544MPD2    H7 8082   1.085   2.853  17.094  2.3165 -0.8435  2.4975
  545TMC3    C1 8083   1.328   2.856  17.026  0.5507  0.1542  0.2173
  545TMC3    C2 8084   1.452   2.874  16.964  0.0433 -0.5415  0.2492
  545TMC3    C3 8085   1.543   2.769  16.954 -0.2178 -0.1152  0.2549
  545TMC3    C4 8086   1.284   2.730  17.072  0.1314 -0.6307 -0.0077
  545TMC3    C5 8087   1.370   2.626  17.053  0.1807 -0.1070  0.2468
  545TMC3    C6 8088   1.497   2.644  17.002 -0.1626 -0.2941  0.1171
  545TMC3     C 8089   1.240   2.975  17.027 -0.0788  0.1515  0.1460
  545TMC3     O 8090   1.280   3.081  16.981  0.1433  0.1492 -0.0532
  545TMC3     H 8091   1.470   2.968  16.913 -2.0142  0.4472  1.3088
  545TMC3    H1 8092   1.183   2.714  17.109  0.0886 -0.2423  0.0461
  545TMC3    H2 8093   1.563   2.558  16.997 -1.4722 -1.2617 -0.3715
  545TMC3    C7 8094   1.340   2.513  17.139 -0.3573  0.1727  0.4583
  545TMC3    C8 8095   1.687   2.789  16.947  0.2013  0.9593  0.6787
  545TMC3    O1 8096   1.227   2.507  17.179 -0.3788 -0.2632  0.1305
  545TMC3    O2 8097   1.758   2.690  16.928  0.1806 -0.3816  0.1016
  546MPD2     C 8098   2.774   4.566  17.594 -0.0156  0.3834 -0.5140
  546MPD2    C1 8099   2.833   4.526  17.476 -0.5360  0.0844  0.0469
  546MPD2    C2 8100   2.938   4.597  17.414 -0.3853 -0.4663 -0.1831
  546MPD2    C3 8101   2.971   4.718  17.473 -0.0134 -0.1963 -0.6698
  546MPD2    C4 8102   2.914   0.028  17.595 -0.0062 -0.0719 -0.5882
  546MPD2    C5 8103   2.818   4.680  17.654  0.2026 -0.4351  0.7703
  546MPD2     H 8104   2.972   4.578  17.313  1.8295  2.2244  0.0723
  546MPD2    H1 8105   2.944   0.123  17.637  0.7620 -0.1138 -1.0548
  546MPD2    H2 8106   2.690   4.514  17.640 -0.1581  2.1382  1.2231
  546MPD2    H3 8107   2.777   0.000   0.039 -0.3074  0.0174  0.3012
  546MPD2     N 8108   3.043   0.093  17.410  0.0965 -0.3737  0.2717
  546MPD2    H5 8109   3.041   0.186  17.449  2.3370  1.0700 -3.0990
  546MPD2    N1 8110   2.773   4.410  17.415 -0.4565  0.1672  0.7980
  546MPD2    H7 8111   2.709   4.355  17.471  1.0676 -1.2495  1.1706
  547TMC3    C1 8112   2.699   4.260  17.241  0.0065  0.0341  0.0570
  547TMC3    C2 8113   2.654   4.262  17.115 -0.7624  0.7813  1.0539
  547TMC3    C3 8114   2.584   4.159  17.067  0.2055  0.5681 -0.3805
  547TMC3    C4 8115   2.677   4.151  17.320 -0.0322 -0.4939 -0.2156
  547TMC3    C5 8116   2.611   4.049  17.267 -0.1079  0.2621 -0.3617
  547TMC3    C6 8117   2.556   4.053  17.141  0.4528 -0.4533  0.4622
  547TMC3     C 8118   2.777   4.375  17.282  0.1921  0.0279  0.4007
  547TMC3     O 8119   2.840   4.427  17.190  0.1294 -0.4908  0.0639
  547TMC3     H 8120   2.689   4.343  17.052 -0.7598 -0.6183 -0.7552
  547TMC3    H1 8121   2.729   4.145  17.415  0.0546  2.7018 -0.0725
  547TMC3    H2 8122   2.499   3.971  17.098 -0.5441  1.1727 -1.3116
  547TMC3    C7 8123   2.563   3.945  17.355 -0.8511  0.4905  0.0686
  547TMC3    C8 8124   2.490   4.179  16.961  0.3660  1.0581  0.3950
  547TMC3    O1 8125   2.555   3.974  17.474 -0.5890  0.8634  0.3400
  547TMC3    O2 8126   2.449   4.075  16.907 -0.1031  0.0571  0.7620
  548MPD2     C 8127   2.668   4.702  12.273  0.8007  0.6980 -0.2065
  548MPD2    C1 8128   2.643   4.577  12.325 -0.0671  0.3121  0.3806
  548MPD2    C2 8129   2.747   4.483  12.330 -0.0210  0.8151  0.1667
  548MPD2    C3 8130   2.874   4.521  12.281  0.4686 -0.9288 -0.2067
  548MPD2    C4 8131   2.899   4.649  12.221  0.8451  0.6572  0.4753
  548MPD2    C5 8132   2.797   0.012  12.228 -0.0642  0.6576  0.5052
  548MPD2     H 8133   2.734   4.380  12.362 -0.4571  0.6149 -0.6398
  548MPD2    H1 8134   2.996   4.671  12.178  2.0822  1.1356  3.4785
  548MPD2    H2 8135   2.591   0.052  12.278  1.8195  1.6178  1.7135
  548MPD2    H3 8136   2.802   0.115  12.196  0.5637  0.7668  0.9531
  548MPD2     N 8137   2.979   4.425  12.286 -0.2605  0.1883  0.6633
  548MPD2    H5 8138   2.951   4.331  12.311 -1.6468  0.2114 -0.7950
  548MPD2    N1 8139   2.511   4.559  12.383  0.1859  0.5217  0.5567
  548MPD2    H7 8140   2.450   4.640  12.380  0.3990  0.6098 -1.1765
  549TMC3    C1 8141   2.361   4.452  12.536 -0.7749  0.4306 -0.6273
  549TMC3    C2 8142   2.294   4.571  12.550  0.5691  0.4384  0.1925
  549TMC3    C3 8143   2.186   4.564  12.639  0.5992 -0.4467  0.1086
  549TMC3    C4 8144   2.313   4.338  12.583  0.0979 -0.6366  2.1029
  549TMC3    C5 8145   2.200   4.340  12.661 -0.2799 -0.7043  0.0971
  549TMC3    C6 8146   2.136   4.455  12.693  0.8618  0.0139 -0.5831
  549TMC3     C 8147   2.478   4.443  12.443 -0.0376 -0.5139 -0.2693
  549TMC3     O 8148   2.538   4.337  12.447 -0.2451 -0.7219  0.4570
  549TMC3     H 8149   2.322   4.664  12.501 -0.0998 -0.0455 -1.1170
  549TMC3    H1 8150   2.361   4.243  12.561 -1.7485 -1.1417  0.2776
  549TMC3    H2 8151   2.050   4.457  12.759  0.7624  1.0136 -0.7419
  549TMC3    C7 8152   2.211   4.250  12.767 -0.7685 -0.1360  0.7274
  549TMC3    C8 8153   2.107   4.683  12.656  0.2997 -1.1042  0.6863
  549TMC3    O1 8154   2.148   4.275  12.871 -0.4978  0.2103 -0.1858
  549TMC3    O2 8155   2.000   4.682  12.598 -0.0474 -0.1786 -0.1611
  550TMC3    C1 8156   1.486   2.501  12.172 -0.3464 -0.5411  0.2000
  550TMC3    C2 8157   1.455   2.494  12.307 -0.2343 -0.4676 -0.5057
  550TMC3    C3 8158   1.339   2.552  12.346 -0.1096  0.2680 -0.4578
  550TMC3    C4 8159   1.399   2.547  12.078  0.4409  0.0621 -0.8146
  550TMC3    C5 8160   1.287   2.612  12.113 -0.1990 -0.4231 -0.4260
  550TMC3    C6 8161   1.260   2.620  12.249 -0.3412 -0.4955 -0.6304
  550TMC3     C 8162   1.628   2.493  12.134 -0.5887 -0.3000 -0.3864
  550TMC3     O 8163   1.650   2.530  12.019  0.3593  0.3143  0.1021
  550TMC3     H 8164   1.527   2.468  12.385  0.0221  1.2774 -0.1545
  550TMC3    H1 8165   1.421   2.538  11.972  0.3771 -0.7282 -0.7559
  550TMC3    H2 8166   1.172   2.675  12.280  1.0254  0.2793  1.7929
  550TMC3    C7 8167   1.207   2.693  12.025 -0.8708 -0.0835 -0.2777
  550TMC3    C8 8168   1.325   2.594  12.482  0.8666 -0.0430  0.3694
  550TMC3    O1 8169   1.097   2.731  12.072 -0.0591 -0.1166 -0.4417
  550TMC3    O2 8170   1.421   2.580  12.559 -0.2416 -0.2623  0.2105
  551TMC3    C1 8171   3.595   0.553  13.231 -0.5229 -0.8908  0.3771
  551TMC3    C2 8172   3.565   0.653  13.143 -0.7679  0.0436  0.0837
  551TMC3    C3 8173   3.601   0.781  13.176 -0.0003 -0.3380 -0.4811
  551TMC3    C4 8174   3.645   0.578  13.356  0.0260  0.5100  0.2220
  551TMC3    C5 8175   3.679   0.709  13.383 -0.1611 -0.2271  0.5609
  551TMC3    C6 8176   3.655   0.809  13.298 -0.8807 -0.3400  0.5366
  551TMC3     C 8177   3.570   0.423  13.173 -0.7899  0.3233 -0.0741
  551TMC3     O 8178   3.513   0.418  13.065 -0.0849 -0.1325  0.7998
  551TMC3     H 8179   3.518   0.637  13.047  0.1793 -0.3152 -0.3239
  551TMC3    H1 8180   3.660   0.507  13.436 -0.0871  1.1815  0.8371
  551TMC3    H2 8181   3.672   0.913  13.324 -1.0070 -0.2992  0.4545
  551TMC3    C7 8182   3.743   0.741  13.513  0.4881  0.4243  0.6060
  551TMC3    C8 8183   3.508   0.882  13.126  0.0434  0.1079 -0.0376
  551TMC3    O1 8184   3.766   0.643  13.588  0.4275  0.0121  0.0641
  551TMC3    O2 8185   3.400   0.838  13.091 -0.3261 -0.5996 -0.2846
  552MPD2     C 8186   0.587   2.381  13.954  0.2006 -0.2675  0.3419
  552MPD2    C1 8187   0.716   2.351  13.917 -0.3778 -0.2085  1.3226
  552MPD2    C2 8188   0.811   2.346  14.014 -0.0427  0.1633  0.1420
  552MPD2    C3 8189   0.792   2.373  14.148 -0.4046 -0.1503  0.2114
  552MPD2    C4 8190   0.660   2.384  14.183 -0.1131 -0.5186 -0.2527
  552MPD2    C5 8191   0.561   2.392  14.093 -0.5231  0.2095  0.3104
  552MPD2     H 8192   0.915   2.333  13.985 -0.1624 -1.2541  0.3683
  552MPD2    H1 8193   0.635   2.394  14.288  1.2713  1.2961 -0.1122
  552MPD2    H2 8194   0.510   2.413  13.885  0.8086 -0.9033 -0.6368
  552MPD2    H3 8195   0.457   2.398  14.123 -0.6752  0.5762 -0.2908
  552MPD2     N 8196   0.896   2.360  14.242 -0.5100 -0.2356 -0.0915
  552MPD2    H5 8197   0.875   2.345  14.341  1.2862  1.3609  0.5384
  552MPD2    N1 8198   0.758   2.316  13.788 -0.0717  0.0063 -0.1139
  552MPD2    H7 8199   0.852   2.279  13.778 -0.5084 -0.8688 -0.9268
  553TMC3    C1 8200   0.747   2.238  13.568  1.1431  0.1029 -1.0131
  553TMC3    C2 8201   0.716   2.265  13.442  0.1006  0.2533  0.3651
  553TMC3    C3 8202   0.740   2.169  13.354 -0.1412  0.1818  0.3681
  553TMC3    C4 8203   0.797   2.122  13.615  0.4601  0.2075  0.7058
  553TMC3    C5 8204   0.813   2.023  13.524  0.5531 -0.2649 -0.4209
  553TMC3    C6 8205   0.769   2.042  13.395 -0.1214  0.0536 -0.4802
  553TMC3     C 8206   0.685   2.328  13.669 -0.4699 -0.1817 -0.8085
  553TMC3     O 8207   0.587   2.395  13.635 -0.2611  0.1733 -0.0732
  553TMC3     H 8208   0.674   2.362  13.419  2.3921  0.9446 -0.8410
  553TMC3    H1 8209   0.803   2.090  13.719 -0.1735  0.4027  0.8025
  553TMC3    H2 8210   0.783   1.956  13.331 -3.9728 -0.6275 -0.3941
  553TMC3    C7 8211   0.856   1.894  13.563  0.4885 -0.5232 -0.7459
  553TMC3    C8 8212   0.840   2.205  13.255 -1.0112 -0.0147 -0.4808
  553TMC3    O1 8213   0.772   1.808  13.555  0.8608 -0.0245  0.1827
  553TMC3    O2 8214   0.940   2.136  13.254  0.1711 -0.2222 -0.4906
  554TMC3    C1 8215   2.977   1.438  11.659 -0.4097  0.1642 -0.6895
  554TMC3    C2 8216   2.941   1.362  11.549 -0.2134  0.4630  0.0313
  554TMC3    C3 8217   2.981   1.401  11.427  0.2738  0.1744 -0.0736
  554TMC3    C4 8218   3.057   1.545  11.654  0.1199  0.4397  1.1794
  554TMC3    C5 8219   3.098   1.580  11.527  0.2174 -0.9649 -0.0350
  554TMC3    C6 8220   3.062   1.512  11.416 -0.2564  0.3146  0.1512
  554TMC3     C 8221   2.949   1.379  11.781 -0.3209  0.2296  0.2743
  554TMC3     O 8222   3.020   1.418  11.872  0.5330 -0.0826  0.2148
  554TMC3     H 8223   2.890   1.267  11.563  1.5079  0.0387  3.4859
  554TMC3    H1 8224   3.092   1.595  11.744  0.3183  1.0622  0.7530
  554TMC3    H2 8225   3.098   1.548  11.320  1.3110  0.6022  0.8530
  554TMC3    C7 8226   3.181   1.697  11.505  0.5949  0.0237  0.3849
  554TMC3    C8 8227   2.920   1.347  11.300 -0.0778 -0.3672 -0.1907
  554TMC3    O1 8228   3.249   1.691  11.406 -0.1657  0.2603 -0.8257
  554TMC3    O2 8229   2.979   1.386  11.199 -0.0379  0.3832 -0.4699
  555TMC3    C1 8230   2.196   0.742  14.918  0.4349  0.0917  0.3649
  555TMC3    C2 8231   2.198   0.854  15.002 -0.0993  0.0485 -0.8899
  555TMC3    C3 8232   2.182   0.827  15.132 -0.1171  0.2422 -0.3965
  555TMC3    C4 8233   2.196   0.613  14.968 -0.4566 -0.2407  0.2941
  555TMC3    C5 8234   2.185   0.596  15.103  0.2100 -0.3510  0.1219
  555TMC3    C6 8235   2.193   0.704  15.187  0.0089  0.6772  0.3159
  555TMC3     C 8236   2.210   0.765  14.770  0.2558  0.1293  0.5305
  555TMC3     O 8237   2.240   0.667  14.702 -0.1099  0.2272  0.4141
  555TMC3     H 8238   2.203   0.958  14.972  1.9698  0.2724  0.2553
  555TMC3    H1 8239   2.197   0.525  14.904 -1.1458  0.2047 -0.3216
  555TMC3    H2 8240   2.175   0.692  15.294  2.2478 -2.2147  0.4009
  555TMC3    C7 8241   2.160   0.468  15.168  0.5828  0.3590  0.2673
  555TMC3    C8 8242   2.156   0.943  15.207 -0.5960  0.3446  0.2535
  555TMC3    O1 8243   2.132   0.467  15.285 -0.5770  0.1172  0.4137
  555TMC3    O2 8244   2.077   1.026  15.159  0.2521  0.0476  0.1028
  556MPD2     C 8245   0.168   2.987  10.464 -0.0895  0.3041 -0.9743
  556MPD2    C1 8246   0.125   2.872  10.537 -0.3085 -0.0757  0.4973
  556MPD2    C2 8247   0.059   2.766  10.475 -0.6196 -0.0827  0.4050
  556MPD2    C3 8248   0.055   2.765  10.335 -0.4783  0.2361 -0.0167
  556MPD2    C4 8249   0.106   2.873  10.262  0.1160  0.7369 -0.4752
  556MPD2    C5 8250   0.157   2.981  10.329  0.1965  0.0117  0.7348
  556MPD2     H 8251   0.016   2.684  10.530  1.1138 -0.3996  1.2917
  556MPD2    H1 8252   0.102   2.890  10.155  3.2871 -1.2199 -0.9011
  556MPD2    H2 8253   0.212   3.076  10.508 -2.8687  1.3948 -0.4318
  556MPD2    H3 8254   0.197   3.071  10.283 -1.3915  0.1016 -0.4687
  556MPD2     N 8255   4.706   2.667  10.270 -0.6223  0.3775  0.5514
  556MPD2    H5 8256   4.673   2.593  10.331  2.0770 -2.1361 -1.0848
  556MPD2    N1 8257   0.123   2.859  10.676 -0.4147  0.0067  0.0941
  556MPD2    H7 8258   0.103   2.773  10.725 -0.2758  0.3054  0.6830
  557TMC3    C1 8259   4.632   2.545  10.079 -0.0345  0.3285 -0.3740
  557TMC3    C2 8260   4.539   2.555   9.982  0.1000 -0.1446  0.4758
  557TMC3    C3 8261   4.461   2.449   9.943 -0.0222 -0.1030  0.1022
  557TMC3    C4 8262   4.658   2.426  10.141  0.7484 -0.0560  0.2918
  557TMC3    C5 8263   4.568   2.327  10.111 -0.5414 -0.1495 -0.1638
  557TMC3    C6 8264   4.461   2.337  10.021  0.2015  0.1219 -0.0882
  557TMC3     C 8265   4.679   2.672  10.132  0.1254 -0.9223 -0.6242
  557TMC3     O 8266   4.660   2.774  10.069 -0.2848  0.5016 -0.6261
  557TMC3     H 8267   4.541   2.644   9.920  1.8096  0.3978  1.3038
  557TMC3    H1 8268   0.016   2.409  10.208  2.0463 -2.0180 -1.8073
  557TMC3    H2 8269   4.389   2.256  10.013 -0.9033  1.0437  0.5343
  557TMC3    C7 8270   4.539   2.229  10.218 -0.3573  0.2676  0.0322
  557TMC3    C8 8271   4.354   2.466   9.842  0.8661  0.1966  0.0475
  557TMC3    O1 8272   4.423   2.196  10.227 -0.2584 -0.1001 -0.5373
  557TMC3    O2 8273   4.316   2.581   9.828  0.0434  0.0694  0.1583
  558TMC3    C1 8274   3.161   4.415   9.845 -0.3780  0.4889 -0.0356
  558TMC3    C2 8275   3.052   4.383   9.926 -0.0978  0.0796 -0.2860
  558TMC3    C3 8276   2.965   4.290   9.889 -0.2995  0.1518  0.1116
  558TMC3    C4 8277   3.186   4.344   9.733  0.3730  0.1633  0.1916
  558TMC3    C5 8278   3.094   4.250   9.702  0.4097  0.2531  0.2144
  558TMC3    C6 8279   2.984   4.222   9.770 -0.0915  0.0816 -0.2784
  558TMC3     C 8280   3.266   4.499   9.910 -1.0112 -0.0649 -0.0927
  558TMC3     O 8281   3.237   4.559  10.011  0.2680 -0.0210  0.0165
  558TMC3     H 8282   3.031   4.450  10.008 -0.9798 -0.3624 -0.1502
  558TMC3    H1 8283   3.276   4.350   9.673  1.1993 -2.6995  1.1366
  558TMC3    H2 8284   2.908   4.151   9.739  3.6020 -2.1689 -4.2057
  558TMC3    C7 8285   3.134   4.173   9.579  0.6891  0.0470  0.2414
  558TMC3    C8 8286   2.875   4.239   9.982  0.2852 -0.5523  0.3283
  558TMC3    O1 8287   3.205   4.224   9.494 -0.5750 -0.2634 -0.1860
  558TMC3    O2 8288   2.775   4.177   9.948 -0.2540 -0.0406  0.6006
  559MPD2     C 8289   2.783   1.061  10.422 -0.0674 -0.2568 -0.2557
  559MPD2    C1 8290   2.739   0.944  10.475 -0.0553 -0.3905 -0.5276
  559MPD2    C2 8291   2.809   0.892  10.580  0.0848 -0.6005 -0.0638
  559MPD2    C3 8292   2.935   0.948  10.615 -0.4083 -0.0620  0.3858
  559MPD2    C4 8293   2.986   1.057  10.547  0.2976  0.8829 -0.2273
  559MPD2    C5 8294   2.901   1.122  10.458 -0.5645 -0.1888 -0.0707
  559MPD2     H 8295   2.776   0.805  10.636  0.7211 -1.6663 -1.3449
  559MPD2    H1 8296   3.086   1.095  10.567  0.2679  0.3322  0.9389
  559MPD2    H2 8297   2.728   1.103  10.338  2.4411 -1.7196 -2.6290
  559MPD2    H3 8298   2.939   1.209  10.405  2.5915 -0.6052  1.5023
  559MPD2     N 8299   3.004   0.895  10.727 -0.8282  0.4374  0.8320
  559MPD2    H5 8300   2.956   0.833  10.791 -0.6299 -1.1948 -0.5961
  559MPD2    N1 8301   2.617   0.885  10.424 -0.2301 -0.4423 -0.1002
  559MPD2    H7 8302   2.570   0.938  10.351 -1.5847  0.3136  1.3237
  560TMC3    C1 8303   3.175   0.832  10.868  0.1819 -0.4025 -0.5102
  560TMC3    C2 8304   3.127   0.702  10.863 -0.2884  0.2689  0.5015
  560TMC3    C3 8305   3.180   0.613  10.956 -0.5589  0.6981  0.1834
  560TMC3    C4 8306   3.289   0.865  10.940  0.1556  0.1519  0.1350
  560TMC3    C5 8307   3.341   0.770  11.026 -0.1038  0.2323  0.0873
  560TMC3    C6 8308   3.285   0.644  11.042 -0.4656  0.0663  0.5479
  560TMC3     C 8309   3.127   0.938  10.775 -0.0526 -0.1193 -0.1868
  560TMC3     O 8310   3.215   1.011  10.734  0.1893  0.2358  0.0944
  560TMC3     H 8311   3.039   0.672  10.807  1.4114 -0.6761 -1.6507
  560TMC3    H1 8312   3.325   0.967  10.934  0.1088  0.2624  1.7391
  560TMC3    H2 8313   3.326   0.564  11.102 -1.0499 -1.4224 -1.0228
  560TMC3    C7 8314   3.421   0.817  11.138  0.6784 -0.1388  0.0728
  560TMC3    C8 8315   3.141   0.471  10.958 -0.0877  0.5233  0.5025
  560TMC3    O1 8316   3.457   0.731  11.217  0.2443  0.2810  0.9394
  560TMC3    O2 8317   3.205   0.387  11.016 -0.2432  0.3241  0.1219
  561TMC3    C1 8318   0.579   4.614  11.096  0.4912 -0.2082 -0.2418
  561TMC3    C2 8319   0.521   4.547  11.200  0.6869  0.0931 -0.5231
  561TMC3    C3 8320   0.512   4.621  11.313 -1.0809 -0.5910 -0.6498
  561TMC3    C4 8321   0.636   0.012  11.113 -0.4598 -0.5623  0.4477
  561TMC3    C5 8322   0.622   0.081  11.231  0.4841 -0.2456  0.4430
  561TMC3    C6 8323   0.553   0.023  11.332 -0.0935 -0.7544  0.8594
  561TMC3     C 8324   0.599   4.534  10.977  0.1271  0.3072  0.0022
  561TMC3     O 8325   0.573   4.414  10.982 -0.3482 -0.4441 -0.0651
  561TMC3     H 8326   0.473   4.451  11.185 -0.0457  0.0489  2.1769
  561TMC3    H1 8327   0.684   0.052  11.025 -1.3240  1.7110  1.0047
  561TMC3    H2 8328   0.552   0.072  11.429  0.0208 -2.6071  1.8004
  561TMC3    C7 8329   0.685   0.208  11.265  0.1887 -0.6747 -0.4855
  561TMC3    C8 8330   0.433   4.551  11.415 -0.2806 -0.0592  0.7399
  561TMC3    O1 8331   0.638   0.271  11.365 -0.0052  0.5014  0.1900
  561TMC3    O2 8332   0.423   4.429  11.401  0.3367  0.9173 -0.4336
  562TMC3    C1 8333   1.649   1.220  15.717 -0.2955  0.2600 -0.2524
  562TMC3    C2 8334   1.538   1.301  15.719  0.2725 -0.4439  1.1277
  562TMC3    C3 8335   1.418   1.231  15.723  0.0268  0.8976 -0.2272
  562TMC3    C4 8336   1.650   1.086  15.749 -0.5548 -0.5909 -0.4622
  562TMC3    C5 8337   1.523   1.028  15.771 -0.0621  0.5383 -0.7857
  562TMC3    C6 8338   1.409   1.100  15.756 -0.1558  0.1370 -0.3134
  562TMC3     C 8339   1.776   1.285  15.733  0.2672  0.1939  0.2726
  562TMC3     O 8340   1.773   1.408  15.725 -0.0933  0.9031 -0.0278
  562TMC3     H 8341   1.548   1.406  15.693  2.7768 -1.2541 -1.1743
  562TMC3    H1 8342   1.736   1.026  15.724 -0.6355 -2.1906  3.0172
  562TMC3    H2 8343   1.312   1.050  15.756  0.0665 -0.2802  0.9550
  562TMC3    C7 8344   1.514   0.916  15.868 -0.9618  0.9739  0.6423
  562TMC3    C8 8345   1.296   1.310  15.677  0.2020 -0.9002 -0.1548
  562TMC3    O1 8346   1.411   0.858  15.860 -0.1914 -0.1271  0.3013
  562TMC3    O2 8347   1.225   1.255  15.590  0.4513  0.4316 -0.4942
  563MPD2     C 8348   3.919   2.890  15.864  0.1109  0.2469  0.0473
  563MPD2    C1 8349   3.952   2.901  15.998  0.8788 -0.4097 -0.2761
  563MPD2    C2 8350   4.070   2.847  16.040 -0.2700  0.0016 -0.2382
  563MPD2    C3 8351   4.155   2.778  15.963 -0.3594  0.4697  0.4189
  563MPD2    C4 8352   4.127   2.774  15.823  0.8031 -0.1106  0.3770
  563MPD2    C5 8353   4.003   2.818  15.782 -0.5171  0.0799 -0.3610
  563MPD2     H 8354   4.109   2.871  16.139  1.3037  0.9882 -1.0933
  563MPD2    H1 8355   4.189   2.719  15.753  1.3407  3.3139 -1.8482
  563MPD2    H2 8356   3.833   2.929  15.810 -1.2197 -0.3702  1.7017
  563MPD2    H3 8357   3.978   2.803  15.678  0.4189  1.2606 -0.7535
  563MPD2     N 8358   4.262   2.716  16.024  0.0893 -0.1110  0.0333
  563MPD2    H5 8359   4.264   2.712  16.125 -0.4075  0.3174  0.0596
  563MPD2    N1 8360   3.852   2.966  16.068 -0.3623  0.8132  0.3888
  563MPD2    H7 8361   3.776   3.006  16.013 -1.3155 -1.3278  0.1717
  564TMC3    C1 8362   3.727   3.029  16.251  0.5676  0.0673 -0.0213
  564TMC3    C2 8363   3.615   2.957  16.222 -0.0570 -0.0777 -0.2098
  564TMC3    C3 8364   3.512   2.985  16.305 -0.0754 -0.2381  0.1587
  564TMC3    C4 8365   3.747   3.084  16.376 -0.4276  0.4938  0.1971
  564TMC3    C5 8366   3.644   3.096  16.461  0.0682 -0.3114  0.4038
  564TMC3    C6 8367   3.523   3.066  16.415  0.6916  0.6718 -0.2954
  564TMC3     C 8368   3.849   2.977  16.204 -0.4980  0.2888 -0.2360
  564TMC3     O 8369   3.923   2.937  16.291 -0.2890  0.3214 -0.2574
  564TMC3     H 8370   3.607   2.878  16.148  1.2043  1.7157 -2.2677
  564TMC3    H1 8371   3.837   3.143  16.394  0.1437  0.1746 -1.6931
  564TMC3    H2 8372   3.441   3.079  16.485 -0.4828  0.8307 -1.7018
  564TMC3    C7 8373   3.673   3.044  16.596  0.8215  0.4977 -0.1507
  564TMC3    C8 8374   3.433   2.863  16.330  0.1481 -0.3553  0.2524
  564TMC3    O1 8375   3.593   3.068  16.687  0.1309  0.0199  0.0949
  564TMC3    O2 8376   3.421   2.828  16.449 -0.1059 -0.3530 -0.1472
  565TMC3    C1 8377   4.336   3.889   9.931 -0.5911 -0.7001  0.4794
  565TMC3    C2 8378   4.381   3.781  10.004  0.1826 -0.2850 -0.3508
  565TMC3    C3 8379   4.361   3.659   9.950 -0.0957  0.1855 -0.0485
  565TMC3    C4 8380   4.245   3.872   9.827 -0.0296 -0.2065  0.9422
  565TMC3    C5 8381   4.215   3.746   9.786 -0.7467  0.3685  0.1266
  565TMC3    C6 8382   4.280   3.640   9.838 -0.8079 -0.0348  0.3359
  565TMC3     C 8383   4.368   4.024   9.973 -0.5751 -0.5562  0.1473
  565TMC3     O 8384   4.301   4.117   9.932 -0.0984 -0.0950  0.4924
  565TMC3     H 8385   4.445   3.779  10.092  0.2038 -0.6877 -0.3778
  565TMC3    H1 8386   4.220   3.960   9.768  0.9697 -0.3533  0.3195
  565TMC3    H2 8387   4.250   3.547   9.790  0.7059  0.3609 -1.4176
  565TMC3    C7 8388   4.106   3.708   9.696  0.2990  0.2266 -0.0124
  565TMC3    C8 8389   4.427   3.542  10.008  0.2390  0.5663  0.6249
  565TMC3    O1 8390   4.056   3.595   9.695 -0.3129 -0.4609 -0.0366
  565TMC3    O2 8391   4.445   3.535  10.130  0.4762 -0.4292  0.8279
  566MPD2     C 8392   1.235   0.776  14.646 -0.2326 -0.0857 -0.3130
  566MPD2    C1 8393   1.292   0.836  14.526  0.3101 -0.1768 -0.2399
  566MPD2    C2 8394   1.276   0.774  14.397  0.4730 -0.4700  0.4860
  566MPD2    C3 8395   1.218   0.652  14.394 -0.0709 -0.1624  0.2823
  566MPD2    C4 8396   1.165   0.597  14.502 -0.6089  0.1091 -0.3721
  566MPD2    C5 8397   1.158   0.662  14.623  0.7175 -0.5124  0.4620
  566MPD2     H 8398   1.306   0.834  14.312  1.3778 -0.7955  0.5765
  566MPD2    H1 8399   1.107   0.506  14.493  0.7949 -0.8668  0.4590
  566MPD2    H2 8400   1.242   0.816  14.746 -2.2949  0.8481 -0.5324
  566MPD2    H3 8401   1.113   0.622  14.714 -0.4269 -0.2770 -0.0062
  566MPD2     N 8402   1.218   0.585  14.274  0.1446 -0.5980 -0.1340
  566MPD2    H5 8403   1.249   0.638  14.194  0.1482 -0.8208 -0.2816
  566MPD2    N1 8404   1.360   0.949  14.553  0.2170  0.4990 -0.4136
  566MPD2    H7 8405   1.352   0.972  14.652 -1.2458 -1.1025 -0.1565
  567TMC3    C1 8406   1.550   1.072  14.515  0.4287  0.1920 -0.4877
  567TMC3    C2 8407   1.618   1.145  14.420  0.2255 -0.4609 -0.0699
  567TMC3    C3 8408   1.750   1.124  14.399 -0.4934  0.0030 -0.0925
  567TMC3    C4 8409   1.618   0.991  14.603 -0.1984 -0.0339  0.3775
  567TMC3    C5 8410   1.752   0.978  14.579 -0.4762 -0.2747 -0.4738
  567TMC3    C6 8411   1.824   1.042  14.480  0.1307  0.4874 -0.2014
  567TMC3     C 8412   1.421   1.038  14.463  1.1543  0.1595 -0.6735
  567TMC3     O 8413   1.417   1.035  14.341  0.1137  0.3853 -0.5378
  567TMC3     H 8414   1.561   1.215  14.359  2.3721  0.6792 -0.7833
  567TMC3    H1 8415   1.561   0.927  14.669 -1.7710  0.0420 -0.8770
  567TMC3    H2 8416   1.931   1.031  14.475  0.2093  0.7293  0.8666
  567TMC3    C7 8417   1.816   0.858  14.632 -0.2237  0.2526 -0.2649
  567TMC3    C8 8418   1.792   1.141  14.262  0.1777 -0.0245 -0.6055
  567TMC3    O1 8419   1.889   0.803  14.551 -0.0323 -0.0673  0.0771
  567TMC3    O2 8420   1.702   1.188  14.193  0.0118  1.1293 -0.6449
  568MPD2     C 8421   3.559   1.353  16.753 -0.1667 -0.2325  0.3447
  568MPD2    C1 8422   3.641   1.447  16.808 -0.0329  0.0478 -0.3902
  568MPD2    C2 8423   3.607   1.585  16.804 -0.0201  0.3673 -0.1034
  568MPD2    C3 8424   3.499   1.619  16.725 -0.1722 -0.3598 -0.1901
  568MPD2    C4 8425   3.413   1.522  16.672 -0.6136 -0.0344 -0.2838
  568MPD2    C5 8426   3.439   1.391  16.691 -0.4752  0.6034  0.0492
  568MPD2     H 8427   3.668   1.664  16.845 -0.1068  0.1571  0.4332
  568MPD2    H1 8428   3.324   1.542  16.615 -2.0436 -0.6646  1.7228
  568MPD2    H2 8429   3.577   1.246  16.751 -0.9209 -0.3578  0.4475
  568MPD2    H3 8430   3.382   1.317  16.637  1.0013  0.9603 -1.9959
  568MPD2     N 8431   3.473   1.757  16.709 -0.2330  0.6440 -0.0282
  568MPD2    H5 8432   3.542   1.817  16.752  1.1426 -1.0762  0.1791
  568MPD2    N1 8433   3.752   1.398  16.878  0.8290  0.3952  0.2958
  568MPD2    H7 8434   3.773   1.299  16.867 -1.5874 -0.2063  1.3158
  569TMC3    C1 8435   3.372   1.952  16.628  0.1317  0.4068  0.2044
  569TMC3    C2 8436   3.415   2.025  16.740  0.9225 -0.5812  0.0632
  569TMC3    C3 8437   3.439   2.156  16.729 -0.1544 -0.0774 -0.4483
  569TMC3    C4 8438   3.324   2.018  16.518 -0.4955 -0.1043  0.0826
  569TMC3    C5 8439   3.348   2.154  16.513  0.5806 -0.0908 -0.0906
  569TMC3    C6 8440   3.411   2.222  16.614 -0.1313 -0.3631 -0.5754
  569TMC3     C 8441   3.374   1.806  16.626  0.2845  0.3723 -0.7524
  569TMC3     O 8442   3.299   1.758  16.542  0.2031  0.2982  0.1517
  569TMC3     H 8443   3.429   1.975  16.835 -0.3626 -1.7951 -0.3964
  569TMC3    H1 8444   3.275   1.967  16.435  0.1478 -0.0364 -0.3391
  569TMC3    H2 8445   3.459   2.318  16.600 -1.5482  0.3364 -0.6360
  569TMC3    C7 8446   3.303   2.220  16.394  0.3212 -0.0374 -0.3049
  569TMC3    C8 8447   3.510   2.232  16.840 -0.0230 -0.1621  0.5555
  569TMC3    O1 8448   3.271   2.149  16.298  0.1462  0.5792 -0.0816
  569TMC3    O2 8449   3.592   2.313  16.807  0.7977  0.3058 -0.1468
  570TMC3    C1 8450   2.914   0.127  16.275 -0.2273  0.0365 -0.4619
  570TMC3    C2 8451   2.972   0.102  16.154 -0.4160 -0.5064  0.4347
  570TMC3    C3 8452   3.016   0.208  16.087  0.0673  0.5299  0.5564
  570TMC3    C4 8453   2.904   0.249  16.327 -0.1297 -0.0367  0.4054
  570TMC3    C5 8454   2.958   0.355  16.253 -0.3375 -0.3809 -0.0421
  570TMC3    C6 8455   3.027   0.337  16.134  0.2268 -0.8015 -0.0376
  570TMC3     C 8456   2.865   0.017  16.349  0.6259 -0.4481  0.1799
  570TMC3     O 8457   2.851   4.640  16.291  0.5052 -0.1664 -0.5991
  570TMC3     H 8458   2.975   4.725  16.121 -1.8469 -0.2334 -0.5360
  570TMC3    H1 8459   2.843   0.274  16.413 -1.0845  2.8572 -1.1089
  570TMC3    H2 8460   3.065   0.422  16.079  1.1017  0.1972  2.0979
  570TMC3    C7 8461   2.964   0.481  16.320  0.3360 -0.5048  0.8367
  570TMC3    C8 8462   3.096   0.179  15.984 -0.0247  0.0770 -0.2638
  570TMC3    O1 8463   2.928   0.478  16.438 -0.6774  0.3360  0.3638
  570TMC3    O2 8464   3.189   0.259  15.966  0.3657  0.7085  0.3602
  571MPD2     C 8465   0.692   1.655  17.545 -0.8365 -0.1557 -0.4127
  571MPD2    C1 8466   0.790   1.574  17.592 -0.1301  0.6026 -0.7587
  571MPD2    C2 8467   0.839   1.588   0.016 -0.5207  0.2338 -0.2535
  571MPD2    C3 8468   0.790   1.691   0.103  0.0917 -0.3788 -0.0340
  571MPD2    C4 8469   0.700   1.779   0.051  0.1757 -0.8240 -0.6356
  571MPD2    C5 8470   0.656   1.758  17.626  0.4985 -0.3729 -0.1979
  571MPD2     H 8471   0.922   1.525   0.045 -1.3535 -0.8374 -0.2090
  571MPD2    H1 8472   0.671   1.870   0.102 -2.2682 -1.2990 -1.1962
  571MPD2    H2 8473   0.666   1.642  17.441 -0.4049 -0.3593 -0.4999
  571MPD2    H3 8474   0.580   1.826  17.587  1.1661  1.9534  2.5185
  571MPD2     N 8475   0.851   1.722   0.223 -0.3013 -0.7031  0.0868
  571MPD2    H5 8476   0.817   1.809   0.264 -1.4304 -0.4263 -1.4498
  571MPD2    N1 8477   0.839   1.487  17.497  0.9816 -0.4748 -0.2054
  571MPD2    H7 8478   0.812   1.486  17.399  1.5739  2.1996 -0.4032
  572TMC3    C1 8479   1.023   1.746   0.378  0.4582 -0.3591 -0.2595
  572TMC3    C2 8480   1.087   1.680   0.476  0.2096  0.6168  0.1346
  572TMC3    C3 8481   1.108   1.746   0.601  0.2030  0.0833  0.4286
  572TMC3    C4 8482   0.980   1.876   0.393 -0.5091 -0.4380  0.5211
  572TMC3    C5 8483   0.998   1.938   0.514 -0.1574  0.4558 -0.7480
  572TMC3    C6 8484   1.064   1.874   0.613 -0.1700 -0.0071 -0.0019
  572TMC3     C 8485   0.956   1.654   0.284  0.2538  0.4895  0.0133
  572TMC3     O 8486   1.008   1.548   0.254 -0.0103  0.9055 -0.0620
  572TMC3     H 8487   1.095   1.572   0.475 -2.3693  0.4547 -2.3241
  572TMC3    H1 8488   0.948   1.924   0.301  2.9950 -0.5506 -0.7990
  572TMC3    H2 8489   1.111   1.937   0.688  0.2696 -0.8108  0.4024
  572TMC3    C7 8490   0.937   2.064   0.536 -0.3012  0.2173 -0.3476
  572TMC3    C8 8491   1.198   1.679   0.701 -0.3855  0.0465 -0.4577
  572TMC3    O1 8492   0.888   2.125   0.440 -0.8611  0.0775  0.8059
  572TMC3    O2 8493   1.235   1.567   0.665 -0.6156  0.5718  0.7409
  573MPD2     C 8494   1.839   2.193   0.755  0.8210 -0.4881 -0.2940
  573MPD2    C1 8495   1.908   2.294   0.700 -0.3323 -0.2501 -0.4839
  573MPD2    C2 8496   1.945   2.289   0.570  0.5109 -0.0939  0.5744
  573MPD2    C3 8497   1.911   2.185   0.491 -0.0261  0.2869  0.2270
  573MPD2    C4 8498   1.832   2.089   0.547 -1.0002  1.2889 -0.2063
  573MPD2    C5 8499   1.797   2.091   0.679 -0.0216 -0.0447  0.1401
  573MPD2     H 8500   2.025   2.352   0.531  0.8807 -1.2008 -0.4558
  573MPD2    H1 8501   1.791   2.010   0.484  2.9269  0.4100 -1.6712
  573MPD2    H2 8502   1.813   2.192   0.861  2.2281 -0.0542  0.0654
  573MPD2    H3 8503   1.730   2.021   0.728 -0.4107 -2.2006 -3.4976
  573MPD2     N 8504   1.945   2.174   0.354  0.0576  0.0657 -0.5064
  573MPD2    H5 8505   1.922   2.086   0.308 -1.3394  1.7668 -3.0633
  573MPD2    N1 8506   1.946   2.401   0.789  0.1485  0.2108 -0.4345
  573MPD2    H7 8507   1.914   2.384   0.884  1.2267 -0.7222 -0.2388
  574TMC3    C1 8508   1.982   2.252   0.138  0.4737 -0.2539 -0.3145
  574TMC3    C2 8509   1.873   2.169   0.095  0.4425 -0.2160 -0.1752
  574TMC3    C3 8510   1.855   2.164  17.672 -0.1964 -0.1549  1.1043
  574TMC3    C4 8511   2.054   2.334   0.057  0.6207  0.3387 -0.3927
  574TMC3    C5 8512   2.034   2.315  17.630  0.0669 -0.2431 -0.3936
  574TMC3    C6 8513   1.937   2.229  17.585 -0.1086  0.5847  0.3456
  574TMC3     C 8514   1.985   2.281   0.280  0.6279 -0.0410  0.6174
  574TMC3     O 8515   2.004   2.399   0.311 -0.3270  0.2868  0.3072
  574TMC3     H 8516   1.802   2.126   0.165 -0.4152  1.1507 -0.2066
  574TMC3    H1 8517   2.134   2.389   0.105 -1.4539  1.0657  2.2666
  574TMC3    H2 8518   1.914   2.210  17.481  0.8956  0.5018  0.1391
  574TMC3    C7 8519   2.135   2.365  17.538 -0.6972  0.7400 -0.6531
  574TMC3    C8 8520   1.712   2.142  17.637  0.1341 -0.3254 -0.0233
  574TMC3    O1 8521   2.223   2.431  17.595  0.1035 -0.3732  0.2458
  574TMC3    O2 8522   1.637   2.075   0.004 -0.1423 -0.2925 -0.2693
  575TMC3    C1 8523   4.458   2.924  10.597  0.2964  0.3168 -0.9591
  575TMC3    C2 8524   4.390   2.814  10.562 -0.0879  0.4874 -0.2138
  575TMC3    C3 8525   4.379   2.783  10.429 -0.1984 -0.1808  0.1819
  575TMC3    C4 8526   4.518   3.007  10.501  0.2621  0.5458 -0.1191
  575TMC3    C5 8527   4.507   2.968  10.375 -0.3194 -0.0815 -0.6518
  575TMC3    C6 8528   4.445   2.853  10.331  0.3000 -0.9873 -0.9656
  575TMC3     C 8529   4.486   2.946  10.740 -0.0764 -0.1214 -0.5555
  575TMC3     O 8530   4.479   2.852  10.821 -0.0874  0.2079  0.2354
  575TMC3     H 8531   4.343   2.755  10.640 -1.3678 -0.5179 -1.7424
  575TMC3    H1 8532   4.575   3.095  10.528  1.7534 -1.0777  2.0769
  575TMC3    H2 8533   4.439   2.817  10.229  3.1891 -0.9837 -1.1379
  575TMC3    C7 8534   4.522   3.080  10.282  0.2238  0.1965 -0.1005
  575TMC3    C8 8535   4.321   2.660  10.398  0.1291  0.6535 -0.0212
  575TMC3    O1 8536   4.521   3.191  10.333  0.8147 -0.0547  0.1869
  575TMC3    O2 8537   4.333   2.572  10.483 -0.6633  0.5755  0.3977
  576MPD2     C 8538   0.060   0.430  12.695 -0.2616 -0.0623 -1.2815
  576MPD2    C1 8539   4.718   0.492  12.595  0.1561  0.1240 -0.1928
  576MPD2    C2 8540   4.645   0.599  12.628 -0.4263 -0.3163  0.0734
  576MPD2    C3 8541   4.636   0.645  12.758 -0.2935  0.2313  0.3479
  576MPD2    C4 8542   4.669   0.565  12.861 -0.1096 -0.3134  0.1843
  576MPD2    C5 8543   0.030   0.462  12.826 -0.1068  0.2404  1.0402
  576MPD2     H 8544   4.595   0.651  12.547  2.3324  4.0203  1.2038
  576MPD2    H1 8545   4.653   0.590  12.966  2.1246  0.2294  0.3866
  576MPD2    H2 8546   0.143   0.361  12.683  0.2257  0.1997  0.4746
  576MPD2    H3 8547   0.092   0.416  12.902  0.0172  0.8049  1.2833
  576MPD2     N 8548   4.558   0.757  12.779  0.0266  0.1369  0.0185
  576MPD2    H5 8549   4.510   0.794  12.698  0.9061  0.3809 -0.3938
  576MPD2    N1 8550   0.009   0.455  12.463 -0.6791 -0.8682 -1.3016
  576MPD2    H7 8551   4.698   0.516  12.391  1.0723 -0.2315 -1.6432
  577TMC3    C1 8552   0.122   0.348  12.288 -0.8204  0.1375  0.7428
  577TMC3    C2 8553   0.185   0.230  12.247  0.9074 -0.0415  0.3639
  577TMC3    C3 8554   0.191   0.199  12.113  0.4767 -0.2166 -0.9276
  577TMC3    C4 8555   0.075   0.433  12.192  0.3393  0.7452  0.1529
  577TMC3    C5 8556   0.078   0.400  12.064  0.0437 -0.4247 -0.4514
  577TMC3    C6 8557   0.129   0.287  12.023  0.1226 -0.0282 -0.0828
  577TMC3     C 8558   0.085   0.342  12.427  0.2437 -0.4494 -0.3077
  577TMC3     O 8559   0.131   0.251  12.493  0.1545  0.1811  0.2020
  577TMC3     H 8560   0.220   0.158  12.320 -2.2836 -0.7360  1.2012
  577TMC3    H1 8561   0.007   0.512  12.223  0.0159  1.4206 -2.3386
  577TMC3    H2 8562   0.121   0.273  11.916  2.6155 -0.9140 -0.1409
  577TMC3    C7 8563   0.018   0.494  11.970 -0.4602  1.3449  0.6896
  577TMC3    C8 8564   0.260   0.073  12.069 -0.2757 -0.5442 -0.7967
  577TMC3    O1 8565   4.633   0.531  11.989 -0.6416 -0.2260  0.1316
  577TMC3    O2 8566   0.305   4.721  12.150 -0.7864  0.5877 -0.7667
  578MPD2     C 8567   3.304   0.509   1.933  0.0314  0.1593 -0.5647
  578MPD2    C1 8568   3.413   0.507   1.853 -0.3738 -0.8839  0.0912
  578MPD2    C2 8569   3.457   0.381   1.817 -0.8351  0.1660  0.3138
  578MPD2    C3 8570   3.387   0.261   1.847 -0.2544  0.4008  0.3728
  578MPD2    C4 8571   3.269   0.277   1.912  0.7522  0.3130  0.4726
  578MPD2    C5 8572   3.227   0.397   1.951 -0.3463  0.6095  0.5480
  578MPD2     H 8573   3.552   0.378   1.764  0.2931 -0.5267  2.3523
  578MPD2    H1 8574   3.202   0.192   1.923  1.2933 -0.3531 -1.4160
  578MPD2    H2 8575   3.267   0.606   1.962 -0.0362 -0.1359  0.3338
  578MPD2    H3 8576   3.125   0.406   1.986  0.5769 -0.7877  3.5319
  578MPD2     N 8577   3.447   0.137   1.806 -0.3088 -0.6720  0.4234
  578MPD2    H5 8578   3.541   0.144   1.768 -0.2058  1.5060  1.0765
  578MPD2    N1 8579   3.483   0.626   1.825  0.2183 -0.5567 -0.4130
  578MPD2    H7 8580   3.439   0.716   1.843  0.2838 -0.0926 -2.6577
  579TMC3    C1 8581   3.455   4.633   1.775  0.0038 -0.1045  0.2571
  579TMC3    C2 8582   3.587   4.645   1.793 -0.4754  0.2308 -0.2167
  579TMC3    C3 8583   3.666   4.545   1.743 -0.0429  0.5346 -0.1882
  579TMC3    C4 8584   3.398   4.530   1.708  0.5095  0.4179 -0.0181
  579TMC3    C5 8585   3.483   4.431   1.656 -0.3199  0.8648  0.3286
  579TMC3    C6 8586   3.619   4.433   1.685  0.1618 -0.1632 -0.5964
  579TMC3     C 8587   3.373   0.020   1.800  0.2108  0.7517 -0.0331
  579TMC3     O 8588   3.253   4.722   1.815  0.4763  0.1664 -0.1441
  579TMC3     H 8589   3.640   4.709   1.863  0.8936  0.6992 -1.6763
  579TMC3    H1 8590   3.291   4.521   1.695  0.2307  2.3322  0.9640
  579TMC3    H2 8591   3.694   4.366   1.642  0.8232  1.3467 -1.7768
  579TMC3    C7 8592   3.435   4.311   1.584 -0.4008 -0.4401 -0.3157
  579TMC3    C8 8593   3.807   4.541   1.788  0.8171  0.7014  0.5294
  579TMC3    O1 8594   3.513   4.215   1.580  0.2746  0.5449 -0.0593
  579TMC3    O2 8595   3.836   4.438   1.847 -0.3247 -0.5144 -0.4481
  580TMC3    C1 8596   2.532   4.412  12.023 -0.0221  0.0892 -0.3531
  580TMC3    C2 8597   2.667   4.409  11.993  0.1655 -0.7210 -0.1059
  580TMC3    C3 8598   2.743   4.297  12.003  1.1370  0.1256 -0.3202
  580TMC3    C4 8599   2.476   4.292  12.074  0.0230  0.6090 -0.0809
  580TMC3    C5 8600   2.552   4.184  12.076  0.4038  0.0439  0.0853
  580TMC3    C6 8601   2.687   4.176  12.043 -0.4858  0.0384 -0.0023
  580TMC3     C 8602   2.444   4.507  11.961  0.1265 -0.2255 -0.1799
  580TMC3     O 8603   2.330   4.524  12.006 -0.2705  0.0842 -0.4752
  580TMC3     H 8604   2.712   4.505  11.967 -4.2870  0.8841 -2.0249
  580TMC3    H1 8605   2.373   4.283  12.104 -0.3051 -0.1425 -1.4006
  580TMC3    H2 8606   2.747   4.085  12.038 -0.6354 -0.2313  3.2882
  580TMC3    C7 8607   2.493   4.057  12.109  0.0136  0.3451  0.0926
  580TMC3    C8 8608   2.879   4.290  11.963  0.0758 -0.3165  0.5730
  580TMC3    O1 8609   2.435   4.043  12.214 -0.0611  0.1958 -0.6301
  580TMC3    O2 8610   2.919   4.181  11.924  0.1348  0.1719 -0.1051
  581MPD2     C 8611   4.618   3.793  14.823  0.0772 -0.2442 -1.2961
  581MPD2    C1 8612   4.545   3.829  14.933 -0.0427 -0.2345 -0.0116
  581MPD2    C2 8613   4.422   3.891  14.922  0.6726 -0.4082  0.4009
  581MPD2    C3 8614   4.368   3.926  14.797 -0.2528  0.6195  0.6249
  581MPD2    C4 8615   4.449   3.889  14.687  0.3423  0.3494 -0.1869
  581MPD2    C5 8616   4.576   3.825  14.700 -0.3864 -0.3757 -0.2382
  581MPD2     H 8617   4.360   3.902  15.010 -2.6040  1.3365 -2.1335
  581MPD2    H1 8618   4.422   3.920  14.586  1.7063 -0.3761 -0.7825
  581MPD2    H2 8619   4.697   3.721  14.844  0.9780  0.8043 -1.0799
  581MPD2    H3 8620   4.628   3.786  14.613  1.3013 -2.1238  1.5687
  581MPD2     N 8621   4.237   3.979  14.785  0.2816  0.2945  0.0924
  581MPD2    H5 8622   4.180   3.995  14.868 -0.1559 -0.0489 -0.1449
  581MPD2    N1 8623   4.576   3.757  15.047 -0.0372  0.2364 -0.4615
  581MPD2    H7 8624   4.640   3.678  15.039  1.7115  1.7781 -1.5885
  582TMC3    C1 8625   4.536   3.664  15.255  0.0710  0.6079 -0.0785
  582TMC3    C2 8626   4.656   3.607  15.281 -0.2985 -0.1821  0.4470
  582TMC3    C3 8627   4.661   3.529  15.393  0.1390  0.6357 -0.0072
  582TMC3    C4 8628   4.422   3.637  15.330  0.2556  0.1856  0.1574
  582TMC3    C5 8629   4.431   3.556  15.440 -0.7295  0.5952  0.2112
  582TMC3    C6 8630   4.548   3.498  15.462 -0.0777  0.6919  0.4322
  582TMC3     C 8631   4.514   3.776  15.172  0.7339  0.0714  0.7192
  582TMC3     O 8632   4.440   3.861  15.216 -0.5901  0.0488 -0.7112
  582TMC3     H 8633   0.018   3.618  15.219 -1.7731  1.2596 -1.3974
  582TMC3    H1 8634   4.331   3.685  15.298  0.0242 -0.5515 -0.2796
  582TMC3    H2 8635   4.558   3.439  15.552 -0.9384 -1.3691 -0.8257
  582TMC3    C7 8636   4.393   3.625  15.559 -0.1869  0.0680  0.2063
  582TMC3    C8 8637   0.044   3.542  15.483 -0.6578 -0.3714 -0.1184
  582TMC3    O1 8638   4.362   3.563  15.661  0.0016  0.0595 -0.8738
  582TMC3    O2 8639   0.093   3.653  15.473  0.5606 -0.6503  0.2820
  583MPD2     C 8640   0.391   0.607  16.833  0.4669  0.3679  0.3099
  583MPD2    C1 8641   0.330   0.720  16.783 -0.3334  0.2617 -0.0907
  583MPD2    C2 8642   0.279   0.811  16.872 -0.0537 -0.0425  0.6103
  583MPD2    C3 8643   0.258   0.782  17.011 -0.2449  0.0669 -0.7860
  583MPD2    C4 8644   0.320   0.664  17.050  0.2716  0.0741  0.6480
  583MPD2    C5 8645   0.386   0.580  16.961 -0.5694 -0.3522 -0.7156
  583MPD2     H 8646   0.235   0.901  16.831  0.9789 -0.7129 -1.9642
  583MPD2    H1 8647   0.324   0.631  17.153  1.7747  1.3229  0.9856
  583MPD2    H2 8648   0.424   0.524  16.772 -1.2659  0.5855 -0.9429
  583MPD2    H3 8649   0.423   0.483  16.992 -0.3406 -0.3768 -1.0647
  583MPD2     N 8650   0.186   0.878  17.095  0.4810 -0.3903 -0.4300
  583MPD2    H5 8651   0.146   0.959  17.050 -0.0093  0.5984  1.8063
  583MPD2    N1 8652   0.328   0.759  16.649  0.4706  0.3735  0.3801
  583MPD2    H7 8653   0.283   0.846  16.623 -0.2620 -0.8177 -2.2653
  584TMC3    C1 8654   0.120   0.984  17.293  0.4664 -0.0456 -0.1396
  584TMC3    C2 8655   0.100   1.096  17.221  0.7667  0.7052 -1.4470
  584TMC3    C3 8656   0.129   1.220  17.282  0.1504 -0.1256  0.5729
  584TMC3    C4 8657   0.165   0.987  17.422  0.0350  0.6490 -0.6365
  584TMC3    C5 8658   0.193   1.109  17.483 -0.7834  0.5725 -0.2335
  584TMC3    C6 8659   0.181   1.225  17.412  0.1813  0.2639 -0.0809
  584TMC3     C 8660   0.176   0.865  17.232  0.1425 -0.5844  0.1748
  584TMC3     O 8661   0.229   0.780  17.307  0.4472  0.2952  0.2017
  584TMC3     H 8662   0.060   1.092  17.120  1.8476 -0.5378 -1.8226
  584TMC3    H1 8663   0.182   0.898  17.481 -0.7071  1.1622  0.3591
  584TMC3    H2 8664   0.233   1.309  17.457 -0.5837  0.7706 -0.1607
  584TMC3    C7 8665   0.230   1.105  17.625  0.2566 -0.4483  0.3452
  584TMC3    C8 8666   0.103   1.337  17.206  0.5250  0.5219  0.9872
  584TMC3    O1 8667   0.273   1.002  17.676  0.1644 -0.2390  0.1674
  584TMC3    O2 8668   0.067   1.333  17.088 -0.2001 -0.0806 -0.0280
  585MPD2     C 8669   4.573   4.676   0.426  0.3910  0.1564  0.6333
  585MPD2    C1 8670   4.500   0.062   0.411  0.7885 -0.5923 -0.3351
  585MPD2    C2 8671   4.380   0.052   0.346  0.7923 -0.1853  0.0491
  585MPD2    C3 8672   4.326   4.658   0.294 -0.5295 -0.3876  0.0447
  585MPD2    C4 8673   4.398   4.547   0.318  0.3126  0.3882  0.4474
  585MPD2    C5 8674   4.525   4.555   0.373 -0.0608  0.3021 -0.6110
  585MPD2     H 8675   4.323   0.143   0.330 -0.0289 -0.6986  0.0812
  585MPD2    H1 8676   4.357   4.448   0.303  0.7748  0.1310  0.8760
  585MPD2    H2 8677   4.669   4.662   0.475  0.3813 -1.7867  0.1148
  585MPD2    H3 8678   4.588   4.467   0.382  0.1672  0.5876  0.5763
  585MPD2     N 8679   4.211   4.651   0.210  0.1189 -0.0967 -0.1691
  585MPD2    H5 8680   4.186   4.561   0.169  0.6224 -0.1064 -0.4440
  585MPD2    N1 8681   4.546   0.192   0.453  0.0651  0.7003  0.4897
  585MPD2    H7 8682   4.484   0.270   0.434  0.9021  1.5252  1.1458
  586TMC3    C1 8683   4.041   4.716   0.066  0.3311  0.4174  0.0272
  586TMC3    C2 8684   4.056   4.600  17.695 -0.5092  0.0586  0.5802
  586TMC3    C3 8685   3.972   4.580  17.593 -0.5016  0.3165 -0.0255
  586TMC3    C4 8686   3.951   0.090   0.032  0.4342  0.3060 -0.2532
  586TMC3    C5 8687   3.865   0.061  17.635 -0.2430 -0.1048  0.1929
  586TMC3    C6 8688   3.870   4.672  17.563  0.7243  0.2008 -0.1876
  586TMC3     C 8689   4.136   0.031   0.168  0.4115 -0.1227 -0.6669
  586TMC3     O 8690   4.123   0.146   0.207 -0.3684 -0.2046 -0.7363
  586TMC3     H 8691   4.144   4.537  17.703  0.7151  1.6429 -0.3655
  586TMC3    H1 8692   3.936   0.177   0.095  0.6386 -0.4672  0.8692
  586TMC3    H2 8693   3.797   4.645  17.487  0.2158  2.3531 -0.4528
  586TMC3    C7 8694   3.747   0.136  17.638 -0.4057  0.5576  0.3475
  586TMC3    C8 8695   4.009   4.474  17.495  0.3719 -0.6470  0.0536
  586TMC3    O1 8696   3.767   0.254  17.661  0.0602  0.5318 -0.4321
  586TMC3    O2 8697   4.126   4.445  17.493  0.4964  0.5543  0.3278
  587TMC3    C1 8698   1.939   2.923  16.571 -0.0316  0.1133 -0.3083
  587TMC3    C2 8699   1.912   3.059  16.584  0.9717  0.1110 -0.6618
  587TMC3    C3 8700   2.022   3.145  16.586  0.4698  0.2925  0.2240
  587TMC3    C4 8701   2.064   2.873  16.549  0.1478 -0.2515 -0.5642
  587TMC3    C5 8702   2.168   2.965  16.549  0.0499  0.2531  0.2315
  587TMC3    C6 8703   2.150   3.101  16.570  0.2428  0.6581 -0.1018
  587TMC3     C 8704   1.831   2.825  16.584 -0.3135 -0.6416  0.0072
  587TMC3     O 8705   1.860   2.709  16.562 -0.0934 -0.0905 -0.2071
  587TMC3     H 8706   1.814   3.099  16.603  0.9781 -0.1202 -0.1536
  587TMC3    H1 8707   2.080   2.766  16.538  2.1275  0.0017 -0.2429
  587TMC3    H2 8708   2.219   3.184  16.577  1.2348 -0.1316 -0.6056
  587TMC3    C7 8709   2.309   2.918  16.543  0.5476 -0.9299  0.3770
  587TMC3    C8 8710   2.001   3.276  16.649  0.6471  0.2119 -0.1925
  587TMC3    O1 8711   2.396   3.003  16.547  0.3153  0.1756 -0.8864
  587TMC3    O2 8712   2.101   3.320  16.701 -0.2999 -0.0319  0.0309
  588TMC3    C1 8713   4.445   0.837  10.131  0.5186  0.2155  0.0241
  588TMC3    C2 8714   4.524   0.734  10.149 -0.4724 -1.0449  0.1541
  588TMC3    C3 8715   4.624   0.744  10.238  0.0936  0.1719  0.6364
  588TMC3    C4 8716   4.447   0.951  10.207  0.1387  0.1046  0.2406
  588TMC3    C5 8717   4.552   0.968  10.293  0.2488  0.7388 -0.0061
  588TMC3    C6 8718   4.643   0.857  10.315 -0.2500  0.7774 -0.1265
  588TMC3     C 8719   4.351   0.824  10.032  0.1883 -0.4808  0.5372
  588TMC3     O 8720   4.296   0.715  10.014 -0.0022  0.5877  0.0000
  588TMC3     H 8721   4.510   0.639  10.098  0.1684 -1.1029  0.0745
  588TMC3    H1 8722   4.365   1.022  10.202  0.0827 -0.1381 -2.2797
  588TMC3    H2 8723   0.001   0.864  10.384 -1.1776 -2.3248  1.3056
  588TMC3    C7 8724   4.561   1.089  10.373  0.0068 -0.0861  0.5163
  588TMC3    C8 8725   4.683   0.619  10.270  0.2838 -0.2371  0.7987
  588TMC3    O1 8726   4.595   1.094  10.490 -0.3004  0.3761 -0.2268
  588TMC3    O2 8727   4.709   0.538  10.180  0.2771 -0.7127  0.0139
  589TMC3    C1 8728   2.996   3.453   1.557  0.2625 -0.4444 -0.1955
  589TMC3    C2 8729   3.121   3.443   1.604  0.0541  0.1589 -0.5975
  589TMC3    C3 8730   3.204   3.347   1.547 -1.2571  0.1845 -0.6430
  589TMC3    C4 8731   2.946   3.367   1.461  0.2082 -0.6515 -0.5109
  589TMC3    C5 8732   3.026   3.276   1.406 -1.0013  0.3586 -0.5837
  589TMC3    C6 8733   3.157   3.251   1.455 -0.2630  0.4027  0.5476
  589TMC3     C 8734   2.897   3.549   1.607  0.8086  0.8064  0.5440
  589TMC3     O 8735   2.784   3.547   1.557  0.4126 -0.4674 -0.3275
  589TMC3     H 8736   3.164   3.510   1.678  1.1572 -0.8829 -0.2912
  589TMC3    H1 8737   2.843   3.373   1.426 -0.1746 -1.6389  0.4501
  589TMC3    H2 8738   3.231   3.185   1.411 -2.7664 -0.2090 -2.7544
  589TMC3    C7 8739   2.978   3.194   1.290  0.1738  0.2690 -0.1883
  589TMC3    C8 8740   3.324   3.315   1.618 -0.2615 -0.6480  0.3033
  589TMC3    O1 8741   2.861   3.150   1.293  0.2180 -0.1333 -0.4021
  589TMC3    O2 8742   3.316   3.346   1.736 -0.0867 -0.6052  0.0265
  590MPD2     C 8743   2.590   1.398  16.898 -0.4452  0.6178  0.1365
  590MPD2    C1 8744   2.522   1.400  16.777 -0.1712 -0.1395 -0.0203
  590MPD2    C2 8745   2.595   1.452  16.667  0.4884  0.6124 -0.3044
  590MPD2    C3 8746   2.726   1.490  16.677 -0.5332  0.0908 -0.6339
  590MPD2    C4 8747   2.794   1.478  16.791  0.3950 -0.4710 -0.7365
  590MPD2    C5 8748   2.727   1.433  16.901  0.6680 -0.1584  0.9338
  590MPD2     H 8749   2.550   1.464  16.568 -0.1627 -2.8370 -0.4247
  590MPD2    H1 8750   2.893   1.520  16.805 -0.0754  0.7998 -1.1504
  590MPD2    H2 8751   2.543   1.368  16.992 -2.0707  0.3470 -0.7561
  590MPD2    H3 8752   2.773   1.445  16.998 -1.1272  0.0412  1.7567
  590MPD2     N 8753   2.786   1.543  16.555  0.1279  0.6048  0.3885
  590MPD2    H5 8754   2.727   1.547  16.472  1.6786  0.0345 -0.7325
  590MPD2    N1 8755   2.389   1.363  16.770 -0.5947 -0.6033  0.3129
  590MPD2    H7 8756   2.368   1.289  16.836 -0.6834 -0.6071  0.2792
  591TMC3    C1 8757   2.956   1.597  16.406 -0.1666  0.5160  0.5945
  591TMC3    C2 8758   3.092   1.600  16.372  0.2736  0.0188 -0.2088
  591TMC3    C3 8759   3.123   1.636  16.244 -0.4799  0.9967  0.3591
  591TMC3    C4 8760   2.859   1.625  16.311 -0.2631  0.0512  0.2763
  591TMC3    C5 8761   2.902   1.684  16.194  0.4931  0.4295  0.5031
  591TMC3    C6 8762   3.031   1.682  16.154  0.6656 -0.0046 -0.2182
  591TMC3     C 8763   2.924   1.549  16.536  0.1343  0.3466 -0.5725
  591TMC3     O 8764   3.018   1.527  16.614  0.1878 -0.4788 -0.4689
  591TMC3     H 8765   3.167   1.575  16.446  0.4624 -0.0384 -0.4213
  591TMC3    H1 8766   2.752   1.636  16.320 -0.1743  0.8921  0.2991
  591TMC3    H2 8767   3.065   1.700  16.053  3.3146 -0.1274  0.6512
  591TMC3    C7 8768   2.818   1.752  16.109  0.0615  0.1083 -0.0417
  591TMC3    C8 8769   3.259   1.611  16.197 -0.0655 -0.0867  0.0838
  591TMC3    O1 8770   2.707   1.708  16.104 -0.0620  0.0754  0.9117
  591TMC3    O2 8771   3.269   1.582  16.079  0.6775 -0.1854  0.4695
  592MPD2     C 8772   3.577   3.598  11.419  1.2342  0.6344  0.4749
  592MPD2    C1 8773   3.525   3.673  11.526 -0.8901  0.1824  0.3807
  592MPD2    C2 8774   3.398   3.634  11.581  0.2800  0.0163 -0.1873
  592MPD2    C3 8775   3.333   3.516  11.532  0.8314 -0.5967 -0.0643
  592MPD2    C4 8776   3.387   3.458  11.423  0.4665 -0.2061  0.2526
  592MPD2    C5 8777   3.511   3.491  11.377  0.6259 -0.2059  0.7681
  592MPD2     H 8778   3.344   3.690  11.656  2.2774 -1.8233  2.6361
  592MPD2    H1 8779   3.350   3.368  11.375  0.4752 -0.6579  1.0969
  592MPD2    H2 8780   3.667   3.629  11.367  0.4317  1.8557 -0.1883
  592MPD2    H3 8781   3.557   3.442  11.291 -2.1648 -0.9142 -0.3267
  592MPD2     N 8782   3.214   3.472  11.597  0.2195 -0.8562  0.3530
  592MPD2    H5 8783   3.184   3.528  11.677  3.9648 -0.3729  1.4328
  592MPD2    N1 8784   3.611   3.778  11.570  0.0324 -0.4674 -0.2319
  592MPD2    H7 8785   3.692   3.790  11.509 -0.6578  0.3032 -1.0053
  593TMC3    C1 8786   3.685   3.961  11.707  0.0728  0.2911 -0.0135
  593TMC3    C2 8787   3.639   4.052  11.800 -0.0720  0.2501  0.4689
  593TMC3    C3 8788   3.721   4.163  11.812 -0.1483  0.4597 -0.0887
  593TMC3    C4 8789   3.800   3.976  11.629 -0.0001  0.2685 -0.1064
  593TMC3    C5 8790   3.862   4.093  11.649  1.1100 -0.1914 -0.2088
  593TMC3    C6 8791   3.834   4.192  11.742  0.4128 -0.3487  0.2802
  593TMC3     C 8792   3.590   3.856  11.682  0.5369 -0.2421 -0.3451
  593TMC3     O 8793   3.497   3.849  11.757 -0.1161 -0.2319 -0.4691
  593TMC3     H 8794   3.552   4.039  11.863  0.5109  0.5944  1.3553
  593TMC3    H1 8795   3.836   3.892  11.571 -2.5809 -0.9454  0.0466
  593TMC3    H2 8796   3.880   4.290  11.738  0.3107 -0.3142 -0.0924
  593TMC3    C7 8797   3.953   4.142  11.542  0.1945  0.1245  0.0748
  593TMC3    C8 8798   3.709   4.244  11.927 -0.8696  0.1132 -0.0707
  593TMC3    O1 8799   4.028   4.233  11.571  0.0915 -0.8572 -0.3788
  593TMC3    O2 8800   3.594   4.269  11.968  0.0467  0.4914  0.2339
  594MPD2     C 8801   1.588   2.425  13.954 -0.0311  0.0045 -0.0547
  594MPD2    C1 8802   1.607   2.391  14.086 -0.6076  0.1381 -0.4332
  594MPD2    C2 8803   1.735   2.401  14.135  0.2529 -0.3211  0.1889
  594MPD2    C3 8804   1.841   2.454  14.064 -0.1211  0.2534  0.1729
  594MPD2    C4 8805   1.815   2.487  13.935  0.0959  0.3135  0.9102
  594MPD2    C5 8806   1.699   2.456  13.882 -0.1247 -0.0668  0.2543
  594MPD2     H 8807   1.753   2.373  14.239  0.7063  0.2598  0.2700
  594MPD2    H1 8808   1.893   2.515  13.865 -0.6319  1.5135  0.5865
  594MPD2    H2 8809   1.511   2.372  13.899 -0.4973  0.2391  0.3740
  594MPD2    H3 8810   1.679   2.459  13.776  0.9804  3.2539  0.1262
  594MPD2     N 8811   1.965   2.474  14.137 -0.5013 -0.0623  0.3253
  594MPD2    H5 8812   1.965   2.437  14.231  1.5647 -2.2392 -0.5244
  594MPD2    N1 8813   1.495   2.342  14.153  0.0536 -1.0058  0.1628
  594MPD2    H7 8814   1.403   2.345  14.110  0.4271  1.2120 -0.4871
  595TMC3    C1 8815   2.291   2.786  14.265  0.2511  0.1535 -0.2779
  595TMC3    C2 8816   2.256   2.696  14.169 -0.8736  0.7266  0.6137
  595TMC3    C3 8817   2.146   2.613  14.200  0.7428 -0.1983 -0.2333
  595TMC3    C4 8818   2.242   2.800  14.390  0.1951 -0.3255 -0.6522
  595TMC3    C5 8819   2.142   2.710  14.416  0.1647 -0.1500  0.0209
  595TMC3    C6 8820   2.085   2.622  14.322 -0.2224  0.0955  0.4328
  595TMC3     C 8821   2.417   2.854  14.254 -0.4308 -0.1862 -0.4990
  595TMC3     O 8822   2.461   2.915  14.348 -0.3132  0.2077  0.1200
  595TMC3     H 8823   2.305   2.687  14.072 -1.9889 -1.1262  0.2033
  595TMC3    H1 8824   2.270   2.881  14.457 -0.2304 -1.9065  1.4221
  595TMC3    H2 8825   2.005   2.558  14.358  1.1421 -1.0629  1.3569
  595TMC3    C7 8826   2.064   2.725  14.536  0.7600  0.4331 -0.3008
  595TMC3    C8 8827   2.066   2.560  14.090  0.2403  0.5772  0.1322
  595TMC3    O1 8828   1.943   2.696  14.524  0.6387  0.2121 -0.2577
  595TMC3    O2 8829   2.104   2.603  13.980 -0.5003  0.4550 -0.3386
  596MPD2     C 8830   1.147   0.725  16.564  0.2415 -0.9593 -0.3526
  596MPD2    C1 8831   1.175   0.849  16.502  0.5800 -0.2209 -0.1679
  596MPD2    C2 8832   1.194   0.848  16.361 -0.4523 -0.8458  0.4180
  596MPD2    C3 8833   1.189   0.725  16.294 -0.0864 -0.3112  0.1805
  596MPD2    C4 8834   1.169   0.609  16.365  0.0810 -0.1345  0.6364
  596MPD2    C5 8835   1.150   0.608  16.497  0.1742 -0.1314  0.1858
  596MPD2     H 8836   1.207   0.944  16.311  2.0231 -1.3664  0.0551
  596MPD2    H1 8837   1.177   0.517  16.308  2.1736 -0.8615  2.1043
  596MPD2    H2 8838   1.131   0.716  16.671 -0.5767 -1.6821 -0.5395
  596MPD2    H3 8839   1.130   0.519  16.556  1.5676 -1.3020 -1.1093
  596MPD2     N 8840   1.197   0.716  16.151 -0.4046  0.1896  0.2131
  596MPD2    H5 8841   1.200   0.621  16.115 -2.8493 -0.4899  1.7983
  596MPD2    N1 8842   1.164   0.973  16.570  0.0856  0.6297 -0.1344
  596MPD2    H7 8843   1.160   1.055  16.511  1.6633  1.0596  0.3448
  597TMC3    C1 8844   1.044   1.114  16.733 -0.4929 -0.9445 -0.4148
  597TMC3    C2 8845   1.041   1.218  16.638 -0.1214  0.5259  0.7831
  597TMC3    C3 8846   0.957   1.324  16.669 -0.0354 -0.1523 -0.3432
  597TMC3    C4 8847   0.964   1.118  16.845 -0.5845  0.1344  0.1213
  597TMC3    C5 8848   0.873   1.223  16.866 -0.1412 -0.8202 -0.5698
  597TMC3    C6 8849   0.874   1.333  16.782 -0.3097 -0.7905 -0.2429
  597TMC3     C 8850   1.105   0.986  16.696  0.7028  0.7038  0.9112
  597TMC3     O 8851   1.128   0.916  16.796 -0.3943 -0.4284 -0.1946
  597TMC3     H 8852   1.101   1.203  16.549  3.5437  1.9709  2.9950
  597TMC3    H1 8853   0.958   1.027  16.904  1.4756 -0.6527 -0.8696
  597TMC3    H2 8854   0.822   1.427  16.798  0.4349 -0.1529 -1.5624
  597TMC3    C7 8855   0.795   1.223  16.989  0.1823  0.2210  0.6060
  597TMC3    C8 8856   0.986   1.447  16.600  0.5709  0.7125 -0.3213
  597TMC3    O1 8857   0.794   1.122  17.058  0.1670 -0.5206 -0.3135
  597TMC3    O2 8858   0.922   1.548  16.634  0.3017  0.2533  0.6260
  598TMC3    C1 8859   3.870   2.287  15.405  0.1057  0.1220 -0.6281
  598TMC3    C2 8860   3.788   2.173  15.380 -0.6640 -0.0542  0.0776
  598TMC3    C3 8861   3.784   2.122  15.253 -0.2023  0.1920  0.7494
  598TMC3    C4 8862   3.947   2.343  15.302 -0.7851 -0.4122 -0.0998
  598TMC3    C5 8863   3.934   2.286  15.172 -0.3215 -0.6662 -0.0300
  598TMC3    C6 8864   3.849   2.179  15.148  0.6305 -0.4394 -0.2756
  598TMC3     C 8865   3.859   2.369  15.526 -0.1992  0.4561 -0.0147
  598TMC3     O 8866   3.952   2.435  15.566 -0.0314 -0.1424  0.5518
  598TMC3     H 8867   3.714   2.137  15.451  0.4122  1.5445  1.9896
  598TMC3    H1 8868   4.006   2.433  15.319  2.4865 -3.1758  3.1872
  598TMC3    H2 8869   3.836   2.135  15.050 -0.6617  0.8287 -0.6804
  598TMC3    C7 8870   3.971   2.361  15.054 -0.8345 -0.4223 -0.2863
  598TMC3    C8 8871   3.695   2.009  15.222 -0.1685 -0.2841 -0.0299
  598TMC3    O1 8872   3.942   2.313  14.948  0.0835 -0.7057  0.4827
  598TMC3    O2 8873   3.691   1.983  15.105  0.1101 -0.0949  0.4196
  599MPD2     C 8874   4.262   0.061  16.188 -1.0638 -0.3415 -0.8766
  599MPD2    C1 8875   4.166   4.691  16.170  0.0281 -0.4014 -0.5457
  599MPD2    C2 8876   4.040   0.011  16.145  0.5422  0.1571 -0.3226
  599MPD2    C3 8877   4.004   0.139  16.150 -0.0299  0.3547 -0.4442
  599MPD2    C4 8878   4.103   0.237  16.159 -0.0439  1.0488 -0.5375
  599MPD2    C5 8879   4.228   0.193  16.172  0.7193 -0.4177  0.2241
  599MPD2     H 8880   3.971   4.655  16.129  0.8189  0.1395 -1.4429
  599MPD2    H1 8881   4.083   0.343  16.176 -0.9520  0.8106 -0.1029
  599MPD2    H2 8882   4.365   0.032  16.209 -1.5043 -1.1688  0.1302
  599MPD2    H3 8883   4.301   0.272  16.184 -0.3808  0.7763 -0.8997
  599MPD2     N 8884   3.868   0.176  16.142  0.6716 -0.1242 -0.4808
  599MPD2    H5 8885   3.857   0.274  16.167  0.3692 -0.5394  1.0224
  599MPD2    N1 8886   4.203   4.548  16.174 -0.3579 -0.1411  0.3265
  599MPD2    H7 8887   4.295   4.520  16.206  0.2787  1.9609  0.3567
  600TMC3    C1 8888   3.635   0.147  16.165  1.2308  0.9376 -0.7282
  600TMC3    C2 8889   3.526   0.076  16.134  0.7200 -0.3963 -0.3642
  600TMC3    C3 8890   3.415   0.079  16.214  0.1079 -0.3402  0.0336
  600TMC3    C4 8891   3.639   0.225  16.275  0.1647 -0.2096  0.2408
  600TMC3    C5 8892   3.529   0.224  16.356  0.0400  0.3320 -0.4691
  600TMC3    C6 8893   3.412   0.155  16.326 -0.0132  0.1371  0.0083
  600TMC3     C 8894   3.761   0.096  16.117  0.0486 -0.1104 -0.2431
  600TMC3     O 8895   3.758   4.700  16.097  0.5070 -0.8348 -0.0685
  600TMC3     H 8896   3.544   4.725  16.061  4.0687 -0.1189  0.1363
  600TMC3    H1 8897   3.715   0.302  16.288 -0.3210  0.2871  0.1617
  600TMC3    H2 8898   3.329   0.149  16.396 -0.0023  0.1242  0.0201
  600TMC3    C7 8899   3.515   0.311  16.472  1.0946  0.1572  0.0793
  600TMC3    C8 8900   3.304   4.708  16.198  0.0426  0.1055 -0.3918
  600TMC3    O1 8901   3.401   0.348  16.497 -0.2164 -0.4805 -0.4109
  600TMC3    O2 8902   3.228   4.687  16.289 -0.2705  0.4239 -0.1985
  601MPD2     C 8903   0.766   2.439   0.844  0.0838 -0.2852 -0.3353
  601MPD2    C1 8904   0.791   2.444   0.705 -0.5893 -0.2354 -0.1866
  601MPD2    C2 8905   0.855   2.333   0.649 -0.6047  0.0321 -0.2785
  601MPD2    C3 8906   0.858   2.214   0.719 -0.0848  0.4738  0.3531
  601MPD2    C4 8907   0.831   2.214   0.853  0.2925  0.4378  0.1310
  601MPD2    C5 8908   0.785   2.323   0.914 -0.4790 -0.5902 -0.2919
  601MPD2     H 8909   0.881   2.345   0.544  0.5818 -4.5437 -0.5074
  601MPD2    H1 8910   0.850   2.127   0.916 -2.3385 -1.4277 -1.6208
  601MPD2    H2 8911   0.727   2.525   0.897  0.1709 -0.7863  0.5442
  601MPD2    H3 8912   0.773   2.318   1.022 -1.2786 -1.3512 -0.4156
  601MPD2     N 8913   0.914   2.092   0.671 -0.3043  0.8765 -0.1950
  601MPD2    H5 8914   0.935   2.020   0.739  0.0701  0.9260 -0.2611
  601MPD2    N1 8915   0.766   2.556   0.619  1.1263 -0.1966 -0.2338
  601MPD2    H7 8916   0.792   2.539   0.523  0.0758  0.5280 -0.6469
  602TMC3    C1 8917   0.683   2.769   0.561  0.4521  0.4317  0.4552
  602TMC3    C2 8918   0.673   2.897   0.599 -0.6150  0.2629  0.4860
  602TMC3    C3 8919   0.627   2.990   0.510  0.7527  0.1805  0.2058
  602TMC3    C4 8920   0.651   2.729   0.433 -1.0782  0.4897  0.0531
  602TMC3    C5 8921   0.597   2.821   0.348  0.0167  0.1103  0.1757
  602TMC3    C6 8922   0.585   2.956   0.380  0.1196  0.1405 -0.2764
  602TMC3     C 8923   0.712   2.670   0.666  0.0911  0.2060 -0.8519
  602TMC3     O 8924   0.721   2.703   0.781  0.2500  0.2584  0.2620
  602TMC3     H 8925   0.689   2.923   0.703 -0.5199 -3.7860  1.4781
  602TMC3    H1 8926   0.647   2.626   0.399 -1.1358  1.2556 -2.2377
  602TMC3    H2 8927   0.543   3.028   0.311 -0.6848  0.3192  0.3875
  602TMC3    C7 8928   0.556   2.776   0.216  0.0225  0.0765  0.0007
  602TMC3    C8 8929   0.559   3.097   0.584 -0.9388  0.4747 -0.0916
  602TMC3    O1 8930   0.617   2.683   0.167  0.3040  0.3236  0.0512
  602TMC3    O2 8931   0.518   3.062   0.696 -0.1552  0.4037  0.2835
  603TMC3    C1 8932   4.199   3.278  10.723 -0.2224 -0.3154  0.1470
  603TMC3    C2 8933   4.209   3.251  10.856  0.0572  0.0986  0.0419
  603TMC3    C3 8934   4.275   3.349  10.927  0.3254  0.3950 -0.1759
  603TMC3    C4 8935   4.252   3.385  10.664  1.0959 -0.0072  0.1829
  603TMC3    C5 8936   4.314   3.484  10.734 -0.0610 -0.0736 -0.4113
  603TMC3    C6 8937   4.328   3.466  10.869 -0.3457  0.0532 -0.7551
  603TMC3     C 8938   4.091   3.221  10.649  0.8972 -0.4327 -0.4136
  603TMC3     O 8939   4.090   3.226  10.526 -0.1634 -0.3032  0.0707
  603TMC3     H 8940   4.181   3.154  10.895 -1.8311  0.1686 -1.1481
  603TMC3    H1 8941   4.264   3.401  10.558  0.7983 -0.9142  0.0140
  603TMC3    H2 8942   4.357   3.554  10.925 -0.8815  0.4592 -1.1079
  603TMC3    C7 8943   4.323   3.612  10.675 -0.5381 -1.1199  0.5612
  603TMC3    C8 8944   4.265   3.340  11.067 -0.2048 -0.2190 -0.0231
  603TMC3    O1 8945   4.406   3.693  10.716 -0.4570  0.1121  0.2631
  603TMC3    O2 8946   4.196   3.255  11.114 -0.3287  0.2898 -0.2526
  604MPD2     C 8947   3.946   2.164  16.053 -0.7451  0.6148 -0.1622
  604MPD2    C1 8948   4.069   2.133  16.099  0.0093  0.0235  0.3302
  604MPD2    C2 8949   4.164   2.076  16.012 -0.7187  0.4658  0.0056
  604MPD2    C3 8950   4.129   2.051  15.879 -0.4716  0.2509  0.4597
  604MPD2    C4 8951   4.005   2.094  15.830 -0.1495  0.0809  0.2520
  604MPD2    C5 8952   3.913   2.144  15.918  0.6846 -0.5548 -0.2649
  604MPD2     H 8953   4.263   2.055  16.049 -0.5193  0.7187 -0.3866
  604MPD2    H1 8954   3.972   2.075  15.729  0.8901  0.9289 -0.2469
  604MPD2    H2 8955   3.870   2.210  16.114 -0.3205  0.3874  0.5328
  604MPD2    H3 8956   3.812   2.166  15.886  1.2774 -1.5025 -2.7994
  604MPD2     N 8957   4.218   1.986  15.793 -0.0268  0.4824 -0.2524
  604MPD2    H5 8958   4.308   1.957  15.832 -0.0977 -1.0342 -1.2126
  604MPD2    N1 8959   4.105   2.183  16.226  0.4416 -0.0353  0.1856
  604MPD2    H7 8960   4.033   2.224  16.284  1.3050  1.4596  0.2015
  605TMC3    C1 8961   4.228   2.258  16.410  0.0367  0.1794  0.2076
  605TMC3    C2 8962   4.328   2.229  16.506  0.0889  0.2708  0.2421
  605TMC3    C3 8963   4.310   2.287  16.632  0.1366 -0.0409 -1.1093
  605TMC3    C4 8964   4.131   2.346  16.436  0.1282  0.3766 -0.0269
  605TMC3    C5 8965   4.116   2.394  16.567 -0.4152 -0.5346  0.0152
  605TMC3    C6 8966   4.202   2.363  16.663  0.2256 -0.2609  0.2794
  605TMC3     C 8967   4.234   2.184  16.288  1.0730  0.8056  0.1682
  605TMC3     O 8968   4.336   2.128  16.247 -0.3576 -0.0084  0.6691
  605TMC3     H 8969   4.402   2.152  16.487 -0.1211 -0.0001  0.5159
  605TMC3    H1 8970   4.067   2.387  16.359 -0.4893  1.3713  1.0241
  605TMC3    H2 8971   4.198   2.410  16.760  1.1195  0.3350  0.0219
  605TMC3    C7 8972   4.051   2.522  16.581 -0.2816 -0.4668  0.4253
  605TMC3    C8 8973   4.406   2.253  16.738 -0.2258  0.2125  0.0366
  605TMC3    O1 8974   4.050   2.594  16.479  0.5495  0.2095  0.2595
  605TMC3    O2 8975   4.359   2.254  16.854 -0.0941 -0.0442 -0.4088
  606TMC3    C1 8976   1.413   4.630  17.181  0.3561 -0.1990 -0.0069
  606TMC3    C2 8977   1.463   4.679  17.298 -0.1160  0.1504 -0.3474
  606TMC3    C3 8978   1.479   4.585  17.403 -0.4915  0.0674 -0.4931
  606TMC3    C4 8979   1.374   4.498  17.169 -0.2512  0.3717  0.5523
  606TMC3    C5 8980   1.403   4.405  17.267  0.3360  0.0845  0.2159
  606TMC3    C6 8981   1.450   4.450  17.384 -0.0714  0.0159 -0.3246
  606TMC3     C 8982   1.385   4.718  17.061 -0.6481 -0.0591  0.2804
  606TMC3     O 8983   1.403   4.666  16.952 -0.5914  0.1330 -0.3953
  606TMC3     H 8984   1.479   0.060  17.308  0.8902 -0.0745  0.4298
  606TMC3    H1 8985   1.323   4.473  17.077  0.2938 -0.1259  0.3840
  606TMC3    H2 8986   1.474   4.373  17.456 -1.1819  3.4565  3.7681
  606TMC3    C7 8987   1.308   4.297  17.296 -0.1920  0.4517  0.1432
  606TMC3    C8 8988   1.527   4.636  17.529 -0.1124  0.2384  0.6520
  606TMC3    O1 8989   1.345   4.202  17.363 -0.3690  0.0957 -0.2107
  606TMC3    O2 8990   1.565   0.024  17.536 -0.2513 -0.3328  0.3799
  607MPD2     C 8991   3.558   2.996  11.667  0.6346 -0.5625  0.5891
  607MPD2    C1 8992   3.591   3.080  11.775 -0.5452 -0.1617 -1.0350
  607MPD2    C2 8993   3.541   3.046  11.905  0.3320  0.9348 -0.1367
  607MPD2    C3 8994   3.446   2.945  11.918  0.1280  0.2400 -0.0433
  607MPD2    C4 8995   3.411   2.870  11.802  0.2375 -0.3395 -0.8191
  607MPD2    C5 8996   3.476   2.893  11.687 -0.2069  0.2335 -0.6297
  607MPD2     H 8997   3.558   3.106  11.994  2.9034 -1.6226  1.0792
  607MPD2    H1 8998   3.331   2.798  11.818  1.7826 -1.3893  2.2772
  607MPD2    H2 8999   3.590   3.013  11.565 -0.9112  0.8176  0.3132
  607MPD2    H3 9000   3.450   2.836  11.598 -1.0752 -0.1762 -0.1162
  607MPD2     N 9001   3.374   2.945  12.037  0.2059 -0.6415 -0.5425
  607MPD2    H5 9002   3.400   3.005  12.114 -1.4228 -0.2190 -0.3328
  607MPD2    N1 9003   3.655   3.205  11.764 -0.9918  0.5913 -0.6378
  607MPD2    H7 9004   3.663   3.254  11.853  2.0267 -1.7887  0.3755
  608TMC3    C1 9005   3.715   3.409  11.680  0.0393 -0.4300 -0.1431
  608TMC3    C2 9006   3.651   3.464  11.789 -0.0503 -0.1039  0.7025
  608TMC3    C3 9007   3.705   3.575  11.849 -0.0485  0.3103 -0.3873
  608TMC3    C4 9008   3.828   3.477  11.628  0.2220 -0.0514  0.0798
  608TMC3    C5 9009   3.874   3.582  11.694  1.0926 -0.5549 -0.1772
  608TMC3    C6 9010   3.820   3.632  11.810 -0.7065 -0.0760  0.1862
  608TMC3     C 9011   3.704   3.268  11.653  0.2943 -0.2763 -0.6484
  608TMC3     O 9012   3.715   3.221  11.540 -0.0628  0.9676 -0.4137
  608TMC3     H 9013   3.548   3.442  11.814 -0.4151  0.4348 -0.3257
  608TMC3    H1 9014   3.883   3.445  11.541 -0.0883  2.5268 -1.0533
  608TMC3    H2 9015   3.863   3.714  11.867 -1.2142  0.0419  0.4012
  608TMC3    C7 9016   3.972   3.661  11.623  0.4739  0.6971  0.3795
  608TMC3    C8 9017   3.645   3.623  11.974  0.2959 -0.2511  0.0900
  608TMC3    O1 9018   3.961   3.668  11.501 -0.5220 -0.2834  0.1793
  608TMC3    O2 9019   3.666   3.737  12.005  0.0149 -0.1959 -0.4747
  609TMC3    C1 9020   0.880   2.439   9.422  0.2514 -0.1180  0.3270
  609TMC3    C2 9021   0.756   2.450   9.365  0.5763  0.0030 -0.0356
  609TMC3    C3 9022   0.713   2.342   9.289 -0.2751 -0.1999 -0.4355
  609TMC3    C4 9023   0.963   2.331   9.413 -0.4436  0.2010  0.4074
  609TMC3    C5 9024   0.917   2.233   9.331  0.4685 -0.0908  0.6205
  609TMC3    C6 9025   0.797   2.233   9.264 -0.6976 -0.4283 -0.0983
  609TMC3     C 9026   0.927   2.561   9.475  0.1786 -1.0584  0.0744
  609TMC3     O 9027   0.856   2.661   9.462  1.2482 -0.0295  0.0745
  609TMC3     H 9028   0.691   2.535   9.386 -0.1730 -0.1952 -1.5001
  609TMC3    H1 9029   1.055   2.330   9.471 -0.7191 -1.2958  0.8150
  609TMC3    H2 9030   0.783   2.156   9.189  1.0554 -1.0513  0.2141
  609TMC3    C7 9031   1.015   2.131   9.293  0.7302  0.0699  0.1169
  609TMC3    C8 9032   0.587   2.361   9.213 -0.8298 -0.9887  0.0599
  609TMC3    O1 9033   1.135   2.158   9.306  0.2439 -0.1911 -0.2453
  609TMC3    O2 9034   0.532   2.472   9.218  0.2154  0.1781 -0.2203
  610TMC3    C1 9035   3.616   3.040  12.860 -0.2481  0.5875  0.3496
  610TMC3    C2 9036   3.668   3.125  12.766  0.3443  0.0367 -0.2165
  610TMC3    C3 9037   3.783   3.091  12.702 -0.8636  1.9235 -0.4183
  610TMC3    C4 9038   3.674   2.918  12.892 -0.6119  0.4788 -0.5517
  610TMC3    C5 9039   3.804   2.893  12.840  0.7782  0.4869 -0.7151
  610TMC3    C6 9040   3.863   2.985  12.742 -0.0600  0.4314 -0.6149
  610TMC3     C 9041   3.498   3.088  12.931  0.7063 -0.5322  0.1649
  610TMC3     O 9042   3.446   3.002  12.999  0.1072 -0.2547 -0.6169
  610TMC3     H 9043   3.603   3.203  12.728 -1.4300 -0.2524  2.2252
  610TMC3    H1 9044   3.629   2.867  12.977  1.6378 -2.6599 -1.2926
  610TMC3    H2 9045   3.965   2.976  12.708 -0.4986  1.7388 -2.2721
  610TMC3    C7 9046   3.881   2.774  12.876 -0.0132 -0.1685 -0.9768
  610TMC3    C8 9047   3.819   3.168  12.589  0.0745  0.3295  0.0784
  610TMC3    O1 9048   3.992   2.761  12.819 -0.0471  0.2661 -0.1151
  610TMC3    O2 9049   3.722   3.217  12.526 -0.3370 -0.4005  0.4070
  611MPD2     C 9050   3.660   3.078  10.109  0.8318 -0.2678  0.1165
  611MPD2    C1 9051   3.576   3.152  10.023  0.0994 -0.0416  0.5860
  611MPD2    C2 9052   3.631   3.267   9.971  1.3888 -0.9324  0.0114
  611MPD2    C3 9053   3.753   3.315  10.010 -0.7100 -0.2162  0.6251
  611MPD2    C4 9054   3.834   3.245  10.099 -0.4925 -0.1634  0.2866
  611MPD2    C5 9055   3.787   3.123  10.146 -0.7597  0.0049 -0.6751
  611MPD2     H 9056   3.577   3.318   9.892 -0.3545 -1.8949  0.5869
  611MPD2    H1 9057   3.930   3.285  10.129 -1.1281  1.6985 -0.2006
  611MPD2    H2 9058   3.615   2.988  10.148 -0.8188  0.8173  0.7120
  611MPD2    H3 9059   3.840   3.066  10.221 -0.9598  0.1983 -0.3898
  611MPD2     N 9060   3.802   3.443   9.980  0.0629 -0.8305  0.6581
  611MPD2    H5 9061   3.880   3.478  10.036 -1.1487  0.0492  1.7950
  611MPD2    N1 9062   3.449   3.104   9.992 -0.4452 -0.2202 -0.7282
  611MPD2    H7 9063   3.435   3.004  10.006  0.4570 -0.0499  1.4252
  612TMC3    C1 9064   3.797   3.659   9.884 -0.0920  0.0866 -0.2600
  612TMC3    C2 9065   3.888   3.705   9.979 -0.5275 -0.1046 -0.3296
  612TMC3    C3 9066   3.887   3.841   9.997  0.0976 -0.2973 -0.8960
  612TMC3    C4 9067   3.719   3.743   9.820  0.1244 -0.8909 -0.4895
  612TMC3    C5 9068   3.733   3.878   9.832  0.3906 -0.2378 -0.4556
  612TMC3    C6 9069   3.824   3.928   9.920 -0.6411 -0.3560 -0.3915
  612TMC3     C 9070   3.757   3.520   9.874 -0.2380  0.6229  0.3174
  612TMC3     O 9071   3.667   3.500   9.795 -0.1773  0.5135  0.0067
  612TMC3     H 9072   3.955   3.640  10.035 -0.5285  0.1075 -0.0833
  612TMC3    H1 9073   3.650   3.714   9.741  0.5578  1.5803 -1.7730
  612TMC3    H2 9074   3.814   4.027   9.962  0.0060 -0.0587 -0.9381
  612TMC3    C7 9075   3.671   3.961   9.729 -0.7020 -0.2693 -0.4418
  612TMC3    C8 9076   3.980   3.897  10.094 -0.1924  0.8162 -0.2472
  612TMC3    O1 9077   3.566   3.930   9.669 -0.1097 -0.3916 -0.7132
  612TMC3    O2 9078   4.040   3.993  10.046  0.2459 -0.3015 -0.2095
  613MPD2     C 9079   2.715   1.133  16.540 -0.3712 -0.2546  0.0208
  613MPD2    C1 9080   2.622   1.151  16.443 -0.1781 -0.1745 -0.0385
  613MPD2    C2 9081   2.490   1.106  16.463 -0.7411 -0.9636 -0.3072
  613MPD2    C3 9082   2.466   1.029  16.586 -0.6212  0.4232 -0.5021
  613MPD2    C4 9083   2.562   1.020  16.683  0.2753 -0.6506  0.5806
  613MPD2    C5 9084   2.687   1.079  16.663 -0.5753  0.3801 -0.4293
  613MPD2     H 9085   2.418   1.105  16.382 -0.2420 -0.5824 -0.7512
  613MPD2    H1 9086   2.552   0.973  16.780  0.8657 -0.7341  0.6028
  613MPD2    H2 9087   2.818   1.165  16.531 -0.3166 -1.0015 -2.0462
  613MPD2    H3 9088   2.763   1.059  16.737 -1.4277 -0.9851  0.0816
  613MPD2     N 9089   2.358   0.939  16.607  0.1725 -0.2323 -0.0132
  613MPD2    H5 9090   2.376   0.883  16.689 -0.8105  1.3794  1.2960
  613MPD2    N1 9091   2.671   1.197  16.319  0.2962 -0.5041 -0.1311
  613MPD2    H7 9092   2.772   1.208  16.311  0.0115  0.0333 -2.8016
  614TMC3    C1 9093   2.680   1.211  16.081  0.1357 -1.1928 -0.2207
  614TMC3    C2 9094   2.725   1.081  16.071  0.0078  0.1532 -0.0770
  614TMC3    C3 9095   2.702   1.014  15.958  0.7162 -0.1514 -0.0101
  614TMC3    C4 9096   2.634   1.278  15.969 -0.0894  0.4290  0.1007
  614TMC3    C5 9097   2.615   1.211  15.852 -0.1648  1.0393  0.8750
  614TMC3    C6 9098   2.649   1.077  15.845  0.0441  0.4191 -0.4176
  614TMC3     C 9099   2.600   1.228  16.207  0.6428  0.1000 -0.2766
  614TMC3     O 9100   2.479   1.229  16.191  0.2522  0.4144  0.3120
  614TMC3     H 9101   2.764   1.036  16.162 -2.4850  1.3215  1.5967
  614TMC3    H1 9102   2.586   1.374  15.985 -0.1963  0.2375  0.9343
  614TMC3    H2 9103   2.647   1.014  15.757  2.3815 -2.0016  1.2699
  614TMC3    C7 9104   2.513   1.267  15.765 -0.3888 -0.0542 -0.7692
  614TMC3    C8 9105   2.658   0.880  15.991 -0.6716 -0.6015 -1.2676
  614TMC3    O1 9106   2.484   1.387  15.772 -0.6025  1.2789  0.1979
  614TMC3    O2 9107   2.693   0.818  16.092  0.4463 -0.2297 -0.1692
  615MPD2     C 9108   1.669   1.507  16.438  0.7187 -0.6365 -0.2616
  615MPD2    C1 9109   1.729   1.626  16.477  0.5465  0.0687 -0.5752
  615MPD2    C2 9110   1.688   1.741  16.411  0.1925 -0.6322 -0.9545
  615MPD2    C3 9111   1.590   1.738  16.310 -0.1456 -0.6746 -0.8697
  615MPD2    C4 9112   1.536   1.619  16.272  0.3151  0.0350 -0.3342
  615MPD2    C5 9113   1.571   1.507  16.342  0.6947 -0.6651  0.5289
  615MPD2     H 9114   1.742   1.831  16.435  0.4642 -0.7291 -1.2014
  615MPD2    H1 9115   1.450   1.617  16.207 -0.2795  1.5663  0.4140
  615MPD2    H2 9116   1.692   1.414  16.489 -1.4609 -0.6176  0.7595
  615MPD2    H3 9117   1.516   1.415  16.326 -0.3039 -0.0142  0.2349
  615MPD2     N 9118   1.536   1.850  16.244  0.4592 -0.6071  0.1641
  615MPD2    H5 9119   1.456   1.831  16.183 -1.0595 -0.8595  2.2321
  615MPD2    N1 9120   1.823   1.642  16.575 -0.0773  0.0852 -0.5257
  615MPD2    H7 9121   1.858   1.737  16.585  0.9072 -0.2604 -0.6633
  616TMC3    C1 9122   1.930   1.604  16.784  0.4354 -0.4267 -0.2319
  616TMC3    C2 9123   2.010   1.711  16.759  0.5932  0.0334  0.6966
  616TMC3    C3 9124   2.036   1.775  16.881 -0.0097  1.1405  0.1293
  616TMC3    C4 9125   1.875   1.563  16.902  0.7464 -0.0199 -0.8811
  616TMC3    C5 9126   1.896   1.646  17.008 -0.3287  0.2341  0.5078
  616TMC3    C6 9127   1.971   1.758  17.005 -0.5645 -0.3177 -0.0799
  616TMC3     C 9128   1.861   1.546  16.671  0.1908  0.3733 -0.0437
  616TMC3     O 9129   1.807   1.436  16.689  0.2163  0.2389  0.2730
  616TMC3     H 9130   2.057   1.732  16.664  0.0870  1.3192  0.7256
  616TMC3    H1 9131   1.810   1.476  16.910 -1.3271  1.8063  2.0121
  616TMC3    H2 9132   1.993   1.821  17.090  0.2176 -0.6599 -0.0288
  616TMC3    C7 9133   1.835   1.612  17.129  0.4132  0.1401  0.3551
  616TMC3    C8 9134   2.093   1.911  16.871  0.0981 -0.3042  0.3455
  616TMC3    O1 9135   1.814   1.490  17.153  0.3248 -0.6040 -0.2531
  616TMC3    O2 9136   2.051   1.999  16.943  0.8160 -0.2759 -0.6183
  617MPD2     C 9137   0.110   0.319  13.838 -0.3665  0.3570  0.4196
  617MPD2    C1 9138   0.064   0.232  13.937  0.0947 -0.2510  0.3620
  617MPD2    C2 9139   4.650   0.219  13.952 -0.5240 -0.0397  0.1078
  617MPD2    C3 9140   4.571   0.286  13.861  0.5997 -0.4678 -0.3512
  617MPD2    C4 9141   4.621   0.372  13.765  0.1318  0.0098  0.1539
  617MPD2    C5 9142   0.030   0.382  13.755 -0.3135 -0.3404 -0.3676
  617MPD2     H 9143   4.609   0.151  14.026 -2.3366  1.2888  0.3192
  617MPD2    H1 9144   4.556   0.426  13.696  0.2433  0.9096  0.7497
  617MPD2    H2 9145   0.214   0.320  13.807  0.2785 -1.9551  2.5915
  617MPD2    H3 9146   0.067   0.459  13.689  0.1526 -1.2010 -1.1053
  617MPD2     N 9147   4.428   0.265  13.854  0.6850  0.2184 -0.4719
  617MPD2    H5 9148   4.372   0.305  13.778 -2.3413 -0.2243  1.5172
  617MPD2    N1 9149   0.168   0.163  14.009  0.1703 -1.5038 -0.0997
  617MPD2    H7 9150   0.264   0.189  13.990 -1.7407  3.3935 -2.9779
  618TMC3    C1 9151   0.272   0.052  14.168 -0.0190  0.3512 -0.0963
  618TMC3    C2 9152   0.331   4.677  14.105  0.1795 -0.4358 -0.0774
  618TMC3    C3 9153   0.466   4.655  14.134  0.3272 -0.2825  0.3774
  618TMC3    C4 9154   0.348   0.151  14.235 -0.5564  0.2369 -0.3151
  618TMC3    C5 9155   0.476   0.121  14.273  0.7483  0.9567 -0.0840
  618TMC3    C6 9156   0.532   0.008  14.227 -0.3403  0.5167  0.0169
  618TMC3     C 9157   0.141   0.077  14.111  0.1600 -0.3171 -0.7257
  618TMC3     O 9158   0.038   0.029  14.156 -0.6988  0.1009  0.0791
  618TMC3     H 9159   0.273   4.616  14.037  0.5726 -1.4061  0.4660
  618TMC3    H1 9160   0.304   0.244  14.268  0.2330  0.8324 -0.9210
  618TMC3    H2 9161   0.634   4.715  14.259 -0.6670 -0.7348  0.3483
  618TMC3    C7 9162   0.559   0.231  14.309  0.0180  0.1333 -0.3249
  618TMC3    C8 9163   0.527   4.560  14.037 -0.2118  0.8055 -0.0719
  618TMC3    O1 9164   0.528   0.280  14.418  0.3144  0.3809  0.6844
  618TMC3    O2 9165   0.451   4.495  13.964 -0.2961 -0.1536  0.7419
  619MPD2     C 9166   1.517   1.751  13.453  0.8320 -0.5136 -0.2647
  619MPD2    C1 9167   1.398   1.809  13.411  0.1861 -0.4058 -0.0307
  619MPD2    C2 9168   1.275   1.750  13.439 -0.6377 -0.0242 -0.0039
  619MPD2    C3 9169   1.268   1.633  13.517 -0.4815 -0.0475  0.4077
  619MPD2    C4 9170   1.386   1.587  13.565 -0.1102 -0.9338 -0.9413
  619MPD2    C5 9171   1.509   1.636  13.530 -0.1539 -0.2014  0.0157
  619MPD2     H 9172   1.185   1.800  13.405 -1.0788  0.2545  1.5587
  619MPD2    H1 9173   1.385   1.502  13.633 -0.7072 -1.5231 -1.6784
  619MPD2    H2 9174   1.612   1.795  13.426  0.5529 -0.0264 -0.4639
  619MPD2    H3 9175   1.601   1.594  13.567 -0.4187 -0.5156  0.3168
  619MPD2     N 9176   1.146   1.560  13.548 -0.1817 -0.2214 -0.5724
  619MPD2    H5 9177   1.148   1.489  13.621 -1.2412 -3.5229 -3.7010
  619MPD2    N1 9178   1.403   1.908  13.316 -0.4180 -0.3867 -0.0697
  619MPD2    H7 9179   1.310   1.937  13.286  0.4195  2.2293 -0.1235
  620TMC3    C1 9180   1.454   2.119  13.226 -0.1077 -0.2167 -0.1786
  620TMC3    C2 9181   1.400   2.097  13.099 -0.8441 -0.0493  0.2192
  620TMC3    C3 9182   1.376   2.200  13.017 -0.6286 -0.6962 -0.1090
  620TMC3    C4 9183   1.500   2.239  13.264  0.8852 -0.6720  0.7410
  620TMC3    C5 9184   1.476   2.342  13.181  0.0601 -0.3448 -0.6704
  620TMC3    C6 9185   1.406   2.323  13.066 -0.0536  0.7995 -0.7694
  620TMC3     C 9186   1.501   2.001  13.299 -0.3141  0.0641 -0.5079
  620TMC3     O 9187   1.598   2.018  13.372 -0.2116 -0.0819 -0.3884
  620TMC3     H 9188   1.365   1.996  13.082 -2.6416  0.4790  0.8409
  620TMC3    H1 9189   1.539   2.259  13.363 -1.9047 -1.5647  2.0179
  620TMC3    H2 9190   1.387   2.414  13.010 -1.3920  1.9144  1.5251
  620TMC3    C7 9191   1.393   2.451  13.248  0.8818  0.2163  0.6788
  620TMC3    C8 9192   1.244   2.189  12.942  0.1966  0.2813 -0.4535
  620TMC3    O1 9193   1.309   2.410  13.330  0.4144  0.3632 -0.1581
  620TMC3    O2 9194   1.191   2.083  12.941 -0.4285  0.1315  0.4408
  621MPD2     C 9195   1.624   2.669   9.928  0.5660  0.0841 -0.3621
  621MPD2    C1 9196   1.646   2.538   9.919  0.1604  0.3213 -0.2886
  621MPD2    C2 9197   1.758   2.489   9.866 -0.4252 -0.4250  0.1492
  621MPD2    C3 9198   1.844   2.574   9.805  0.5682  1.2002  0.1140
  621MPD2    C4 9199   1.810   2.705   9.791 -0.2155 -1.0643  0.3621
  621MPD2    C5 9200   1.705   2.757   9.857  0.0527 -0.0204 -0.1080
  621MPD2     H 9201   1.778   2.382   9.866  1.0590 -0.1324 -2.1015
  621MPD2    H1 9202   1.862   2.777   9.730  0.1272 -0.6829  1.1015
  621MPD2    H2 9203   1.534   2.709   9.973 -0.1305 -2.6690  0.7188
  621MPD2    H3 9204   1.678   2.862   9.850  0.0249  0.0369  0.8484
  621MPD2     N 9205   1.959   2.513   9.739 -0.1559 -0.2702  0.0166
  621MPD2    H5 9206   1.963   2.413   9.726 -1.2323 -0.3765  0.5295
  621MPD2    N1 9207   1.557   2.443   9.981  0.0291 -0.2751  0.1917
  621MPD2    H7 9208   1.581   2.345   9.986  0.0008 -0.1974  1.6616
  622TMC3    C1 9209   1.363   2.335  10.057  0.3109 -0.0012 -0.8758
  622TMC3    C2 9210   1.253   2.332  10.132 -0.2998 -0.5141  0.0129
  622TMC3    C3 9211   1.194   2.212  10.159 -0.4038 -0.8472  0.0250
  622TMC3    C4 9212   1.417   2.212  10.023  0.1799 -0.4243 -0.4769
  622TMC3    C5 9213   1.366   2.092  10.067  0.2429 -0.3803  0.0372
  622TMC3    C6 9214   1.250   2.089  10.141  0.1649  0.7617  0.3471
  622TMC3     C 9215   1.434   2.461  10.031 -0.4794  0.2989 -0.3192
  622TMC3     O 9216   1.368   2.564  10.028 -0.0289 -0.3304 -0.0973
  622TMC3     H 9217   1.205   2.427  10.151 -0.0671 -0.3435 -0.2532
  622TMC3    H1 9218   1.508   2.205   9.964  1.4408  0.2580  1.4111
  622TMC3    H2 9219   1.200   1.999  10.178  0.1498 -0.2519 -2.1525
  622TMC3    C7 9220   1.430   1.971  10.024  0.1293 -0.5271  0.0479
  622TMC3    C8 9221   1.073   2.203  10.240 -0.2531 -1.0362 -0.4519
  622TMC3    O1 9222   1.552   1.981  10.007 -0.1730 -0.3072 -0.2570
  622TMC3    O2 9223   1.040   2.099  10.301  0.0812  0.4112 -0.9916
  623MPD2     C 9224   0.369   2.602  16.094 -0.3158 -0.4621 -0.0024
  623MPD2    C1 9225   0.284   2.538  16.188  0.7259  0.4089 -0.7204
  623MPD2    C2 9226   0.341   2.509  16.314 -0.4744 -0.8259  0.2338
  623MPD2    C3 9227   0.475   2.532  16.336 -0.1103 -0.5663 -0.9161
  623MPD2    C4 9228   0.555   2.595  16.241  0.3824  0.3228  0.5743
  623MPD2    C5 9229   0.501   2.629  16.122  0.5275 -0.0398  0.5571
  623MPD2     H 9230   0.289   2.456  16.392  0.8156  0.8063  2.1983
  623MPD2    H1 9231   0.661   2.606  16.262  0.1564  0.6750  1.5397
  623MPD2    H2 9232   0.340   2.633  15.995 -1.0567  1.5059  0.8267
  623MPD2    H3 9233   0.556   2.680  16.044 -0.3909 -1.0257 -0.7275
  623MPD2     N 9234   0.527   2.475  16.452 -0.2080  0.2475 -1.0875
  623MPD2    H5 9235   0.463   2.415  16.503  1.8860 -0.7231  0.4055
  623MPD2    N1 9236   0.150   2.511  16.169  0.1969  0.1677  0.8863
  623MPD2    H7 9237   0.095   2.474  16.246  1.2639 -0.3372  1.4007
  624TMC3    C1 9238   0.704   2.244  16.753  0.1363 -0.7545  0.2127
  624TMC3    C2 9239   0.572   2.227  16.792 -0.1787  0.1645 -0.1557
  624TMC3    C3 9240   0.479   2.322  16.759 -0.0894  0.0262  0.5530
  624TMC3    C4 9241   0.743   2.346  16.668  0.0704 -0.2644 -0.5016
  624TMC3    C5 9242   0.640   2.435  16.631 -0.3910  0.6462  0.1131
  624TMC3    C6 9243   0.516   2.423  16.679 -0.2437 -0.0443 -0.2493
  624TMC3     C 9244   0.807   2.157  16.824  0.2912 -0.3268  0.1613
  624TMC3     O 9245   0.767   2.071  16.903 -0.0845 -0.0369 -0.1429
  624TMC3     H 9246   0.540   2.138  16.846 -3.8066 -0.6587 -3.6940
  624TMC3    H1 9247   0.841   2.350  16.620  0.4196  1.5220  0.3598
  624TMC3    H2 9248   0.447   2.506  16.670  1.3340  1.3093  0.0243
  624TMC3    C7 9249   0.644   2.502  16.510 -0.3587 -0.6779  0.4426
  624TMC3    C8 9250   0.340   2.291  16.735 -0.2740 -0.4042  0.8619
  624TMC3    O1 9251   0.748   2.557  16.471  0.1157  0.5318  0.1694
  624TMC3    O2 9252   0.298   2.334  16.628 -0.1743  1.2323 -0.8557
  625MPD2     C 9253   0.897   3.345   0.715  0.3922 -0.3590 -0.7640
  625MPD2    C1 9254   0.888   3.475   0.770 -0.1950 -0.0073 -0.3465
  625MPD2    C2 9255   0.984   3.526   0.862  0.1492  0.0616 -0.0843
  625MPD2    C3 9256   1.096   3.446   0.888 -0.8096  0.3626 -0.1311
  625MPD2    C4 9257   1.098   3.317   0.838 -0.2082 -0.0727  0.6555
  625MPD2    C5 9258   1.002   3.269   0.755 -0.5599  0.5550 -1.0046
  625MPD2     H 9259   0.988   3.627   0.902 -0.0464  0.6532 -1.5637
  625MPD2    H1 9260   1.184   3.253   0.857  0.3149  0.0494 -1.2822
  625MPD2    H2 9261   0.839   3.318   0.628  0.3216  0.8417 -1.0904
  625MPD2    H3 9262   1.004   3.178   0.695  1.1836 -1.8346  2.6903
  625MPD2     N 9263   1.198   3.515   0.965  0.1946  0.4061 -0.5837
  625MPD2    H5 9264   1.189   3.613   0.988  1.0420 -0.3415  3.0213
  625MPD2    N1 9265   0.781   3.562   0.737 -0.3297 -0.1349  0.2801
  625MPD2    H7 9266   0.774   3.649   0.790 -1.2100 -0.1797  0.2366
  626TMC3    C1 9267   0.581   3.647   0.638  0.5124 -0.0645 -0.3322
  626TMC3    C2 9268   0.524   3.664   0.515 -0.5189  0.0948 -0.0216
  626TMC3    C3 9269   0.391   3.698   0.518  0.3460  1.0285 -0.4599
  626TMC3    C4 9270   0.515   3.641   0.755  0.6330 -0.0693  0.3581
  626TMC3    C5 9271   0.382   3.676   0.744 -0.3183 -0.9021  0.2346
  626TMC3    C6 9272   0.314   3.694   0.631  0.2057 -0.0854  0.5093
  626TMC3     C 9273   0.694   3.553   0.628  0.1767  0.3444  0.1487
  626TMC3     O 9274   0.693   3.476   0.532  0.8261 -0.0278  0.3603
  626TMC3     H 9275   0.581   3.659   0.424 -1.4336  0.2540 -0.6077
  626TMC3    H1 9276   0.555   3.601   0.847 -0.4364  0.8705  1.2428
  626TMC3    H2 9277   0.214   3.737   0.634  0.6889  1.1963 -1.1979
  626TMC3    C7 9278   0.300   3.616   0.852  0.6128 -0.2201  0.4733
  626TMC3    C8 9279   0.352   3.766   0.397 -0.4171  0.2218  0.1015
  626TMC3    O1 9280   0.357   3.533   0.925  0.3477 -0.2619  0.4343
  626TMC3    O2 9281   0.440   3.809   0.328 -0.1211  0.4787  0.5065
  627MPD2     C 9282   3.647   3.795  14.242 -0.0321 -0.0966 -0.7424
  627MPD2    C1 9283   3.681   3.766  14.371  0.0072  0.5063  0.0116
  627MPD2    C2 9284   3.653   3.640  14.416 -0.4467 -0.9187 -0.2366
  627MPD2    C3 9285   3.568   3.554  14.349 -0.3868  0.2817 -0.2721
  627MPD2    C4 9286   3.517   3.594  14.225 -0.0507  0.0898  0.3931
  627MPD2    C5 9287   3.558   3.712  14.173 -0.1456  0.2581 -0.0582
  627MPD2     H 9288   3.678   3.617  14.519 -1.7829 -0.9029  0.0946
  627MPD2    H1 9289   3.446   3.542  14.163  0.2436  0.7287 -0.4883
  627MPD2    H2 9290   3.689   3.878  14.186  1.5081 -0.1780  0.3036
  627MPD2    H3 9291   3.536   3.733  14.068  0.6560 -0.4763 -0.3725
  627MPD2     N 9292   3.520   3.440  14.414 -0.4148 -0.6931  0.5455
  627MPD2    H5 9293   3.554   3.429  14.509 -0.1773 -4.3251  0.0595
  627MPD2    N1 9294   3.756   3.851  14.460  0.3720 -0.6436 -0.2363
  627MPD2    H7 9295   3.773   3.811  14.551 -0.9611 -1.0273 -0.1533
  628TMC3    C1 9296   3.868   4.046  14.525  0.6507  0.4884  0.0148
  628TMC3    C2 9297   3.954   3.967  14.598 -0.1478  1.2501  0.7175
  628TMC3    C3 9298   4.034   4.028  14.687 -0.8206 -0.1950 -0.3561
  628TMC3    C4 9299   3.853   4.182  14.544 -0.0257 -0.3689  0.2059
  628TMC3    C5 9300   3.924   4.235  14.652 -0.2417 -0.4643  0.4571
  628TMC3    C6 9301   4.008   4.156  14.726 -0.4134 -0.6851  0.0024
  628TMC3     C 9302   3.777   3.986  14.433  0.1153  0.6503  0.2743
  628TMC3     O 9303   3.730   4.056  14.346  0.2486 -0.1572 -0.0229
  628TMC3     H 9304   3.976   3.869  14.558  0.0989  2.5175 -2.2760
  628TMC3    H1 9305   3.787   4.241  14.483  1.7245  0.3084 -1.0176
  628TMC3    H2 9306   4.094   4.199  14.777 -1.0500  1.9633 -1.1089
  628TMC3    C7 9307   3.924   4.377  14.667  0.4709  0.1643  0.4610
  628TMC3    C8 9308   4.171   3.991  14.668 -0.5332  0.1565 -0.5063
  628TMC3    O1 9309   3.950   4.423  14.777  0.1765  0.1565  0.1147
  628TMC3    O2 9310   4.197   3.944  14.556  0.4135 -0.6492 -0.5901
  629MPD2     C 9311   2.311   2.252  16.555 -0.2288 -0.0638 -0.0354
  629MPD2    C1 9312   2.370   2.128  16.535  0.3983  0.6995 -0.0413
  629MPD2    C2 9313   2.327   2.018  16.608 -0.1410  0.2615  0.6719
  629MPD2    C3 9314   2.219   2.025  16.695  0.1371 -0.8644  0.2104
  629MPD2    C4 9315   2.152   2.141  16.700 -0.1801  0.0268  0.1743
  629MPD2    C5 9316   2.194   2.249  16.631  0.3966  0.2082  0.4990
  629MPD2     H 9317   2.371   1.919  16.603  0.2789  0.4294  0.9917
  629MPD2    H1 9318   2.071   2.148  16.772 -0.5347 -0.8345 -0.1442
  629MPD2    H2 9319   2.331   2.346  16.505  4.1932 -0.3386  1.2646
  629MPD2    H3 9320   2.138   2.339  16.653  1.3106  0.9175 -0.0483
  629MPD2     N 9321   2.186   1.912  16.764  0.0030  0.2028 -0.1175
  629MPD2    H5 9322   2.245   1.832  16.743 -0.2298 -0.2290  0.8846
  629MPD2    N1 9323   2.485   2.127  16.454  0.6477  0.2871  0.3978
  629MPD2    H7 9324   2.531   2.212  16.421 -1.2635  0.4924 -1.7688
  630TMC3    C1 9325   2.694   2.049  16.380  1.1263  0.3943  0.1933
  630TMC3    C2 9326   2.717   2.134  16.277  0.1694 -0.4389  0.6924
  630TMC3    C3 9327   2.846   2.173  16.262  0.4639 -0.4097  0.0878
  630TMC3    C4 9328   2.789   2.000  16.464  0.3951  0.3237 -0.0589
  630TMC3    C5 9329   2.912   2.060  16.455 -0.2377  0.3253 -1.0323
  630TMC3    C6 9330   2.934   2.139  16.349  0.4757  0.3806 -0.0738
  630TMC3     C 9331   2.562   2.016  16.421 -0.3592 -0.2165 -0.0277
  630TMC3     O 9332   2.536   1.898  16.445 -0.3858 -0.6769  0.2899
  630TMC3     H 9333   2.634   2.174  16.220 -0.8288 -3.7244 -0.1283
  630TMC3    H1 9334   2.755   1.965  16.561 -0.5121  1.4057  0.0041
  630TMC3    H2 9335   3.036   2.168  16.325  0.5113  1.3325  1.2432
  630TMC3    C7 9336   2.954   2.115  16.577  0.1807 -0.1108 -0.5152
  630TMC3    C8 9337   2.874   2.305  16.209 -0.0498  0.0392  0.7899
  630TMC3    O1 9338   2.948   2.058  16.680 -0.1429  0.0289 -0.6525
  630TMC3    O2 9339   2.946   2.367  16.284  0.1133 -0.3266 -0.2118
  631MPD2     C 9340   0.763   2.155  15.705  0.1993  0.3746 -0.2466
  631MPD2    C1 9341   0.859   2.241  15.659  0.2736 -0.2353 -0.1129
  631MPD2    C2 9342   0.989   2.239  15.712 -0.8259  0.7204 -0.4284
  631MPD2    C3 9343   1.011   2.156  15.815  0.2287 -0.2967 -0.1520
  631MPD2    C4 9344   0.916   2.068  15.866 -0.1116  0.0634 -0.0289
  631MPD2    C5 9345   0.794   2.063  15.802 -0.6148 -0.5831 -0.8310
  631MPD2     H 9346   1.069   2.301  15.674  1.1808 -1.3511  0.4081
  631MPD2    H1 9347   0.935   1.995  15.943  2.5770 -0.2178 -0.9263
  631MPD2    H2 9348   0.660   2.151  15.669 -0.7112  0.4463  2.3758
  631MPD2    H3 9349   0.713   1.997  15.830 -0.0807 -0.2221  1.5729
  631MPD2     N 9350   1.144   2.161  15.870 -0.9033  0.3133 -0.3524
  631MPD2    H5 9351   1.211   2.221  15.823  1.2565 -2.2827 -0.6159
  631MPD2    N1 9352   0.816   2.334  15.556  0.0115  0.0056  0.2755
  631MPD2    H7 9353   0.720   2.335  15.524  0.0942 -2.1645 -0.0421
  632TMC3    C1 9354   0.818   2.491  15.392 -0.0449 -0.8859  0.7524
  632TMC3    C2 9355   0.718   2.563  15.450  0.0364 -0.0542  1.0568
  632TMC3    C3 9356   0.623   2.616  15.366  0.2444  0.3680 -0.2958
  632TMC3    C4 9357   0.847   2.490  15.259  0.0834 -0.1983  1.2149
  632TMC3    C5 9358   0.757   2.552  15.178  0.0977 -0.2431 -0.6053
  632TMC3    C6 9359   0.643   2.620  15.229 -0.0747 -0.1798  0.4624
  632TMC3     C 9360   0.896   2.409  15.476  0.2586  0.1398 -0.7823
  632TMC3     O 9361   1.017   2.431  15.462 -0.1585  0.4548 -0.2629
  632TMC3     H 9362   0.704   2.546  15.556 -1.3032  1.0097  1.0453
  632TMC3    H1 9363   0.922   2.421  15.224  1.1996  1.3154  0.5983
  632TMC3    H2 9364   0.577   2.676  15.164 -0.1806 -1.9732 -0.9785
  632TMC3    C7 9365   0.788   2.592  15.041  0.1147 -1.1667  0.4724
  632TMC3    C8 9366   0.499   2.673  15.428 -0.3768  0.4444  0.0472
  632TMC3    O1 9367   0.700   2.648  14.981 -0.3232 -0.1643 -0.2475
  632TMC3    O2 9368   0.507   2.701  15.547 -0.2500 -0.1568 -0.0754
  633MPD2     C 9369   0.733   0.473  17.308 -0.1553  0.0223 -0.1697
  633MPD2    C1 9370   0.679   0.438  17.184 -0.6911  0.2130  0.1284
  633MPD2    C2 9371   0.617   0.311  17.183 -0.4780 -0.3525 -0.2954
  633MPD2    C3 9372   0.578   0.242  17.293 -0.4117 -0.5476 -0.5533
  633MPD2    C4 9373   0.642   0.281  17.411  0.1346  0.1756 -0.1041
  633MPD2    C5 9374   0.718   0.390  17.417 -0.0651 -0.6161  0.4014
  633MPD2     H 9375   0.586   0.275  17.086  0.5490  1.3244 -1.2471
  633MPD2    H1 9376   0.644   0.215  17.498 -1.9603 -1.0536 -0.9804
  633MPD2    H2 9377   0.785   0.561  17.344  1.2672 -1.2618  0.9055
  633MPD2    H3 9378   0.773   0.420  17.506  1.9204 -1.2149 -0.6276
  633MPD2     N 9379   0.494   0.131  17.290 -0.2981 -0.2265  0.5972
  633MPD2    H5 9380   0.488   0.079  17.377  0.9523 -1.7538 -0.2269
  633MPD2    N1 9381   0.706   0.514  17.067 -0.2398 -0.1427 -0.1830
  633MPD2    H7 9382   0.702   0.461  16.981 -0.7290 -2.3308  1.1597
  634TMC3    C1 9383   0.756   0.708  16.941 -0.2811 -0.6388 -0.0556
  634TMC3    C2 9384   0.819   0.644  16.837 -0.3356 -0.3977  0.4346
  634TMC3    C3 9385   0.802   0.705  16.712  0.5131 -0.7192 -0.0533
  634TMC3    C4 9386   0.681   0.824  16.925  0.0462  0.2481  0.4737
  634TMC3    C5 9387   0.671   0.879  16.799 -0.4361  0.3663  0.1700
  634TMC3    C6 9388   0.738   0.819  16.694 -0.5146  0.4716 -0.1268
  634TMC3     C 9389   0.728   0.647  17.071 -0.2300 -0.6890 -0.1939
  634TMC3     O 9390   0.716   0.721  17.170 -0.4205 -0.1817  0.2163
  634TMC3     H 9391   0.878   0.555  16.851 -0.7167 -0.8060 -0.5455
  634TMC3    H1 9392   0.617   0.858  17.006 -1.2757  0.5049 -0.6850
  634TMC3    H2 9393   0.711   0.852  16.594  2.4869  3.4959  0.0709
  634TMC3    C7 9394   0.582   0.987  16.760 -0.6469 -0.2492 -0.3084
  634TMC3    C8 9395   0.804   0.615  16.601 -0.0657 -0.2306  0.4223
  634TMC3    O1 9396   0.563   0.995  16.640 -0.1898  0.3446  0.5555
  634TMC3    O2 9397   0.833   0.501  16.634 -0.1474 -0.1037 -0.2759
  635TMC3    C1 9398   0.960   1.309  17.410  0.2733  0.3788 -0.2690
  635TMC3    C2 9399   1.003   1.179  17.429  0.0343 -0.4563  1.1881
  635TMC3    C3 9400   1.059   1.119  17.317 -0.0512 -0.0689  0.0491
  635TMC3    C4 9401   0.997   1.380  17.300 -1.0233  0.5537 -0.1531
  635TMC3    C5 9402   1.055   1.317  17.195 -0.2933  0.1233  0.0369
  635TMC3    C6 9403   1.082   1.182  17.193 -0.6454  0.4023  0.0519
  635TMC3     C 9404   0.918   1.382  17.525  0.2738 -0.0667  0.3806
  635TMC3     O 9405   0.928   1.312  17.627  0.3696  0.5129 -0.1095
  635TMC3     H 9406   0.970   1.121  17.514  0.4851 -2.2434  0.1341
  635TMC3    H1 9407   0.983   1.487  17.301 -1.9389  0.4356 -0.9516
  635TMC3    H2 9408   1.133   1.136  17.109 -0.2732  1.2839 -0.2038
  635TMC3    C7 9409   1.082   1.408  17.079  0.0030 -0.1951 -0.6089
  635TMC3    C8 9410   1.089   0.976  17.319 -0.0714 -0.0316  0.9700
  635TMC3    O1 9411   1.023   1.517  17.071 -0.1718  0.0610 -0.0317
  635TMC3    O2 9412   1.174   0.933  17.243 -0.4904 -0.5770  0.0519
  636MPD2     C 9413   1.518   0.726  16.090 -0.6748 -0.1457  0.0288
  636MPD2    C1 9414   1.615   0.821  16.069 -0.5628 -0.0088  0.3474
  636MPD2    C2 9415   1.723   0.830  16.146  0.4621  0.1265  0.1848
  636MPD2    C3 9416   1.738   0.742  16.248  0.3600 -0.3990  0.4705
  636MPD2    C4 9417   1.639   0.654  16.280 -0.6226 -0.6070 -0.5426
  636MPD2    C5 9418   1.528   0.652  16.207 -0.4353 -1.0996  0.2901
  636MPD2     H 9419   1.804   0.896  16.117 -0.9379  1.5134 -0.6081
  636MPD2    H1 9420   1.646   0.580  16.358  0.7426  0.8762  0.7337
  636MPD2    H2 9421   1.435   0.709  16.022  1.1649 -1.6860 -1.8361
  636MPD2    H3 9422   1.451   0.584  16.243  0.8566 -1.7330  1.8853
  636MPD2     N 9423   1.861   0.738  16.315 -0.3860 -0.8435  0.1156
  636MPD2    H5 9424   1.931   0.809  16.298 -1.8277  1.3483  3.1382
  636MPD2    N1 9425   1.620   0.902  15.957 -0.1885  0.1687 -0.4297
  636MPD2    H7 9426   1.703   0.959  15.944  0.0195 -0.1561 -0.5208
  637TMC3    C1 9427   2.044   0.642  16.427 -0.1481 -0.0729  0.1930
  637TMC3    C2 9428   2.079   0.758  16.481 -0.4253 -0.4292  0.2373
  637TMC3    C3 9429   2.206   0.777  16.526  0.5690 -0.5588  0.9318
  637TMC3    C4 9430   2.137   0.554  16.384 -0.0982 -0.1170  0.1342
  637TMC3    C5 9431   2.266   0.585  16.417  0.6422  0.3320  0.7467
  637TMC3    C6 9432   2.306   0.688  16.502 -0.2021 -0.3221  0.6649
  637TMC3     C 9433   1.909   0.629  16.380 -0.6789  0.9122  0.2268
  637TMC3     O 9434   1.872   0.514  16.365 -0.2899 -0.0786  0.1648
  637TMC3     H 9435   2.006   0.830  16.517 -1.6817 -1.8658  0.5566
  637TMC3    H1 9436   2.113   0.469  16.322  0.2689  0.3970 -0.7187
  637TMC3    H2 9437   2.412   0.706  16.512  0.2111 -2.4510  0.1504
  637TMC3    C7 9438   2.371   0.573  16.313  0.5576  0.4952  0.4415
  637TMC3    C8 9439   2.259   0.909  16.514  0.1913  0.0320  0.0261
  637TMC3    O1 9440   2.488   0.601  16.330  0.2383  0.2209  0.5965
  637TMC3    O2 9441   2.244   0.958  16.403  0.0459  0.1685 -0.1713
  638MPD2     C 9442   1.564   4.269  15.068 -1.0565 -0.0212 -0.1727
  638MPD2    C1 9443   1.531   4.162  14.989  0.0488 -0.2446  0.5166
  638MPD2    C2 9444   1.479   4.044  15.046  0.4653 -0.3771 -0.1565
  638MPD2    C3 9445   1.466   4.030  15.180  0.5499 -0.1590  0.4551
  638MPD2    C4 9446   1.486   4.140  15.260 -0.0569  0.2829 -0.5128
  638MPD2    C5 9447   1.533   4.258  15.199  0.5912  0.2931 -0.2959
  638MPD2     H 9448   1.456   3.960  14.982  0.6834 -1.1118  0.7405
  638MPD2    H1 9449   1.458   4.143  15.364 -0.0460  0.3255 -0.5110
  638MPD2    H2 9450   1.609   4.360  15.029  2.2511 -0.2458  3.1497
  638MPD2    H3 9451   1.553   4.344  15.260 -2.0302 -0.2533  1.3244
  638MPD2     N 9452   1.430   3.899  15.225  0.1868 -1.0925 -0.1033
  638MPD2    H5 9453   1.420   3.825  15.157 -0.1567  0.3836 -1.6662
  638MPD2    N1 9454   1.550   4.177  14.851  0.1369 -0.4144 -0.4843
  638MPD2    H7 9455   1.614   4.240  14.804 -0.4308 -0.1825 -0.9508
  639TMC3    C1 9456   1.402   3.718  15.364  0.6174  0.0569  0.4404
  639TMC3    C2 9457   1.318   3.662  15.271  0.1144  0.1679  0.4174
  639TMC3    C3 9458   1.349   3.534  15.234 -0.6818 -0.0061 -0.2065
  639TMC3    C4 9459   1.515   3.656  15.403  0.4635 -0.0500 -0.0426
  639TMC3    C5 9460   1.544   3.534  15.360  0.4395  0.6824  0.0270
  639TMC3    C6 9461   1.462   3.465  15.271 -0.0062 -0.5640  0.3760
  639TMC3     C 9462   1.418   3.862  15.355 -0.0239 -0.0852 -0.3969
  639TMC3     O 9463   1.448   3.921  15.456  0.4831  0.2441 -0.4723
  639TMC3     H 9464   1.247   3.730  15.225  0.4131 -0.1731 -0.5354
  639TMC3    H1 9465   1.581   3.720  15.461  1.2496  0.3870 -1.4412
  639TMC3    H2 9466   1.490   3.368  15.234  2.4314 -0.5625  2.1579
  639TMC3    C7 9467   1.670   3.475  15.405  0.0501 -0.1517 -0.1160
  639TMC3    C8 9468   1.262   3.471  15.137  0.1148  0.2633  0.5788
  639TMC3    O1 9469   1.742   3.540  15.478  0.2879 -0.4046 -0.2947
  639TMC3    O2 9470   1.313   3.379  15.069  0.1467  0.4183 -0.0395
  640MPD2     C 9471   2.043   3.018   9.510  0.3582 -0.5142  1.0251
  640MPD2    C1 9472   1.910   3.047   9.535 -0.4096 -0.7888  0.3222
  640MPD2    C2 9473   1.875   3.181   9.581  0.1041 -1.0161  0.2353
  640MPD2    C3 9474   1.974   3.272   9.608 -0.0388 -0.0056  0.9255
  640MPD2    C4 9475   2.101   3.234   9.581  0.1348 -0.1433  0.5855
  640MPD2    C5 9476   2.132   3.114   9.529 -0.5326  0.5821 -0.9087
  640MPD2     H 9477   1.772   3.208   9.601  1.2094  1.9276  1.8955
  640MPD2    H1 9478   2.188   3.298   9.586 -2.8540  3.7022  2.9714
  640MPD2    H2 9479   2.073   2.928   9.458  0.2371  0.8402 -1.3665
  640MPD2    H3 9480   2.236   3.105   9.501 -0.4771  1.5332 -1.0277
  640MPD2     N 9481   1.953   3.405   9.649 -0.2191 -0.1234 -0.4465
  640MPD2    H5 9482   2.039   3.456   9.661  0.1040 -1.4651  2.9208
  640MPD2    N1 9483   1.819   2.939   9.506 -1.0161  0.7937  0.3018
  640MPD2    H7 9484   1.860   2.866   9.449  1.4299  2.6801 -0.3314
  641TMC3    C1 9485   1.623   2.828   9.462  0.4530  0.6728  0.3337
  641TMC3    C2 9486   1.706   2.717   9.430 -0.2705  0.6934 -0.9420
  641TMC3    C3 9487   1.650   2.626   9.341  0.1873 -0.1704 -0.1074
  641TMC3    C4 9488   1.504   2.853   9.408  0.2993  0.1169 -0.1671
  641TMC3    C5 9489   1.449   2.746   9.337  0.4398  0.9132 -0.0075
  641TMC3    C6 9490   1.519   2.637   9.297  1.0550 -0.6453  0.5900
  641TMC3     C 9491   1.683   2.941   9.517  0.2429 -0.1528  0.4352
  641TMC3     O 9492   1.603   3.028   9.559  0.0010  0.2743  0.2705
  641TMC3     H 9493   1.793   2.692   9.490 -0.5560 -0.7456 -1.1449
  641TMC3    H1 9494   1.456   2.950   9.408 -0.8553 -0.4403 -1.0804
  641TMC3    H2 9495   1.478   2.560   9.234  0.1615 -0.2767  0.7181
  641TMC3    C7 9496   1.323   2.770   9.274 -0.8292 -0.1548  0.4522
  641TMC3    C8 9497   1.695   2.490   9.342  0.0655  0.2420  0.0962
  641TMC3    O1 9498   1.297   2.886   9.259  0.2033  0.3492 -0.3910
  641TMC3    O2 9499   1.614   2.406   9.317 -0.0400 -0.2604 -0.3727
  642TMC3    C1 9500   3.192   4.337  12.270  0.1110  0.0548  0.3482
  642TMC3    C2 9501   3.309   4.342  12.334  0.0514 -0.0466  0.2707
  642TMC3    C3 9502   3.397   4.236  12.318 -0.7607  0.1941 -0.6741
  642TMC3    C4 9503   3.138   4.220  12.232  0.8193  0.4849  0.3219
  642TMC3    C5 9504   3.226   4.112  12.224  0.9681 -0.4350  0.2920
  642TMC3    C6 9505   3.363   4.117  12.263  0.9952 -0.5990  0.2310
  642TMC3     C 9506   3.114   4.454  12.290  0.3833 -0.6961  0.4591
  642TMC3     O 9507   3.163   4.564  12.292  0.5057 -0.2624  0.0012
  642TMC3     H 9508   3.356   4.437  12.356 -0.3027  0.2786 -0.3570
  642TMC3    H1 9509   3.041   4.217  12.183  0.6908  1.7136  0.4858
  642TMC3    H2 9510   3.424   4.029  12.249  0.1638 -1.3811  1.4941
  642TMC3    C7 9511   3.176   3.993  12.153  0.5969 -0.2800 -0.4545
  642TMC3    C8 9512   3.504   4.241  12.415  0.4324 -0.0629 -0.4748
  642TMC3    O1 9513   3.254   3.931  12.082 -0.2975  0.2902 -0.1313
  642TMC3    O2 9514   3.488   4.297  12.521  0.3585  0.2530 -0.1185
  643TMC3    C1 9515   1.986   3.735   0.266 -0.4136  0.1935  0.7527
  643TMC3    C2 9516   1.860   3.747   0.216  0.3798  0.1644 -0.0927
  643TMC3    C3 9517   1.836   3.750   0.078 -0.4829  0.2826 -0.2402
  643TMC3    C4 9518   2.100   3.732   0.187  0.0108 -0.3758 -0.1729
  643TMC3    C5 9519   2.071   3.722   0.055 -0.1544 -0.8681  0.3923
  643TMC3    C6 9520   1.943   3.736  17.704 -0.3637 -0.0743 -0.3253
  643TMC3     C 9521   2.001   3.733   0.411 -0.1795  0.3047 -0.7611
  643TMC3     O 9522   1.903   3.747   0.491 -0.0370  0.3267 -0.7755
  643TMC3     H 9523   1.784   3.774   0.289  0.5886 -0.6264  0.4142
  643TMC3    H1 9524   2.203   3.740   0.220 -0.5395 -0.0803  1.4316
  643TMC3    H2 9525   1.929   3.752  17.597 -1.6714  1.5293  0.0881
  643TMC3    C7 9526   2.188   3.706  17.670 -0.3271  0.8414 -0.3032
  643TMC3    C8 9527   1.745   3.852   0.022 -0.1245 -0.1103  0.3046
  643TMC3    O1 9528   2.303   3.727   0.001 -0.0601  0.6566  0.0972
  643TMC3    O2 9529   1.668   3.813  17.637 -0.0468  0.5596  0.3173
  644MPD2     C 9530   1.412   2.571   8.880 -0.0305  0.0169  0.2838
  644MPD2    C1 9531   1.519   2.647   8.908  0.4938 -0.3159 -0.6202
  644MPD2    C2 9532   1.507   2.781   8.917  0.3633 -0.0662 -0.1478
  644MPD2    C3 9533   1.381   2.840   8.899 -0.1955  0.3631  0.9024
  644MPD2    C4 9534   1.276   2.758   8.868 -0.2255 -0.6723 -0.5818
  644MPD2    C5 9535   1.289   2.618   8.861  0.0750  0.5662  0.2433
  644MPD2     H 9536   1.583   2.846   8.958  0.9518 -0.8971  0.0868
  644MPD2    H1 9537   1.178   2.799   8.846 -0.9899 -2.0773  0.2405
  644MPD2    H2 9538   1.421   2.463   8.870 -1.3234 -0.1372  0.8291
  644MPD2    H3 9539   1.201   2.559   8.841 -0.4475  1.8724 -1.3558
  644MPD2     N 9540   1.356   2.984   8.923 -0.1997 -0.0444  0.2913
  644MPD2    H5 9541   1.441   3.039   8.934  0.9014 -2.0376  1.8234
  644MPD2    N1 9542   1.633   2.587   8.943 -0.0178 -0.1805  0.8883
  644MPD2    H7 9543   1.628   2.486   8.954  0.1707 -0.3444 -0.4666
  645TMC3    C1 9544   1.248   3.195   8.926 -0.5309  0.3944 -0.5455
  645TMC3    C2 9545   1.374   3.250   8.949 -0.1718  0.2663  0.0184
  645TMC3    C3 9546   1.373   3.388   8.947 -0.0002 -0.2565 -0.0592
  645TMC3    C4 9547   1.126   3.263   8.920  0.2521 -0.2911  0.1621
  645TMC3    C5 9548   1.135   3.403   8.927  0.5768 -0.2606 -0.1413
  645TMC3    C6 9549   1.258   3.463   8.944  0.0189  0.1279  0.3228
  645TMC3     C 9550   1.234   3.047   8.918 -0.7231 -0.3073 -0.1904
  645TMC3     O 9551   1.120   3.007   8.905  0.3131 -0.2638 -0.1259
  645TMC3     H 9552   1.465   3.200   8.980  0.7929  2.4015  0.6090
  645TMC3    H1 9553   1.031   3.211   8.914  1.0938 -1.8148 -0.0890
  645TMC3    H2 9554   1.256   3.572   8.943  0.8084  0.1384 -1.1075
  645TMC3    C7 9555   1.017   3.486   8.936  0.5985  0.3181 -0.3402
  645TMC3    C8 9556   1.493   3.466   8.947 -0.1047 -1.4146  0.0013
  645TMC3    O1 9557   1.028   3.600   8.980  0.1099  0.5068 -1.1544
  645TMC3    O2 9558   1.492   3.588   8.958  0.3120  0.6664  0.2559
  646MPD2     C 9559   1.538   2.645  14.580  0.1177  0.0603 -0.3461
  646MPD2    C1 9560   1.485   2.677  14.705  0.4681  0.1063 -0.3688
  646MPD2    C2 9561   1.368   2.750  14.711  0.6795 -0.2902 -0.6800
  646MPD2    C3 9562   1.315   2.801  14.597  0.1950  0.1825 -0.0358
  646MPD2    C4 9563   1.367   2.767  14.474 -0.0300 -0.5376  0.0296
  646MPD2    C5 9564   1.485   2.702  14.467  0.4633  1.0717  0.6842
  646MPD2     H 9565   1.327   2.790  14.803  2.2271 -1.7141  0.6373
  646MPD2    H1 9566   1.312   2.794  14.384  2.0236  1.8953 -0.4996
  646MPD2    H2 9567   1.627   2.584  14.582  0.3942  0.3376 -5.1659
  646MPD2    H3 9568   1.531   2.686  14.370  0.5690  1.4730  0.6682
  646MPD2     N 9569   1.198   2.876  14.604 -0.5389  0.5175  0.2328
  646MPD2    H5 9570   1.149   2.861  14.691  1.0670 -2.2735  0.6405
  646MPD2    N1 9571   1.555   2.630  14.825 -0.4668  0.0231 -0.1538
  646MPD2    H7 9572   1.644   2.583  14.809  0.3159  1.5464 -0.3293
  647TMC3    C1 9573   1.605   2.554  15.027 -0.0532 -0.1079 -0.9173
  647TMC3    C2 9574   1.558   2.503  15.144 -0.1138  0.3241  0.1640
  647TMC3    C3 9575   1.643   2.451  15.235  0.2634 -0.1016 -0.0220
  647TMC3    C4 9576   1.733   2.555  14.993  0.4517 -0.1942 -0.5825
  647TMC3    C5 9577   1.818   2.500  15.087  0.0365  0.4888 -0.7502
  647TMC3    C6 9578   1.774   2.450  15.210 -0.4159 -0.5522 -0.0200
  647TMC3     C 9579   1.504   2.613  14.947 -0.3799 -0.2765  0.9922
  647TMC3     O 9580   1.395   2.631  14.986 -0.0603 -0.1105  0.1473
  647TMC3     H 9581   1.452   2.509  15.166 -0.1168 -2.2845  0.8178
  647TMC3    H1 9582   1.774   2.603  14.905  0.2652  1.5156  0.2851
  647TMC3    H2 9583   1.839   2.397  15.278 -1.9916 -1.1171  1.0514
  647TMC3    C7 9584   1.959   2.487  15.073  0.4359 -0.5643 -0.1161
  647TMC3    C8 9585   1.599   2.361  15.337  0.7171 -0.3533 -0.5482
  647TMC3    O1 9586   2.028   2.481  15.177 -0.2610 -0.3736 -0.8074
  647TMC3    O2 9587   1.679   2.323  15.420  0.7842 -0.0430  0.0725
  648TMC3    C1 9588   1.131   0.781  15.930  0.2333  0.2881 -0.1141
  648TMC3    C2 9589   1.163   0.656  15.877 -0.1411 -0.6039 -0.2073
  648TMC3    C3 9590   1.097   0.612  15.766  0.0618  0.3359 -0.5732
  648TMC3    C4 9591   1.035   0.857  15.867 -0.5821  0.2028 -0.1950
  648TMC3    C5 9592   0.973   0.812  15.749 -0.5216 -0.0187  0.2695
  648TMC3    C6 9593   1.009   0.689  15.700  0.4168 -0.3443  0.0323
  648TMC3     C 9594   1.163   0.820  16.066  1.4763 -0.4101  0.8161
  648TMC3     O 9595   1.132   0.935  16.092  0.0458 -0.1075 -0.2921
  648TMC3     H 9596   1.236   0.591  15.924 -2.0419 -2.2156  0.4778
  648TMC3    H1 9597   1.039   0.964  15.886 -2.9836  0.1340  0.6824
  648TMC3    H2 9598   0.983   0.669  15.597 -0.5487 -1.6938  0.5548
  648TMC3    C7 9599   0.841   0.868  15.709 -0.5609  0.3142  0.1013
  648TMC3    C8 9600   1.116   0.479  15.710  0.0675 -0.5037  0.3440
  648TMC3    O1 9601   0.791   0.817  15.609  0.7800  0.2931 -0.4764
  648TMC3    O2 9602   1.033   0.447  15.627  0.5730  0.2370  0.3002
  649TMC3    C1 9603   0.182   1.536  13.038  0.0193 -0.2641 -1.0022
  649TMC3    C2 9604   0.297   1.601  13.051 -0.0371 -0.4826  0.1924
  649TMC3    C3 9605   0.367   1.592  13.169 -0.4039  0.0003 -0.2504
  649TMC3    C4 9606   0.139   1.449  13.131 -0.1062  0.8012  0.1783
  649TMC3    C5 9607   0.209   1.434  13.248  0.1452  0.5216 -0.2743
  649TMC3    C6 9608   0.331   1.501  13.272  0.9007 -0.1236 -0.5842
  649TMC3     C 9609   0.118   1.531  12.908  0.4530  0.3142  0.0932
  649TMC3     O 9610   4.724   1.506  12.901 -0.2039 -0.3853 -0.1129
  649TMC3     H 9611   0.318   1.689  12.992 -0.4782  0.3702  1.3139
  649TMC3    H1 9612   0.043   1.399  13.123  1.5571 -2.1657 -0.9536
  649TMC3    H2 9613   0.366   1.513  13.374 -0.5180  0.8390 -0.2126
  649TMC3    C7 9614   0.138   1.365  13.353  0.2071  0.7763  0.3671
  649TMC3    C8 9615   0.500   1.649  13.165 -0.0795 -0.4643  0.2717
  649TMC3    O1 9616   0.018   1.344  13.334 -0.8293 -0.1051  0.0534
  649TMC3    O2 9617   0.587   1.575  13.202 -0.0370  0.1576  0.2749
  650TMC3    C1 9618   2.666   3.408  12.567 -0.1537 -0.1668  0.4477
  650TMC3    C2 9619   2.598   3.502  12.649  0.3316 -0.3101 -0.3754
  650TMC3    C3 9620   2.476   3.535  12.607  0.9389  0.1260 -0.3029
  650TMC3    C4 9621   2.621   3.361  12.448  0.4791 -0.1844 -0.4687
  650TMC3    C5 9622   2.499   3.405  12.408 -0.7302 -0.5137 -0.1815
  650TMC3    C6 9623   2.428   3.496  12.483  0.3554  0.4518 -0.2768
  650TMC3     C 9624   2.800   3.369  12.613 -0.8224  0.0021  0.3040
  650TMC3     O 9625   2.853   3.455  12.677  0.0082 -0.1668 -1.0304
  650TMC3     H 9626   2.632   3.531  12.747  1.0393 -2.4101  0.0102
  650TMC3    H1 9627   2.681   3.312  12.372  0.0814 -0.9002 -0.3241
  650TMC3    H2 9628   2.336   3.536  12.441 -0.7995  1.2214  2.9993
  650TMC3    C7 9629   2.489   3.427  12.266  0.6464 -0.0822  0.2082
  650TMC3    C8 9630   2.422   3.660  12.649  0.2270  0.3401 -0.7171
  650TMC3    O1 9631   2.483   3.333  12.187  0.0691  0.3275 -0.2010
  650TMC3    O2 9632   2.395   3.738  12.557  0.2092  0.5904  0.1924
  651MPD2     C 9633   1.898   0.134  10.594  0.5547 -1.1903  0.4604
  651MPD2    C1 9634   1.852   0.263  10.575 -0.0497 -0.4772 -0.5247
  651MPD2    C2 9635   1.928   0.351  10.494 -0.3231  0.0233 -0.8580
  651MPD2    C3 9636   2.055   0.314  10.450 -0.0239  0.9552  0.0184
  651MPD2    C4 9637   2.096   0.184  10.471  0.2013  0.0360 -0.0822
  651MPD2    C5 9638   2.015   0.092  10.537  0.5702 -0.2951  0.1789
  651MPD2     H 9639   1.890   0.450  10.469 -0.7017 -0.3205 -1.6508
  651MPD2    H1 9640   2.192   0.155  10.430 -0.1665 -0.6075 -0.4967
  651MPD2    H2 9641   1.833   0.061  10.641  0.1123 -1.6172 -0.8105
  651MPD2    H3 9642   2.053   4.717  10.553  0.7340 -0.3352 -0.4449
  651MPD2     N 9643   2.133   0.415  10.389 -0.3433  0.4399 -0.5879
  651MPD2    H5 9644   2.083   0.503  10.377 -0.7272  0.2858 -0.1207
  651MPD2    N1 9645   1.739   0.326  10.633  0.1546 -0.1415 -0.1817
  651MPD2    H7 9646   1.722   0.420  10.599  2.1227  0.3895  0.3444
  652TMC3    C1 9647   2.450   0.716  10.380 -0.3230  0.6418 -0.6884
  652TMC3    C2 9648   2.432   0.580  10.362  0.3826 -0.3420  0.4041
  652TMC3    C3 9649   2.314   0.539  10.312  0.0912  0.2483  0.1489
  652TMC3    C4 9650   2.348   0.802  10.363 -0.3388  0.0283 -0.0138
  652TMC3    C5 9651   2.227   0.752  10.311  0.4889  0.9758  0.3803
  652TMC3    C6 9652   2.209   0.623  10.279 -0.5416 -0.4630 -0.4851
  652TMC3     C 9653   2.572   0.756  10.462 -0.3748  0.4889  0.4119
  652TMC3     O 9654   2.625   0.675  10.536  0.0080 -0.3045 -0.5876
  652TMC3     H 9655   2.514   0.515  10.389  0.6625  0.8854  2.4851
  652TMC3    H1 9656   2.369   0.902  10.401  1.6692 -0.2405 -0.3865
  652TMC3    H2 9657   2.116   0.585  10.239 -0.8323 -0.5377  0.2613
  652TMC3    C7 9658   2.134   0.840  10.256  0.3238 -0.3700 -0.2310
  652TMC3    C8 9659   2.269   0.404  10.352 -0.5466  0.3906 -0.4532
  652TMC3    O1 9660   2.027   0.793  10.213 -0.1506 -0.0180 -0.1926
  652TMC3    O2 9661   2.354   0.315  10.366 -0.0356 -0.1080  0.0434
  653MPD2     C 9662   0.549   0.599   0.031 -0.3653  0.2615 -0.7803
  653MPD2    C1 9663   0.476   0.713  17.685 -0.3701  0.4341 -0.2369
  653MPD2    C2 9664   0.373   0.696  17.599  0.3219 -0.2147  0.0965
  653MPD2    C3 9665   0.333   0.571  17.570 -0.1025  0.8373 -0.1821
  653MPD2    C4 9666   0.392   0.462  17.631 -0.2914 -0.0698  0.3739
  653MPD2    C5 9667   0.504   0.479   0.009  0.6730 -0.3418 -0.1376
  653MPD2     H 9668   0.317   0.781  17.563  0.4433 -0.7286 -1.2727
  653MPD2    H1 9669   0.360   0.359  17.623 -1.1426  0.0740  1.9424
  653MPD2    H2 9670   0.640   0.594   0.090 -1.5475  1.7657  1.2007
  653MPD2    H3 9671   0.565   0.406   0.062 -0.7509 -0.3843  1.4735
  653MPD2     N 9672   0.233   0.552  17.470  0.0198 -0.2186 -0.1472
  653MPD2    H5 9673   0.200   0.638  17.427  0.8571  0.3137  0.2665
  653MPD2    N1 9674   0.512   0.845   0.002 -0.0095 -0.0443  0.2094
  653MPD2    H7 9675   0.447   0.914  17.669 -1.1763  0.1010  2.5727
  654TMC3    C1 9676   0.120   0.447  17.290  0.6052 -0.4914  0.5839
  654TMC3    C2 9677   0.041   0.555  17.270  0.2863 -0.2836  0.4149
  654TMC3    C3 9678   4.680   0.546  17.163 -0.0751  1.0001  0.0239
  654TMC3    C4 9679   0.119   0.339  17.211 -1.0508 -0.1062  0.1193
  654TMC3    C5 9680   0.028   0.336  17.107 -0.1581 -0.0937  0.1716
  654TMC3    C6 9681   4.673   0.442  17.070  0.6784  0.1811  0.0248
  654TMC3     C 9682   0.191   0.430  17.421  0.5782  0.2519  0.2948
  654TMC3     O 9683   0.235   0.318  17.444  0.3456 -0.1323 -0.1234
  654TMC3     H 9684   0.025   0.630  17.347  1.6068 -1.0443  1.4250
  654TMC3    H1 9685   0.175   0.251  17.241  3.7726  1.5566 -4.0469
  654TMC3    H2 9686   4.630   0.453  16.971 -1.1248 -0.6354  0.7362
  654TMC3    C7 9687   0.020   0.217  17.015 -0.2351  0.1800  0.5677
  654TMC3    C8 9688   4.568   0.649  17.152  0.3719 -0.2639 -0.2271
  654TMC3    O1 9689   0.008   0.246  16.898 -0.3406 -0.0378  0.1990
  654TMC3    O2 9690   4.582   0.766  17.186  0.0368 -0.1807 -0.0262
  655MPD2     C 9691   0.844   1.028  15.372 -0.0261  0.5673 -0.3805
  655MPD2    C1 9692   0.947   1.062  15.459  0.0226 -0.2931  0.4443
  655MPD2    C2 9693   1.071   0.997  15.457 -0.6119 -0.0549  0.4327
  655MPD2    C3 9694   1.080   0.881  15.392 -0.0489 -0.3250 -0.2189
  655MPD2    C4 9695   0.974   0.832  15.312 -0.3639 -0.3190  0.7401
  655MPD2    C5 9696   0.861   0.910  15.304  0.4610  0.1617 -0.1855
  655MPD2     H 9697   1.155   1.043  15.509 -0.5900  0.4637 -0.0619
  655MPD2    H1 9698   0.986   0.757  15.235 -0.9138  1.0010 -0.6427
  655MPD2    H2 9699   0.749   1.076  15.353  0.4196  0.9602 -1.6044
  655MPD2    H3 9700   0.787   0.867  15.238  0.2257  0.2559  0.0160
  655MPD2     N 9701   1.196   0.800  15.406 -0.5654 -0.1743  0.0215
  655MPD2    H5 9702   1.196   0.709  15.362  1.3789 -1.0023  1.7224
  655MPD2    N1 9703   0.933   1.172  15.549  0.1659  0.4913 -0.5750
  655MPD2    H7 9704   1.014   1.201  15.603  1.5257 -2.9263 -0.7521
  656TMC3    C1 9705   0.819   1.346  15.652  0.2372  0.2685  0.4089
  656TMC3    C2 9706   0.887   1.322  15.770  0.2836  0.0418 -0.0444
  656TMC3    C3 9707   0.860   1.399  15.874 -0.7356  0.5039  0.6088
  656TMC3    C4 9708   0.719   1.442  15.654 -0.5011 -0.0565 -0.1828
  656TMC3    C5 9709   0.698   1.517  15.762 -0.2540  0.2830  0.0071
  656TMC3    C6 9710   0.769   1.505  15.875 -0.1706  0.4953  0.1919
  656TMC3     C 9711   0.832   1.262  15.536 -0.0241  0.2577 -0.2351
  656TMC3     O 9712   0.756   1.290  15.445  0.2049 -0.1929 -0.3839
  656TMC3     H 9713   0.941   1.228  15.773  0.9007  0.3828 -0.6999
  656TMC3    H1 9714   0.657   1.459  15.566 -0.1521  3.3318  0.2093
  656TMC3    H2 9715   0.736   1.562  15.962 -0.2231  3.0389 -1.5001
  656TMC3    C7 9716   0.647   1.651  15.734  0.4399  0.5911 -0.8527
  656TMC3    C8 9717   0.884   1.341  16.007  0.7002  0.4422  0.8659
  656TMC3    O1 9718   0.718   1.725  15.668  0.6698  0.5611 -0.3111
  656TMC3    O2 9719   0.926   1.221  16.002 -0.5046 -0.3326  0.2390
  657TMC3    C1 9720   0.363   4.495  15.398  0.9743 -0.2577  0.2180
  657TMC3    C2 9721   0.464   4.468  15.490  0.0748 -1.0783 -0.5002
  657TMC3    C3 9722   0.515   4.582  15.548  0.4081 -0.2092 -0.1452
  657TMC3    C4 9723   0.319   4.621  15.370 -0.2608 -0.5163  0.1339
  657TMC3    C5 9724   0.365   0.004  15.445  0.7208  0.2814  0.0177
  657TMC3    C6 9725   0.463   4.705  15.543  0.0997  0.5971 -0.4188
  657TMC3     C 9726   0.297   4.385  15.328  0.4158  0.3313 -0.5598
  657TMC3     O 9727   0.209   4.413  15.251 -0.4970  0.7430 -0.2985
  657TMC3     H 9728   0.511   4.372  15.505  0.2246 -0.2715  4.3212
  657TMC3    H1 9729   0.234   4.636  15.304  0.6620  0.2205 -0.8874
  657TMC3    H2 9730   0.516   0.065  15.584  0.8323  0.3453 -0.8459
  657TMC3    C7 9731   0.284   0.129  15.447 -0.4285 -0.8329 -0.0275
  657TMC3    C8 9732   0.651   4.573  15.614 -0.2948  0.3429  0.0883
  657TMC3    O1 9733   0.183   0.111  15.384  0.1572  0.1573  0.0936
  657TMC3    O2 9734   0.706   4.681  15.627  0.3025  0.0720 -0.0937
  658MPD2     C 9735   1.862   0.486  14.995  0.0272  0.3661 -0.0577
  658MPD2    C1 9736   1.792   0.594  15.045  0.2162 -0.0315  0.3547
  658MPD2    C2 9737   1.769   0.704  14.964 -0.6071  0.3909 -0.1530
  658MPD2    C3 9738   1.811   0.714  14.836  0.0315 -0.9065 -0.1522
  658MPD2    C4 9739   1.888   0.606  14.793  0.5837  0.4033  0.2848
  658MPD2    C5 9740   1.913   0.496  14.868  0.1450  0.2125 -0.6400
  658MPD2     H 9741   1.696   0.777  14.997 -0.9755 -0.2836  0.5430
  658MPD2    H1 9742   1.924   0.603  14.691  0.7194 -0.7812  0.3693
  658MPD2    H2 9743   1.879   0.391  15.045  0.3132  0.3241 -0.2338
  658MPD2    H3 9744   1.971   0.416  14.824  1.1861 -0.0852  1.3036
  658MPD2     N 9745   1.773   0.826  14.759 -0.1710 -0.3647 -0.6116
  658MPD2    H5 9746   1.720   0.898  14.805 -0.7309 -0.6516 -0.8055
  658MPD2    N1 9747   1.751   0.586  15.176  0.4463  0.5898  0.1136
  658MPD2    H7 9748   1.751   0.493  15.217 -1.5223  1.1820  1.4332
  659TMC3    C1 9749   1.630   0.666  15.363  0.4057  0.1190 -0.7619
  659TMC3    C2 9750   1.545   0.767  15.401  0.8225 -0.3276  0.6852
  659TMC3    C3 9751   1.423   0.733  15.457  0.1617 -0.2764  0.1781
  659TMC3    C4 9752   1.600   0.537  15.380 -0.5836  0.0496  0.0497
  659TMC3    C5 9753   1.472   0.500  15.428  0.1359 -0.0526 -0.5176
  659TMC3    C6 9754   1.387   0.601  15.471  0.5315 -0.1157  0.0373
  659TMC3     C 9755   1.707   0.692  15.245 -0.5758  0.2092 -0.0055
  659TMC3     O 9756   1.716   0.810  15.216  0.1146 -0.5773 -0.4574
  659TMC3     H 9757   1.569   0.872  15.388  2.5841 -0.5878  1.8036
  659TMC3    H1 9758   1.682   0.468  15.366 -0.0797  0.4876  0.8537
  659TMC3    H2 9759   1.285   0.580  15.501  1.6564 -3.4235  1.4681
  659TMC3    C7 9760   1.396   0.379  15.384  0.4411  0.4599 -0.3460
  659TMC3    C8 9761   1.326   0.842  15.447  0.2736  0.0812  0.0502
  659TMC3    O1 9762   1.276   0.398  15.374 -0.3413  0.1037 -0.1481
  659TMC3    O2 9763   1.369   0.956  15.475 -0.4591 -0.4528  0.4151
  660MPD2     C 9764   4.606   4.047  12.901 -0.1016  0.2936 -0.2285
  660MPD2    C1 9765   4.489   4.060  12.831  0.1862  0.3386  0.1489
  660MPD2    C2 9766   4.378   3.995  12.879  0.0624  0.0417 -0.0228
  660MPD2    C3 9767   4.382   3.916  12.993  0.3124  0.2604 -0.2301
  660MPD2    C4 9768   4.500   3.903  13.064  0.2899  0.2217 -0.0829
  660MPD2    C5 9769   4.606   3.967  13.008 -0.1015 -0.2520 -0.5363
  660MPD2     H 9770   4.285   4.008  12.824 -0.2772 -1.4292  0.2050
  660MPD2    H1 9771   4.504   3.863  13.165 -0.4387 -3.3793 -1.4637
  660MPD2    H2 9772   4.701   4.073  12.856 -0.2797 -1.1076 -1.4408
  660MPD2    H3 9773   4.698   3.964  13.065 -0.3452  0.3879 -0.1027
  660MPD2     N 9774   4.271   3.849  13.050 -0.0709  0.1687 -0.4523
  660MPD2    H5 9775   4.289   3.787  13.128 -0.0950 -1.5087 -1.7783
  660MPD2    N1 9776   4.484   4.133  12.707 -0.1708 -0.2671 -0.1240
  660MPD2    H7 9777   4.395   4.134  12.659 -2.0736 -1.6044  3.3799
  661TMC3    C1 9778   4.517   4.305  12.559 -0.2298 -0.1350 -0.2124
  661TMC3    C2 9779   4.605   4.351  12.467  0.0755  0.7274 -0.2293
  661TMC3    C3 9780   4.551   4.433  12.372  0.6101  0.2529 -0.0990
  661TMC3    C4 9781   4.383   4.326  12.569 -0.3269 -0.0977  0.2255
  661TMC3    C5 9782   4.330   4.394  12.465  0.7455 -0.5809  0.0742
  661TMC3    C6 9783   4.411   4.451  12.361  0.8345  0.1972 -0.4133
  661TMC3     C 9784   4.581   4.216  12.650  0.5818  0.0512  0.0348
  661TMC3     O 9785   4.703   4.227  12.675  0.4396  0.4136  0.5141
  661TMC3     H 9786   4.709   4.319  12.464 -0.0270  0.0701  2.7629
  661TMC3    H1 9787   4.315   4.276  12.637 -1.4642  2.8733  1.2620
  661TMC3    H2 9788   4.365   4.514  12.286 -0.3555  0.0187  0.1716
  661TMC3    C7 9789   4.189   4.404  12.447 -0.3013 -0.4374  0.0463
  661TMC3    C8 9790   4.635   4.484  12.263  0.1611 -0.0899  0.1454
  661TMC3    O1 9791   4.122   4.390  12.549  0.1488  0.3792 -0.3658
  661TMC3    O2 9792   0.018   4.430  12.239 -0.0191  0.0255 -0.2098
  662MPD2     C 9793   3.911   4.113  17.144  0.3101 -0.1299 -0.1018
  662MPD2    C1 9794   4.029   4.147  17.206  0.5466  0.1745 -0.5658
  662MPD2    C2 9795   4.032   4.252  17.295  0.0473 -0.0700 -0.7574
  662MPD2    C3 9796   3.913   4.317  17.326  0.4241  0.3245  0.1156
  662MPD2    C4 9797   3.796   4.280  17.268  0.7768  0.0521 -0.4521
  662MPD2    C5 9798   3.795   4.173  17.183  0.4971 -0.0665 -0.1111
  662MPD2     H 9799   4.126   4.269  17.348  0.2670  1.1506 -1.5419
  662MPD2    H1 9800   3.699   4.324  17.289  1.2926  0.7777  0.4434
  662MPD2    H2 9801   3.893   4.040  17.066 -0.9052 -0.0172  0.0777
  662MPD2    H3 9802   3.698   4.142  17.149  0.5311  0.2515 -0.4957
  662MPD2     N 9803   3.904   4.420  17.426  0.4474  0.2021  0.5215
  662MPD2    H5 9804   3.810   4.443  17.457 -0.3891 -0.9704 -1.1357
  662MPD2    N1 9805   4.151   4.086  17.164 -0.1056  0.5589  0.6792
  662MPD2    H7 9806   4.237   4.122  17.202  1.3687 -1.2317 -0.9721
  663TMC3    C1 9807   4.296   3.918  17.067  0.4739  0.3768 -0.4717
  663TMC3    C2 9808   4.371   3.906  17.187 -0.3832 -0.1378  0.1263
  663TMC3    C3 9809   4.478   3.816  17.194  0.2267  0.2987 -1.0065
  663TMC3    C4 9810   4.335   3.851  16.954  0.4799 -0.4752  0.3302
  663TMC3    C5 9811   4.449   3.777  16.960  0.7296 -0.3068 -0.7434
  663TMC3    C6 9812   4.525   3.771  17.075  0.5243 -0.4824 -0.2352
  663TMC3     C 9813   4.163   3.989  17.065 -0.2997 -0.1628 -0.2250
  663TMC3     O 9814   4.080   3.945  16.989  0.4220  0.5813  0.6048
  663TMC3     H 9815   4.324   3.949  17.274  1.3302  1.8447  0.0649
  663TMC3    H1 9816   4.280   3.872  16.863 -1.3162 -2.4951  0.9606
  663TMC3    H2 9817   4.611   3.706  17.074 -0.9953 -2.4859 -1.2795
  663TMC3    C7 9818   4.430   3.659  16.890 -0.0805 -0.4469 -0.1274
  663TMC3    C8 9819   4.464   3.698  17.287  0.0213 -0.4714 -0.1232
  663TMC3    O1 9820   4.390   3.671  16.776  0.0533  0.2503 -0.4493
  663TMC3    O2 9821   4.510   3.595  17.242  0.2251  0.0700  0.1886
  664MPD2     C 9822   2.330   2.094  17.578 -0.6264  0.1305 -0.1229
  664MPD2    C1 9823   2.419   2.194  17.621 -0.0627 -0.5360  0.4327
  664MPD2    C2 9824   2.416   2.222   0.048 -0.0588 -0.7374  0.4516
  664MPD2    C3 9825   2.337   2.147   0.137  0.1968  0.3171  0.7561
  664MPD2    C4 9826   2.261   2.047   0.090 -0.4152 -0.8692  0.2237
  664MPD2    C5 9827   2.244   2.023  17.666 -0.1582 -0.0558  0.6697
  664MPD2     H 9828   2.469   2.308   0.088 -1.6123  1.0218 -1.2375
  664MPD2    H1 9829   2.197   1.985   0.153 -2.2037  0.1265 -0.6116
  664MPD2    H2 9830   2.324   2.066  17.473 -1.5524  0.2857 -0.1119
  664MPD2    H3 9831   2.167   1.956  17.628 -2.1336  2.6111 -0.0213
  664MPD2     N 9832   2.346   2.181   0.277  0.4271 -0.2007  0.6004
  664MPD2    H5 9833   2.406   2.258   0.307 -0.2372  0.1482  1.0192
  664MPD2    N1 9834   2.502   2.272  17.537 -0.4199  0.2271  0.1296
  664MPD2    H7 9835   2.533   2.360  17.578 -2.0699 -0.0109  1.8543
  665TMC3    C1 9836   2.308   2.174   0.518 -0.8192 -0.2861 -0.2769
  665TMC3    C2 9837   2.238   2.122   0.624 -0.6969 -0.3259 -0.4709
  665TMC3    C3 9838   2.263   2.173   0.749 -0.1242  0.4106  0.1678
  665TMC3    C4 9839   2.365   2.301   0.533  0.1717  0.1915  0.8072
  665TMC3    C5 9840   2.362   2.356   0.658  0.2008  0.5358 -1.1030
  665TMC3    C6 9841   2.325   2.292   0.773  0.0111 -0.5428  0.3602
  665TMC3     C 9842   2.283   2.114   0.387 -0.5941  0.5367  0.0662
  665TMC3     O 9843   2.214   2.015   0.383  0.1527 -0.8113 -0.1649
  665TMC3     H 9844   2.196   2.023   0.612  2.7702 -1.9548  0.8068
  665TMC3    H1 9845   2.419   2.358   0.457 -0.5072 -1.9904 -1.3130
  665TMC3    H2 9846   2.319   2.339   0.870  1.1643 -1.0385  0.6772
  665TMC3    C7 9847   2.419   2.492   0.673  0.3145  0.2021 -0.1641
  665TMC3    C8 9848   2.170   2.124   0.856  0.4557 -0.1818 -0.0044
  665TMC3    O1 9849   2.462   2.543   0.574  0.0511 -0.1062  0.3283
  665TMC3    O2 9850   2.168   2.196   0.957  0.3576 -0.0836  0.4269
  666TMC3    C1 9851   2.185   2.513   9.670  0.2845 -0.8077  0.7807
  666TMC3    C2 9852   2.205   2.418   9.766 -0.3819  0.2409  0.8792
  666TMC3    C3 9853   2.321   2.415   9.833  0.6125 -0.1518  0.3831
  666TMC3    C4 9854   2.293   2.595   9.641 -0.5456  0.4495  0.2473
  666TMC3    C5 9855   2.410   2.595   9.714 -0.2451  0.6198 -0.3306
  666TMC3    C6 9856   2.424   2.502   9.813 -0.1721  0.9130 -0.2914
  666TMC3     C 9857   2.064   2.589   9.685 -0.4634  0.2340 -0.6991
  666TMC3     O 9858   2.075   2.711   9.675 -0.6497 -0.3064  0.1153
  666TMC3     H 9859   2.126   2.353   9.803  0.4352 -1.8379 -1.0162
  666TMC3    H1 9860   2.280   2.683   9.579  2.9186  1.3867  0.8433
  666TMC3    H2 9861   2.510   2.518   9.877 -0.3118 -1.3016  0.4599
  666TMC3    C7 9862   2.450   2.723   9.762 -0.3508 -0.7172 -0.1589
  666TMC3    C8 9863   2.320   2.337   9.954  0.2573 -0.5321 -0.6774
  666TMC3    O1 9864   2.468   2.732   9.878 -0.0432 -0.7489 -0.2190
  666TMC3    O2 9865   2.244   2.240   9.958  0.0202  0.3105  0.6165
  667MPD2     C 9866   3.079   1.778  14.860  0.3767 -0.2682  0.5280
  667MPD2    C1 9867   2.990   1.865  14.922 -0.3755  0.3976  0.1731
  667MPD2    C2 9868   2.859   1.868  14.873  0.4936  0.3632 -0.4648
  667MPD2    C3 9869   2.818   1.785  14.768  0.4357  0.0549 -0.3278
  667MPD2    C4 9870   2.911   1.700  14.712  0.2029  0.3786 -0.7065
  667MPD2    C5 9871   3.040   1.705  14.751 -0.4976  0.5521  0.3604
  667MPD2     H 9872   2.782   1.937  14.907 -0.0670 -0.8130  0.6916
  667MPD2    H1 9873   2.877   1.630  14.636 -3.5799  0.0004  1.3109
  667MPD2    H2 9874   3.175   1.754  14.904  0.3274  1.6583  1.6987
  667MPD2    H3 9875   3.106   1.628  14.712 -0.8188  0.7227 -0.5297
  667MPD2     N 9876   2.686   1.777  14.713  0.8529  0.7987  0.2284
  667MPD2    H5 9877   2.685   1.709  14.637  0.8849  0.4236  0.5676
  667MPD2    N1 9878   3.032   1.933  15.039 -0.9353 -0.9834  0.6429
  667MPD2    H7 9879   2.958   1.987  15.084  1.2714  1.3912  1.4346
  668TMC3    C1 9880   3.175   2.036  15.198  0.0726 -0.0483 -0.0543
  668TMC3    C2 9881   3.270   2.131  15.205  0.7343 -0.2632 -0.1736
  668TMC3    C3 9882   3.323   2.157  15.328  0.9218  0.2907 -0.0921
  668TMC3    C4 9883   3.128   1.963  15.309 -0.4940 -0.0491 -0.0298
  668TMC3    C5 9884   3.171   2.002  15.432  0.2940 -0.4876  0.7977
  668TMC3    C6 9885   3.277   2.089  15.438 -0.3029 -0.1379  0.2775
  668TMC3     C 9886   3.161   1.972  15.068  0.3196 -0.5872  0.2795
  668TMC3     O 9887   3.271   1.947  15.017  0.0658 -0.2711 -0.0076
  668TMC3     H 9888   3.299   2.182  15.114 -2.1949 -1.0440 -1.5441
  668TMC3    H1 9889   3.073   1.871  15.294 -1.4616  0.3543  1.1070
  668TMC3    H2 9890   3.320   2.118  15.533 -1.8688 -0.3283  1.0423
  668TMC3    C7 9891   3.131   1.941  15.557 -0.0282  0.3245  0.7840
  668TMC3    C8 9892   3.419   2.255  15.339 -0.3004  0.8119  0.2516
  668TMC3    O1 9893   3.214   1.956  15.647 -0.3961 -0.4158 -0.1993
  668TMC3    O2 9894   3.474   2.270  15.450 -0.5044  0.1425 -0.2310
  669TMC3    C1 9895   1.192   2.213  14.480  0.4799  0.6533  0.5874
  669TMC3    C2 9896   1.088   2.278  14.410  0.1976  0.1974  0.3908
  669TMC3    C3 9897   1.119   2.362  14.310  0.9518  0.0502 -0.8188
  669TMC3    C4 9898   1.324   2.219  14.428 -0.6092  0.6223  0.6582
  669TMC3    C5 9899   1.353   2.288  14.319 -0.1448 -0.1017 -0.1690
  669TMC3    C6 9900   1.247   2.356  14.260  0.2876 -0.9029  0.0551
  669TMC3     C 9901   1.168   2.158  14.607 -0.2015  0.5427  0.3938
  669TMC3     O 9902   1.055   2.116  14.625  0.4154 -0.0736  0.3259
  669TMC3     H 9903   0.990   2.258  14.452  0.6386  0.9633  1.7868
  669TMC3    H1 9904   1.406   2.171  14.481  0.4936  2.5276  0.6804
  669TMC3    H2 9905   1.272   2.427  14.182 -1.8751  0.7148  0.8250
  669TMC3    C7 9906   1.494   2.295  14.281  1.0542 -0.6620  0.0177
  669TMC3    C8 9907   1.023   2.396  14.211 -0.5794 -0.5803 -0.3277
  669TMC3    O1 9908   1.575   2.243  14.358  0.1437  0.0237  0.4051
  669TMC3    O2 9909   1.059   2.451  14.108  0.0250  1.0670 -0.2543
  670MPD2     C 9910   4.513   0.005  13.589  0.1636  0.0022 -0.1482
  670MPD2    C1 9911   4.603   4.696  13.679 -0.1662 -0.6077  0.0812
  670MPD2    C2 9912   4.551   4.636  13.791  0.9424 -0.5083  0.8436
  670MPD2    C3 9913   4.421   4.611  13.810  0.5284 -0.4808  0.0017
  670MPD2    C4 9914   4.330   4.644  13.712 -0.2164 -0.1910  0.9042
  670MPD2    C5 9915   4.376   4.703  13.601  0.1280 -0.7031  0.6897
  670MPD2     H 9916   4.617   4.606  13.872  2.4703  1.3016  0.2523
  670MPD2    H1 9917   4.226   4.614  13.711 -1.1222  2.9837 -0.0109
  670MPD2    H2 9918   4.546   0.055  13.499 -0.3634  0.7608  0.0825
  670MPD2    H3 9919   4.302   4.710  13.522  2.3356  0.5371 -1.2667
  670MPD2     N 9920   4.373   4.576  13.938  0.2469 -0.1218 -0.1816
  670MPD2    H5 9921   4.439   4.552  14.011 -0.1916  0.1095  0.2925
  670MPD2    N1 9922   0.017   4.693  13.661 -0.2346 -0.0309  0.4282
  670MPD2    H7 9923   0.071   4.652  13.736  1.1893  0.8111 -0.1171
  671TMC3    C1 9924   4.216   4.523  14.113 -0.7649  0.1910  0.2968
  671TMC3    C2 9925   4.331   4.523  14.193  0.5457 -0.3805 -0.4869
  671TMC3    C3 9926   4.324   4.445  14.299  0.0460  0.2276  0.0395
  671TMC3    C4 9927   4.104   4.449  14.140 -0.4437 -1.2876  0.2750
  671TMC3    C5 9928   4.105   4.371  14.253 -0.4650 -0.8718  0.2808
  671TMC3    C6 9929   4.207   4.381  14.346 -0.3429 -0.4604  0.2050
  671TMC3     C 9930   4.238   4.544  13.972  0.5687  0.4277 -0.4024
  671TMC3     O 9931   4.149   4.510  13.894 -0.1278  0.0335 -0.3107
  671TMC3     H 9932   4.410   4.598  14.185  0.2315  0.1340  1.2172
  671TMC3    H1 9933   4.021   4.443  14.070 -0.1845  0.0007 -0.1387
  671TMC3    H2 9934   4.203   4.320  14.435  2.1615  1.6156  1.7519
  671TMC3    C7 9935   4.030   4.250  14.225  0.3806  0.5012 -0.4198
  671TMC3    C8 9936   4.457   4.395  14.348 -0.9069  0.4051  0.3810
  671TMC3    O1 9937   3.916   4.270  14.189  0.3845 -0.1751 -0.0503
  671TMC3    O2 9938   4.548   4.387  14.266  0.1061 -0.3771  0.9804
  672MPD2     C 9939   0.553   0.737   1.563  0.2266 -0.0582 -0.2319
  672MPD2    C1 9940   0.601   0.606   1.564  0.8119 -0.1323  0.0715
  672MPD2    C2 9941   0.732   0.569   1.577 -1.0917 -0.1532 -0.3700
  672MPD2    C3 9942   0.825   0.670   1.593  0.3619 -0.2109 -0.1056
  672MPD2    C4 9943   0.778   0.801   1.602  0.0204  0.2778 -0.3371
  672MPD2    C5 9944   0.644   0.832   1.586  0.3557 -0.2920  0.2220
  672MPD2     H 9945   0.763   0.466   1.577  1.0682  0.4924 -3.4672
  672MPD2    H1 9946   0.859   0.872   1.613  0.3615 -0.0687 -0.5938
  672MPD2    H2 9947   0.447   0.759   1.555  0.4145  1.0970  0.3541
  672MPD2    H3 9948   0.618   0.938   1.584 -0.0105 -0.4118 -2.1211
  672MPD2     N 9949   0.965   0.648   1.594  0.1580  0.0861 -0.0711
  672MPD2    H5 9950   1.021   0.732   1.583  0.4302 -0.3431 -1.8293
  672MPD2    N1 9951   0.504   0.505   1.542  0.0030  0.3145  0.0873
  672MPD2    H7 9952   0.529   0.409   1.566  1.0717  1.1031  2.1157
  673TMC3    C1 9953   0.307   0.398   1.467  0.0285 -0.0677 -0.3029
  673TMC3    C2 9954   0.356   0.285   1.526 -0.4007  0.0485  0.0225
  673TMC3    C3 9955   0.337   0.167   1.461 -0.0919  0.1919 -0.2622
  673TMC3    C4 9956   0.262   0.391   1.338  0.0093  0.1682  0.0121
  673TMC3    C5 9957   0.241   0.272   1.277 -0.2862  0.0472  0.1501
  673TMC3    C6 9958   0.283   0.157   1.341 -0.8480  0.0432 -0.1573
  673TMC3     C 9959   0.381   0.523   1.490  0.1329 -0.0081  0.2381
  673TMC3     O 9960   0.343   0.617   1.422 -0.2783  0.3837  0.6412
  673TMC3     H 9961   0.406   0.283   1.622  0.6594 -0.9774 -0.5403
  673TMC3    H1 9962   0.219   0.481   1.294 -1.5262 -0.3370  0.4610
  673TMC3    H2 9963   0.285   0.067   1.280  0.4459 -0.4024  0.5613
  673TMC3    C7 9964   0.231   0.269   1.137 -0.3652 -0.3910  0.2857
  673TMC3    C8 9965   0.379   0.039   1.526 -0.2114 -0.0602  0.4665
  673TMC3    O1 9966   0.183   0.166   1.099 -0.4990  0.0799 -0.3438
  673TMC3    O2 9967   0.462   0.054   1.618  0.0423 -0.2349 -0.8310
  674MPD2     C 9968   4.283   0.084  17.592  0.0412  0.4316 -0.0252
  674MPD2    C1 9969   4.398   0.032  17.647 -0.0570 -0.3714 -0.4221
  674MPD2    C2 9970   4.474   0.116   0.029  0.3344  0.5436  0.1978
  674MPD2    C3 9971   4.434   0.248   0.049 -0.1534  1.0603  0.1574
  674MPD2    C4 9972   4.319   0.290  17.690 -0.1293 -0.0413 -0.1066
  674MPD2    C5 9973   4.245   0.209  17.614  0.0304  0.1800 -0.3447
  674MPD2     H 9974   4.576   0.091   0.059 -0.1946  0.1615  1.7113
  674MPD2    H1 9975   4.294   0.395  17.695 -0.5394 -0.2124  1.3560
  674MPD2    H2 9976   4.212   0.024  17.536 -0.3428  0.7304  0.1438
  674MPD2    H3 9977   4.154   0.253  17.575  0.1488  0.1215 -0.6948
  674MPD2     N 9978   4.517   0.329   0.126 -0.1371 -0.1965  0.2602
  674MPD2    H5 9979   4.611   0.297   0.147 -0.5342 -0.8360  1.0587
  674MPD2    N1 9980   4.430   4.624  17.628  0.5212 -0.3138  0.0073
  674MPD2    H7 9981   4.362   4.564  17.582  1.7970 -1.2559 -0.6547
  675TMC3    C1 9982   4.524   4.420  17.682  0.6797  0.7696 -0.2616
  675TMC3    C2 9983   4.399   4.373   0.013  0.3933 -0.5516 -0.6506
  675TMC3    C3 9984   4.385   4.265   0.104 -0.0230 -0.3794 -0.7354
  675TMC3    C4 9985   4.627   4.367   0.052 -0.5377  0.0385  0.1093
  675TMC3    C5 9986   4.609   4.258   0.133 -0.5067 -0.5529 -0.7372
  675TMC3    C6 9987   4.488   4.195   0.162 -0.0638  0.4207  0.0223
  675TMC3     C 9988   4.541   4.563  17.672 -0.8370  0.1265  0.3463
  675TMC3     O 9989   4.641   4.607   0.019 -0.0305  0.2762  0.1009
  675TMC3     H 9990   4.311   4.420  17.674  0.6388  0.0084 -0.5417
  675TMC3    H1 9991   0.003   4.401   0.033  0.0327 -1.4424  0.5425
  675TMC3    H2 9992   4.473   4.108   0.225 -1.0862  1.4678  1.2186
  675TMC3    C7 9993   4.724   4.217   0.215 -0.0162  0.4274 -0.6952
  675TMC3    C8 9994   4.247   4.252   0.162  0.3910  0.4944 -1.0754
  675TMC3    O1 9995   0.100   4.281   0.201 -0.7042  0.0213  0.2528
  675TMC3    O2 9996   4.183   4.355   0.148  0.1104 -0.5881 -0.0166
  676MPD2     C 9997   2.631   3.280  10.784  0.0356  0.1547  0.2276
  676MPD2    C1 9998   2.630   3.192  10.887  0.3158  0.6267  0.7978
  676MPD2    C2 9999   2.635   3.055  10.874 -0.4541  0.2190 -0.1002
  676MPD2    C310000   2.654   2.995  10.754  0.5975  0.0672  0.2177
  676MPD2    C410001   2.651   3.083  10.645 -0.6286  0.2137  0.8041
  676MPD2    C510002   2.642   3.223  10.658  0.0269  0.1368 -0.0041
  676MPD2     H10003   2.609   3.000  10.964  0.4634  1.2326  0.7917
  676MPD2    H110004   2.674   3.046  10.545 -2.9410  1.3431 -0.1500
  676MPD2    H210005   2.629   3.387  10.797 -1.5063  0.0490  0.9785
  676MPD2    H310006   2.648   3.282  10.567 -0.2262 -0.4528 -0.4067
  676MPD2     N10007   2.647   2.851  10.738  0.1125  0.5464 -0.2486
  676MPD2    H510008   2.648   2.820  10.641  0.0428 -1.1107  0.2785
  676MPD2    N110009   2.601   3.233  11.018  0.2096 -0.3492  0.2628
  676MPD2    H710010   2.561   3.171  11.088  1.1499 -2.7898 -1.3687
  677TMC3    C110011   2.577   3.389  11.191  0.5319  0.2310 -0.0970
  677TMC3    C210012   2.454   3.345  11.219 -0.0563  0.4238  0.1961
  677TMC3    C310013   2.394   3.400  11.325  0.2345 -0.3073  0.1768
  677TMC3    C410014   2.648   3.477  11.274 -0.5289  0.2824  0.1607
  677TMC3    C510015   2.580   3.523  11.388 -0.0514  0.3666 -0.6292
  677TMC3    C610016   2.443   3.498  11.407  0.2994 -0.7614  0.6086
  677TMC3     C10017   2.637   3.355  11.066 -0.7599 -0.4344 -0.7920
  677TMC3     O10018   2.725   3.424  11.022 -0.5451  0.3817  0.0248
  677TMC3     H10019   2.409   3.290  11.137 -0.5334 -0.8951  1.3577
  677TMC3    H110020   2.749   3.510  11.258 -1.0407  2.0132  0.5107
  677TMC3    H210021   2.381   3.539  11.487 -0.5937 -1.1736  0.1347
  677TMC3    C710022   2.647   3.600  11.493  0.2698 -0.3547 -0.1508
  677TMC3    C810023   2.251   3.364  11.341  0.4564 -0.2790 -0.1199
  677TMC3    O110024   2.575   3.656  11.576  0.0218 -0.3319 -0.1014
  677TMC3    O210025   2.194   3.354  11.235 -0.1873 -0.2009 -0.1295
  678MPD2     C10026   3.824   3.281   1.622 -0.1889 -0.3940  0.1457
  678MPD2    C110027   3.797   3.260   1.492  0.0424  0.2662  0.1753
  678MPD2    C210028   3.661   3.265   1.464 -0.2673 -0.1505  0.4427
  678MPD2    C310029   3.564   3.289   1.561  0.0049 -0.1561 -0.2360
  678MPD2    C410030   3.596   3.293   1.692 -0.2430 -0.6244  0.0351
  678MPD2    C510031   3.733   3.285   1.718  0.2416 -0.9987 -0.0441
  678MPD2     H10032   3.633   3.245   1.361 -3.5096  1.8597  0.9482
  678MPD2    H110033   3.524   3.302   1.773 -0.0082  0.7884  0.0768
  678MPD2    H210034   3.928   3.277   1.652  0.0741  1.4452 -0.5277
  678MPD2    H310035   3.755   3.281   1.825  1.8777 -0.7754 -0.3715
  678MPD2     N10036   3.427   3.293   1.530  0.6641 -0.5988 -0.1554
  678MPD2    H510037   3.407   3.287   1.431 -0.0336  0.2928 -0.0679
  678MPD2    N110038   3.892   3.254   1.388 -0.4606  0.5586 -0.2616
  678MPD2    H710039   3.860   3.229   1.295 -1.2871  1.1969 -0.1466
  679TMC3    C110040   4.292   3.175   1.169 -0.8776  0.8650 -0.9081
  679TMC3    C210041   4.225   3.212   1.284  0.5556 -0.1793  0.5417
  679TMC3    C310042   4.093   3.246   1.279  0.2719  0.2539  0.5751
  679TMC3    C410043   4.226   3.177   1.050 -0.1961  0.0451  0.2986
  679TMC3    C510044   4.097   3.216   1.052  0.3942 -0.8136 -0.2760
  679TMC3    C610045   4.027   3.249   1.165 -0.8518 -0.2544 -1.3862
  679TMC3     C10046   4.437   3.163   1.180  0.0971 -0.4478  0.0176
  679TMC3     O10047   4.495   3.196   1.281 -0.3587  0.1026 -0.1878
  679TMC3     H10048   4.280   3.214   1.377  0.6475 -1.4252  0.5203
  679TMC3    H110049   4.267   3.165   0.950  0.5898  0.2924  0.5947
  679TMC3    H210050   3.924   3.278   1.148 -0.8553  0.9675  0.7826
  679TMC3    C710051   4.034   3.252   0.922  0.0022  0.3955 -0.0140
  679TMC3    C810052   4.029   3.270   1.402  0.1932 -0.2340 -0.8344
  679TMC3    O110053   4.111   3.294   0.839  0.3571 -0.0747  0.2689
  679TMC3    O210054   4.097   3.279   1.503 -0.0075 -0.1505  0.0042
  680MPD2     C10055   4.159   1.676  13.641  0.1111  0.2227 -0.9999
  680MPD2    C110056   4.228   1.628  13.748  0.2338  0.2952 -0.2400
  680MPD2    C210057   4.301   1.717  13.820 -0.9164 -0.3716  0.5503
  680MPD2    C310058   4.312   1.850  13.785  0.2468 -0.4304 -0.0530
  680MPD2    C410059   4.248   1.889  13.667 -0.0925 -0.2213  0.7263
  680MPD2    C510060   4.173   1.798  13.595  0.8163 -0.2382 -0.1425
  680MPD2     H10061   4.349   1.666  13.904  0.5538  1.7519  1.0145
  680MPD2    H110062   4.271   1.986  13.623 -2.3702 -1.0429 -2.1947
  680MPD2    H210063   4.101   1.608  13.580 -0.2341 -1.0189  0.7004
  680MPD2    H310064   4.115   1.831  13.509  0.0511  0.8039  0.7651
  680MPD2     N10065   4.391   1.940  13.852  0.5546 -0.3663  0.3211
  680MPD2    H510066   4.428   2.023  13.806  0.6283  1.1970  3.2267
  680MPD2    N110067   4.229   1.489  13.777 -0.4782  0.1883  0.6189
  680MPD2    H710068   4.294   1.452  13.845  1.8552  0.0065 -1.7048
  681TMC3    C110069   4.172   1.273  13.803  0.1342  0.7324 -0.9477
  681TMC3    C210070   4.114   1.261  13.927  0.3941 -0.2123 -0.2834
  681TMC3    C310071   4.197   1.212  14.020  0.0509  0.4226  0.9187
  681TMC3    C410072   4.283   1.212  13.771 -0.4666 -0.6061  0.4147
  681TMC3    C510073   4.363   1.155  13.865 -0.0753  0.0137 -0.0840
  681TMC3    C610074   4.316   1.150  13.990 -0.4840 -0.0523 -0.1121
  681TMC3     C10075   4.139   1.398  13.735 -0.7149 -0.5344  0.2918
  681TMC3     O10076   4.021   1.417  13.705  0.0599 -0.3094 -0.0709
  681TMC3     H10077   4.034   1.328  13.957 -1.0727 -1.1352 -2.1440
  681TMC3    H110078   4.303   1.212  13.664 -2.0914 -2.4401  0.1050
  681TMC3    H210079   4.382   1.110  14.066  0.4708  0.3595 -0.7298
  681TMC3    C710080   4.494   1.103  13.836  0.3476 -0.2306  0.3533
  681TMC3    C810081   4.176   1.269  14.146 -0.1079 -0.0933 -0.0432
  681TMC3    O110082   4.537   1.010  13.905 -0.1178 -0.4188  0.1750
  681TMC3    O210083   4.065   1.301  14.185 -0.2062  0.2936 -0.3811
  682MPD2     C10084   1.996   3.612  10.619 -0.2861  0.9043  0.3295
  682MPD2    C110085   1.963   3.479  10.621  0.0582  0.2750 -0.2912
  682MPD2    C210086   1.881   3.437  10.720  0.0526 -0.6809  0.1101
  682MPD2    C310087   1.853   3.518  10.831 -0.0656 -0.0782  0.1457
  682MPD2    C410088   1.898   3.647  10.833 -0.0814 -0.1158 -0.3405
  682MPD2    C510089   1.963   3.691  10.729 -0.2305  0.4844 -0.3109
  682MPD2     H10090   1.851   3.333  10.728 -0.1142 -0.6134  0.4009
  682MPD2    H110091   1.868   3.709  10.917  3.0873 -1.2088  1.6000
  682MPD2    H210092   2.044   3.665  10.537  2.3000 -0.0977  1.2197
  682MPD2    H310093   1.996   3.795  10.732 -1.1677  0.8530 -2.7673
  682MPD2     N10094   1.774   3.467  10.939  0.4927  0.0915  0.4188
  682MPD2    H510095   1.783   3.529  11.019 -0.2571  1.4409 -0.5430
  682MPD2    N110096   1.969   3.389  10.510  0.3505 -0.3211 -0.0129
  682MPD2    H710097   1.941   3.293  10.520 -0.5161 -0.1083 -0.4351
  683TMC3    C110098   1.599   3.384  11.303 -0.5438 -0.5598  0.6941
  683TMC3    C210099   1.507   3.284  11.319 -0.1356 -0.4299  0.1639
  683TMC3    C310100   1.498   3.196  11.214 -0.4885  0.0284 -0.7826
  683TMC3    C410101   1.668   3.413  11.187  0.2931 -0.4375 -0.5754
  683TMC3    C510102   1.649   3.323  11.082 -0.0713 -0.4805 -0.5768
  683TMC3    C610103   1.571   3.212  11.099 -0.7188  0.1790  0.5490
  683TMC3     C10104   1.657   3.433  11.424 -0.2637 -0.4472  0.1447
  683TMC3     O10105   1.592   3.417  11.526 -1.0284 -0.8819 -0.8195
  683TMC3     H10106   1.479   3.243  11.416 -0.9489  0.6165  0.3765
  683TMC3    H110107   1.732   3.500  11.177  3.1819 -2.6349 -0.9006
  683TMC3    H210108   1.551   3.143  11.017  0.8659  0.4491 -0.0640
  683TMC3    C710109   1.702   3.349  10.945  0.5221 -0.9478 -0.6417
  683TMC3    C810110   1.469   3.052  11.241  0.3637 -0.9387 -0.2669
  683TMC3    O110111   1.679   3.262  10.861 -0.0770  0.5414  0.0062
  683TMC3    O210112   1.355   3.015  11.244  0.2179  0.3376  0.1956
  684MPD2     C10113   4.573   2.594  16.637  0.1435 -0.7747  0.5059
  684MPD2    C110114   4.539   2.667  16.523 -0.2589 -0.2537  0.6147
  684MPD2    C210115   4.562   2.805  16.525 -0.5073 -0.5980  0.3071
  684MPD2    C310116   4.610   2.871  16.631 -0.3572 -0.4108 -0.4711
  684MPD2    C410117   4.645   2.800  16.744  0.5663  0.4520 -0.5574
  684MPD2    C510118   4.631   2.666  16.747  0.1532  0.4569  0.1099
  684MPD2     H10119   4.559   2.855  16.429  1.9172 -0.4666  0.2849
  684MPD2    H110120   4.692   2.847  16.830 -0.5947  0.6109 -0.0143
  684MPD2    H210121   4.571   2.486  16.652 -0.3042 -1.1905 -2.5463
  684MPD2    H310122   4.667   2.611  16.833 -2.4440 -1.4251  0.0103
  684MPD2     N10123   4.640   3.011  16.625 -0.3125 -0.0824  0.3142
  684MPD2    H510124   4.697   3.044  16.702  1.5484 -0.3406 -0.9458
  684MPD2    N110125   4.493   2.604  16.401  0.2419  0.1840  0.6972
  684MPD2    H710126   4.473   2.661  16.319  2.5569  0.2737  0.2148
  685TMC3    C110127   4.499   2.456  16.239 -0.1770  0.7913  0.4441
  685TMC3    C210128   4.417   2.541  16.173 -0.3502 -1.1463  0.1057
  685TMC3    C310129   4.459   2.590  16.051  0.0360 -0.1901 -0.5267
  685TMC3    C410130   4.629   2.448  16.194 -0.0818  0.5024  0.5007
  685TMC3    C510131   4.665   2.502  16.074  0.2233  0.1834 -0.1248
  685TMC3    C610132   4.582   2.569  15.998 -0.1424 -0.9505 -0.3727
  685TMC3     C10133   4.496   2.474  16.381  0.0663  0.0074  0.0479
  685TMC3     O10134   4.553   2.390  16.451 -0.2220 -0.2922 -0.3024
  685TMC3     H10135   4.318   2.549  16.217  0.2771 -1.9514  1.6789
  685TMC3    H110136   4.695   2.383  16.250 -1.0110 -1.4686 -0.6657
  685TMC3    H210137   4.613   2.608  15.902  0.0241 -0.8797 -0.2909
  685TMC3    C710138   0.077   2.536  16.053 -0.8359 -0.2272  0.1494
  685TMC3    C810139   4.364   2.652  15.964 -0.5159 -0.0349  0.4575
  685TMC3    O110140   0.111   2.589  15.945  0.2508 -0.2842  0.4138
  685TMC3    O210141   4.395   2.647  15.848  0.0950 -0.0303  0.0812
  686MPD2     C10142   1.300   2.648  15.723 -0.4839  0.7982 -0.2135
  686MPD2    C110143   1.310   2.577  15.838  0.0932  1.1129 -0.6085
  686MPD2    C210144   1.411   2.491  15.869 -0.5685  0.2048 -0.0053
  686MPD2    C310145   1.505   2.464  15.771  0.1151 -0.0022 -0.4167
  686MPD2    C410146   1.499   2.540  15.655 -0.8006 -0.2694  0.2794
  686MPD2    C510147   1.396   2.623  15.629 -0.1509  0.8536  0.0826
  686MPD2     H10148   1.428   2.436  15.961 -3.0179 -0.2657  0.1630
  686MPD2    H110149   1.570   2.521  15.575 -0.7036  2.2667 -0.2329
  686MPD2    H210150   1.213   2.709  15.704 -1.4646 -0.5222  0.0512
  686MPD2    H310151   1.382   2.664  15.529 -2.4818  1.8856  0.8265
  686MPD2     N10152   1.612   2.375  15.788  0.8235 -0.3755  0.3265
  686MPD2    H510153   1.688   2.376  15.721  0.3723 -0.4705 -0.1843
  686MPD2    N110154   1.194   2.588  15.921 -0.7272 -0.4953  0.1603
  686MPD2    H710155   1.127   2.661  15.898 -1.9903 -1.2047  1.5544
  687TMC3    C110156   1.534   2.222  15.974 -0.4280 -0.1287  0.0085
  687TMC3    C210157   1.408   2.184  15.925 -0.7094 -0.5387  0.3759
  687TMC3    C310158   1.334   2.103  16.002  0.4376 -0.4524 -0.3032
  687TMC3    C410159   1.590   2.158  16.083  0.0032 -0.1116 -0.7686
  687TMC3    C510160   1.511   2.067  16.154  0.3545  0.0754 -0.4195
  687TMC3    C610161   1.383   2.038  16.117 -0.6803  0.6243 -0.2885
  687TMC3     C10162   1.639   2.278  15.885  0.8019  0.0837  0.1476
  687TMC3     O10163   1.740   2.212  15.887 -0.1924  0.9723  0.1298
  687TMC3     H10164   1.377   2.230  15.832 -3.7259 -2.6363  0.3793
  687TMC3    H110165   1.693   2.178  16.110 -0.4696 -0.2444  1.1360
  687TMC3    H210166   1.323   1.969  16.176 -2.0562 -0.4334 -2.9638
  687TMC3    C710167   1.590   1.975  16.237 -0.6035 -0.4161  0.2994
  687TMC3    C810168   1.191   2.088  15.978 -0.4262  0.9327 -0.1502
  687TMC3    O110169   1.712   2.003  16.255  1.2897 -0.6683 -0.1334
  687TMC3    O210170   1.138   2.018  16.064  0.2431 -0.2347 -0.0146
  688MPD2     C10171   0.503   1.467  17.344 -0.1072 -0.3855 -0.4105
  688MPD2    C110172   0.572   1.343  17.348  0.3265  0.8036 -0.8668
  688MPD2    C210173   0.636   1.306  17.236  0.1214 -0.2580  0.6918
  688MPD2    C310174   0.649   1.384  17.122  0.4993  0.0094 -0.3798
  688MPD2    C410175   0.583   1.506  17.125 -0.6279 -0.0881  0.9840
  688MPD2    C510176   0.500   1.546  17.230 -0.0478 -0.1311 -0.1091
  688MPD2     H10177   0.690   1.212  17.238  0.2038 -0.2269 -0.1514
  688MPD2    H110178   0.598   1.575  17.043 -0.4815 -1.0362  0.2054
  688MPD2    H210179   0.439   1.500  17.424  1.1374  0.0700  0.3937
  688MPD2    H310180   0.441   1.635  17.210 -0.1734 -0.0917  0.4478
  688MPD2     N10181   0.728   1.343  17.007 -0.0902 -0.0916 -0.5147
  688MPD2    H510182   0.735   1.416  16.936  2.9433  1.9872  1.8984
  688MPD2    N110183   0.566   1.267  17.463  0.2158 -0.1653  0.2177
  688MPD2    H710184   0.618   1.180  17.462  1.6569  0.6785  0.7382
  689TMC3    C110185   0.569   1.235  17.703  0.3939  0.2086  0.3859
  689TMC3    C210186   0.612   1.299   0.115 -0.0439 -0.7816  0.3961
  689TMC3    C310187   0.652   1.226   0.221 -0.4729  0.2089  0.0142
  689TMC3    C410188   0.577   1.099  17.683 -0.2810  0.2427 -0.1738
  689TMC3    C510189   0.626   1.030   0.089 -0.0626 -0.0612 -0.7180
  689TMC3    C610190   0.663   1.093   0.205  0.0680 -0.6741  0.1352
  689TMC3     C10191   0.520   1.310  17.593 -0.6162 -0.0932  0.0832
  689TMC3     O10192   0.458   1.413  17.619  0.2550  0.0126 -0.4491
  689TMC3     H10193   0.626   1.406   0.130  1.2525 -0.7549 -1.0154
  689TMC3    H110194   0.557   1.052  17.587 -0.0334 -0.6283  0.1991
  689TMC3    H210195   0.696   1.035   0.290  1.1960 -0.5623 -0.2355
  689TMC3    C710196   0.617   0.888   0.083 -0.2730 -0.0248  0.6655
  689TMC3    C810197   0.699   1.277   0.347 -0.3230  0.3414 -0.2381
  689TMC3    O110198   0.687   0.823   0.158 -0.0302 -0.5629  0.1189
  689TMC3    O210199   0.754   1.198   0.418 -0.1190  0.5691 -0.4681
  690MPD2     C10200   2.634   2.951  15.663  0.2329  0.6973 -0.1828
  690MPD2    C110201   2.585   2.911  15.541 -0.1347  0.4347  0.0449
  690MPD2    C210202   2.661   2.931  15.427  0.3448 -0.4922  0.2289
  690MPD2    C310203   2.798   2.970  15.437 -0.2913 -0.2314 -0.0183
  690MPD2    C410204   2.848   3.001  15.564  0.2288 -1.0427 -0.8719
  690MPD2    C510205   2.767   2.985  15.667  0.0672  0.0679 -0.1741
  690MPD2     H10206   2.614   2.910  15.332  0.5161 -0.7120  0.1919
  690MPD2    H110207   2.945   3.048  15.576 -0.3645  0.1431 -0.7474
  690MPD2    H210208   2.576   2.944  15.754 -0.1070  0.0106 -0.4525
  690MPD2    H310209   2.805   3.023  15.761 -1.9128  0.6698  0.3992
  690MPD2     N10210   2.875   3.000  15.317  0.2276  0.1203  0.2341
  690MPD2    H510211   2.834   3.013  15.225 -0.1792 -1.4315  0.2045
  690MPD2    N110212   2.452   2.872  15.532  0.1393 -0.2599  0.4435
  690MPD2    H710213   2.420   2.826  15.447  0.2184  1.5389 -0.5571
  691TMC3    C110214   2.252   2.788  15.626  0.2597  0.0717  0.1266
  691TMC3    C210215   2.141   2.818  15.700 -1.1047 -0.2761 -0.4013
  691TMC3    C310216   2.082   2.719  15.768  0.3285  0.7132 -0.1807
  691TMC3    C410217   2.300   2.655  15.623 -0.3484  0.6895  0.5266
  691TMC3    C510218   2.232   2.557  15.684  0.1175  0.1351 -0.2932
  691TMC3    C610219   2.124   2.590  15.757 -0.4665  0.4365 -0.0542
  691TMC3     C10220   2.355   2.895  15.624  0.4125 -0.2899 -0.0166
  691TMC3     O10221   2.354   2.976  15.720  0.2736 -0.1095  0.0338
  691TMC3     H10222   2.109   2.920  15.716  3.2441  0.4993  3.3831
  691TMC3    H110223   2.384   2.636  15.557 -0.4015 -0.7817  0.8844
  691TMC3    H210224   2.076   2.521  15.826  0.8744 -0.0142  0.4345
  691TMC3    C710225   2.287   2.419  15.682  0.5769  0.3385 -0.6494
  691TMC3    C810226   1.944   2.731  15.816  0.2552 -0.3120 -0.1228
  691TMC3    O110227   2.406   2.406  15.657 -0.0289  0.1138  0.1953
  691TMC3    O210228   1.892   2.628  15.856 -0.0442  0.2131 -0.4664
  692TMC3    C110229   4.189   4.320  16.150  0.0193 -0.6305 -0.6856
  692TMC3    C210230   4.311   4.323  16.217 -0.2111  0.0307 -0.0073
  692TMC3    C310231   4.322   4.222  16.312  0.8899  0.2684  0.1358
  692TMC3    C410232   4.109   4.208  16.157  0.6561  0.5719 -0.0836
  692TMC3    C510233   4.133   4.099  16.236 -0.0242  0.2557 -0.7961
  692TMC3    C610234   4.244   4.108  16.320  0.4412  0.0801  0.3292
  692TMC3     C10235   4.125   4.449  16.129 -0.3086  0.1232 -0.2680
  692TMC3     O10236   4.008   4.446  16.093 -0.0816  0.6473  0.0340
  692TMC3     H10237   4.387   4.395  16.188  1.1297 -0.5433  2.0751
  692TMC3    H110238   4.029   4.207  16.083 -0.6564  1.3386  1.3306
  692TMC3    H210239   4.238   4.067  16.420 -0.2979  0.8477  0.6075
  692TMC3    C710240   4.137   3.974  16.164 -0.8749 -0.1261 -0.3174
  692TMC3    C810241   4.455   4.206  16.383 -0.2108 -0.3707  1.0160
  692TMC3    O110242   4.074   3.966  16.058 -0.3662  0.0264 -0.5834
  692TMC3    O210243   4.487   4.088  16.391  0.6933  0.3228  0.0827
  693MPD2     C10244   3.706   2.326  10.535  0.0234  0.3280 -0.4555
  693MPD2    C110245   3.680   2.306  10.673  0.6769  0.0397  0.3528
  693MPD2    C210246   3.790   2.274  10.757 -0.1428 -0.5814 -0.3536
  693MPD2    C310247   3.912   2.266  10.702 -0.0812  0.2418  0.3187
  693MPD2    C410248   3.936   2.287  10.571 -0.3839 -0.8238  0.2095
  693MPD2    C510249   3.838   2.311  10.488 -0.4147  0.7123  0.1275
  693MPD2     H10250   3.781   2.243  10.860  0.6542  0.4469  0.0311
  693MPD2    H110251   4.035   2.281  10.528 -0.6227  3.7352 -1.0358
  693MPD2    H210252   3.623   2.359  10.473 -1.7001 -1.8522  0.6770
  693MPD2    H310253   3.859   2.314  10.381  0.8895  0.2074  0.3686
  693MPD2     N10254   4.027   2.228  10.774 -0.0446  0.1700  0.5903
  693MPD2    H510255   4.114   2.237  10.723  0.9715 -0.9947  2.0823
  693MPD2    N110256   3.553   2.321  10.724  0.2968 -0.1013  0.1217
  693MPD2    H710257   3.477   2.320  10.656  0.4638  1.3178 -0.0915
  694TMC3    C110258   3.380   2.347  10.881 -0.4915  0.3012 -0.4936
  694TMC3    C210259   3.304   2.269  10.803 -0.4260  0.8119  0.0314
  694TMC3    C310260   3.205   2.183  10.863 -0.0506  0.7695 -0.0962
  694TMC3    C410261   3.364   2.354  11.016 -0.5971  0.2625  0.7443
  694TMC3    C510262   3.267   2.276  11.071  0.3283 -0.8000 -0.0205
  694TMC3    C610263   3.189   2.192  10.996  0.1307 -0.4244 -0.3357
  694TMC3     C10264   3.520   2.357  10.850 -0.8709 -0.6629 -0.2444
  694TMC3     O10265   3.600   2.394  10.943  0.0527  0.2882 -0.3549
  694TMC3     H10266   3.322   2.270  10.696 -1.0589  1.3563 -0.0642
  694TMC3    H110267   3.426   2.416  11.080  3.8378 -0.8024 -2.5566
  694TMC3    H210268   3.105   2.135  11.035  0.7593 -0.8830  0.3410
  694TMC3    C710269   3.268   2.264  11.210 -0.4602 -0.2814 -0.1872
  694TMC3    C810270   3.125   2.087  10.781 -0.6888 -0.3000 -0.3844
  694TMC3    O110271   3.287   2.367  11.272  0.0497 -0.1291 -0.0896
  694TMC3    O210272   3.094   1.981  10.838 -0.1966 -0.3119 -0.0604
  695MPD2     C10273   4.663   3.762  13.617  0.1414 -0.9339  0.0891
  695MPD2    C110274   4.593   3.784  13.732  0.4602  1.2565  0.3341
  695MPD2    C210275   4.456   3.801  13.719 -0.5669 -0.4101 -0.2115
  695MPD2    C310276   4.386   3.798  13.600  0.4519  0.3954 -0.2355
  695MPD2    C410277   4.465   3.783  13.488  0.0971 -0.8845 -0.4201
  695MPD2    C510278   4.595   3.755  13.501 -0.4540 -0.4926 -0.2709
  695MPD2     H10279   4.400   3.815  13.811  0.2090 -0.7581  0.3221
  695MPD2    H110280   4.417   3.777  13.391 -0.6589 -0.5257 -0.0733
  695MPD2    H210281   0.045   3.747  13.614  0.4262  1.4417 -1.5126
  695MPD2    H310282   4.655   3.737  13.412 -0.9950 -2.4892 -0.2465
  695MPD2     N10283   4.248   3.821  13.599  0.0302  0.3067 -0.1705
  695MPD2    H510284   4.217   3.839  13.694  1.9407 -0.6915  0.6560
  695MPD2    N110285   4.650   3.787  13.863 -0.1109 -0.2271 -0.2028
  695MPD2    H710286   4.586   3.791  13.941  1.3010 -0.2170  0.9523
  696TMC3    C110287   4.035   3.866  13.508  0.0901  0.1532 -0.1770
  696TMC3    C210288   3.989   3.862  13.640  0.3958  0.0704 -0.0237
  696TMC3    C310289   3.878   3.936  13.664  0.0624 -0.3660 -1.2895
  696TMC3    C410290   3.989   3.961  13.419 -0.4056  0.2366 -0.2091
  696TMC3    C510291   3.894   4.046  13.458  0.6464  0.2862  0.4737
  696TMC3    C610292   3.844   4.035  13.581 -0.0922  0.1937 -0.1341
  696TMC3     C10293   4.175   3.835  13.486 -0.3417  0.0777 -0.2726
  696TMC3     O10294   4.216   3.835  13.369 -0.0865 -0.7152 -0.4119
  696TMC3     H10295   4.033   3.797  13.715  0.3699 -0.2697 -0.3022
  696TMC3    H110296   4.029   3.972  13.318  2.1943 -0.3547  0.7470
  696TMC3    H210297   3.758   4.096  13.608  0.7066  1.1210  0.3078
  696TMC3    C710298   3.896   4.174  13.389  0.2007  0.5080 -0.2987
  696TMC3    C810299   3.852   3.973  13.806 -0.3457  0.2795  0.0675
  696TMC3    O110300   3.907   4.175  13.266  0.1258 -0.1246  0.5171
  696TMC3    O210301   3.810   4.086  13.833 -0.5350 -0.1872  0.6311
  697MPD2     C10302   4.071   0.620  15.971  0.6350 -0.1418  0.2373
  697MPD2    C110303   4.018   0.643  15.852 -0.1680 -1.0471  0.4518
  697MPD2    C210304   4.058   0.755  15.782 -0.2711  0.4106  0.1603
  697MPD2    C310305   4.159   0.840  15.826 -0.5680  0.0191  0.3048
  697MPD2    C410306   4.226   0.808  15.946 -0.5979  0.4654  0.4707
  697MPD2    C510307   4.174   0.704  16.014  0.3023 -0.4451  0.5385
  697MPD2     H10308   4.029   0.768  15.679 -1.4539 -5.1985 -0.2392
  697MPD2    H110309   4.313   0.856  15.990 -0.0616  0.0092 -0.0960
  697MPD2    H210310   4.045   0.539  16.038 -2.7442 -0.1690 -1.0984
  697MPD2    H310311   4.211   0.697  16.116 -2.1130  0.9187  1.5293
  697MPD2     N10312   4.207   0.944  15.739 -0.3788  1.0546  0.1841
  697MPD2    H510313   4.143   0.955  15.660  0.2596  0.7113 -0.3860
  697MPD2    N110314   3.940   0.550  15.785 -0.6452  0.1602  0.2439
  697MPD2    H710315   3.904   0.562  15.691 -0.0975 -0.4796 -0.0434
  698TMC3    C110316   4.366   1.083  15.627  0.2749  0.2859 -0.1540
  698TMC3    C210317   4.490   1.148  15.645 -0.2730 -0.5888  0.1519
  698TMC3    C310318   4.543   1.196  15.527  0.1921 -0.2153 -0.6737
  698TMC3    C410319   4.301   1.072  15.509 -0.5567 -0.2597 -0.6169
  698TMC3    C510320   4.354   1.130  15.409 -0.2218  0.4724 -0.6057
  698TMC3    C610321   4.478   1.193  15.411  0.2275  0.4283 -0.0375
  698TMC3     C10322   4.325   1.014  15.750  0.7263 -0.4305 -0.0886
  698TMC3     O10323   4.403   1.022  15.840 -0.3359 -0.0984  0.1720
  698TMC3     H10324   4.555   1.144  15.732 -1.2102  2.7318  0.9926
  698TMC3    H110325   4.207   1.020  15.495 -0.1470 -0.3039 -3.1016
  698TMC3    H210326   4.534   1.212  15.320 -0.1200  1.0236 -0.1234
  698TMC3    C710327   4.298   1.065  15.290  0.4348 -0.0201 -0.8264
  698TMC3    C810328   4.682   1.228  15.526 -0.1054  0.0377 -0.2702
  698TMC3    O110329   4.174   1.051  15.289 -0.4404  0.0373 -0.3310
  698TMC3    O210330   0.025   1.151  15.592 -0.2176  0.1065 -0.2048
  699TMC3    C110331   4.047   3.787  13.089  0.5803  0.2648  0.8170
  699TMC3    C210332   4.078   3.671  13.158  0.4949 -0.0960 -0.6702
  699TMC3    C310333   3.977   3.586  13.199 -0.2174  0.1267 -0.0427
  699TMC3    C410334   3.916   3.810  13.059  0.0183 -0.7357  0.2689
  699TMC3    C510335   3.817   3.717  13.080 -0.1138  0.0643  0.1797
  699TMC3    C610336   3.847   3.605  13.153 -0.6775 -0.4002 -0.1294
  699TMC3     C10337   4.141   3.861  13.006 -0.1764 -0.1907 -0.6687
  699TMC3     O10338   4.098   3.919  12.904  0.1731 -0.4114  0.3769
  699TMC3     H10339   4.180   3.648  13.189  0.8247  2.0703 -0.1254
  699TMC3    H110340   3.894   3.910  13.024 -0.7485 -0.6219  1.0503
  699TMC3    H210341   3.772   3.529  13.175 -0.3208 -0.5172  0.6956
  699TMC3    C710342   3.680   3.758  13.072 -0.5852 -0.4660  0.3186
  699TMC3    C810343   3.981   3.540  13.336  0.1920 -0.6501 -0.3403
  699TMC3    O110344   3.604   3.708  13.151  0.0897  0.2650  0.1578
  699TMC3    O210345   3.872   3.526  13.381  1.0214  0.3822  0.1014
  700TMC3    C110346   3.242   1.996  17.537 -0.1838 -0.0100  0.1793
  700TMC3    C210347   3.312   1.878  17.546 -0.1794 -0.4362  0.2125
  700TMC3    C310348   3.418   1.871  17.629 -0.0322 -0.3278 -0.3554
  700TMC3    C410349   3.274   2.109  17.610  0.1932 -0.7998 -0.3054
  700TMC3    C510350   3.372   2.088   0.003 -0.2979  0.0943  0.0046
  700TMC3    C610351   3.452   1.976   0.005 -0.4295  0.4344 -0.2517
  700TMC3     C10352   3.165   2.012  17.410  0.5381 -0.2062 -0.2982
  700TMC3     O10353   3.101   1.919  17.357  0.1530 -0.3531 -0.0439
  700TMC3     H10354   3.285   1.803  17.472  0.2100 -1.0414  0.6825
  700TMC3    H110355   3.227   2.206  17.598 -0.8700 -1.3396 -0.5035
  700TMC3    H210356   3.543   1.966   0.062  0.4289  1.7594 -1.4031
  700TMC3    C710357   3.421   2.207   0.064 -0.2985 -0.6449 -0.1247
  700TMC3    C810358   3.518   1.774  17.583  0.1365 -0.3856  0.3294
  700TMC3    O110359   3.376   2.313   0.023  0.2269  0.4040 -0.0226
  700TMC3    O210360   3.525   1.764  17.462 -0.3369  0.2397  0.0773
  701TMC3    C110361   3.051   0.311  15.553  0.0590  0.0702  0.3897
  701TMC3    C210362   3.077   0.232  15.443 -0.2547  0.6743 -0.2110
  701TMC3    C310363   3.198   0.235  15.375 -0.6577  0.1484  0.1511
  701TMC3    C410364   3.148   0.376  15.621 -0.0628  0.2612 -0.1038
  701TMC3    C510365   3.268   0.368  15.556 -0.7756  0.1718 -0.5362
  701TMC3    C610366   3.301   0.292  15.444 -0.0468 -0.0285 -0.0171
  701TMC3     C10367   2.934   0.285  15.631  0.3713 -0.1243  0.4441
  701TMC3     O10368   2.847   0.201  15.602  0.1821 -0.3624 -0.4854
  701TMC3     H10369   2.994   0.180  15.397 -0.1773 -1.8180  2.4694
  701TMC3    H110370   3.141   0.453  15.698  1.0685 -0.7122  0.9610
  701TMC3    H210371   3.404   0.295  15.411  0.6626 -1.3663  2.1081
  701TMC3    C710372   3.385   0.409  15.618  0.0131  0.1292 -0.4534
  701TMC3    C810373   3.229   0.132  15.272  0.5081  0.2337  0.6601
  701TMC3    O110374   3.472   0.469  15.552 -0.2369 -0.0548 -0.5467
  701TMC3    O210375   3.338   0.079  15.288  0.2956  0.4042 -0.2264
  702MPD2     C10376   2.724   2.437  10.228 -0.2046 -0.2467  0.0099
  702MPD2    C110377   2.795   2.526  10.296  0.2230  0.0519  0.2524
  702MPD2    C210378   2.860   2.634  10.231 -0.2029  0.6138  0.2236
  702MPD2    C310379   2.854   2.651  10.099  0.6096  0.6908 -0.4207
  702MPD2    C410380   2.771   2.566  10.030 -0.4758  0.0369  0.2755
  702MPD2    C510381   2.712   2.466  10.096  0.3359  0.2010  0.2036
  702MPD2     H10382   2.927   2.703  10.282  2.4763 -1.8065 -0.0675
  702MPD2    H110383   2.765   2.566   9.922 -0.6326  1.6442  0.2822
  702MPD2    H210384   2.662   2.358  10.268 -0.3933  0.7151  1.5842
  702MPD2    H310385   2.648   2.408  10.030  1.6191 -0.8701 -0.1151
  702MPD2     N10386   2.931   2.749  10.027 -0.0035  0.8082 -0.6567
  702MPD2    H510387   2.891   2.767   9.936  1.1130  2.3016 -0.8453
  702MPD2    N110388   2.801   2.512  10.438  1.0320  0.8037 -0.1699
  702MPD2    H710389   2.857   2.582  10.484  1.8310 -1.6607  2.6431
  703TMC3    C110390   3.069   2.936   9.984 -0.5501 -0.1486  0.0447
  703TMC3    C210391   2.975   3.007   9.911 -0.1757  0.2609 -0.0563
  703TMC3    C310392   3.001   3.128   9.862  0.4376 -0.3562 -0.0351
  703TMC3    C410393   3.195   2.993  10.001 -0.4127  0.7526  0.2157
  703TMC3    C510394   3.222   3.112   9.934 -0.3404 -0.5613  0.9692
  703TMC3    C610395   3.119   3.193   9.885 -0.0952  0.2962  0.4127
  703TMC3     C10396   3.012   2.844  10.082 -0.4315 -0.4144 -0.5681
  703TMC3     O10397   3.079   2.827  10.183  0.1089 -0.5634 -0.5250
  703TMC3     H10398   2.882   2.954   9.895  0.5860 -1.5368  1.4451
  703TMC3    H110399   3.269   2.931  10.050 -0.5201  0.5878  0.1661
  703TMC3    H210400   3.132   3.289   9.837 -1.5347  0.8075  1.0730
  703TMC3    C710401   3.349   3.183   9.949  0.0719 -1.0365  0.2665
  703TMC3    C810402   2.887   3.227   9.848  0.4361 -0.4493 -1.0293
  703TMC3    O110403   3.350   3.307   9.935 -0.3208 -0.1482  0.0074
  703TMC3    O210404   2.909   3.338   9.800 -0.0231 -0.1715 -0.1267
  704TMC3    C110405   0.542   0.865  12.794  0.2887  0.7054  0.3890
  704TMC3    C210406   0.647   0.910  12.717 -0.3914 -0.3821 -0.2538
  704TMC3    C310407   0.771   0.866  12.750  0.4412 -0.2997 -0.0125
  704TMC3    C410408   0.566   0.788  12.903 -0.4515 -0.2806  0.4715
  704TMC3    C510409   0.689   0.731  12.918 -1.0368  0.4210 -0.8560
  704TMC3    C610410   0.793   0.778  12.851 -0.1417 -0.1577 -0.5412
  704TMC3     C10411   0.410   0.859  12.737 -0.3207  0.0426  0.6108
  704TMC3     O10412   0.310   0.876  12.806 -0.2087  0.6663  0.3935
  704TMC3     H10413   0.624   0.968  12.628 -2.3484 -0.3432  0.2827
  704TMC3    H110414   0.473   0.750  12.944 -0.5276 -0.1439  0.4254
  704TMC3    H210415   0.891   0.735  12.863 -0.9195 -1.1625  2.2133
  704TMC3    C710416   0.670   0.588  12.916 -0.6175 -1.0547  0.0225
  704TMC3    C810417   0.862   0.873  12.647 -0.5796 -0.4707  0.4420
  704TMC3    O110418   0.723   0.534  12.817  0.0548  0.1546 -0.2594
  704TMC3    O210419   0.821   0.908  12.539 -0.1488  0.6296 -0.1682
  705MPD2     C10420   0.024   3.998  16.814  0.5454 -0.3120 -0.3349
  705MPD2    C110421   4.663   4.025  16.709  0.6215 -0.1633  0.4326
  705MPD2    C210422   4.557   4.108  16.730 -0.7582  0.0420  0.1084
  705MPD2    C310423   4.515   4.137  16.855 -0.0433  0.9128  0.6151
  705MPD2    C410424   4.597   4.111  16.959  0.0313  0.3639 -0.1969
  705MPD2    C510425   4.720   4.058  16.933  0.0716 -0.4724  0.3393
  705MPD2     H10426   4.499   4.152  16.650 -0.8873 -2.2823 -1.0583
  705MPD2    H110427   4.560   4.130  17.059  0.0408 -0.4877 -0.0305
  705MPD2    H210428   0.121   3.962  16.781 -0.0186 -1.1907 -1.0404
  705MPD2    H310429   0.056   4.032  17.019 -1.7980 -0.6154  1.6387
  705MPD2     N10430   4.404   4.216  16.876  0.2837 -0.3418 -0.1715
  705MPD2    H510431   4.391   4.271  16.961 -2.4664 -0.1554 -0.7057
  705MPD2    N110432   4.687   3.990  16.577 -0.1125  0.0154 -0.5372
  705MPD2    H710433   4.622   4.028  16.508 -0.1716  0.0892 -0.4399
  706TMC3    C110434   0.038   3.767  16.190  0.7578 -0.0702 -0.6289
  706TMC3    C210435   4.724   3.879  16.114  0.5679 -0.1603 -0.2886
  706TMC3    C310436   4.718   3.996  16.182  0.7045 -0.2588 -0.0519
  706TMC3    C410437   0.056   3.777  16.327  0.1700 -0.1082  0.4667
  706TMC3    C510438   0.054   3.894  16.387  0.7305 -0.4379 -0.2157
  706TMC3    C610439   0.026   4.010  16.313  0.7844  0.0305  0.2117
  706TMC3     C10440   0.092   3.642  16.129  0.3314  0.0370 -0.4868
  706TMC3     O10441   0.125   3.554  16.208  0.4613  0.1696  0.3409
  706TMC3     H10442   4.703   3.877  16.008  3.4629 -2.5833 -0.8229
  706TMC3    H110443   0.069   3.687  16.386  1.7195  1.8954  3.1942
  706TMC3    H210444   0.008   4.106  16.360 -0.2446  0.2881 -0.7167
  706TMC3    C710445   0.056   3.898  16.529  0.7831  0.0521 -0.4042
  706TMC3    C810446   4.703   4.108  16.089  0.6881 -0.1942 -0.4857
  706TMC3    O110447   0.131   3.825  16.593 -0.1285  0.8449  0.2282
  706TMC3    O210448   4.628   4.091  15.996  0.3070  0.5106  0.4368
  707TMC3    C110449   1.433   3.080   1.290  0.0621  0.4828 -0.0792
  707TMC3    C210450   1.420   2.982   1.388 -0.4421 -0.0657 -0.0870
  707TMC3    C310451   1.338   3.007   1.493 -0.1072 -0.3439  0.5730
  707TMC3    C410452   1.357   3.197   1.295  0.2252 -0.7108 -0.8707
  707TMC3    C510453   1.270   3.208   1.397  0.2074 -0.2874 -0.8288
  707TMC3    C610454   1.268   3.125   1.507 -0.1499 -0.1188 -0.1247
  707TMC3     C10455   1.542   3.054   1.195  0.3082 -1.3209 -0.1100
  707TMC3     O10456   1.601   2.947   1.208 -0.2027  0.3024 -0.3569
  707TMC3     H10457   1.470   2.887   1.377 -2.1297 -0.6512 -2.7268
  707TMC3    H110458   1.363   3.269   1.215 -0.1841 -0.6794 -0.8730
  707TMC3    H210459   1.217   3.156   1.597 -1.3190  3.2345 -1.9302
  707TMC3    C710460   1.211   3.342   1.392 -0.0984  0.8704 -0.0743
  707TMC3    C810461   1.345   2.928   1.613  0.5197 -0.1256 -0.1627
  707TMC3    O110462   1.273   3.432   1.335  0.8284  0.3367  0.0493
  707TMC3    O210463   1.320   2.999   1.711  0.2257  0.2339 -0.1166
  708MPD2     C10464   3.393   1.913  13.964  0.1978 -0.0642  0.2466
  708MPD2    C110465   3.279   1.991  13.950  0.2893 -0.3034 -0.2018
  708MPD2    C210466   3.164   1.968  14.031 -0.0920  0.3216  0.8556
  708MPD2    C310467   3.157   1.858  14.117  0.6252 -0.3857 -0.0893
  708MPD2    C410468   3.267   1.778  14.114  0.1578  0.1461 -0.8068
  708MPD2    C510469   3.381   1.804  14.043  0.6491  0.5690 -0.2844
  708MPD2     H10470   3.075   2.029  14.019  1.2207  2.0093 -0.3621
  708MPD2    H110471   3.257   1.685  14.169  3.0120  0.7991  0.8120
  708MPD2    H210472   3.484   1.918  13.905 -0.0086 -0.8530 -0.1320
  708MPD2    H310473   3.473   1.749  14.054  0.5048  0.5056  0.5797
  708MPD2     N10474   3.046   1.836  14.199 -0.0241  0.2517 -0.2357
  708MPD2    H510475   3.074   1.774  14.275  0.7964  0.8767 -0.0260
  708MPD2    N110476   3.287   2.112  13.871  0.4609 -0.0374  0.0763
  708MPD2    H710477   3.382   2.124  13.835  0.8120  0.0816  1.0310
  709TMC3    C110478   3.229   2.331  13.776 -0.4965 -0.4828  0.3702
  709TMC3    C210479   3.235   2.295  13.645 -0.1067  0.4376 -0.0952
  709TMC3    C310480   3.159   2.371  13.553 -0.1308 -0.1611 -0.3054
  709TMC3    C410481   3.146   2.431  13.819 -0.1879 -0.0611 -0.3700
  709TMC3    C510482   3.056   2.491  13.725 -0.4266 -0.6938 -0.7327
  709TMC3    C610483   3.064   2.464  13.591 -0.2052  0.1459 -0.1740
  709TMC3     C10484   3.193   2.214  13.847 -0.3940  0.7911 -0.5470
  709TMC3     O10485   3.072   2.208  13.874  0.3199  0.1525 -0.5113
  709TMC3     H10486   3.286   2.203  13.617  0.3552  1.2392 -1.9421
  709TMC3    H110487   3.145   2.449  13.925  4.2356 -1.0187 -0.1609
  709TMC3    H210488   2.987   2.501  13.525 -0.3182  0.0179 -0.1129
  709TMC3    C710489   2.928   2.519  13.781 -0.0627  0.3490 -0.4789
  709TMC3    C810490   3.165   2.339  13.406 -0.3983  0.1683 -0.4007
  709TMC3    O110491   2.863   2.607  13.724 -0.1961  0.0951 -0.3442
  709TMC3    O210492   3.124   2.423  13.327  0.6145 -0.2741  0.3675
  710TMC3    C110493   3.723   3.793   0.273 -0.6958 -0.3948  0.4839
  710TMC3    C210494   3.827   3.824   0.183  0.2021 -0.8610  0.0002
  710TMC3    C310495   3.935   3.737   0.193  0.1403 -0.0772  0.1098
  710TMC3    C410496   3.725   3.688   0.366  0.6614 -0.9670 -0.4076
  710TMC3    C510497   3.835   3.604   0.364 -0.0324  0.6992  0.3727
  710TMC3    C610498   3.938   3.627   0.275 -0.0108 -0.9578  0.0212
  710TMC3     C10499   3.630   3.907   0.302  0.6280  0.1077 -0.0387
  710TMC3     O10500   3.604   3.983   0.211 -0.1053  0.3714 -0.8508
  710TMC3     H10501   3.822   3.908   0.114 -0.0219 -0.5981  0.3350
  710TMC3    H110502   3.644   3.667   0.435  0.5534 -2.3730 -0.9679
  710TMC3    H210503   4.017   3.553   0.279  0.5833 -0.4083 -1.7565
  710TMC3    C710504   3.857   3.511   0.468  0.7919  0.4964 -0.7261
  710TMC3    C810505   4.031   3.740   0.087  0.4799 -0.6319 -0.3665
  710TMC3    O110506   3.972   3.487   0.492 -0.1359  0.3073 -0.4555
  710TMC3    O210507   4.071   3.846   0.036 -0.1824 -0.6359  0.2927
  711TMC3    C110508   3.635   4.390  15.022  0.1618 -0.1498  0.2345
  711TMC3    C210509   3.610   4.304  15.124 -0.1088  0.0505  1.0132
  711TMC3    C310510   3.718   4.265  15.200 -0.2780  0.3588  0.3061
  711TMC3    C410511   3.754   4.462  15.011  0.4298 -0.0788 -0.3472
  711TMC3    C510512   3.856   4.422  15.094 -0.0912  0.0290 -0.1169
  711TMC3    C610513   3.842   4.322  15.182 -0.6352 -0.1912 -1.0286
  711TMC3     C10514   3.558   4.374  14.904 -0.5006  0.2665  0.2620
  711TMC3     O10515   3.502   4.270  14.887 -0.1979 -0.2307  0.6112
  711TMC3     H10516   3.515   4.252  15.129 -0.5900  0.7238 -1.3501
  711TMC3    H110517   3.772   4.538  14.936 -0.2330  0.2027 -0.2229
  711TMC3    H210518   3.919   4.300  15.255  0.1007 -0.6366 -1.9277
  711TMC3    C710519   3.943   4.522  15.140 -0.0827  0.2940 -0.1649
  711TMC3    C810520   3.684   4.253  15.340 -0.0217  0.6051  0.0089
  711TMC3    O110521   3.945   4.543  15.261  0.2543 -0.3342 -0.0461
  711TMC3    O210522   3.583   4.191  15.373 -0.4892 -1.0953 -0.0911
  712MPD2     C10523   1.035   0.892  14.138 -0.2124  0.4683  0.3200
  712MPD2    C110524   0.926   0.875  14.057 -0.3401 -0.4274 -0.1811
  712MPD2    C210525   0.902   0.969  13.958  0.2303  0.6328  0.6513
  712MPD2    C310526   0.985   1.082  13.938 -0.8867 -0.6682  0.8997
  712MPD2    C410527   1.097   1.087  14.013  0.2224  0.2405 -0.4806
  712MPD2    C510528   1.120   0.995  14.118  0.1752 -0.4833 -0.6451
  712MPD2     H10529   0.818   0.944  13.894  1.6018 -1.5804 -0.2511
  712MPD2    H110530   1.174   1.161  13.998 -1.0460  1.6889  0.2586
  712MPD2    H210531   1.055   0.835  14.228 -1.0783  0.5259  0.5523
  712MPD2    H310532   1.203   1.012  14.185  1.0192  0.3311 -1.8957
  712MPD2     N10533   0.967   1.186  13.843  0.0916  0.0760 -0.0470
  712MPD2    H510534   1.048   1.246  13.830  0.2487  0.6472  3.5714
  712MPD2    N110535   0.839   0.757  14.061  0.0542  0.1347 -0.6391
  712MPD2    H710536   0.762   0.761  13.995  1.1815 -4.1937 -2.2546
  713TMC3    C110537   0.853   1.317  13.686 -0.4381  0.4223 -1.1790
  713TMC3    C210538   0.959   1.382  13.631  0.8174  0.0881 -0.5701
  713TMC3    C310539   0.924   1.480  13.543 -0.1792  0.8456  0.0906
  713TMC3    C410540   0.718   1.353  13.667  0.6247  0.4316  0.1790
  713TMC3    C510541   0.691   1.456  13.581  0.2315 -0.1900 -0.4848
  713TMC3    C610542   0.789   1.508  13.511  0.7695  0.1352  0.0206
  713TMC3     C10543   0.865   1.196  13.754 -0.0339 -0.4787  0.2109
  713TMC3     O10544   0.763   1.127  13.750  0.0097 -0.2820  0.1847
  713TMC3     H10545   1.061   1.350  13.647  1.2006  2.0175  0.8668
  713TMC3    H110546   0.644   1.303  13.728  1.8178 -2.6780 -0.8976
  713TMC3    H210547   0.762   1.584  13.439  1.3304  1.3275  1.0673
  713TMC3    C710548   0.555   1.497  13.561 -0.0213  0.3502  0.5903
  713TMC3    C810549   1.023   1.571  13.482 -0.2520 -0.3099 -0.7970
  713TMC3    O110550   0.469   1.411  13.561  0.0238 -0.2670 -0.1067
  713TMC3    O210551   0.996   1.641  13.386 -0.5900  0.0382  0.4815
  714MPD2     C10552   2.447   4.402   1.946 -0.4013 -0.1841  0.2596
  714MPD2    C110553   2.458   4.361   1.822  0.6099  0.6648 -0.1638
  714MPD2    C210554   2.360   4.390   1.724 -0.5739  0.3340 -0.3684
  714MPD2    C310555   2.263   4.479   1.758  0.2381 -0.1224 -0.3929
  714MPD2    C410556   2.259   4.530   1.883  0.2419  0.9033 -1.0400
  714MPD2    C510557   2.342   4.482   1.977 -0.3168 -0.2587  0.0282
  714MPD2     H10558   2.372   4.358   1.621  1.2508 -0.2436  0.0152
  714MPD2    H110559   2.180   4.592   1.923 -0.2571 -0.2812 -0.2109
  714MPD2    H210560   2.515   4.383   2.028  1.3007  0.9420 -0.8882
  714MPD2    H310561   2.340   4.529   2.074 -0.1963 -0.4154  0.1055
  714MPD2     N10562   2.172   4.515   1.656  0.3173 -0.0130 -0.2585
  714MPD2    H510563   2.178   4.471   1.565  2.6500 -2.0073  0.8529
  714MPD2    N110564   2.572   4.278   1.798  0.5437  0.1299 -0.1825
  714MPD2    H710565   2.649   4.278   1.865 -0.6323  2.3970  1.1379
  715TMC3    C110566   2.723   4.149   1.650 -0.1953  0.6102  0.0139
  715TMC3    C210567   2.727   4.052   1.552 -0.3078  0.4003  0.1407
  715TMC3    C310568   2.849   3.991   1.528  0.4839 -0.0579  0.1107
  715TMC3    C410569   2.839   4.195   1.704  0.0176  0.4509  0.6934
  715TMC3    C510570   2.954   4.137   1.674 -0.2852 -0.2852 -0.4137
  715TMC3    C610571   2.963   4.025   1.601 -1.0440  0.2293 -0.0202
  715TMC3     C10572   2.591   4.199   1.681  0.3030  0.7880 -0.3372
  715TMC3     O10573   2.499   4.166   1.604  0.1841  0.2324  0.0591
  715TMC3     H10574   2.629   4.025   1.516 -0.2858  0.5790 -0.0553
  715TMC3    H110575   2.835   4.267   1.785  0.0894  0.2146  0.9060
  715TMC3    H210576   3.063   3.991   1.579 -0.3857  1.4641  1.0788
  715TMC3    C710577   3.073   4.162   1.761  0.2323 -0.7374 -0.5862
  715TMC3    C810578   2.858   3.894   1.415  0.8243 -0.1593  0.3907
  715TMC3    O110579   3.151   4.066   1.775 -0.2255  1.1395 -0.6484
  715TMC3    O210580   2.766   3.899   1.334 -0.4522 -0.0198  0.4726
  716MPD2     C10581   2.036   2.361   9.381  0.0645  1.3077 -0.1902
  716MPD2    C110582   1.903   2.353   9.378 -0.9959 -0.8122  0.0025
  716MPD2    C210583   1.847   2.225   9.370 -0.0442 -0.1714 -0.6951
  716MPD2    C310584   1.928   2.112   9.368 -0.0398 -0.2228 -0.7458
  716MPD2    C410585   2.062   2.121   9.361 -0.2417 -0.4471  0.4427
  716MPD2    C510586   2.112   2.247   9.375 -0.4528  0.1340  0.2110
  716MPD2     H10587   1.739   2.214   9.366 -0.4024  2.8216  0.9326
  716MPD2    H110588   2.126   2.033   9.360 -2.0725 -1.8172  2.8363
  716MPD2    H210589   2.088   2.456   9.388  1.3402  0.6334 -0.4759
  716MPD2    H310590   2.219   2.253   9.388 -0.4029 -1.6384  0.5877
  716MPD2     N10591   1.861   1.989   9.366  0.3689  0.0610  0.1886
  716MPD2    H510592   1.762   2.005   9.348  0.1005  0.8362  2.3655
  716MPD2    N110593   1.832   2.474   9.374 -0.0294  0.1651 -0.2710
  716MPD2    H710594   1.880   2.562   9.390  2.0342 -1.0634  0.2873
  717TMC3    C110595   1.802   1.770   9.360  0.1464  0.4593 -0.6802
  717TMC3    C210596   1.670   1.818   9.372 -0.7801 -0.2923  0.1102
  717TMC3    C310597   1.562   1.731   9.365 -0.2581  0.1408  0.3723
  717TMC3    C410598   1.826   1.651   9.301 -0.4012  0.3900  0.0738
  717TMC3    C510599   1.717   1.567   9.281 -1.0118 -0.4279  0.2076
  717TMC3    C610600   1.590   1.605   9.314  0.4177 -0.2480 -0.5883
  717TMC3     C10601   1.908   1.861   9.351 -0.1172 -0.0335  0.8112
  717TMC3     O10602   2.023   1.824   9.330  0.1398 -0.3935  0.1082
  717TMC3     H10603   1.648   1.895   9.445  0.6722 -0.2646  0.5105
  717TMC3    H110604   1.922   1.629   9.256  0.7290  1.7181  1.8606
  717TMC3    H210605   1.511   1.540   9.279 -0.5543  0.2829  0.6151
  717TMC3    C710606   1.746   1.423   9.269  0.2197 -0.3999  0.0438
  717TMC3    C810607   1.438   1.800   9.337  0.1359 -0.5224  0.1039
  717TMC3    O110608   1.848   1.387   9.211 -0.0871  0.5539 -0.3398
  717TMC3    O210609   1.441   1.916   9.301  0.0321 -0.3381 -0.0818
  718MPD2     C10610   2.275   1.547  13.397 -0.9992  0.8630  0.3154
  718MPD2    C110611   2.363   1.467  13.322  0.0260  0.0324 -0.1980
  718MPD2    C210612   2.351   1.324  13.327 -0.0066 -0.4348  0.5669
  718MPD2    C310613   2.267   1.267  13.420 -0.1393  0.1382 -0.5222
  718MPD2    C410614   2.176   1.349  13.485  0.2311  0.5330 -0.0960
  718MPD2    C510615   2.184   1.486  13.483 -0.1587 -0.4989  0.0422
  718MPD2     H10616   2.398   1.265  13.250  3.1073  2.3597  0.3390
  718MPD2    H110617   2.108   1.292  13.547 -2.0325  1.5189 -1.6942
  718MPD2    H210618   2.270   1.656  13.389  0.1520  0.8849 -0.1293
  718MPD2    H310619   2.113   1.549  13.535 -2.6108 -1.5360 -2.0614
  718MPD2     N10620   2.260   1.123  13.434  0.2682  0.2128 -0.5471
  718MPD2    H510621   2.177   1.083  13.475 -0.7486  0.7792 -2.0552
  718MPD2    N110622   2.450   1.514  13.228 -0.1053 -0.4965 -0.2024
  718MPD2    H710623   2.498   1.445  13.170  1.8350  0.9904 -0.3734
  719TMC3    C110624   2.536   1.660  13.077 -0.5350  0.5198  0.5385
  719TMC3    C210625   2.620   1.554  13.044 -0.1733  0.2373 -0.0660
  719TMC3    C310626   2.624   1.518  12.912  0.2574 -0.7763  0.8398
  719TMC3    C410627   2.475   1.739  12.985 -0.0965 -0.6132 -0.0635
  719TMC3    C510628   2.485   1.705  12.853  0.1281  0.1188 -0.3514
  719TMC3    C610629   2.566   1.595  12.817 -0.1127  0.7531  0.5197
  719TMC3     C10630   2.476   1.646  13.201  0.4070  0.4298 -0.1122
  719TMC3     O10631   2.438   1.744  13.256  0.3092 -0.0550  0.3185
  719TMC3     H10632   2.660   1.496  13.126 -0.3438  0.5237  0.2207
  719TMC3    H110633   2.425   1.829  13.020  1.9279  0.0856  1.0199
  719TMC3    H210634   2.569   1.552  12.717 -1.1405  2.6960 -0.3602
  719TMC3    C710635   2.471   1.804  12.749  0.0440  0.0508 -0.3141
  719TMC3    C810636   2.584   1.379  12.914  0.0825 -0.7147  0.7260
  719TMC3    O110637   2.523   1.762  12.647 -0.1345  0.0712 -0.0605
  719TMC3    O210638   2.494   1.356  12.998  0.4495 -0.4219  0.2254
  720MPD2     C10639   0.020   2.921  14.122 -0.5543 -0.6997  1.0198
  720MPD2    C110640   0.113   2.935  14.016 -0.3262 -0.0099  0.7076
  720MPD2    C210641   0.232   2.874  14.023 -0.3164 -0.1676  0.2096
  720MPD2    C310642   0.264   2.802  14.134  0.4657 -0.3698 -0.2794
  720MPD2    C410643   0.170   2.768  14.233  0.3784  0.2181 -0.3146
  720MPD2    C510644   0.041   2.825  14.221 -0.6357 -0.1085  0.7799
  720MPD2     H10645   0.301   2.882  13.941 -1.2880 -0.0710 -0.5949
  720MPD2    H110646   0.180   2.705  14.320  1.1043  0.4923 -0.1992
  720MPD2    H210647   4.645   2.961  14.123 -0.2861 -0.0015 -0.1087
  720MPD2    H310648   4.687   2.795  14.288 -2.0577  0.4695 -0.6546
  720MPD2     N10649   0.401   2.762  14.141 -0.7563 -0.1949  0.1604
  720MPD2    H510650   0.454   2.811  14.069  2.3475 -0.7997  2.0572
  720MPD2    N110651   0.085   3.004  13.892  0.0235 -0.4979  0.2720
  720MPD2    H710652   0.159   3.000  13.823 -1.7648  0.5708 -1.6950
  721TMC3    C110653   0.609   2.705  14.221 -0.3985 -0.4374 -0.2148
  721TMC3    C210654   0.690   2.732  14.334 -0.3914 -0.1401 -0.4317
  721TMC3    C310655   0.826   2.743  14.331  0.8853  0.1786  0.2223
  721TMC3    C410656   0.664   2.714  14.098  0.1630  0.5184  0.0355
  721TMC3    C510657   0.799   2.727  14.093  0.5146  0.1703  0.0539
  721TMC3    C610658   0.883   2.755  14.205 -0.3843 -0.7710  0.8220
  721TMC3     C10659   0.463   2.698  14.243  0.1809 -0.2823  0.3260
  721TMC3     O10660   0.416   2.662  14.352  0.0968  0.0175  0.6540
  721TMC3     H10661   0.641   2.717  14.430 -3.5595  0.3028 -1.9624
  721TMC3    H110662   0.598   2.702  14.013 -0.5339  1.1571  0.4847
  721TMC3    H210663   0.987   2.782  14.196 -0.0204 -2.4233  0.1839
  721TMC3    C710664   0.864   2.738  13.968 -0.0714  0.3406 -0.4380
  721TMC3    C810665   0.920   2.684  14.431 -0.8314  0.9616  0.2162
  721TMC3    O110666   0.826   2.823  13.893 -0.0908 -0.7478  0.1961
  721TMC3    O210667   1.027   2.649  14.375 -0.0714 -0.5353  0.1729
  722MPD2     C10668   4.242   1.199  13.411  0.0305  0.2873  0.6453
  722MPD2    C110669   4.205   1.334  13.407  0.3543 -0.8161 -0.1512
  722MPD2    C210670   4.075   1.372  13.387  0.1631 -0.0032  0.7731
  722MPD2    C310671   3.974   1.273  13.392 -0.3761  0.2768 -0.4681
  722MPD2    C410672   4.009   1.142  13.405 -0.7718  0.5639 -0.2754
  722MPD2    C510673   4.138   1.108  13.408 -1.1045  0.0186 -0.5775
  722MPD2     H10674   4.051   1.477  13.398 -0.3984  0.2104 -2.5235
  722MPD2    H110675   3.944   1.055  13.401 -0.5235  0.3234  0.9124
  722MPD2    H210676   4.341   1.157  13.426  0.2599  0.4240 -0.5287
  722MPD2    H310677   4.159   1.002  13.421  0.2683  0.0977 -2.1731
  722MPD2     N10678   3.842   1.321  13.368 -0.7869  0.2214  0.1833
  722MPD2    H510679   3.816   1.417  13.348  1.6300  0.8672  0.2224
  722MPD2    N110680   4.296   1.441  13.408 -0.5463  0.2800 -0.3540
  722MPD2    H710681   4.268   1.536  13.385  1.5825  1.5629  2.2489
  723TMC3    C110682   3.617   1.340  13.345 -0.4663  0.7369 -0.6408
  723TMC3    C210683   3.504   1.290  13.399 -0.0335  0.6466  0.0226
  723TMC3    C310684   3.397   1.378  13.389  0.2546  0.3390  0.5876
  723TMC3    C410685   3.633   1.464  13.299  0.0690 -1.0814 -0.2222
  723TMC3    C510686   3.534   1.554  13.329 -0.3314 -0.1672  0.5892
  723TMC3    C610687   3.414   1.509  13.360 -0.0380 -0.1925  0.1431
  723TMC3     C10688   3.728   1.250  13.360 -0.7825  0.0334  0.2780
  723TMC3     O10689   3.700   1.136  13.395  0.1745  0.0331 -0.0674
  723TMC3     H10690   3.501   1.197  13.453  1.7414  1.1642  1.0098
  723TMC3    H110691   3.717   1.486  13.235 -0.0504 -1.2748 -0.4455
  723TMC3    H210692   3.341   1.584  13.385  0.8081  1.1474 -1.4228
  723TMC3    C710693   3.538   1.688  13.272 -0.1009  0.5183 -0.2245
  723TMC3    C810694   3.270   1.316  13.376  0.3872  0.2200 -0.2389
  723TMC3    O110695   3.436   1.759  13.279  0.7807  0.0610  0.3072
  723TMC3    O210696   3.182   1.400  13.384 -0.3605  0.4813  0.1080
  724TMC3    C110697   2.944   0.783   9.619  0.2042 -0.1264 -0.7652
  724TMC3    C210698   2.943   0.866   9.512 -0.0033  0.0989 -0.2941
  724TMC3    C310699   2.916   0.813   9.388 -0.0051 -0.8438 -0.3338
  724TMC3    C410700   2.913   0.650   9.604  0.4106  0.4471 -0.3753
  724TMC3    C510701   2.875   0.602   9.480  0.3733  0.1010  0.1978
  724TMC3    C610702   2.883   0.680   9.367 -0.5870  0.6050  1.0083
  724TMC3     C10703   2.976   0.824   9.751 -0.1459  0.3333  0.0745
  724TMC3     O10704   3.013   0.744   9.832  0.5608  0.8759  0.0141
  724TMC3     H10705   2.993   0.962   9.523 -0.7080  0.3363  0.7795
  724TMC3    H110706   2.906   0.578   9.685 -0.5559 -0.4314 -1.2434
  724TMC3    H210707   2.885   0.633   9.270 -2.1467  1.3707  0.6061
  724TMC3    C710708   2.903   0.463   9.450 -0.3101  0.3323 -0.0580
  724TMC3    C810709   2.963   0.870   9.258  0.2878  0.3595 -0.6236
  724TMC3    O110710   2.953   0.425   9.343  0.1381 -0.2701  0.0539
  724TMC3    O210711   2.901   0.844   9.156 -0.7500  0.1725 -0.2732
  725TMC3    C110712   0.763   3.364  12.671  0.1347  0.1170  0.5839
  725TMC3    C210713   0.696   3.401  12.563 -0.6606 -0.1607 -0.4590
  725TMC3    C310714   0.663   3.303  12.470 -0.3924  0.5631 -0.2833
  725TMC3    C410715   0.791   3.231  12.694  0.1925 -0.1329  0.4122
  725TMC3    C510716   0.756   3.142  12.601 -0.4875 -0.6092  0.5606
  725TMC3    C610717   0.690   3.178  12.495 -0.1248  0.2569 -0.2370
  725TMC3     C10718   0.778   3.455  12.785 -0.1667  0.5407 -0.6517
  725TMC3     O10719   0.772   3.572  12.759 -0.0944  0.3345 -0.2254
  725TMC3     H10720   0.666   3.504  12.548 -0.5802 -0.2256 -1.0506
  725TMC3    H110721   0.848   3.208  12.784  1.5595 -0.0573 -0.4305
  725TMC3    H210722   0.677   3.101  12.420 -0.5097 -0.2636  0.3661
  725TMC3    C710723   0.856   3.038  12.580 -0.3063 -0.5266 -0.4697
  725TMC3    C810724   0.633   3.344  12.339  0.2513  0.0581  0.5951
  725TMC3    O110725   0.858   2.984  12.469 -0.3186 -0.2021 -0.3153
  725TMC3    O210726   0.586   3.254  12.268  0.0872  0.1586 -0.0244
  726MPD2     C10727   4.296   0.053  10.243  0.0315  0.5810  0.6288
  726MPD2    C110728   4.165   0.069  10.208 -0.2897 -0.8991  0.5824
  726MPD2    C210729   4.084   4.686  10.241  1.1142  0.6955  0.1204
  726MPD2    C310730   4.128   4.576  10.315 -0.4667 -0.1494 -0.3746
  726MPD2    C410731   4.258   4.569  10.347 -0.0989  0.5705  0.3775
  726MPD2    C510732   4.345   4.669  10.306  0.2916 -1.0593 -0.0922
  726MPD2     H10733   3.980   4.699  10.212  1.1362 -1.6699 -1.0384
  726MPD2    H110734   4.298   4.483  10.401  1.7123 -0.0163 -1.9157
  726MPD2    H210735   4.373   0.128  10.228  1.1346 -1.1655 -2.3545
  726MPD2    H310736   4.452   4.659  10.321  0.4950  1.5944  0.2166
  726MPD2     N10737   4.046   4.484  10.376  0.3169  0.4497 -0.6057
  726MPD2    H510738   4.074   4.423  10.452  0.9917 -0.9992 -2.0364
  726MPD2    N110739   4.108   0.188  10.154  0.1326 -0.7448 -0.8881
  726MPD2    H710740   4.010   0.188  10.128 -0.3678  1.5848  0.9889
  727TMC3    C110741   4.099   0.421  10.123 -0.1266  0.2897  0.1172
  727TMC3    C210742   4.101   0.527  10.204 -0.6958  0.4826  0.3032
  727TMC3    C310743   4.040   0.642  10.167  0.4149 -0.4943 -0.3005
  727TMC3    C410744   4.018   0.415  10.016 -0.3122 -1.4200  0.0689
  727TMC3    C510745   3.961   0.530   9.983  0.3423 -0.3176 -0.7488
  727TMC3    C610746   3.957   0.649  10.059  0.3218 -0.0283 -0.1638
  727TMC3     C10747   4.182   0.308  10.151  0.0347 -0.1023  0.0360
  727TMC3     O10748   4.291   0.336  10.194  0.1481  0.7417 -0.1634
  727TMC3     H10749   4.163   0.521  10.293 -1.9248 -0.2876  1.1005
  727TMC3    H110750   4.027   0.325   9.956  2.7638  0.2891 -2.0252
  727TMC3    H210751   3.896   0.732  10.024  0.9706 -0.3455 -2.0964
  727TMC3    C710752   3.858   0.523   9.883 -0.4177  0.6110 -0.6980
  727TMC3    C810753   4.068   0.757  10.247  0.1289  0.1489  0.3252
  727TMC3    O110754   3.834   0.629   9.825  0.1297  0.1133 -0.6811
  727TMC3    O210755   4.078   0.725  10.365 -0.1166 -0.4043 -0.2482
  728TMC3    C110756   3.078   3.072  15.204  0.3351 -0.1716 -0.2573
  728TMC3    C210757   3.200   3.121  15.235 -0.1804 -0.5430  0.1718
  728TMC3    C310758   3.257   3.220  15.163  0.5179 -0.7996 -0.8182
  728TMC3    C410759   3.010   3.116  15.096 -0.2749 -0.2579  0.0511
  728TMC3    C510760   3.067   3.213  15.016 -0.1603  0.6236  0.6104
  728TMC3    C610761   3.189   3.272  15.051 -0.1160 -0.8272 -0.0753
  728TMC3     C10762   3.012   3.012  15.317  0.6501  0.3057 -0.0101
  728TMC3     O10763   3.085   2.958  15.400  0.3786 -0.3115  0.5109
  728TMC3     H10764   3.256   3.088  15.323  0.9662 -0.9991 -0.7262
  728TMC3    H110765   2.924   3.058  15.063 -0.7272  0.3390  0.1714
  728TMC3    H210766   3.232   3.350  14.988  0.5278 -1.0937  0.0299
  728TMC3    C710767   3.012   3.229  14.885 -0.0442  0.1829  0.0206
  728TMC3    C810768   3.375   3.295  15.207 -0.2420  0.1387 -0.5593
  728TMC3    O110769   2.919   3.156  14.852  0.2923  0.5200 -0.0097
  728TMC3    O210770   3.401   3.402  15.164  0.0528  0.3112  0.1076
  729MPD2     C10771   0.393   4.662  16.391 -0.0909 -0.0231  0.0228
  729MPD2    C110772   0.512   4.610  16.445  0.4371 -0.3955  0.0346
  729MPD2    C210773   0.502   4.568  16.578  0.0211  0.0003  0.5952
  729MPD2    C310774   0.382   4.577  16.649 -0.1626 -0.2338  0.0645
  729MPD2    C410775   0.265   4.618  16.591 -0.2312  0.0421  0.0798
  729MPD2    C510776   0.272   4.663  16.455 -0.5097 -0.1805  0.3806
  729MPD2     H10777   0.590   4.524  16.623  0.0405  1.3052  1.8358
  729MPD2    H110778   0.168   4.616  16.639 -1.8301  0.8052 -3.1432
  729MPD2    H210779   0.397   4.700  16.290 -1.1012  1.9144  0.7207
  729MPD2    H310780   0.188   4.714  16.410  1.5235  1.6894 -1.2307
  729MPD2     N10781   0.376   4.546  16.793 -0.0766 -0.0007  0.2606
  729MPD2    H510782   0.286   4.553  16.840 -0.2310  0.3006 -0.0768
  729MPD2    N110783   0.627   4.605  16.360  0.1178 -0.0309 -0.0505
  729MPD2    H710784   0.622   4.641  16.265  0.7770  0.7742  0.2146
  730TMC3    C110785   0.444   4.534  17.013  0.3504  0.4441 -0.0154
  730TMC3    C210786   0.521   4.463  17.102  0.8938 -0.2604  0.1085
  730TMC3    C310787   0.505   4.489  17.233  0.5322  0.2207 -0.1118
  730TMC3    C410788   0.369   4.645  17.041  0.1877 -0.2188 -0.4121
  730TMC3    C510789   0.385   4.684  17.173  0.3025  0.1979  0.1209
  730TMC3    C610790   0.446   4.606  17.268  0.2198 -0.1931  0.6488
  730TMC3     C10791   0.476   4.508  16.878  0.3499  1.0525 -0.2822
  730TMC3     O10792   0.576   4.442  16.851 -0.6141  0.6410 -0.4018
  730TMC3     H10793   0.575   4.373  17.075  1.0750  0.1824 -1.0391
  730TMC3    H110794   0.323   4.707  16.965 -0.6099 -0.8148 -0.4235
  730TMC3    H210795   0.440   4.627  17.374  1.5507 -0.9498  0.8791
  730TMC3    C710796   0.414   0.096  17.189  0.4681 -0.6683  0.1209
  730TMC3    C810797   0.590   4.425  17.334  0.1263 -0.1784 -0.5526
  730TMC3    O110798   0.400   0.157  17.084  0.2047  0.2577 -0.0849
  730TMC3    O210799   0.541   4.378  17.438  0.4693  0.3287  0.1689
  731MPD2     C10800   0.209   2.531  11.868  0.0092  0.0497 -0.4105
  731MPD2    C110801   0.260   2.649  11.926  0.8577  0.2810  0.0651
  731MPD2    C210802   0.207   2.691  12.049 -0.2335  0.0258 -0.4628
  731MPD2    C310803   0.112   2.607  12.112  0.7991 -0.3797 -0.6742
  731MPD2    C410804   0.067   2.487  12.061 -0.2523  0.2772  0.3092
  731MPD2    C510805   0.117   2.455  11.934  0.1030  0.4445 -0.5322
  731MPD2     H10806   0.238   2.779  12.104  0.8443 -0.6003 -0.0635
  731MPD2    H110807   0.003   2.425  12.123  0.0502 -0.9383 -0.5817
  731MPD2    H210808   0.246   2.491  11.774  1.6999 -2.1593  1.1938
  731MPD2    H310809   0.087   2.360  11.890  0.6193  0.4001 -0.7822
  731MPD2     N10810   0.068   2.653  12.242  0.4701  0.5022  0.1699
  731MPD2    H510811   0.115   2.739  12.271  0.1753  0.1551  1.6485
  731MPD2    N110812   0.350   2.732  11.861  0.0407  0.9738 -0.1690
  731MPD2    H710813   0.377   2.697  11.770  3.9553 -0.0901  1.3915
  732TMC3    C110814   0.459   2.933  11.796  0.2340  0.1911 -1.1203
  732TMC3    C210815   0.362   2.953  11.695  0.0113 -0.5826 -1.2991
  732TMC3    C310816   0.409   2.942  11.569 -0.2237  0.1213  0.3736
  732TMC3    C410817   0.592   2.909  11.769 -0.7585  0.2232  0.7919
  732TMC3    C510818   0.632   2.924  11.640 -0.2118  0.2954 -0.6007
  732TMC3    C610819   0.546   2.945  11.541 -0.8791 -0.1181  0.5325
  732TMC3     C10820   0.409   2.847  11.901 -0.1024  0.2631 -0.7026
  732TMC3     O10821   0.403   2.898  12.014 -0.2555 -0.3186 -0.0189
  732TMC3     H10822   0.263   2.986  11.725  0.5681 -0.0385 -0.0490
  732TMC3    H110823   0.657   2.900  11.855  0.0370 -0.8236  0.0771
  732TMC3    H210824   0.577   2.953  11.437 -0.2820 -2.0625  0.5566
  732TMC3    C710825   0.773   2.896  11.596 -0.0670  0.4093 -0.1587
  732TMC3    C810826   0.332   2.866  11.476 -0.5455 -0.6354  0.4616
  732TMC3    O110827   0.795   2.925  11.477  0.7154  0.1270 -0.0598
  732TMC3    O210828   0.403   2.808  11.396 -0.4337  0.2452 -0.0243
  733TMC3    C110829   2.107   0.816  13.245 -0.3419 -0.5218  0.0801
  733TMC3    C210830   2.155   0.902  13.339  1.0814 -0.1920  0.2513
  733TMC3    C310831   2.293   0.912  13.337  0.2424  0.5815  0.5041
  733TMC3    C410832   2.170   0.756  13.142 -0.1057  0.3219 -0.1212
  733TMC3    C510833   2.305   0.774  13.140  0.1933  0.3530 -0.3556
  733TMC3    C610834   2.367   0.846  13.241 -0.5699 -0.0658  0.2612
  733TMC3     C10835   1.967   0.781  13.260 -0.1491 -0.0617 -0.7825
  733TMC3     O10836   1.899   0.759  13.163 -0.6404  0.3793 -0.6118
  733TMC3     H10837   2.087   0.953  13.406 -1.8276 -0.4962 -2.4653
  733TMC3    H110838   2.113   0.713  13.060  1.0033  0.0501 -0.7398
  733TMC3    H210839   2.475   0.860  13.240 -0.6587  0.6093 -0.0132
  733TMC3    C710840   2.368   0.783  13.003 -0.1818  0.1464  0.1997
  733TMC3    C810841   2.350   1.035  13.384  0.3476 -0.0337 -0.4048
  733TMC3    O110842   2.329   0.707  12.920  0.1013  0.1801 -0.0802
  733TMC3    O210843   2.462   1.057  13.347  0.0218 -0.2458 -0.0121
  734MPD2     C10844   3.235   3.585  12.293 -0.6837 -0.0514 -0.2167
  734MPD2    C110845   3.266   3.466  12.237 -0.3708  0.0256 -0.2790
  734MPD2    C210846   3.369   3.452  12.156  0.0200 -0.0858 -1.0336
  734MPD2    C310847   3.446   3.561  12.122  0.0196 -1.2475 -0.4781
  734MPD2    C410848   3.408   3.681  12.171  0.0929  0.0557  0.2720
  734MPD2    C510849   3.306   3.696  12.264  0.1345 -0.5313 -0.2185
  734MPD2     H10850   3.394   3.354  12.118 -0.4495 -0.7655  0.4232
  734MPD2    H110851   3.465   3.771  12.153  0.5148  0.4639  3.6180
  734MPD2    H210852   3.153   3.593  12.363 -0.3826 -0.6554  0.1992
  734MPD2    H310853   3.272   3.785  12.316  0.2550 -0.1465 -0.7982
  734MPD2     N10854   3.553   3.539  12.029 -0.0755  0.1034 -0.5291
  734MPD2    H510855   3.571   3.441  12.009  0.5002  0.4275 -1.6351
  734MPD2    N110856   3.186   3.356  12.279 -0.4976  0.3903  0.2578
  734MPD2    H710857   3.135   3.355  12.367 -0.4308 -4.0507  0.2657
  735TMC3    C110858   3.152   3.134  12.292  0.4558 -0.5400  0.4087
  735TMC3    C210859   3.123   3.028  12.211  0.1262  0.1169 -0.2158
  735TMC3    C310860   3.217   2.927  12.198 -0.8405  0.6671 -0.1716
  735TMC3    C410861   3.252   3.122  12.378 -0.4233 -0.5834  0.3767
  735TMC3    C510862   3.344   3.016  12.365  0.4662 -0.7646  0.1488
  735TMC3    C610863   3.326   2.920  12.273  0.1952 -0.4215  0.4669
  735TMC3     C10864   3.176   3.243  12.208  0.8544  0.2850 -0.0201
  735TMC3     O10865   3.212   3.224  12.090  0.4920 -0.1492  0.1436
  735TMC3     H10866   3.060   3.043  12.124  0.5184  1.4754 -0.2567
  735TMC3    H110867   3.275   3.206  12.442  0.5147 -0.2528 -0.3988
  735TMC3    H210868   3.401   2.842  12.260 -0.5044 -0.8456 -1.0416
  735TMC3    C710869   3.490   3.044  12.362 -0.2971 -0.4637 -0.2563
  735TMC3    C810870   3.253   2.888  12.063 -0.4379  0.5308  0.3965
  735TMC3    O110871   3.520   3.131  12.282 -0.1394 -0.0420 -0.3487
  735TMC3    O210872   3.176   2.826  11.994 -0.2307 -0.5211 -0.0085
  736MPD2     C10873   3.744   2.813  12.465 -0.8078 -0.0895  0.0031
  736MPD2    C110874   3.695   2.916  12.392  0.0737 -0.0478 -0.7534
  736MPD2    C210875   3.772   2.975  12.287 -0.0201  0.4788  0.1370
  736MPD2    C310876   3.900   2.931  12.258 -0.2086 -0.0316  0.4408
  736MPD2    C410877   3.946   2.832  12.334 -0.2475 -0.0403  0.8542
  736MPD2    C510878   3.871   2.779  12.436 -0.0434  0.0054  0.7902
  736MPD2     H10879   3.730   3.052  12.223  1.0716  0.5114 -0.5411
  736MPD2    H110880   4.048   2.799  12.317 -0.3099 -0.7298  1.8136
  736MPD2    H210881   3.686   2.759  12.539  1.9587 -3.4297 -0.2400
  736MPD2    H310882   3.916   2.699  12.493  0.2615 -0.1975  0.2658
  736MPD2     N10883   3.978   2.977  12.148 -0.1797 -0.5209  0.4825
  736MPD2    H510884   4.071   2.939  12.133  0.8836  1.7577  1.2295
  736MPD2    N110885   3.557   2.941  12.416  0.2438  0.2386 -0.5841
  736MPD2    H710886   3.507   2.871  12.470 -2.7444  3.0890  0.2993
  737TMC3    C110887   4.030   3.073  11.938  0.3887 -0.6986 -0.3376
  737TMC3    C210888   4.045   3.194  11.876  0.1161 -0.2506 -0.2081
  737TMC3    C310889   4.142   3.204  11.778  0.3358 -1.0012  0.8008
  737TMC3    C410890   4.084   2.957  11.884 -1.1300  0.3472 -0.2894
  737TMC3    C510891   4.178   2.968  11.783  0.1499  0.3520  0.2154
  737TMC3    C610892   4.208   3.089  11.733  0.5447 -0.6311 -1.0105
  737TMC3     C10893   3.944   3.068  12.051 -0.0648  0.0359 -0.6783
  737TMC3     O10894   3.836   3.126  12.037  0.5687 -0.1182  0.3882
  737TMC3     H10895   3.988   3.280  11.911 -0.0962 -1.2262  1.8530
  737TMC3    H110896   4.082   2.866  11.943 -1.7374 -0.4977 -1.6148
  737TMC3    H210897   4.281   3.101  11.654  0.5506  1.1142 -0.7438
  737TMC3    C710898   4.249   2.848  11.743 -0.6012  0.1046 -0.1516
  737TMC3    C810899   4.167   3.333  11.723  0.1067  0.0270  0.3206
  737TMC3    O110900   4.188   2.740  11.760  0.3682 -0.1624 -0.4954
  737TMC3    O210901   4.186   3.426  11.798  0.1690 -0.1264 -0.6567
  738MPD2     C10902   0.225   1.363  15.505 -0.6328 -0.4417  0.1523
  738MPD2    C110903   0.109   1.414  15.451 -0.2232  0.0378 -0.5280
  738MPD2    C210904   0.113   1.534  15.385 -0.1541 -0.1343 -0.1007
  738MPD2    C310905   0.232   1.607  15.384  0.1829  0.0741  0.1907
  738MPD2    C410906   0.351   1.546  15.428  0.5895 -0.4062  1.0329
  738MPD2    C510907   0.346   1.422  15.491 -0.1548  0.3206 -0.0318
  738MPD2     H10908   0.022   1.573  15.341  0.8920  1.4993 -0.8082
  738MPD2    H110909   0.444   1.602  15.426 -0.0772  0.6930  0.3113
  738MPD2    H210910   0.228   1.272  15.565  0.5532 -1.3168 -1.2280
  738MPD2    H310911   0.432   1.382  15.542  0.5960  1.4834 -0.3777
  738MPD2     N10912   0.244   1.735  15.319  0.4942 -0.4175 -0.5501
  738MPD2    H510913   0.340   1.766  15.305 -0.7792  3.3641 -0.9269
  738MPD2    N110914   4.710   1.349  15.461 -0.5060  0.3714 -0.4594
  738MPD2    H710915   4.628   1.394  15.422 -1.4681 -2.7935 -2.0498
  739TMC3    C110916   0.176   1.927  15.208  0.6262  0.0133 -0.1142
  739TMC3    C210917   0.107   1.964  15.092  0.1318  0.2877 -0.2606
  739TMC3    C310918   0.151   2.065  15.017  0.3104 -0.1436  0.4192
  739TMC3    C410919   0.288   1.994  15.249 -0.0778  0.0420  0.0958
  739TMC3    C510920   0.337   2.086  15.159 -0.3017  0.3907  0.4344
  739TMC3    C610921   0.272   2.120  15.038  0.1291 -0.0553 -0.0108
  739TMC3     C10922   0.137   1.810  15.276 -0.6514 -0.3427  0.5168
  739TMC3     O10923   0.019   1.783  15.293 -0.2156  0.1563  0.6291
  739TMC3     H10924   0.012   1.915  15.075 -0.5024  0.8633  1.6184
  739TMC3    H110925   0.340   1.974  15.341  0.6126 -0.9268 -0.5057
  739TMC3    H210926   0.326   2.181  14.967 -1.5378 -0.2706 -1.4640
  739TMC3    C710927   0.468   2.141  15.171 -0.8036  0.6410  0.2179
  739TMC3    C810928   0.088   2.101  14.892 -0.2573 -0.2183 -0.3110
  739TMC3    O110929   0.496   2.238  15.109 -0.5004 -0.2639 -0.2637
  739TMC3    O210930   0.013   2.025  14.834  0.3159 -0.4250  0.2602
  740TMC3    C110931   0.259   3.282  14.302 -0.0347  0.2326 -0.0972
  740TMC3    C210932   0.282   3.210  14.421 -0.6315  0.3648 -0.0062
  740TMC3    C310933   0.376   3.115  14.412  0.5602  0.2140 -0.2308
  740TMC3    C410934   0.323   3.261  14.184 -0.3438  1.0669  0.6321
  740TMC3    C510935   0.426   3.169  14.189 -0.1796 -0.1913  0.4369
  740TMC3    C610936   0.452   3.095  14.299  0.5154  0.3182  0.2546
  740TMC3     C10937   0.141   3.368  14.295 -0.7905  0.4269  0.0096
  740TMC3     O10938   0.121   3.428  14.192  0.3198  0.5971 -0.5303
  740TMC3     H10939   0.225   3.215  14.513 -0.0674 -1.1383  0.4282
  740TMC3    H110940   0.294   3.319  14.097  1.8023 -0.8076 -1.3638
  740TMC3    H210941   0.532   3.022  14.302 -0.3136 -0.6032  0.1061
  740TMC3    C710942   0.485   3.113  14.068 -0.4720 -0.3953  0.6409
  740TMC3    C810943   0.381   3.011  14.508  0.1833  0.1896 -0.3210
  740TMC3    O110944   0.534   2.998  14.062 -0.3183 -0.5161 -0.3925
  740TMC3    O210945   0.489   2.948  14.520 -0.4031  0.2563  0.5116
  741TMC3    C110946   4.460   2.558  14.633  0.6951 -0.4641  0.2357
  741TMC3    C210947   4.398   2.479  14.546 -0.0272  0.0538 -0.2139
  741TMC3    C310948   4.382   2.344  14.578 -0.2824  0.0248 -0.1810
  741TMC3    C410949   4.505   2.511  14.749  0.4847  0.3102  0.1420
  741TMC3    C510950   4.497   2.381  14.782 -0.1817  0.2648  0.1229
  741TMC3    C610951   4.425   2.294  14.698  0.0101  0.8076  0.2028
  741TMC3     C10952   4.491   2.701  14.606 -0.2764 -0.2172  0.5206
  741TMC3     O10953   4.523   2.766  14.706  0.8573 -0.3034  0.2606
  741TMC3     H10954   4.354   2.514  14.453  0.0597  1.9352  0.4549
  741TMC3    H110955   4.564   2.578  14.811 -0.3265 -1.7725  3.1398
  741TMC3    H210956   4.419   2.189  14.721  2.6035  0.3221 -1.3880
  741TMC3    C710957   4.527   2.342  14.924  0.2421  0.3477 -0.8312
  741TMC3    C810958   4.290   2.272  14.503  0.6849 -0.4236 -0.1434
  741TMC3    O110959   4.584   2.425  14.991  0.1961  0.4433 -0.0744
  741TMC3    O210960   4.213   2.338  14.433  0.0919  0.6836  0.3602
  742TMC3    C110961   0.438   0.824  14.912 -0.2788 -0.5119 -0.0373
  742TMC3    C210962   0.314   0.859  14.869  0.5760  0.8491  0.8201
  742TMC3    C310963   0.219   0.755  14.858 -0.3205  0.2943 -0.7592
  742TMC3    C410964   0.473   0.704  14.960 -0.2177  0.4874 -0.1123
  742TMC3    C510965   0.369   0.606  14.955  0.2451  0.2699 -0.6936
  742TMC3    C610966   0.251   0.627  14.889  0.3827 -0.5245 -0.2355
  742TMC3     C10967   0.535   0.926  14.927  0.9616 -0.4044 -0.4996
  742TMC3     O10968   0.494   1.034  14.961 -0.8413 -0.0545 -1.1829
  742TMC3     H10969   0.308   0.954  14.818 -2.8028  0.5728  0.7025
  742TMC3    H110970   0.569   0.678  15.002  0.3554  0.8905 -1.1715
  742TMC3    H210971   0.171   0.555  14.878  1.0021 -1.4799  1.5750
  742TMC3    C710972   0.412   0.477  15.006  0.0868  0.1225 -0.3674
  742TMC3    C810973   0.098   0.769  14.769 -0.1016  0.3177  0.5806
  742TMC3    O110974   0.525   0.459  15.050 -0.1917 -0.7589  0.1242
  742TMC3    O210975   0.065   0.674  14.696  0.3329  0.0695 -0.1883
  743MPD2     C10976   2.110   2.286   2.060  0.8532 -0.2755  0.4259
  743MPD2    C110977   2.129   2.200   1.952  0.5605 -0.9852 -1.3937
  743MPD2    C210978   2.257   2.138   1.937  0.5674  0.9166 -0.5601
  743MPD2    C310979   2.363   2.164   2.022 -0.2025  0.6229  0.1632
  743MPD2    C410980   2.342   2.259   2.127 -0.0847 -0.1278  0.4446
  743MPD2    C510981   2.218   2.317   2.145 -0.0458 -0.2423  0.1810
  743MPD2     H10982   2.280   2.076   1.851 -0.7804 -1.4109  0.7340
  743MPD2    H110983   2.422   2.276   2.198 -0.6536  1.2320  0.7384
  743MPD2    H210984   2.016   2.336   2.079 -0.3819 -1.9918 -1.1261
  743MPD2    H310985   2.196   2.379   2.231 -1.5976  0.7073 -0.9146
  743MPD2     N10986   2.488   2.104   1.995  0.4136 -0.8081 -0.5767
  743MPD2    H510987   2.485   2.035   1.920 -1.3926 -2.0999  0.7016
  743MPD2    N110988   2.017   2.173   1.870 -0.1612  0.5394  0.3263
  743MPD2    H710989   1.932   2.221   1.893 -0.8533 -0.1290 -0.7979
  744TMC3    C110990   1.899   2.097   1.685  0.5111  0.5532  0.1149
  744TMC3    C210991   1.829   2.216   1.683  0.8925  0.1958 -0.0174
  744TMC3    C310992   1.761   2.249   1.572 -0.8439 -0.1504 -0.2352
  744TMC3    C410993   1.888   2.003   1.587  0.0466  0.1045  0.3283
  744TMC3    C510994   1.810   2.037   1.483  0.3504  0.1270  0.2154
  744TMC3    C610995   1.745   2.153   1.469 -0.0365  0.2081  0.0623
  744TMC3     C10996   2.015   2.091   1.762  0.0882 -0.4913  0.7156
  744TMC3     O10997   2.094   2.002   1.728  0.0088 -0.5302 -0.4388
  744TMC3     H10998   1.847   2.292   1.759 -1.3830 -0.6809  1.4240
  744TMC3    H110999   1.955   1.918   1.584  0.5273  0.4853  0.1919
  744TMC3    H211000   1.695   2.188   1.380 -2.1499 -0.4421  1.0082
  744TMC3    C711001   1.812   1.935   1.379  1.0710 -0.8559  0.0524
  744TMC3    C811002   1.666   2.355   1.579  0.0555 -0.8211 -0.5377
  744TMC3    O111003   1.723   1.855   1.376 -0.1716 -0.2635 -0.3963
  744TMC3    O211004   1.624   2.395   1.472  0.0834  0.2594 -0.5984
  745TMC3    C111005   0.734   0.572  14.135  0.0809 -0.0216  0.2200
  745TMC3    C211006   0.619   0.600  14.208  0.1322  0.5432 -0.6695
  745TMC3    C311007   0.498   0.572  14.161 -0.4332  0.7150 -0.6544
  745TMC3    C411008   0.718   0.531  14.007 -0.1571 -0.2334  0.3530
  745TMC3    C511009   0.600   0.492  13.961 -0.1690  0.5946 -0.3237
  745TMC3    C611010   0.488   0.510  14.041 -0.7123 -0.1895 -0.2307
  745TMC3     C11011   0.825   0.673  14.164 -0.1848 -0.1228  0.5180
  745TMC3     O11012   0.866   0.678  14.281 -0.4660  0.1746 -0.4516
  745TMC3     H11013   0.636   0.658  14.298  2.1288 -0.5918 -0.3103
  745TMC3    H111014   0.806   0.507  13.948 -2.1886  2.2906 -3.7160
  745TMC3    H211015   0.393   0.488  13.995 -1.1965 -0.9345  1.1436
  745TMC3    C711016   0.572   0.480  13.820  0.2317 -0.4110  0.7577
  745TMC3    C811017   0.401   0.669  14.193  0.1528 -0.4328 -0.7094
  745TMC3    O111018   0.454   0.482  13.783  0.5104 -0.4646  0.0505
  745TMC3    O211019   0.283   0.650  14.159  0.2937  0.2239 -0.3233
  746TMC3    C111020   2.657   2.620  10.804 -0.6297  0.7959 -0.2028
  746TMC3    C211021   2.707   2.586  10.682  0.5865  0.0331  0.4981
  746TMC3    C311022   2.701   2.457  10.640 -0.5243 -0.6492 -0.3583
  746TMC3    C411023   2.596   2.526  10.891  0.0657 -0.1547  0.5937
  746TMC3    C511024   2.578   2.403  10.846  0.4753 -0.5990 -0.0830
  746TMC3    C611025   2.633   2.371  10.720 -0.4002  0.0819  0.9276
  746TMC3     C11026   2.656   2.760  10.842  0.4581  0.4771  0.5729
  746TMC3     O11027   2.668   2.778  10.961 -0.4738 -0.5328  0.0143
  746TMC3     H11028   2.771   2.660  10.635 -0.0684  0.2340 -0.0897
  746TMC3    H111029   2.535   2.565  10.972  1.1324  2.3295  0.2211
  746TMC3    H211030   2.623   2.268  10.688  1.0002 -0.3838  1.9855
  746TMC3    C711031   2.449   2.343  10.872  0.3160 -0.6184 -0.1987
  746TMC3    C811032   2.757   2.413  10.515 -0.9310  0.2322 -0.0726
  746TMC3    O111033   2.385   2.275  10.796 -0.4045  0.5810  0.4529
  746TMC3    O211034   2.735   2.296  10.484  0.9476  0.0934  0.3560
  747TMC3    C111035   0.172   2.941  10.900  0.5079 -0.2116  0.2771
  747TMC3    C211036   0.097   2.846  10.958  0.6830 -0.1088  0.4011
  747TMC3    C311037   0.060   2.857  11.092  0.1516 -0.1018 -0.3953
  747TMC3    C411038   0.223   3.040  10.971 -0.0983  0.4181 -0.0391
  747TMC3    C511039   0.210   3.033  11.113  0.0327 -0.3079  0.5077
  747TMC3    C611040   0.112   2.955  11.173 -0.1264  0.4948 -0.2007
  747TMC3     C11041   0.174   2.963  10.760  0.0242  0.2770 -0.0022
  747TMC3     O11042   0.235   3.063  10.727 -0.1586  0.4794 -0.3427
  747TMC3     H11043   0.060   2.763  10.901  0.6580 -0.6547  1.2107
  747TMC3    H111044   0.286   3.117  10.929  2.1258 -1.4447 -0.1822
  747TMC3    H211045   0.106   2.959  11.281  0.1770 -1.0658 -0.1338
  747TMC3    C711046   0.277   3.134  11.194 -0.1974 -0.3174 -0.8377
  747TMC3    C811047   4.687   2.764  11.148 -0.5794 -0.0964  0.5558
  747TMC3    O111048   0.212   3.180  11.290 -0.4265 -0.1560  0.3869
  747TMC3    O211049   4.684   2.651  11.096 -0.1906  0.4382  0.0222
  748MPD2     C11050   0.896   3.955   1.483 -0.7759 -0.3950 -0.0854
  748MPD2    C111051   0.945   3.864   1.578 -0.1995 -0.6659 -0.1289
  748MPD2    C211052   1.079   3.823   1.563 -0.0494 -0.1865 -1.0735
  748MPD2    C311053   1.165   3.867   1.465  0.2828  0.2088  0.0451
  748MPD2    C411054   1.122   3.965   1.379 -0.6063 -0.0387 -0.4945
  748MPD2    C511055   0.992   4.014   1.398  0.1006  0.1327  0.6399
  748MPD2     H11056   1.121   3.748   1.630 -0.4148 -2.2165 -3.1259
  748MPD2    H111057   1.186   4.000   1.300  0.6795 -1.1595  0.0490
  748MPD2    H211058   0.798   4.003   1.483 -0.7649 -0.3670  1.8167
  748MPD2    H311059   0.969   4.104   1.342  1.1409 -0.4322 -0.7193
  748MPD2     N11060   1.291   3.800   1.448  0.0628 -0.8121 -0.0128
  748MPD2    H511061   1.332   3.750   1.527  1.7063  1.3903  0.5201
  748MPD2    N111062   0.854   3.825   1.680  0.3694 -0.0459  0.0623
  748MPD2    H711063   0.761   3.866   1.686  1.0590  1.3360  1.2086
  749TMC3    C111064   1.497   3.743   1.363 -0.4015  0.1087 -0.4325
  749TMC3    C211065   1.493   3.614   1.418 -0.2798 -0.0578  0.1225
  749TMC3    C311066   1.606   3.548   1.431  0.5943  0.1161 -0.3561
  749TMC3    C411067   1.613   3.795   1.314  0.0780  0.3355  0.8075
  749TMC3    C511068   1.730   3.721   1.328  0.9573  0.2516  0.2693
  749TMC3    C611069   1.721   3.594   1.384  0.0113 -0.3445  0.3822
  749TMC3     C11070   1.379   3.824   1.347  0.7756  0.5327 -0.3144
  749TMC3     O11071   1.362   3.877   1.239 -0.1715  0.3240  0.6132
  749TMC3     H11072   1.403   3.563   1.451 -0.6468 -1.1103 -2.4692
  749TMC3    H111073   1.612   3.893   1.268 -1.1987 -0.9007 -1.8369
  749TMC3    H211074   1.817   3.548   1.404  0.7910  1.1855  0.1644
  749TMC3    C711075   1.856   3.772   1.263 -0.4132  0.2294 -0.9221
  749TMC3    C811076   1.609   3.419   1.508  0.1544 -0.1368 -0.4021
  749TMC3    O111077   1.868   3.892   1.250  0.0457  0.0413  0.5060
  749TMC3    O211078   1.530   3.396   1.597 -0.1096  0.2475  0.9508
  750MPD2     C11079   3.237   4.521  11.123 -0.2247 -0.4340  0.0905
  750MPD2    C111080   3.105   4.501  11.160  0.1771 -0.4970 -0.6878
  750MPD2    C211081   3.054   4.374  11.170 -0.8444  0.2324  0.0478
  750MPD2    C311082   3.140   4.270  11.158  0.1652 -0.1696 -0.2856
  750MPD2    C411083   3.273   4.283  11.129 -0.5611 -0.6339  0.5858
  750MPD2    C511084   3.319   4.411  11.117 -0.2838  0.1293 -0.1834
  750MPD2     H11085   2.949   4.354  11.188 -0.5645  0.4346  1.9175
  750MPD2    H111086   3.346   4.202  11.133 -2.3978 -2.3492 -0.6346
  750MPD2    H211087   3.287   4.617  11.116 -0.5231 -0.3850 -1.4057
  750MPD2    H311088   3.425   4.426  11.098  0.2095 -1.0645  1.5976
  750MPD2     N11089   3.102   4.139  11.175  0.3238 -0.0536  0.3992
  750MPD2    H511090   3.168   4.073  11.135 -1.9819 -1.9841 -0.2340
  750MPD2    N111091   3.028   4.624  11.173  0.2272 -0.1885 -0.5811
  750MPD2    H711092   3.088   4.705  11.167  0.4267 -0.1756  1.7892
  751TMC3    C111093   2.950   3.965  11.214 -0.3008  0.1534 -0.4088
  751TMC3    C211094   2.818   3.933  11.228  0.5569 -0.3077 -0.0578
  751TMC3    C311095   2.766   3.825  11.167 -0.1087 -0.3667 -0.4046
  751TMC3    C411096   3.032   3.884  11.143  0.0538 -0.1414  0.5107
  751TMC3    C511097   2.974   3.783  11.076  0.5189  0.4731  0.0152
  751TMC3    C611098   2.841   3.752  11.084 -0.3248  0.1237  0.7452
  751TMC3     C11099   2.993   4.099  11.253  0.3460 -0.0750 -0.4226
  751TMC3     O11100   2.908   4.169  11.312 -0.4324  0.1168  0.2590
  751TMC3     H11101   2.749   4.010  11.262 -0.1518  0.3232 -2.9730
  751TMC3    H111102   3.139   3.901  11.132 -0.1155  0.5405 -0.0631
  751TMC3    H211103   2.798   3.668  11.031  0.9564 -0.3770  0.5110
  751TMC3    C711104   3.063   3.709  10.978 -0.4784  0.4983 -0.0726
  751TMC3    C811105   2.625   3.821  11.165 -0.3570  0.3408 -0.0721
  751TMC3    O111106   3.174   3.758  10.954 -0.7203  0.2679 -0.1309
  751TMC3    O211107   2.571   3.880  11.261 -0.0938  0.1406 -0.2999
  752TMC3    C111108   1.726   4.569  16.950 -0.1186 -0.2830  0.7919
  752TMC3    C211109   1.745   4.709  16.953 -0.9243 -0.2326  0.5309
  752TMC3    C311110   1.811   0.033  17.063 -0.2996  0.2162  0.3384
  752TMC3    C411111   1.787   4.488  17.045  0.1326  0.8403 -0.3590
  752TMC3    C511112   1.861   4.547  17.147 -0.1683 -0.5636  0.1140
  752TMC3    C611113   1.863   4.683  17.163  0.4613 -0.2214  0.5301
  752TMC3     C11114   1.697   4.512  16.814 -0.8622 -0.3491  0.1945
  752TMC3     O11115   1.771   4.424  16.776 -0.0550  0.4515 -0.4155
  752TMC3     H11116   1.720   0.038  16.863  0.5515 -1.2890 -0.5272
  752TMC3    H111117   1.774   4.381  17.034 -1.0347  0.9479 -0.0798
  752TMC3    H211118   1.923   0.004  17.241 -1.7561  0.0002  2.0891
  752TMC3    C711119   1.969   4.470  17.209 -0.1036 -0.4193 -0.8568
  752TMC3    C811120   1.849   0.176  17.067 -0.8160 -0.7540  0.4387
  752TMC3    O111121   2.071   4.533  17.233  0.3064 -0.3281  0.2059
  752TMC3    O211122   1.855   0.238  16.963 -0.1176 -0.4007  0.3812
  753TMC3    C111123   3.316   0.821  13.710  0.1971  0.6213 -0.1265
  753TMC3    C211124   3.423   0.755  13.773  0.3246 -0.0709 -0.3856
  753TMC3    C311125   3.411   0.614  13.765 -0.0615  0.0753 -0.6392
  753TMC3    C411126   3.217   0.759  13.640  0.0150  0.2915  0.2003
  753TMC3    C511127   3.223   0.624  13.626 -0.4361  0.0338  0.5585
  753TMC3    C611128   3.305   0.549  13.701 -0.1593 -1.2257 -0.2361
  753TMC3     C11129   3.319   0.968  13.715  0.0151 -0.1502 -0.6576
  753TMC3     O11130   3.424   1.030  13.739  0.1839 -0.5942 -0.3967
  753TMC3     H11131   3.508   0.809  13.813  1.4274 -1.3206 -1.0401
  753TMC3    H111132   3.140   0.815  13.588  0.5422  1.7254  0.9883
  753TMC3    H211133   3.296   0.441  13.702  0.2255 -1.2340  1.2823
  753TMC3    C711134   3.111   0.558  13.551 -0.1655  0.4063 -0.2121
  753TMC3    C811135   3.504   0.531  13.838  0.3732 -0.0025 -1.0140
  753TMC3    O111136   3.000   0.605  13.546 -0.5938  0.6333  0.2369
  753TMC3    O211137   3.521   0.408  13.808  0.8785 -0.4378 -0.8566
  754MPD2     C11138   1.695   3.470  12.624  0.0775 -0.4232 -0.2861
  754MPD2    C111139   1.756   3.574  12.682  0.0220 -0.3071 -0.0558
  754MPD2    C211140   1.687   3.651  12.770 -0.0939 -0.2640 -0.3100
  754MPD2    C311141   1.557   3.633  12.786 -0.5203 -0.0541  0.1524
  754MPD2    C411142   1.497   3.522  12.732  0.2748 -0.5393  0.5198
  754MPD2    C511143   1.566   3.437  12.654 -0.0662 -0.6976  1.0167
  754MPD2     H11144   1.738   3.729  12.827 -0.5324  0.5995 -1.1074
  754MPD2    H111145   1.391   3.500  12.740  0.4604 -1.4917  0.3411
  754MPD2    H211146   1.753   3.396  12.570  0.5322 -1.1363  1.1550
  754MPD2    H311147   1.522   3.350  12.607  1.4313 -0.4904 -0.7962
  754MPD2     N11148   1.479   3.713  12.873 -0.7728  0.1225 -0.2245
  754MPD2    H511149   1.380   3.693  12.862 -0.8950 -0.8642  2.5953
  754MPD2    N111150   1.895   3.564  12.686 -0.1971  0.2167  0.3613
  754MPD2    H711151   1.936   3.472  12.670 -0.5309  0.2072 -0.4259
  755MPD2     C11152   1.644   4.045  13.809 -0.3984 -0.2531  0.3019
  755MPD2    C111153   1.549   4.125  13.753 -0.3345 -0.4221  0.7048
  755MPD2    C211154   1.488   4.070  13.639 -0.8173  0.0427  0.4239
  755MPD2    C311155   1.529   3.949  13.587  0.2804 -0.3573  0.5646
  755MPD2    C411156   1.637   3.874  13.648  0.0516 -0.2897  0.0150
  755MPD2    C511157   1.688   3.922  13.762 -0.2320 -0.3387  0.2888
  755MPD2     H11158   1.412   4.130  13.590 -0.5234 -0.4399 -0.6296
  755MPD2    H111159   1.675   3.777  13.619 -1.0465 -0.7969  0.2450
  755MPD2    H211160   1.696   4.071  13.900 -1.9526  0.8892  0.8757
  755MPD2    H311161   1.755   3.866  13.826  1.7292 -0.0940 -1.5326
  755MPD2     N11162   1.483   3.891  13.469  0.4108  0.0776  0.3549
  755MPD2    H511163   1.522   3.799  13.451 -1.2650 -0.1937 -1.9185
  755MPD2    N111164   1.516   4.256  13.801 -0.3220 -0.7116  0.2663
  755MPD2    H711165   1.434   4.302  13.762  0.6801  0.9749  0.1714
  756MPD2     C11166   3.061   4.028   9.332  0.2641  0.1107 -0.3935
  756MPD2    C111167   3.050   3.977   9.457  0.4976  0.4795 -0.3173
  756MPD2    C211168   2.995   3.850   9.472  0.1374  0.4262 -0.4922
  756MPD2    C311169   2.951   3.772   9.365  0.3667 -0.7179  0.0830
  756MPD2    C411170   2.964   3.824   9.243 -0.4552  0.1974 -0.6301
  756MPD2    C511171   3.023   3.944   9.224 -0.7740 -0.4330  0.8172
  756MPD2     H11172   2.989   3.815   9.574 -0.4000  0.8027 -0.3929
  756MPD2    H111173   2.926   3.776   9.154 -0.8581 -0.5013 -0.0752
  756MPD2    H211174   3.104   4.124   9.307  0.7213  0.3720  1.4118
  756MPD2    H311175   3.033   3.978   9.121  0.4483  0.7648  1.3353
  756MPD2     N11176   2.893   3.646   9.396 -0.1689  0.5214  0.1479
  756MPD2    H511177   2.901   3.616   9.492  1.2716  1.4997  0.3342
  756MPD2    N111178   3.058   4.057   9.569  0.3920 -1.5341  0.1616
  756MPD2    H711179   3.024   4.017   9.656  0.3099  0.5140  1.0619
  757MPD2     C11180   2.085   3.122   9.078 -0.4177  0.5640  0.5135
  757MPD2    C111181   2.094   3.232   9.165  0.0598  0.2349 -0.1744
  757MPD2    C211182   2.215   3.266   9.211  0.0329 -0.1624  0.6642
  757MPD2    C311183   2.322   3.183   9.199 -0.7609  0.1418  0.2271
  757MPD2    C411184   2.315   3.066   9.127 -1.0451  0.1706 -0.0545
  757MPD2    C511185   2.196   3.042   9.055 -0.0297  0.8402  0.0167
  757MPD2     H11186   2.236   3.359   9.263 -0.3572  0.5691 -0.4924
  757MPD2    H111187   2.396   2.998   9.103 -1.1033 -0.1045  0.5192
  757MPD2    H211188   1.991   3.098   9.029 -0.2312  0.2491  0.3101
  757MPD2    H311189   2.182   2.950   9.000 -1.2938 -0.4064  2.4262
  757MPD2     N11190   2.434   3.227   9.272  0.0755 -0.0144 -0.4712
  757MPD2    H511191   2.427   3.309   9.332 -0.2549 -2.7365  3.2092
  757MPD2    N111192   1.973   3.296   9.195 -0.0923 -0.1421 -0.1647
  757MPD2    H711193   1.885   3.254   9.167 -0.5724  1.1507 -0.5928
  758MPD2     C11194   1.833   3.384  16.186  0.2938  0.0998 -0.5328
  758MPD2    C111195   1.937   3.449  16.246 -0.2021 -0.0501 -0.3030
  758MPD2    C211196   1.932   3.586  16.280  0.0916  0.1216 -0.2754
  758MPD2    C311197   1.808   3.648  16.274  0.4027 -0.4024  0.4751
  758MPD2    C411198   1.704   3.577  16.221 -0.1830 -0.4158 -0.2412
  758MPD2    C511199   1.710   3.446  16.180 -0.1822  1.0912  0.8800
  758MPD2     H11200   2.015   3.636  16.330  1.1318 -2.5064  0.6054
  758MPD2    H111201   1.610   3.631  16.226 -1.3812 -2.5427  0.0437
  758MPD2    H211202   1.851   3.287  16.141 -0.7785 -0.6850  0.7630
  758MPD2    H311203   1.630   3.391  16.130 -0.0003  0.3492  1.3963
  758MPD2     N11204   1.778   3.778  16.324  0.1397 -0.5508 -0.3296
  758MPD2    H511205   1.685   3.819  16.325 -0.6640 -2.3578 -2.0334
  758MPD2    N111206   2.057   3.372  16.272 -0.2918  0.9432 -0.4378
  758MPD2    H711207   2.076   3.281  16.230 -0.4597  1.8499 -2.4557
  759MPD2     C11208   0.392   3.128   9.640 -0.1370 -0.5217  0.1031
  759MPD2    C111209   0.482   3.067   9.725  0.2819  0.4291 -0.6724
  759MPD2    C211210   0.614   3.103   9.711  0.0712 -0.5417  1.0573
  759MPD2    C311211   0.653   3.210   9.628  0.1232  0.2266 -0.4792
  759MPD2    C411212   0.565   3.277   9.548  0.4052 -0.5659 -0.1648
  759MPD2    C511213   0.431   3.231   9.557 -0.4537  0.8948  0.2821
  759MPD2     H11214   0.686   3.069   9.784 -0.9999 -0.3753  2.2004
  759MPD2    H111215   0.581   3.353   9.473  0.0405  0.8462  1.2020
  759MPD2    H211216   0.291   3.090   9.631 -0.3070 -0.4462  1.6276
  759MPD2    H311217   0.365   3.273   9.483  0.3487 -0.4979 -1.2158
  759MPD2     N11218   0.788   3.243   9.628 -0.1140 -0.0448  0.0160
  759MPD2    H511219   0.850   3.192   9.690  0.0709 -1.3009 -1.1927
  759MPD2    N111220   0.453   2.972   9.826  0.0707  0.1856  0.9934
  759MPD2    H711221   0.533   2.924   9.867 -0.1868  1.3827  2.8980
  760MPD2     C11222   0.884   4.535  11.292  0.5475 -0.0506 -0.1030
  760MPD2    C111223   0.876   4.603  11.407 -0.2135 -0.6938 -0.5936
  760MPD2    C211224   0.823   4.547  11.523 -1.2842  0.1452 -0.0588
  760MPD2    C311225   0.763   4.428  11.518 -0.2024  0.5662 -0.1758
  760MPD2    C411226   0.769   4.350  11.403  0.2918  0.1412 -0.1743
  760MPD2    C511227   0.830   4.406  11.288  0.2187 -0.2761 -0.1492
  760MPD2     H11228   0.824   4.606  11.614  2.8694 -2.0363  1.3059
  760MPD2    H111229   0.715   4.257  11.388  1.8838 -1.0795  1.6568
  760MPD2    H211230   0.936   4.569  11.203 -0.2874  1.8766  0.1369
  760MPD2    H311231   0.825   4.346  11.198  2.2274 -0.9631  0.2022
  760MPD2     N11232   0.710   4.365  11.635  0.4002  0.5218 -0.2869
  760MPD2    H511233   0.674   4.271  11.623 -1.1320  0.9243  1.2567
  760MPD2    N111234   0.934   0.003  11.410  0.5952  0.0653  0.4255
  760MPD2    H711235   0.991   0.022  11.328 -0.1256 -2.5758 -0.6983
  761MPD2     C11236   2.191   3.608  11.011 -0.7444  0.4279 -0.9948
  761MPD2    C111237   2.281   3.583  10.913  0.3303  0.0340 -0.1959
  761MPD2    C211238   2.409   3.635  10.926  0.5168 -0.8542  0.7867
  761MPD2    C311239   2.435   3.696  11.042  0.0553  0.3528 -0.6849
  761MPD2    C411240   2.342   3.717  11.140  0.1084  0.0728  1.1355
  761MPD2    C511241   2.220   3.678  11.123 -0.0198  0.0484  0.1102
  761MPD2     H11242   2.494   3.617  10.861  0.4544  2.8537 -0.3471
  761MPD2    H111243   2.362   3.780  11.225  2.5919  0.8171  0.0122
  761MPD2    H211244   2.086   3.582  11.005 -0.1105 -2.4086  0.3818
  761MPD2    H311245   2.140   3.693  11.195  1.5007  0.1479  1.7569
  761MPD2     N11246   2.572   3.738  11.065 -0.0442 -0.3562 -0.0528
  761MPD2    H511247   2.632   3.707  10.990 -1.4388  0.3347 -1.4668
  761MPD2    N111248   2.239   3.498  10.809 -0.2051 -0.0678  0.6021
  761MPD2    H711249   2.145   3.458  10.813 -0.0103 -0.5088  0.7638
  762MPD2     C11250   2.502   3.473  10.036 -0.1711  0.1039  0.9190
  762MPD2    C111251   2.518   3.360  10.113  0.3193  0.1811 -0.1544
  762MPD2    C211252   2.607   3.264  10.069 -0.2468 -0.4182 -0.2393
  762MPD2    C311253   2.669   3.283   9.945 -0.0384 -0.0396 -0.3778
  762MPD2    C411254   2.635   3.389   9.867  0.1061  0.2404  0.1476
  762MPD2    C511255   2.555   3.490   9.921  0.1356 -0.4087 -0.3987
  762MPD2     H11256   2.632   3.174  10.124  0.2861 -0.6422 -0.8377
  762MPD2    H111257   2.675   3.403   9.768 -0.3308 -3.7316 -0.5929
  762MPD2    H211258   2.423   3.541  10.065 -0.5990  0.7097 -1.6554
  762MPD2    H311259   2.532   3.576   9.860  0.4015 -0.6763 -0.8711
  762MPD2     N11260   2.778   3.194   9.918  0.5400  0.4162 -1.0552
  762MPD2    H511261   2.785   3.113   9.979 -2.4797  0.3953 -0.6895
  762MPD2    N111262   2.455   3.349  10.240  0.0028 -0.3339  0.5898
  762MPD2    H711263   2.412   3.433  10.277  3.1960  1.8827 -0.7245
  763MPD2     C11264   3.544   4.112  15.990 -0.0705 -0.0444  0.1618
  763MPD2    C111265   3.678   4.133  15.984 -0.1969  0.5525  0.0271
  763MPD2    C211266   3.724   4.244  16.056 -0.6506  0.8212  0.1773
  763MPD2    C311267   3.636   4.313  16.137  0.1687  0.2071 -0.1806
  763MPD2    C411268   3.496   4.290  16.135  0.0887  0.0400 -0.4889
  763MPD2    C511269   3.456   4.185  16.066  0.4580  0.4080  0.9967
  763MPD2     H11270   3.830   4.266  16.064 -0.6880  0.8731  0.5543
  763MPD2    H111271   3.425   4.357  16.182  1.0823 -0.1854  1.3497
  763MPD2    H211272   3.499   4.041  15.922  0.6108 -0.0132 -0.3187
  763MPD2    H311273   3.349   4.173  16.063  0.6387 -0.8889 -0.2308
  763MPD2     N11274   3.685   4.419  16.222  0.3052 -0.2552  0.2049
  763MPD2    H511275   3.784   4.435  16.209  0.2768 -0.0280  0.2773
  763MPD2    N111276   3.768   4.045  15.925  0.2182 -0.4198 -0.3363
  763MPD2    H711277   3.868   4.064  15.924  0.2136 -0.4932 -1.6664
  764MPD2     C11278   1.570   1.075   0.117  0.2846  0.1001  0.4558
  764MPD2    C111279   1.642   0.981   0.052  0.1570 -0.3051 -0.4267
  764MPD2    C211280   1.661   0.861   0.118  0.1725 -0.2914  0.1364
  764MPD2    C311281   1.608   0.838   0.242 -0.1571 -0.8631 -0.4076
  764MPD2    C411282   1.549   0.939   0.314 -0.4336  0.8181  0.1187
  764MPD2    C511283   1.525   1.057   0.247  0.1412 -0.2242  0.1912
  764MPD2     H11284   1.692   0.771   0.066 -1.9086  0.3581 -2.2603
  764MPD2    H111285   1.507   0.917   0.412  0.3604 -0.0611  0.2732
  764MPD2    H211286   1.544   1.169   0.070  2.6168  0.5241  0.0322
  764MPD2    H311287   1.474   1.139   0.296 -1.0619 -0.8621  0.0214
  764MPD2     N11288   1.626   0.712   0.296 -0.4566  0.7540  0.7881
  764MPD2    H511289   1.692   0.654   0.245 -0.3052  1.3989  0.2461
  764MPD2    N111290   1.684   0.996  17.621  0.3638 -1.0172  0.2843
  764MPD2    H711291   1.737   0.916  17.586 -0.2769 -1.4879  0.3870
  765MPD2     C11292   1.543   3.009  15.951 -0.2937  0.2107  0.5268
  765MPD2    C111293   1.641   3.101  15.919  0.7532  0.7920 -0.2297
  765MPD2    C211294   1.761   3.045  15.884 -0.0961 -0.5957  0.4306
  765MPD2    C311295   1.780   2.908  15.875  0.8141 -0.8367 -0.2061
  765MPD2    C411296   1.679   2.821  15.896 -0.0577 -0.1119  0.3550
  765MPD2    C511297   1.560   2.871  15.936  0.0257  0.0351 -0.1849
  765MPD2     H11298   1.843   3.107  15.849 -0.8404  0.7266  1.0151
  765MPD2    H111299   1.695   2.714  15.901 -0.4069 -0.0036  3.3112
  765MPD2    H211300   1.443   3.041  15.980  0.1855  1.4100  0.8937
  765MPD2    H311301   1.477   2.802  15.949  0.0511 -0.3687 -2.1932
  765MPD2     N11302   1.909   2.863  15.839 -0.4179  0.1561 -0.1317
  765MPD2    H511303   1.974   2.936  15.813 -1.1687  1.0870  0.5854
  765MPD2    N111304   1.607   3.238  15.923  0.5104 -0.2775 -0.1204
  765MPD2    H711305   1.511   3.249  15.952  0.8227 -0.7493  1.1133
  766MPD2     C11306   1.101   3.375  15.557  0.0205 -0.4170  0.3379
  766MPD2    C111307   1.232   3.350  15.534 -0.0874  0.6741  0.8944
  766MPD2    C211308   1.272   3.248  15.448  0.0937  0.0208  0.2687
  766MPD2    C311309   1.174   3.200  15.363  0.3226 -0.3115 -0.9663
  766MPD2    C411310   1.041   3.230  15.379  0.5008  0.0545  0.2609
  766MPD2    C511311   1.003   3.313  15.485 -0.2798 -0.1203  0.3011
  766MPD2     H11312   1.376   3.240  15.416  0.0759 -2.4779  0.8621
  766MPD2    H111313   0.961   3.182  15.324 -1.2545  1.4082  1.6574
  766MPD2    H211314   1.066   3.457  15.619 -3.4500 -0.9006 -0.9899
  766MPD2    H311315   0.899   3.334  15.511  0.6419  0.4666  3.4732
  766MPD2     N11316   1.199   3.109  15.256 -0.1493  0.7742  0.0805
  766MPD2    H511317   1.125   3.088  15.190  0.5697 -0.7768 -0.2117
  766MPD2    N111318   1.339   3.428  15.597  0.1942  0.4181  0.4020
  766MPD2    H711319   1.434   3.392  15.598 -0.9101 -2.5295 -1.0400
  767MPD2     C11320   0.902   3.459  15.169  0.4380 -0.0009 -0.2402
  767MPD2    C111321   1.022   3.448  15.106 -0.3716  0.4427  0.3314
  767MPD2    C211322   1.028   3.373  14.984  0.1993 -0.5406 -0.0679
  767MPD2    C311323   0.909   3.325  14.925  0.1552  0.6993 -0.6008
  767MPD2    C411324   0.788   3.354  14.985  0.7400 -0.4070  0.2206
  767MPD2    C511325   0.782   3.419  15.110 -0.1906  0.3091 -0.4126
  767MPD2     H11326   1.120   3.350  14.930  0.1867  1.1673 -0.8191
  767MPD2    H111327   0.695   3.322  14.938  1.2002 -1.7283  0.2165
  767MPD2    H211328   0.905   3.502  15.268 -1.1146  0.9520 -0.6116
  767MPD2    H311329   0.688   3.421  15.163 -0.5257  3.7447 -1.1463
  767MPD2     N11330   0.917   3.250  14.809 -0.4151 -0.0325 -0.6322
  767MPD2    H511331   1.011   3.240  14.770 -0.9446 -1.2489 -1.5898
  767MPD2    N111332   1.133   3.501  15.167  0.3272 -0.6888  0.8627
  767MPD2    H711333   1.120   3.547  15.256 -3.0406  1.6929 -0.8373
  768MPD2     C11334   1.884   1.857  10.720  0.1688 -0.1500  0.0857
  768MPD2    C111335   1.906   1.968  10.792 -0.5669 -0.5851 -0.0147
  768MPD2    C211336   2.015   1.964  10.880  0.9231  0.0498  0.1423
  768MPD2    C311337   2.103   1.857  10.886 -0.4764  0.6301 -0.0387
  768MPD2    C411338   2.075   1.746  10.809  0.2964 -0.3536 -0.3265
  768MPD2    C511339   1.968   1.750  10.722 -0.3112 -0.1183  0.0866
  768MPD2     H11340   2.027   2.054  10.940 -0.4691  0.0546  0.4289
  768MPD2    H111341   2.126   1.650  10.812 -1.9670 -1.4864  1.3360
  768MPD2    H211342   1.797   1.839  10.658 -0.8518 -1.6177  1.9801
  768MPD2    H311343   1.950   1.661  10.663 -1.8990 -0.3035  0.8563
  768MPD2     N11344   2.205   1.844  10.975  0.0224 -0.2900  0.2713
  768MPD2    H511345   2.285   1.786  10.952 -0.4476 -0.6524 -0.4205
  768MPD2    N111346   1.813   2.075  10.790  0.3090  0.4299 -0.0058
  768MPD2    H711347   1.828   2.154  10.851  0.3043 -0.4910  1.1988
  769MPD2     C11348   3.099   4.477  14.951 -0.8560 -0.0815 -0.1942
  769MPD2    C111349   2.983   4.542  14.990  0.0253 -0.8920 -0.3932
  769MPD2    C211350   2.992   4.656  15.069 -0.3231  0.1013 -0.2526
  769MPD2    C311351   3.120   4.696  15.125  0.4990 -0.4803  0.1184
  769MPD2    C411352   3.232   4.626  15.091 -0.5047 -0.2048 -0.3239
  769MPD2    C511353   3.223   4.525  14.996 -0.1462  0.3585  0.3807
  769MPD2     H11354   2.903   4.709  15.101 -0.1759  0.9073 -1.1745
  769MPD2    H111355   3.328   4.659  15.127 -1.4110  2.1845 -0.1148
  769MPD2    H211356   3.094   4.390  14.886 -1.8827 -0.1083 -0.0766
  769MPD2    H311357   3.311   4.472  14.962 -1.1508 -1.4208  0.5360
  769MPD2     N11358   3.126   0.091  15.200 -0.1823  0.2649 -0.3427
  769MPD2    H511359   3.042   0.148  15.209 -0.7179 -0.1072 -3.1301
  769MPD2    N111360   2.862   4.485  14.945  0.2734 -0.5600  0.1951
  769MPD2    H711361   2.858   4.393  14.904  1.7240 -0.7382  0.4748
  770MPD2     C11362   2.155   3.920  15.366 -0.4290  0.0427 -0.1082
  770MPD2    C111363   2.271   3.895  15.301  0.8941  0.8641 -0.7177
  770MPD2    C211364   2.322   3.986  15.218 -0.6768  0.2551 -0.5386
  770MPD2    C311365   2.267   4.104  15.198  0.1724  0.1604 -0.1906
  770MPD2    C411366   2.147   4.137  15.255 -0.2540 -0.6138 -0.7361
  770MPD2    C511367   2.097   4.041  15.341  0.1559  0.0624 -0.3062
  770MPD2     H11368   2.414   3.961  15.167  1.6157  3.5019  2.0135
  770MPD2    H111369   2.091   4.227  15.234 -1.6301 -1.4558 -0.6582
  770MPD2    H211370   2.109   3.846  15.430  2.1701 -2.6794 -1.3972
  770MPD2    H311371   1.996   4.056  15.378 -0.3692  0.5163 -1.9156
  770MPD2     N11372   2.340   4.191  15.115 -0.2028 -0.0299 -0.1134
  770MPD2    H511373   2.414   4.147  15.062  1.3651  0.8761  1.3256
  770MPD2    N111374   2.329   3.765  15.326  0.0981  0.4181 -0.0868
  770MPD2    H711375   2.262   3.707  15.375  0.8372  0.6620  1.2025
  771MPD2     C11376   3.677   2.743  14.093 -0.6237 -0.6875 -0.7764
  771MPD2    C111377   3.651   2.838  14.000 -0.6830  0.0755 -0.0081
  771MPD2    C211378   3.595   2.806  13.879  0.1689 -0.2376 -0.1984
  771MPD2    C311379   3.567   2.672  13.853  0.8016 -0.2004  0.1635
  771MPD2    C411380   3.587   2.579  13.948  0.2571  0.6403  0.2846
  771MPD2    C511381   3.634   2.612  14.071  0.1653  0.2320 -0.4866
  771MPD2     H11382   3.578   2.882  13.804 -0.5297  0.4709  0.6838
  771MPD2    H111383   3.566   2.474  13.934 -0.3375  0.7675  0.1938
  771MPD2    H211384   3.720   2.766  14.190  0.4602  0.6986 -1.6001
  771MPD2    H311385   3.629   2.536  14.148  0.5676  3.4766  2.7189
  771MPD2     N11386   3.523   2.637  13.722 -0.3407  0.6657 -0.0075
  771MPD2    H511387   3.515   2.712  13.654  0.3820 -0.3641 -1.2330
  771MPD2    N111388   3.673   2.979  14.028 -0.3665  0.0450 -0.2126
  771MPD2    H711389   3.624   3.043  13.967 -1.6006 -2.0114 -1.3768
  772MPD2     C11390   3.297   3.378  13.717  0.2920  0.3415  0.1213
  772MPD2    C111391   3.291   3.335  13.849  0.1372  0.1931  0.2381
  772MPD2    C211392   3.164   3.302  13.892  0.0933  0.1111  0.5841
  772MPD2    C311393   3.048   3.306  13.814  0.0028 -0.1208 -0.2059
  772MPD2    C411394   3.059   3.354  13.687 -0.3416  0.2772  0.7408
  772MPD2    C511395   3.188   3.387  13.638  0.4782  0.2486 -0.1481
  772MPD2     H11396   3.147   3.259  13.990  0.8783  0.5606  0.9170
  772MPD2    H111397   2.980   3.363  13.613 -0.1290 -0.0655  0.4756
  772MPD2    H211398   3.392   3.407  13.674 -0.0462  0.2517 -0.6834
  772MPD2    H311399   3.214   3.412  13.536 -1.0503 -0.8692 -0.8085
  772MPD2     N11400   2.917   3.265  13.856  0.0457 -0.2014  0.4290
  772MPD2    H511401   2.849   3.254  13.781 -0.6101 -1.3969  1.1869
  772MPD2    N111402   3.405   3.330  13.937 -0.0710 -0.4374 -0.3634
  772MPD2    H711403   3.396   3.285  14.027 -1.4913  0.3731 -0.1076
  773MPD2     C11404   2.040   0.056   0.620 -0.1401  0.0042  0.2596
  773MPD2    C111405   2.015   4.670   0.541 -0.2951 -0.2547 -0.1250
  773MPD2    C211406   2.039   4.541   0.588  0.2783  0.8199  0.1702
  773MPD2    C311407   2.089   4.516   0.710  0.4187  0.5384  0.7068
  773MPD2    C411408   2.110   4.622   0.794 -0.4211  0.5169  0.0596
  773MPD2    C511409   2.092   0.029   0.745  0.0902 -0.2568 -0.4231
  773MPD2     H11410   2.019   4.464   0.514 -2.8031  2.4979 -0.7279
  773MPD2    H111411   2.159   4.615   0.890  0.2156  1.9222 -0.1570
  773MPD2    H211412   2.019   0.157   0.589 -0.7454  0.0028  0.6615
  773MPD2    H311413   2.112   0.111   0.813 -0.6462  0.6427 -1.2856
  773MPD2     N11414   2.126   4.383   0.740 -0.0475 -0.2925  0.1447
  773MPD2    H511415   2.091   4.316   0.672  1.6156 -0.3466 -0.6742
  773MPD2    N111416   1.974   4.682   0.406 -0.6822 -0.0623 -1.1659
  773MPD2    H711417   1.973   4.603   0.342  2.9351 -1.4824  0.5358
  774MPD2     C11418   1.542   3.274  13.125 -0.0588  0.3240 -0.1228
  774MPD2    C111419   1.642   3.262  13.225 -0.3459 -0.1908  0.5413
  774MPD2    C211420   1.776   3.260  13.194  0.1504 -0.1770 -0.4286
  774MPD2    C311421   1.810   3.282  13.062 -0.4775 -0.3655 -0.3329
  774MPD2    C411422   1.709   3.306  12.962  0.5396 -0.2858  0.8161
  774MPD2    C511423   1.579   3.304  12.997  0.5746 -0.6449 -0.3021
  774MPD2     H11424   1.853   3.249  13.269  1.7491  0.7017 -1.9416
  774MPD2    H111425   1.728   3.328  12.857  1.8367  1.4136  1.4131
  774MPD2    H211426   1.438   3.280  13.156  0.5926  0.5562  2.0188
  774MPD2    H311427   1.506   3.319  12.918 -1.4719 -2.7265  1.1706
  774MPD2     N11428   1.949   3.304  13.031 -0.2563 -0.1011 -0.0467
  774MPD2    H511429   2.017   3.306  13.107  0.4082  0.8343 -0.6594
  774MPD2    N111430   1.612   3.237  13.361  0.2151  0.0950  0.0979
  774MPD2    H711431   1.688   3.204  13.420  1.7598 -0.0583 -1.9602
  775MPD2     C11432   3.072   4.691  15.697  0.0608 -0.3297 -0.9333
  775MPD2    C111433   3.135   0.044  15.786 -0.4547 -0.1192  0.1353
  775MPD2    C211434   3.272   0.086  15.765 -0.4211  0.7808  0.2336
  775MPD2    C311435   3.340   0.024  15.662 -0.3638 -0.4379  0.3980
  775MPD2    C411436   3.266   4.672  15.575  0.4779 -0.6018  0.0373
  775MPD2    C511437   3.132   4.644  15.590 -0.1755  0.0086  0.1654
  775MPD2     H11438   3.327   0.143  15.839 -0.5541 -0.8837  1.6234
  775MPD2    H111439   3.322   4.635  15.489 -0.8082 -0.9699 -0.6525
  775MPD2    H211440   2.968   4.671  15.721 -0.5221  0.2760 -3.0048
  775MPD2    H311441   3.070   4.580  15.528  1.0016 -3.3917  2.4996
  775MPD2     N11442   3.476   0.053  15.640 -0.5572  0.0843 -0.0238
  775MPD2    H511443   3.512   0.030  15.548 -1.8362  1.7915 -0.9453
  775MPD2    N111444   3.055   0.080  15.901 -0.0597  0.2550  0.4706
  775MPD2    H711445   2.965   0.040  15.926 -0.0100 -1.3659 -1.9917
  776MPD2     C11446   3.178   0.409  11.442  0.4329  0.1315  0.2457
  776MPD2    C111447   3.086   0.456  11.351  0.3513 -0.5788  0.3533
  776MPD2    C211448   3.077   0.596  11.330  0.4565  0.8028 -0.5348
  776MPD2    C311449   3.161   0.680  11.401  0.4550 -0.1144  0.3707
  776MPD2    C411450   3.248   0.630  11.490 -1.1604 -0.6056  0.0259
  776MPD2    C511451   3.261   0.495  11.512  0.1787  0.5335  0.0037
  776MPD2     H11452   3.020   0.633  11.245  0.2439  0.3539 -0.5876
  776MPD2    H111453   3.316   0.685  11.554 -1.1461 -0.3497 -0.2101
  776MPD2    H211454   3.165   0.306  11.474  2.5058  0.1606  1.2208
  776MPD2    H311455   3.315   0.459  11.599  1.6647  1.5850 -0.4904
  776MPD2     N11456   3.165   0.821  11.389  0.1091  0.0687 -0.0293
  776MPD2    H511457   3.233   0.875  11.441  1.2348 -1.3600 -0.0114
  776MPD2    N111458   3.002   0.368  11.284  0.0230 -0.3628  0.4218
  776MPD2    H711459   3.019   0.270  11.303  2.1151  0.2516  1.8010
  777MPD2     C11460   2.593   2.918   0.912  0.1803 -0.4811 -0.4645
  777MPD2    C111461   2.555   2.824   1.013  0.3584  0.0004 -0.1329
  777MPD2    C211462   2.508   2.701   0.967 -0.4788 -0.1574  0.0763
  777MPD2    C311463   2.497   2.664   0.833 -0.1043 -0.1938  0.7965
  777MPD2    C411464   2.529   2.767   0.743 -0.0600  0.2169 -0.1234
  777MPD2    C511465   2.568   2.893   0.778  0.3024  0.5770 -0.4898
  777MPD2     H11466   2.484   2.620   1.035 -0.7443  1.1397  1.5313
  777MPD2    H111467   2.514   2.750   0.637  1.9882  1.1592 -0.5812
  777MPD2    H211468   2.629   3.014   0.945 -2.2670 -0.6262  2.6429
  777MPD2    H311469   2.592   2.962   0.698  1.1218 -2.3067 -2.7674
  777MPD2     N11470   2.434   2.540   0.800 -0.6503  0.5973 -0.0036
  777MPD2    H511471   2.411   2.481   0.879  1.5174 -1.0254 -0.5800
  777MPD2    N111472   2.550   2.866   1.146  0.1808  0.0919  0.8768
  777MPD2    H711473   2.592   2.957   1.163  1.1624 -0.4210  1.2324
  778MPD2     C11474   3.584   2.487  15.326  0.2978  0.6606 -0.6233
  778MPD2    C111475   3.538   2.424  15.211  0.1571 -0.2524  0.6154
  778MPD2    C211476   3.586   2.472  15.091  0.1015  0.1169 -0.2945
  778MPD2    C311477   3.675   2.578  15.084  0.3951 -0.5234 -0.4236
  778MPD2    C411478   3.715   2.643  15.199 -0.1217  0.7986  0.3192
  778MPD2    C511479   3.679   2.590  15.321  0.2868  0.5517 -0.6181
  778MPD2     H11480   3.551   2.426  14.999  0.0396 -2.1831  0.8854
  778MPD2    H111481   3.787   2.724  15.199 -0.9705  1.5581  1.8495
  778MPD2    H211482   3.564   2.456  15.428 -1.6557  0.3516 -1.1128
  778MPD2    H311483   3.706   2.644  15.410  0.7914 -1.1593  0.2652
  778MPD2     N11484   3.707   2.635  14.955 -0.4924  0.6292 -0.2247
  778MPD2    H511485   3.671   2.590  14.872 -0.0905 -0.2463  0.0712
  778MPD2    N111486   3.448   2.318  15.220 -0.2389 -0.4359 -0.0516
  778MPD2    H711487   3.396   2.287  15.139 -2.2233  0.6408  0.8076
  779MPD2     C11488   3.520   1.413  14.712 -0.1781  0.5940 -0.2262
  779MPD2    C111489   3.593   1.405  14.591  0.0754 -0.2287 -0.8211
  779MPD2    C211490   3.565   1.498  14.487 -0.0746  0.2530 -0.0365
  779MPD2    C311491   3.476   1.606  14.510 -0.3547 -0.3691 -0.0960
  779MPD2    C411492   3.400   1.604  14.626 -0.1130 -0.3044  0.4197
  779MPD2    C511493   3.426   1.509  14.726 -0.0304 -0.0562 -0.6800
  779MPD2     H11494   3.604   1.492  14.387  1.2184 -1.4152  0.5812
  779MPD2    H111495   3.331   1.683  14.653 -2.2929 -1.7802 -0.7878
  779MPD2    H211496   3.530   1.337  14.789  0.4137  0.7144 -0.1825
  779MPD2    H311497   3.379   1.510  14.824  3.3412 -1.5818  0.9291
  779MPD2     N11498   3.472   1.718  14.423 -0.2025  0.3824 -0.3399
  779MPD2    H511499   3.538   1.724  14.346  0.7059 -1.0923  0.3308
  779MPD2    N111500   3.679   1.306  14.558  0.2957  0.1602 -0.1782
  779MPD2    H711501   3.709   1.300  14.461  0.6457  0.6991 -0.1048
  780MPD2     C11502   3.328   2.317   1.100  1.0496 -0.5019  0.0503
  780MPD2    C111503   3.376   2.221   1.020  0.0469  0.3553  0.0650
  780MPD2    C211504   3.356   2.232   0.883 -0.2516  0.3321 -0.6459
  780MPD2    C311505   3.266   2.323   0.827 -0.4224  0.0565 -0.8855
  780MPD2    C411506   3.208   2.413   0.914 -0.6075 -0.3449 -0.2755
  780MPD2    C511507   3.234   2.401   1.047 -0.8289  0.0156 -0.3674
  780MPD2     H11508   3.397   2.161   0.812  2.1040  1.1387 -0.0971
  780MPD2    H111509   3.135   2.488   0.885  0.0848 -0.3453 -1.9810
  780MPD2    H211510   3.336   2.310   1.208 -1.5640  0.5385  0.3162
  780MPD2    H311511   3.186   2.477   1.108  0.4263  0.2852  0.2907
  780MPD2     N11512   3.242   2.326   0.689  0.4795  0.4136 -0.5398
  780MPD2    H511513   3.287   2.255   0.633  0.6544 -1.0800  1.4713
  780MPD2    N111514   3.452   2.123   1.086 -0.1208 -0.0649  0.2337
  780MPD2    H711515   3.447   2.125   1.187  1.6675 -1.2070  0.3498
  781MPD2     C11516   4.472   3.587  11.975  0.1755 -0.0299 -0.6268
  781MPD2    C111517   4.594   3.549  12.019  0.2102  0.4296  0.2077
  781MPD2    C211518   4.707   3.613  11.959 -0.3962  0.0547  0.1078
  781MPD2    C311519   4.694   3.687  11.842 -0.1303  0.0269  0.6569
  781MPD2    C411520   4.568   3.723  11.800 -0.0785  0.2421 -0.2930
  781MPD2    C511521   4.458   3.673  11.865  0.9730 -0.2594 -0.1655
  781MPD2     H11522   0.081   3.597  11.998  0.2423 -1.0705 -1.9947
  781MPD2    H111523   4.555   3.777  11.707 -1.5063 -0.0313 -0.2604
  781MPD2    H211524   4.386   3.559  12.036 -1.1333 -0.2161 -2.5579
  781MPD2    H311525   4.359   3.708  11.837  0.7631 -0.6651  0.0746
  781MPD2     N11526   0.081   3.737  11.776  0.3859 -0.6495  0.3560
  781MPD2    H511527   0.068   3.801  11.699 -1.2189 -1.8914 -0.4050
  781MPD2    N111528   4.613   3.477  12.138  0.0576  0.0273  0.1149
  781MPD2    H711529   4.704   3.452  12.176 -0.8105 -0.9010  1.5718
  782MPD2     C11530   3.460   3.694  10.101 -0.1407  0.0143 -0.3137
  782MPD2    C111531   3.575   3.682  10.173  1.4343 -0.3465 -0.0402
  782MPD2    C211532   3.649   3.796  10.195 -0.6089  0.0220 -0.3450
  782MPD2    C311533   3.599   3.918  10.164 -0.2887 -0.2796 -0.1640
  782MPD2    C411534   3.502   3.927  10.063  0.3566  0.2526  0.0996
  782MPD2    C511535   3.432   3.812  10.039 -1.0628  0.1397 -0.4674
  782MPD2     H11536   3.740   3.791  10.253 -0.7142  0.6351 -0.1242
  782MPD2    H111537   3.467   4.019  10.018 -3.0770 -0.8392  0.4957
  782MPD2    H211538   3.394   3.609  10.092 -0.7966  0.4079  0.8290
  782MPD2    H311539   3.340   3.810   9.981 -0.6942 -0.3928 -1.0410
  782MPD2     N11540   3.651   4.030  10.223 -0.3990 -0.1500 -0.3204
  782MPD2    H511541   3.624   4.115  10.174 -1.4211 -0.9323 -1.1227
  782MPD2    N111542   3.604   3.560  10.231 -0.5116 -0.5121 -0.0718
  782MPD2    H711543   3.530   3.491  10.233 -1.7586  0.8401  0.2191
  783MPD2     C11544   3.020   3.386  10.821 -0.3227 -0.1632  1.1181
  783MPD2    C111545   3.084   3.495  10.861  0.4263  0.1133 -0.1154
  783MPD2    C211546   3.208   3.508  10.802  0.1829 -0.6628  0.5814
  783MPD2    C311547   3.259   3.411  10.711 -0.1435 -0.2585 -0.1913
  783MPD2    C411548   3.180   3.311  10.671  0.0415 -0.6476 -0.5457
  783MPD2    C511549   3.057   3.298  10.725 -0.4947  0.6729  0.7210
  783MPD2     H11550   3.267   3.598  10.817  0.2102 -0.3341 -1.4155
  783MPD2    H111551   3.202   3.225  10.609 -0.5509  1.1127 -3.2328
  783MPD2    H211552   2.928   3.367  10.874 -1.3204 -1.1589 -0.9333
  783MPD2    H311553   2.991   3.215  10.700  2.2574 -1.5629  0.9209
  783MPD2     N11554   3.386   3.428  10.657 -0.2537  0.2089 -0.6746
  783MPD2    H511555   3.440   3.504  10.696  0.7627 -0.8459 -0.0414
  783MPD2    N111556   3.018   3.582  10.948 -0.5445 -0.4526  0.2220
  783MPD2    H711557   2.939   3.554  11.005 -0.9910  0.8563  0.2470
  784MPD2     C11558   0.473   4.262   1.520  0.6353  0.4026 -0.0845
  784MPD2    C111559   0.553   4.368   1.551  0.2401 -0.2209  0.0134
  784MPD2    C211560   0.503   4.492   1.537 -0.5691  0.1801  0.4541
  784MPD2    C311561   0.382   4.520   1.481  0.2391  0.3282 -0.8180
  784MPD2    C411562   0.306   4.410   1.436  0.1474 -0.0564 -0.8706
  784MPD2    C511563   0.346   4.283   1.467 -0.7450  0.4915  0.4656
  784MPD2     H11564   0.564   4.574   1.573 -1.2845  1.2805 -0.8225
  784MPD2    H111565   0.210   4.428   1.389  0.2396  2.2220 -0.1705
  784MPD2    H211566   0.507   4.159   1.523 -0.7559 -0.1196 -2.1213
  784MPD2    H311567   0.284   4.202   1.432  1.7114 -1.2215  0.1045
  784MPD2     N11568   0.329   4.651   1.468  0.0138  0.1756  0.4607
  784MPD2    H511569   0.250   4.656   1.405  0.6775 -0.2809 -0.4111
  784MPD2    N111570   0.683   4.354   1.602 -0.2553  0.7379  0.3830
  784MPD2    H711571   0.734   4.442   1.602 -0.3373  0.7860 -0.9001
  785MPD2     C11572   0.715   3.170  10.184  0.1708  0.6293 -0.3544
  785MPD2    C111573   0.623   3.188  10.285  0.3120 -0.0243 -0.2063
  785MPD2    C211574   0.496   3.217  10.246  0.4277 -0.6854  0.2839
  785MPD2    C311575   0.464   3.232  10.117  0.6330 -0.2869  0.3445
  785MPD2    C411576   0.555   3.209  10.019  0.6283  0.2078 -0.2426
  785MPD2    C511577   0.683   3.185  10.054  0.1520 -1.0126  0.3165
  785MPD2     H11578   0.422   3.231  10.323 -1.0096  0.2506 -1.2650
  785MPD2    H111579   0.534   3.233   9.916  3.4871  0.0462 -0.8677
  785MPD2    H211580   0.820   3.156  10.210  0.1777 -1.0964 -1.3002
  785MPD2    H311581   0.755   3.176   9.973 -1.9249  0.3935 -1.6885
  785MPD2     N11582   0.335   3.284  10.093  0.3718  0.5305 -0.5342
  785MPD2    H511583   0.275   3.289  10.175 -2.5969 -0.9185 -2.6248
  785MPD2    N111584   0.669   3.177  10.418 -0.7653 -0.9720  1.1195
  785MPD2    H711585   0.768   3.163  10.436 -0.7512 -0.0192  1.7891
  786MPD2     C11586   4.440   1.047  14.536  0.2090  0.0635 -0.5656
  786MPD2    C111587   4.495   0.923  14.515  0.0946 -0.4712 -0.3391
  786MPD2    C211588   4.598   0.872  14.590  0.1208  0.6149 -0.3393
  786MPD2    C311589   4.656   0.947  14.693  0.6338  0.1763 -0.4726
  786MPD2    C411590   4.600   1.070  14.712  0.8217 -0.3613 -0.0851
  786MPD2    C511591   4.486   1.115  14.642  0.9220  0.6307  0.2101
  786MPD2     H11592   4.644   0.776  14.570  0.2895  0.6294 -0.0195
  786MPD2    H111593   4.643   1.142  14.780 -2.6273  2.5099 -0.9532
  786MPD2    H211594   4.356   1.088  14.481  0.6017  1.0384 -0.4288
  786MPD2    H311595   4.444   1.212  14.668  0.9070  0.8079 -0.4596
  786MPD2     N11596   0.043   0.899  14.769 -0.2901  0.1776 -0.2135
  786MPD2    H511597   0.066   0.962  14.845  0.2847 -0.3712  0.0660
  786MPD2    N111598   4.449   0.832  14.411  0.3608  0.2077  0.0611
  786MPD2    H711599   4.470   0.733  14.421 -1.6024 -0.5194 -2.8432
  787MPD2     C11600   4.284   0.186  14.498 -0.3503  0.2351 -0.1156
  787MPD2    C111601   4.359   0.221  14.384 -0.5369 -0.1185  0.1366
  787MPD2    C211602   4.473   0.148  14.349  0.6222  0.6802 -0.6455
  787MPD2    C311603   4.511   0.048  14.434 -0.0237  0.6944 -0.8641
  787MPD2    C411604   4.440   0.020  14.547  0.2114  0.5873 -0.8817
  787MPD2    C511605   4.319   0.079  14.571  0.2323 -0.6603 -0.2448
  787MPD2     H11606   4.532   0.186  14.266  1.2453 -0.3745 -0.6853
  787MPD2    H111607   4.462   4.664  14.614 -2.4307 -0.7044 -1.5501
  787MPD2    H211608   4.196   0.240  14.528 -0.7288 -0.5430  0.1776
  787MPD2    H311609   4.259   0.061  14.659 -1.6209 -0.4345 -1.4778
  787MPD2     N11610   4.641   4.718  14.411 -0.8863  0.4474 -0.0364
  787MPD2    H511611   4.691   0.011  14.324  0.0781  0.7957  0.5819
  787MPD2    N111612   4.339   0.336  14.315  0.8645  0.2242 -0.3468
  787MPD2    H711613   4.416   0.384  14.269 -0.7443  1.6525 -1.5659
  788MPD2     C11614   1.602   3.951   0.531  1.0563 -0.0554 -0.2467
  788MPD2    C111615   1.546   3.823   0.549 -0.4761  0.1827 -0.3398
  788MPD2    C211616   1.499   3.756   0.436 -0.2100  0.2226  0.6446
  788MPD2    C311617   1.479   3.817   0.312 -0.6058 -0.2935 -0.1327
  788MPD2    C411618   1.528   3.944   0.297  0.2084  0.5215 -0.4422
  788MPD2    C511619   1.584   4.011   0.403  0.5802  0.0710  0.7366
  788MPD2     H11620   1.466   3.654   0.452  0.3464  0.1142  1.1217
  788MPD2    H111621   1.514   3.989   0.199 -0.5368  0.2977 -0.4424
  788MPD2    H211622   1.630   4.011   0.617 -1.0574 -0.7465  0.9363
  788MPD2    H311623   1.629   4.107   0.382  0.1876 -0.0238 -0.5101
  788MPD2     N11624   1.437   3.754   0.190  1.1991 -0.6065  0.5588
  788MPD2    H511625   1.436   3.819   0.112 -1.0053 -0.2238  0.8873
  788MPD2    N111626   1.525   3.759   0.672 -0.5709 -0.3786 -0.1413
  788MPD2    H711627   1.469   3.674   0.675  0.2378 -0.8978  0.2571
  789MPD2     C11628   1.926   3.558  16.689 -0.5991 -0.4303 -0.1455
  789MPD2    C111629   1.834   3.463  16.660 -0.9291  0.0033  0.0836
  789MPD2    C211630   1.697   3.496  16.665  0.4432 -0.1071 -0.4966
  789MPD2    C311631   1.653   3.625  16.693 -0.1249 -0.0524  0.0097
  789MPD2    C411632   1.751   3.719  16.704  0.1361 -0.2523 -0.0817
  789MPD2    C511633   1.886   3.688  16.711  0.3202 -0.1751 -0.5983
  789MPD2     H11634   1.624   3.416  16.663  0.5453 -0.1662 -1.9585
  789MPD2    H111635   1.715   3.819  16.726 -2.1797 -0.8221 -1.3069
  789MPD2    H211636   2.033   3.541  16.686 -0.3151  1.1244  0.9280
  789MPD2    H311637   1.959   3.767  16.726 -1.0596  0.7745  1.2630
  789MPD2     N11638   1.516   3.661  16.710 -1.1243 -0.4292 -0.7815
  789MPD2    H511639   1.489   3.759  16.714  2.3374  0.4137  2.4497
  789MPD2    N111640   1.873   3.331  16.626 -0.1098 -0.0666 -0.4601
  789MPD2    H711641   1.805   3.277  16.572 -2.0320  0.5260  1.3489
  790MPD2     C11642   2.639   0.649  13.746  0.3208 -0.0367 -0.1016
  790MPD2    C111643   2.672   0.516  13.746  1.1542 -0.6539  0.2875
  790MPD2    C211644   2.590   0.430  13.676  0.9012  0.3314  0.5771
  790MPD2    C311645   2.482   0.476  13.599  0.8767 -0.3416 -0.3684
  790MPD2    C411646   2.457   0.611  13.598  0.0429  0.5254  0.7490
  790MPD2    C511647   2.530   0.694  13.677  0.2491 -0.1141  0.0056
  790MPD2     H11648   2.614   0.325  13.670  1.4462  0.5948 -1.9479
  790MPD2    H111649   2.382   0.648  13.528  0.1930 -1.6637 -0.5782
  790MPD2    H211650   2.693   0.718  13.810 -0.6218  1.4024 -0.8604
  790MPD2    H311651   2.498   0.798  13.678  0.9062  0.0709  1.0550
  790MPD2     N11652   2.415   0.383  13.520  0.1202  0.1185 -0.1431
  790MPD2    H511653   2.444   0.286  13.519 -1.6347 -0.4348  2.6671
  790MPD2    N111654   2.793   0.478  13.812  0.7956 -0.3380 -0.5345
  790MPD2    H711655   2.842   0.555  13.857 -1.8104  2.0019 -1.7387
  791MPD2     C11656   1.750   0.445  13.085  0.2401 -0.4877  0.7642
  791MPD2    C111657   1.795   0.318  13.098  0.1033 -0.3872 -0.6906
  791MPD2    C211658   1.729   0.222  13.013  0.1237  0.7950  0.1070
  791MPD2    C311659   1.622   0.261  12.940 -0.0828  0.4690 -0.2463
  791MPD2    C411660   1.584   0.387  12.923 -0.6454 -0.1868 -0.2154
  791MPD2    C511661   1.652   0.479  12.996 -0.4241 -0.2032 -0.4988
  791MPD2     H11662   1.756   0.118  13.001  0.6791  0.9218  0.2773
  791MPD2    H111663   1.499   0.417  12.864  1.0201 -3.4099 -4.2637
  791MPD2    H211664   1.787   0.533  13.136 -1.5819  0.7147  0.0388
  791MPD2    H311665   1.623   0.584  12.993  2.1636  0.5356  0.2190
  791MPD2     N11666   1.565   0.157  12.862  0.2096  0.5275  0.8668
  791MPD2    H511667   1.619   0.072  12.850 -0.3982  0.1175  1.0304
  791MPD2    N111668   1.920   0.292  13.167 -0.1905  0.1326 -0.0500
  791MPD2    H711669   1.950   0.371  13.224  0.5272  0.9639 -1.5720
  792MPD2     C11670   2.818   0.357  10.837  0.8339  0.3888  0.0154
  792MPD2    C111671   2.948   0.341  10.868  0.5159 -0.3096 -0.2140
  792MPD2    C211672   3.008   0.214  10.860 -0.0681 -0.8996 -0.1698
  792MPD2    C311673   2.935   0.102  10.817 -0.5152  0.5514  0.1597
  792MPD2    C411674   2.802   0.125  10.792 -0.4652 -0.2447 -0.4660
  792MPD2    C511675   2.748   0.247  10.796 -0.8334 -0.3593  0.2963
  792MPD2     H11676   3.109   0.201  10.897  0.9947 -1.1968 -3.1830
  792MPD2    H111677   2.735   0.048  10.756 -0.3768 -1.4527  1.9372
  792MPD2    H211678   2.769   0.453  10.846 -1.3269 -0.5872 -1.0339
  792MPD2    H311679   2.645   0.249  10.763 -0.4019 -0.5188 -1.0767
  792MPD2     N11680   2.983   4.699  10.802 -0.1473  0.0786 -0.0354
  792MPD2    H511681   2.919   4.628  10.769  1.6103 -1.0495 -1.0090
  792MPD2    N111682   3.016   0.458  10.903 -0.1450 -0.1530  0.5549
  792MPD2    H711683   2.971   0.548  10.885  0.2168 -0.3392 -1.2570
  793MPD2     C11684   2.759   4.144  10.233  0.5217 -0.3401 -0.2186
  793MPD2    C111685   2.873   4.221  10.226  0.3948 -0.1089  0.0979
  793MPD2    C211686   2.933   4.255  10.349  0.1789 -0.3233 -0.9858
  793MPD2    C311687   2.876   4.233  10.465 -0.5031 -0.1991 -0.0438
  793MPD2    C411688   2.756   4.163  10.468 -0.0286  0.6956 -0.1630
  793MPD2    C511689   2.696   4.122  10.351  0.2122 -0.6383  0.3558
  793MPD2     H11690   3.016   4.324  10.344  0.0092 -0.0431  0.1224
  793MPD2    H111691   2.709   4.144  10.564  0.3182  1.6694  0.1979
  793MPD2    H211692   2.696   4.124  10.147 -1.3056  1.1545  0.7630
  793MPD2    H311693   2.601   4.070  10.344  1.1730 -2.1676 -1.3255
  793MPD2     N11694   2.941   4.273  10.584  0.1258 -0.3733  0.0400
  793MPD2    H511695   3.032   4.316  10.572 -0.2855  0.2342 -0.8934
  793MPD2    N111696   2.931   4.257  10.106  0.1686 -0.5458  0.0291
  793MPD2    H711697   3.024   4.298  10.117 -0.6320  1.0240  0.9589
  794MPD2     C11698   2.324   0.427  17.453  0.1842  0.5146 -0.4837
  794MPD2    C111699   2.279   0.296  17.421 -0.1582 -0.3254 -0.6175
  794MPD2    C211700   2.276   0.255  17.289  0.0608  0.0862 -0.3235
  794MPD2    C311701   2.342   0.332  17.193 -0.0397  0.7684  0.2630
  794MPD2    C411702   2.396   0.458  17.225 -0.0535  0.0744 -0.2397
  794MPD2    C511703   2.381   0.506  17.354 -0.1559 -0.1128  0.3943
  794MPD2     H11704   2.224   0.164  17.261 -0.8917  0.4558  0.2892
  794MPD2    H111705   2.439   0.520  17.147 -1.4453  1.6525  0.2240
  794MPD2    H211706   2.332   0.468  17.553  1.6273  0.5859 -0.6245
  794MPD2    H311707   2.423   0.604  17.375 -0.6724  0.3025 -0.5280
  794MPD2     N11708   2.339   0.303  17.054  0.2917 -0.1862  0.2379
  794MPD2    H511709   2.372   0.374  16.989  1.0039  0.2229  1.0435
  794MPD2    N111710   2.214   0.209  17.516  0.3510 -0.5639  0.1235
  794MPD2    H711711   2.174   0.126  17.475 -1.3983 -0.4708  1.5859
  795MPD2     C11712   0.236   1.906  13.550  0.5791  0.1530  0.0934
  795MPD2    C111713   0.206   1.771  13.563  0.0526  0.0894  1.0794
  795MPD2    C211714   0.311   1.681  13.575  0.1808  0.5036 -0.2097
  795MPD2    C311715   0.442   1.720  13.564 -0.2967  0.7097  0.2868
  795MPD2    C411716   0.466   1.858  13.544  0.0712  0.3869  0.4616
  795MPD2    C511717   0.362   1.943  13.537 -0.3434  0.0951  0.2897
  795MPD2     H11718   0.280   1.579  13.594  2.1715  0.0046  0.2713
  795MPD2    H111719   0.566   1.898  13.544  0.8913 -1.6694  0.7071
  795MPD2    H211720   0.154   1.977  13.550  0.9991  0.6342  0.1949
  795MPD2    H311721   0.392   2.047  13.535 -0.5121  0.1358 -0.3599
  795MPD2     N11722   0.550   1.633  13.562 -0.2739 -0.1209 -0.1580
  795MPD2    H511723   0.642   1.675  13.558  0.3241 -1.4176  0.0481
  795MPD2    N111724   0.076   1.721  13.584 -0.0747  0.3944 -0.4109
  795MPD2    H711725   0.057   1.622  13.577 -0.7854  0.4253  0.8977
  796MPD2     C11726   4.330   3.509  16.116 -0.3890  0.2255  0.0558
  796MPD2    C111727   4.397   3.574  16.220  0.2347 -0.4658 -0.4699
  796MPD2    C211728   4.367   3.708  16.246  0.6755 -0.4068  0.1775
  796MPD2    C311729   4.261   3.765  16.177  0.3526  0.6231  0.0045
  796MPD2    C411730   4.189   3.698  16.079  0.1991 -0.4990 -0.2218
  796MPD2    C511731   4.231   3.572  16.050 -0.0615 -0.5765 -0.3777
  796MPD2     H11732   4.419   3.765  16.322 -0.3677 -0.4516  0.9235
  796MPD2    H111733   4.102   3.744  16.036  0.6693  1.1789  0.6201
  796MPD2    H211734   4.357   3.408  16.085 -0.1729  0.4521 -0.4925
  796MPD2    H311735   4.189   3.520  15.964  0.8015  0.5555 -1.4694
  796MPD2     N11736   4.238   3.899  16.215 -0.1398  0.3576  0.1324
  796MPD2    H511737   4.292   3.946  16.287  1.6115 -0.6379 -0.5136
  796MPD2    N111738   4.495   3.503  16.293  0.0632 -0.5223  0.2513
  796MPD2    H711739   4.528   3.417  16.251 -0.3628 -0.4675 -0.2056
  797MPD2     C11740   0.511   2.828  17.631  0.4751  0.3282 -0.0149
  797MPD2    C111741   0.437   2.890   0.029  0.4965  0.1015  0.8332
  797MPD2    C211742   0.345   2.990   0.002  0.5107 -0.1988 -0.0357
  797MPD2    C311743   0.328   3.028  17.573  0.3122 -0.4354 -0.0212
  797MPD2    C411744   0.396   2.958  17.467  0.1267  0.4360 -0.1001
  797MPD2    C511745   0.485   2.858  17.501 -0.0396 -0.0465 -0.3456
  797MPD2     H11746   0.299   3.045   0.084 -0.3944 -0.4953 -0.3431
  797MPD2    H111747   0.373   2.973  17.362 -0.8971  1.2524  0.2353
  797MPD2    H211748   0.582   2.748  17.646  3.4263  2.9815  0.0991
  797MPD2    H311749   0.540   2.811  17.420  0.7143 -2.2714  1.4651
  797MPD2     N11750   0.240   3.129  17.542 -0.5978 -0.2102 -0.1209
  797MPD2    H511751   0.255   3.167  17.449  1.2036  1.0164  0.6682
  797MPD2    N111752   0.464   2.863   0.163 -0.2986  0.4489  0.2019
  797MPD2    H711753   0.411   2.917   0.230  1.6730  0.6540  1.5923
  798MPD2     C11754   0.155   3.416   0.527  0.5297 -0.2825  0.9959
  798MPD2    C111755   0.221   3.397   0.410 -0.0561  0.3306  0.1118
  798MPD2    C211756   0.338   3.328   0.404  0.1427 -0.1008 -0.1771
  798MPD2    C311757   0.387   3.266   0.515 -0.2332 -0.8055  0.2986
  798MPD2    C411758   0.323   3.289   0.637  0.1535 -0.1009 -0.0359
  798MPD2    C511759   0.208   3.359   0.639  0.1442  0.2000 -0.0879
  798MPD2     H11760   0.381   3.300   0.308  1.4545  1.8299 -0.1526
  798MPD2    H111761   0.365   3.255   0.731  0.1629  2.3156  0.8286
  798MPD2    H211762   0.061   3.468   0.541  1.2611  1.2531  0.1196
  798MPD2    H311763   0.155   3.380   0.731 -0.3592 -1.0749 -0.0898
  798MPD2     N11764   0.505   3.195   0.496 -0.4087  0.1488  0.2655
  798MPD2    H511765   0.549   3.201   0.405 -0.5730 -1.2231  0.0854
  798MPD2    N111766   0.166   3.449   0.288  0.4786 -0.0703 -0.2353
  798MPD2    H711767   0.069   3.476   0.280  1.0511  2.2674  0.8357
  799MPD2     C11768   3.947   4.676  14.632  0.0198  0.0548  0.0823
  799MPD2    C111769   3.926   4.586  14.527 -0.3918  0.7071  0.3459
  799MPD2    C211770   3.933   4.638  14.391  0.6349  0.2707 -0.1732
  799MPD2    C311771   3.943   0.050  14.377 -0.2772  0.5398 -0.4629
  799MPD2    C411772   3.946   0.137  14.486 -0.0409  0.0342  0.5695
  799MPD2    C511773   3.958   0.082  14.615 -0.5507  0.1604  0.2318
  799MPD2     H11774   3.925   4.573  14.306  0.4621  2.8519 -2.1400
  799MPD2    H111775   3.948   0.245  14.479 -0.1229  0.0530  0.8316
  799MPD2    H211776   3.957   4.649  14.737  0.5643 -0.5551 -0.1223
  799MPD2    H311777   3.955   0.148  14.701 -0.8772  0.4786 -0.0240
  799MPD2     N11778   3.970   0.106  14.254  1.0284  0.2130  0.2949
  799MPD2    H511779   4.006   0.200  14.263 -1.5874  1.1379  1.2784
  799MPD2    N111780   3.914   4.450  14.550 -0.4732 -0.2617  0.6524
  799MPD2    H711781   3.894   4.402  14.463 -0.0872  0.8414 -0.0448
  800MPD2     C11782   0.318   1.162  14.079 -0.1591  0.1799  0.1335
  800MPD2    C111783   0.454   1.137  14.095 -0.7956  0.6475 -0.2223
  800MPD2    C211784   0.493   1.017  14.140  0.2101  0.0599 -0.4445
  800MPD2    C311785   0.401   0.923  14.178  0.3752  0.3381  0.1583
  800MPD2    C411786   0.264   0.951  14.166  0.5236  0.2148 -0.7398
  800MPD2    C511787   0.227   1.077  14.124  0.5850  0.4925 -0.8488
  800MPD2     H11788   0.599   0.991  14.135 -0.2192 -2.0346  1.3750
  800MPD2    H111789   0.198   0.870  14.194  1.5743 -0.1143  0.7430
  800MPD2    H211790   0.270   1.255  14.050  0.0236  0.6266  1.2493
  800MPD2    H311791   0.121   1.093  14.110  0.9064  2.2744 -1.3458
  800MPD2     N11792   0.456   0.797  14.209 -0.3031 -0.3486 -0.0707
  800MPD2    H511793   0.557   0.789  14.205 -0.3057  0.2108 -1.0936
  800MPD2    N111794   0.545   1.246  14.063 -0.4774 -0.6782 -0.3590
  800MPD2    H711795   0.518   1.328  14.009  0.3234 -0.6366 -0.6986
  801MPD2     C11796   0.563   1.900  13.872  0.5007 -0.0375  0.0007
  801MPD2    C111797   0.527   1.791  13.945  0.6947 -0.0658 -0.0518
  801MPD2    C211798   0.425   1.792  14.033 -0.0019 -0.0588 -0.1854
  801MPD2    C311799   0.354   1.908  14.062  0.5744 -0.4792 -0.3345
  801MPD2    C411800   0.395   2.020  13.994 -0.8012  0.2153  0.5562
  801MPD2    C511801   0.496   2.018  13.905  0.2484  0.0315 -0.2801
  801MPD2     H11802   0.390   1.698  14.074  2.0272 -0.7343  0.0217
  801MPD2    H111803   0.363   2.118  14.026 -1.0992  0.9592 -2.1035
  801MPD2    H211804   0.638   1.893  13.795  0.6334 -0.5328  0.1752
  801MPD2    H311805   0.532   2.112  13.864  0.9167  0.2702  0.8626
  801MPD2     N11806   0.254   1.920  14.170  0.1150 -0.5758  0.6206
  801MPD2    H511807   0.234   2.003  14.224 -0.8150  0.3607 -1.2053
  801MPD2    N111808   0.609   1.675  13.943  0.5730 -0.3856  0.5471
  801MPD2    H711809   0.575   1.598  13.999 -0.6544  0.4111  0.9152
  802MPD2     C11810   4.195   3.075   0.602 -0.4332  0.1823 -0.3240
  802MPD2    C111811   4.183   3.061   0.470  0.5122 -0.2632 -0.2550
  802MPD2    C211812   4.292   3.031   0.395 -0.1495 -0.2318  0.7903
  802MPD2    C311813   4.413   3.009   0.457 -0.2336  0.0586 -0.4790
  802MPD2    C411814   4.429   3.039   0.593  0.8754 -0.0674 -0.2888
  802MPD2    C511815   4.317   3.075   0.658 -0.1248  0.2167  0.0861
  802MPD2     H11816   4.281   3.020   0.287 -1.1799  1.0987  0.7527
  802MPD2    H111817   4.516   3.005   0.648  0.2048 -0.3460  0.5939
  802MPD2    H211818   4.113   3.105   0.666  0.5693  3.3898 -0.5366
  802MPD2    H311819   4.332   3.106   0.761  0.2010 -0.8509  0.3521
  802MPD2     N11820   4.524   2.947   0.380 -0.2072 -0.0073  0.0666
  802MPD2    H511821   4.511   2.922   0.283 -0.5234  0.2390  0.0457
  802MPD2    N111822   4.059   3.085   0.397  0.7261  0.2236 -0.8094
  802MPD2    H711823   4.056   3.079   0.295 -0.0326 -3.3449 -0.5585
  803MPD2     C11824   0.727   0.313  11.815 -0.1120 -0.1355  0.1980
  803MPD2    C111825   0.769   0.363  11.934 -0.1142 -0.5446 -0.3150
  803MPD2    C211826   0.728   0.297  12.047  0.3603 -0.2201 -0.1612
  803MPD2    C311827   0.650   0.184  12.038 -0.5701 -0.1606  0.4390
  803MPD2    C411828   0.618   0.130  11.919  0.4002 -0.0890 -0.0266
  803MPD2    C511829   0.658   0.194  11.802  0.3601  0.4447  0.0674
  803MPD2     H11830   0.748   0.341  12.145 -1.1282  0.9790 -0.3974
  803MPD2    H111831   0.555   0.042  11.913  1.1326 -0.7315  1.6659
  803MPD2    H211832   0.771   0.346  11.721 -2.1560  1.0192 -0.3389
  803MPD2    H311833   0.649   0.148  11.705 -1.4103  0.4078  0.2491
  803MPD2     N11834   0.590   0.119  12.150 -0.7706  0.3462  0.0012
  803MPD2    H511835   0.571   0.020  12.140  2.2575 -0.1953 -0.3523
  803MPD2    N111836   0.861   0.468  11.939 -0.2272  0.5501 -0.1532
  803MPD2    H711837   0.903   0.484  12.030  0.5843 -0.7000 -0.3070
  804MPD2     C11838   0.159   1.622  17.113 -0.5706  0.7451 -0.4873
  804MPD2    C111839   0.161   1.573  17.246  0.5190  0.6478  0.3324
  804MPD2    C211840   0.181   1.673  17.336 -0.1160  0.4746  0.7995
  804MPD2    C311841   0.212   1.804  17.308 -0.5723 -0.0498  0.4741
  804MPD2    C411842   0.205   1.850  17.179 -0.4721  0.3572  0.0808
  804MPD2    C511843   0.173   1.759  17.084  0.0701 -0.2793  0.1920
  804MPD2     H11844   0.193   1.649  17.441  0.2759  1.1742  0.9209
  804MPD2    H111845   0.233   1.950  17.148  0.4450 -0.2715 -1.1181
  804MPD2    H211846   0.157   1.555  17.028  0.8294  0.8061 -0.5654
  804MPD2    H311847   0.167   1.789  16.980  1.7579  0.2328  0.2342
  804MPD2     N11848   0.264   1.884  17.412  0.0204 -0.1961 -0.2835
  804MPD2    H511849   0.278   1.842  17.503  1.1698  1.1121  0.1520
  804MPD2    N111850   0.138   1.440  17.285 -0.4267  0.1583 -0.2040
  804MPD2    H711851   0.128   1.416  17.383 -1.2882 -0.5737 -0.4713
  805MPD2     C11852   3.651   4.336  15.636  0.3244 -0.1228 -0.6679
  805MPD2    C111853   3.752   4.383  15.548  0.0568 -0.1332  0.4177
  805MPD2    C211854   3.834   4.486  15.600  0.6735 -0.0300 -0.3091
  805MPD2    C311855   3.833   4.521  15.731 -0.1182 -0.5286 -0.7359
  805MPD2    C411856   3.741   4.473  15.818  0.2196  0.7220 -0.6126
  805MPD2    C511857   3.643   4.392  15.766  0.6130  0.6326  0.3100
  805MPD2     H11858   3.914   4.528  15.540 -0.5766  0.8475 -1.3441
  805MPD2    H111859   3.733   4.514  15.918  0.7818  0.1603 -0.3363
  805MPD2    H211860   3.574   4.265  15.609  1.2243 -1.9047  1.4554
  805MPD2    H311861   3.560   4.368  15.831  0.2857  0.9221  0.0015
  805MPD2     N11862   3.924   4.611  15.775 -0.2265 -0.6584 -0.2651
  805MPD2    H511863   3.889   4.668  15.852  1.2956  0.6081 -0.4857
  805MPD2    N111864   3.758   4.347  15.410 -0.2600  0.2190 -0.6192
  805MPD2    H711865   3.829   4.397  15.356 -1.3042  1.7807 -0.5528
  806MPD2     C11866   3.903   4.039   0.466  0.8664  0.4452  0.5144
  806MPD2    C111867   4.022   3.962   0.475  0.0934  1.0919  0.2367
  806MPD2    C211868   4.129   3.989   0.390 -0.6657 -0.5113  0.6080
  806MPD2    C311869   4.115   4.099   0.308  0.2857 -0.5610  0.1293
  806MPD2    C411870   4.000   4.176   0.300 -0.5064 -0.0529 -0.2349
  806MPD2    C511871   3.896   4.146   0.383  0.5191 -0.4609  0.3039
  806MPD2     H11872   4.223   3.934   0.398  0.6424  1.6215 -0.0754
  806MPD2    H111873   3.983   4.264   0.240 -0.8505 -1.4199 -2.1591
  806MPD2    H211874   3.822   4.018   0.534  0.2020 -3.2929 -1.4338
  806MPD2    H311875   3.810   4.212   0.375 -0.0852 -1.1266  1.2991
  806MPD2     N11876   4.237   4.144   0.242 -0.0003 -0.2790 -0.0521
  806MPD2    H511877   4.314   4.078   0.241  0.4136  0.1748  2.5289
  806MPD2    N111878   4.026   3.862   0.574  0.6816  0.0164 -0.1122
  806MPD2    H711879   3.943   3.846   0.631  0.8770 -0.8833 -0.0828
  807MPD2     C11880   3.614   3.720   1.134 -0.1754 -0.2305  0.1909
  807MPD2    C111881   3.738   3.723   1.184  0.3165 -0.0368 -0.2598
  807MPD2    C211882   3.768   3.733   1.318  0.5698 -0.2041  0.1530
  807MPD2    C311883   3.660   3.739   1.407 -0.0369 -0.0225  0.2748
  807MPD2    C411884   3.535   3.744   1.359 -0.2429 -0.9895 -0.3119
  807MPD2    C511885   3.508   3.733   1.224  0.0313  0.8037  0.8616
  807MPD2     H11886   3.868   3.743   1.359  1.5954 -0.5049 -2.2416
  807MPD2    H111887   3.445   3.744   1.419 -1.2359  0.9227 -1.8022
  807MPD2    H211888   3.585   3.708   1.031  0.2379  0.3220  0.0075
  807MPD2    H311889   3.405   3.725   1.192  0.3659 -0.4888  0.0966
  807MPD2     N11890   3.688   3.730   1.544  0.3524 -0.1540 -0.4348
  807MPD2    H511891   3.785   3.710   1.562 -0.0736  0.6812  2.8925
  807MPD2    N111892   3.854   3.694   1.106  0.0545  0.0009  0.4431
  807MPD2    H711893   3.944   3.678   1.151  0.1008  0.6722  0.5894
  808MPD2     C11894   4.000   1.728   9.611  0.3997 -0.2643 -0.9307
  808MPD2    C111895   4.073   1.614   9.576  0.1423 -0.2118 -0.3298
  808MPD2    C211896   4.210   1.603   9.598 -0.3307  0.1306  0.3278
  808MPD2    C311897   4.275   1.708   9.654  0.4898 -0.7236 -0.1968
  808MPD2    C411898   4.204   1.822   9.687  0.2429 -0.1092 -0.3390
  808MPD2    C511899   4.068   1.829   9.669  0.4245 -0.1001 -0.2750
  808MPD2     H11900   4.263   1.515   9.563 -0.5470 -0.4894  1.5512
  808MPD2    H111901   4.256   1.909   9.727  0.5446  0.8971 -2.9030
  808MPD2    H211902   3.896   1.742   9.583  0.0392  0.2064  0.6461
  808MPD2    H311903   4.025   1.920   9.709 -1.7442 -1.6089  0.8593
  808MPD2     N11904   4.421   1.714   9.668  0.4596 -0.2781  0.2668
  808MPD2    H511905   4.456   1.807   9.690  0.0150  0.5528 -2.5287
  808MPD2    N111906   4.014   1.504   9.500 -0.2127  0.6038 -0.2458
  808MPD2    H711907   4.075   1.429   9.468  0.8465  2.2059 -1.9721
  809MPD2     C11908   0.600   1.204   9.582  0.0861  0.5141 -0.0300
  809MPD2    C111909   0.574   1.260   9.706  0.0724 -0.3871  0.1276
  809MPD2    C211910   0.464   1.339   9.724  0.5058 -0.3174 -0.0045
  809MPD2    C311911   0.371   1.354   9.623 -0.2640 -0.3572  0.3123
  809MPD2    C411912   0.396   1.295   9.503  0.1133 -0.0759 -0.8387
  809MPD2    C511913   0.507   1.219   9.484 -0.6302 -0.1834  0.0448
  809MPD2     H11914   0.455   1.381   9.824 -1.8750 -1.4204  0.2540
  809MPD2    H111915   0.332   1.304   9.416  0.0905  0.1620 -0.7960
  809MPD2    H211916   0.689   1.144   9.566  1.2103  1.9364  0.8740
  809MPD2    H311917   0.540   1.177   9.390  1.0283 -1.3770  1.1555
  809MPD2     N11918   0.260   1.440   9.626  0.4453 -0.1010  0.0817
  809MPD2    H511919   0.199   1.440   9.545 -2.3994 -2.3570  2.2214
  809MPD2    N111920   0.665   1.236   9.813 -0.0450 -0.7249 -0.0620
  809MPD2    H711921   0.653   1.285   9.901  0.5023 -3.1962  1.3976
  810MPD2     C11922   4.261   0.489  11.047  0.3988  0.0805  0.3136
  810MPD2    C111923   4.348   0.578  11.101 -0.0177 -0.4498 -0.0589
  810MPD2    C211924   4.341   0.711  11.067 -0.7701  0.0406  0.6435
  810MPD2    C311925   4.248   0.752  10.972  0.1873  0.3758 -0.3650
  810MPD2    C411926   4.162   0.651  10.920  0.4175 -0.1163  0.1268
  810MPD2    C511927   4.174   0.520  10.950  0.3137  0.2474 -1.1474
  810MPD2     H11928   4.412   0.785  11.103 -0.2916 -0.4986  0.8107
  810MPD2    H111929   4.080   0.682  10.857  0.1179 -1.4078 -0.1262
  810MPD2    H211930   4.279   0.384  11.064 -1.7539  0.0463  2.4080
  810MPD2    H311931   4.118   0.441  10.901  0.4965  0.3685 -1.5526
  810MPD2     N11932   4.229   0.894  10.948 -0.2134  0.6634  0.2241
  810MPD2    H511933   4.154   0.905  10.880  0.7062 -0.7860 -1.0247
  810MPD2    N111934   4.449   0.523  11.180  0.0484  0.3617  0.0400
  810MPD2    H711935   4.435   0.423  11.195 -0.5400  0.2724 -1.0675
  811MPD2     C11936   0.167   0.290  10.605  0.8048  0.4636 -0.3543
  811MPD2    C111937   0.104   0.390  10.676  0.0519 -0.3630  0.4037
  811MPD2    C211938   0.055   0.500  10.607 -0.4109  0.3187  0.0458
  811MPD2    C311939   0.041   0.497  10.466 -0.3011  0.7228  0.0681
  811MPD2    C411940   0.095   0.387  10.397  1.1869  0.0002  0.4042
  811MPD2    C511941   0.164   0.286  10.463  0.1258 -0.2053  0.1224
  811MPD2     H11942   0.013   0.583  10.662  1.0749 -0.5286  2.4556
  811MPD2    H111943   0.102   0.380  10.289 -1.0055  0.2240  0.2531
  811MPD2    H211944   0.221   0.204  10.644  0.3270  0.0195 -0.6673
  811MPD2    H311945   0.200   0.206  10.400  1.9900  1.0694 -0.4340
  811MPD2     N11946   4.710   0.608  10.402 -0.0944 -0.1025 -0.6627
  811MPD2    H511947   4.676   0.678  10.467 -1.2509 -0.6743 -0.6457
  811MPD2    N111948   0.106   0.383  10.821  0.0042  0.0950  0.1976
  811MPD2    H711949   0.137   0.295  10.861 -0.7957 -0.5886 -0.6750
  812MPD2     C11950   3.208   0.377  12.138 -0.4431  0.0149 -0.3171
  812MPD2    C111951   3.190   0.425  12.266  0.0659  0.4854  0.1763
  812MPD2    C211952   3.182   0.330  12.372 -0.4139  0.1947  0.2114
  812MPD2    C311953   3.194   0.196  12.349 -0.4374 -0.3040 -0.1335
  812MPD2    C411954   3.212   0.158  12.218 -0.2582 -0.0037 -0.2595
  812MPD2    C511955   3.225   0.250  12.110 -0.1431  0.5434 -0.2866
  812MPD2     H11956   3.160   0.364  12.472 -1.2240 -0.0144  0.1014
  812MPD2    H111957   3.201   0.057  12.179 -0.4681 -0.5472  1.1990
  812MPD2    H211958   3.211   0.447  12.055  0.4843  0.2864 -0.0608
  812MPD2    H311959   3.251   0.217  12.010  2.0397  3.0611 -0.5826
  812MPD2     N11960   3.181   0.091  12.446 -0.2634 -0.2970 -0.1856
  812MPD2    H511961   3.188   4.722  12.411 -1.2754  0.0478 -1.3573
  812MPD2    N111962   3.161   0.566  12.285 -1.0486  0.4580  0.3604
  812MPD2    H711963   3.168   0.620  12.200  1.2698  1.3516  1.1275
  813MPD2     C11964   2.888   2.002  12.922 -0.0228  0.3653  0.1705
  813MPD2    C111965   2.851   2.128  12.879  0.2199  0.0542  0.1588
  813MPD2    C211966   2.730   2.171  12.920  0.1038  0.1580  0.1659
  813MPD2    C311967   2.652   2.105  13.019 -0.9047  0.2414 -0.2105
  813MPD2    C411968   2.694   1.981  13.057 -0.3193  0.2472  0.0577
  813MPD2    C511969   2.806   1.925  13.007 -0.0640 -0.1674 -0.7402
  813MPD2     H11970   2.691   2.265  12.881 -0.3255 -0.8722 -1.8545
  813MPD2    H111971   2.645   1.924  13.135  0.8285 -0.4851  0.2396
  813MPD2    H211972   2.990   1.968  12.902 -0.2389 -0.5739  0.6709
  813MPD2    H311973   2.833   1.826  13.042  3.1455  1.2662  0.9488
  813MPD2     N11974   2.540   2.170  13.073  0.1378  0.6944 -0.3876
  813MPD2    H511975   2.537   2.270  13.054  1.5890  0.7439 -0.3813
  813MPD2    N111976   2.926   2.195  12.781 -0.7178  0.1528 -0.5054
  813MPD2    H711977   2.998   2.142  12.734 -0.2765  0.1095  0.2177
  814MPD2     C11978   2.856   3.593  12.199  0.4715  0.2931 -0.0237
  814MPD2    C111979   2.949   3.618  12.106  0.1012 -0.1673 -1.1312
  814MPD2    C211980   3.020   3.740  12.101 -0.2871 -0.7500  0.6057
  814MPD2    C311981   2.988   3.835  12.195 -0.3186  0.0720  1.2802
  814MPD2    C411982   2.875   3.806  12.274  0.7798 -0.0023 -0.3961
  814MPD2    C511983   2.811   3.689  12.277  0.5849  0.0485 -0.0250
  814MPD2     H11984   3.104   3.753  12.034 -1.5021  1.3660 -0.5067
  814MPD2    H111985   2.847   3.871  12.356  2.6187  0.9168 -0.5090
  814MPD2    H211986   2.803   3.500  12.213 -0.7945  0.8774 -0.9166
  814MPD2    H311987   2.723   3.676  12.340 -0.7484 -0.5397 -2.0037
  814MPD2     N11988   3.057   3.956  12.210  0.3091 -0.7047 -0.9713
  814MPD2    H511989   3.018   4.023  12.276  2.3847  0.3140 -0.7839
  814MPD2    N111990   2.981   3.523  12.004  0.2031 -0.2304 -0.1565
  814MPD2    H711991   3.028   3.562  11.923 -0.0092  1.4688  0.5366
  815MPD2     C11992   3.470   2.384  11.842  0.1426  0.7397 -0.8316
  815MPD2    C111993   3.440   2.258  11.887 -0.4058 -0.2167  0.0649
  815MPD2    C211994   3.311   2.246  11.952  0.1453 -0.2893  0.5049
  815MPD2    C311995   3.247   2.363  11.992 -0.3739  0.4823  0.4419
  815MPD2    C411996   3.300   2.490  11.974  0.2777 -0.6946 -0.1453
  815MPD2    C511997   3.406   2.497  11.892 -0.5072 -0.3764 -0.2527
  815MPD2     H11998   3.260   2.153  11.978  1.0013 -1.3462 -1.5926
  815MPD2    H111999   3.259   2.579  12.020 -0.2813  0.1268 -2.2395
  815MPD2    H212000   3.553   2.404  11.776  0.9962 -0.8379 -0.2439
  815MPD2    H312001   3.438   2.595  11.858  0.4542 -0.7252 -0.3546
  815MPD2     N12002   3.120   2.335  12.046 -0.2643 -0.6784  0.1061
  815MPD2    H512003   3.085   2.240  12.039 -0.3619 -0.6400  0.0745
  815MPD2    N112004   3.518   2.145  11.844  0.7202 -0.2847  0.2502
  815MPD2    H712005   3.604   2.169  11.794  1.1364 -1.6711  0.3164
  816MPD2     C12006   3.732   1.547   0.079  0.5438 -0.1632 -0.0236
  816MPD2    C112007   3.683   1.609  17.665 -0.0548 -0.6232 -0.0929
  816MPD2    C212008   3.728   1.563  17.543  0.7188 -0.2981  0.2351
  816MPD2    C312009   3.834   1.472  17.538  1.0558 -0.4908  0.2969
  816MPD2    C412010   3.879   1.416  17.652  0.2870 -0.0962  0.2278
  816MPD2    C512011   3.829   1.452   0.070  0.3267 -0.0036  1.0617
  816MPD2     H12012   3.694   1.598  17.446  0.0077 -0.4031  0.4445
  816MPD2    H112013   3.962   1.346  17.652 -1.2411 -1.9151 -1.1415
  816MPD2    H212014   3.697   1.575   0.177 -1.3635 -1.5434 -0.3243
  816MPD2    H312015   3.860   1.399   0.159  2.0006 -1.0356 -0.1324
  816MPD2     N12016   3.885   1.435  17.412 -0.1219  0.1076  0.0509
  816MPD2    H512017   3.836   1.479  17.334  0.1242  3.0829  1.5541
  816MPD2    N112018   3.586   1.709  17.682 -0.1442 -0.2082  0.2652
  816MPD2    H712019   3.557   1.723   0.074 -3.3440 -2.3865 -0.3855
  817MPD2     C12020   2.594   2.617   9.415 -0.4218  0.0733  0.3254
  817MPD2    C112021   2.560   2.486   9.408 -0.2696  0.2064 -0.0277
  817MPD2    C212022   2.458   2.446   9.325  1.4675  0.4250 -0.5974
  817MPD2    C312023   2.393   2.536   9.244  0.0772  0.2748 -0.2524
  817MPD2    C412024   2.437   2.665   9.254  0.2794 -0.8765  0.5036
  817MPD2    C512025   2.524   2.710   9.346  0.2432 -0.1934  0.1895
  817MPD2     H12026   2.419   2.345   9.324 -2.2865  1.8767 -1.7105
  817MPD2    H112027   2.390   2.748   9.203  1.3612 -1.7269 -1.8875
  817MPD2    H212028   2.668   2.652   9.486  0.1644  2.1022 -1.3072
  817MPD2    H312029   2.539   2.818   9.350 -1.8050  0.1000 -0.0343
  817MPD2     N12030   2.284   2.497   9.160 -0.4487  0.3257 -0.1845
  817MPD2    H512031   2.262   2.398   9.146  0.2507  0.0053  0.9422
  817MPD2    N112032   2.617   2.390   9.493  0.0785  0.0368 -0.1156
  817MPD2    H712033   2.615   2.304   9.438  0.7761 -0.5270  0.7301
  818MPD2     C12034   2.399   3.225   9.758  0.0098 -0.0494 -0.0286
  818MPD2    C112035   2.360   3.127   9.847 -0.2941 -0.0378 -0.5974
  818MPD2    C212036   2.381   3.001   9.815  0.0812 -0.3768 -0.2375
  818MPD2    C312037   2.442   2.956   9.699 -0.4694  0.1850  0.2064
  818MPD2    C412038   2.474   3.053   9.604  0.3462  0.2391 -0.4038
  818MPD2    C512039   2.455   3.179   9.641 -0.5543  0.5750  0.1090
  818MPD2     H12040   2.342   2.933   9.890  3.3597  0.9090  2.6235
  818MPD2    H112041   2.533   3.025   9.517  1.1531 -0.1090  0.2513
  818MPD2    H212042   2.395   3.332   9.773  2.3381  0.3749 -2.4857
  818MPD2    H312043   2.497   3.257   9.577  0.1669 -0.7007 -0.9834
  818MPD2     N12044   2.451   2.820   9.668  0.1727  0.1842 -0.5192
  818MPD2    H512045   2.474   2.789   9.574  1.9932 -2.3254  0.7707
  818MPD2    N112046   2.282   3.141   9.963 -0.4575  0.8141 -0.6033
  818MPD2    H712047   2.250   3.060  10.015  1.8998 -0.0945 -0.5916
  819MPD2     C12048   0.201   0.112  15.827 -0.1200  0.8822  0.2103
  819MPD2    C112049   0.196   4.715  15.761  0.4837 -0.2624  0.2433
  819MPD2    C212050   0.282   4.612  15.799  0.1384  0.1398  0.1150
  819MPD2    C312051   0.372   4.630  15.900  0.8150 -0.8096 -0.4546
  819MPD2    C412052   0.372   0.031  15.969  0.0985 -0.0292  0.2887
  819MPD2    C512053   0.287   0.134  15.928  0.7446 -0.2678  0.4113
  819MPD2     H12054   0.284   4.513  15.756 -0.5831  0.5437 -0.8657
  819MPD2    H112055   0.438   0.041  16.055  0.6814 -1.0072 -0.0353
  819MPD2    H212056   0.116   0.178  15.817 -1.1185 -0.8455 -2.5692
  819MPD2    H312057   0.289   0.231  15.976 -1.4425  0.3186 -0.6912
  819MPD2     N12058   0.442   4.514  15.935 -0.4967  0.9500 -0.6973
  819MPD2    H512059   0.430   4.429  15.881 -1.9000 -0.4650  1.8099
  819MPD2    N112060   0.093   4.692  15.664 -0.1628  0.1621  0.6626
  819MPD2    H712061   0.031   0.043  15.638  0.1301  0.4962  0.9502
  820MPD2     C12062   4.216   4.662  14.937 -0.0923  0.2030 -0.3458
  820MPD2    C112063   4.144   4.644  15.049  0.1050 -0.7237 -0.5562
  820MPD2    C212064   4.196   4.677  15.172 -0.0784  0.4631  0.0735
  820MPD2    C312065   4.333   4.718  15.189  0.0548  0.5923  0.3634
  820MPD2    C412066   4.405   0.004  15.071 -0.1264 -0.4114 -0.3150
  820MPD2    C512067   4.344   4.704  14.951 -0.1042 -0.0107  0.2539
  820MPD2     H12068   4.142   4.642  15.260 -0.6779  2.9623  0.6747
  820MPD2    H112069   4.510   0.033  15.074 -0.2211 -0.0583 -0.4100
  820MPD2    H212070   4.186   4.622  14.841 -0.3535 -0.5397  0.0499
  820MPD2    H312071   4.401   4.712  14.858 -0.2551  1.0759  0.2551
  820MPD2     N12072   4.408   0.001  15.310 -0.4036 -0.4156 -0.5632
  820MPD2    H512073   4.508   0.014  15.302 -0.2447 -0.6052  0.9541
  820MPD2    N112074   4.025   4.573  15.032 -0.4046  0.3319  0.0290
  820MPD2    H712075   3.999   4.544  14.938 -0.5460  0.9967 -0.1395
  821MPD2     C12076   0.573   0.361  13.546  0.7689 -0.4974  0.0135
  821MPD2    C112077   0.680   0.428  13.600  0.6129 -0.0521 -0.4297
  821MPD2    C212078   0.800   0.442  13.524  0.1730  0.6869 -0.4886
  821MPD2    C312079   0.803   0.420  13.391 -0.2449 -0.0415  0.4589
  821MPD2    C412080   0.693   0.349  13.337 -0.0805 -0.7223 -0.0060
  821MPD2    C512081   0.582   0.316  13.412 -0.3315 -0.4262 -0.2218
  821MPD2     H12082   0.890   0.480  13.571  0.5333  0.3654 -0.9208
  821MPD2    H112083   0.689   0.306  13.238 -1.2398  1.2412 -0.8197
  821MPD2    H212084   0.488   0.329  13.604  0.8107  2.6048  1.7867
  821MPD2    H312085   0.498   0.271  13.360 -0.8116 -1.5793  1.5467
  821MPD2     N12086   0.902   0.460  13.311 -0.2721  0.2118  0.4474
  821MPD2    H512087   0.873   0.468  13.214 -2.3006  2.4267  1.2266
  821MPD2    N112088   0.684   0.463  13.740  0.6063  0.5332  0.1056
  821MPD2    H712089   0.775   0.497  13.770  0.8812 -1.6425  1.8043
  822MPD2     C12090   0.592   1.057  15.670 -0.1776  0.1827  0.2658
  822MPD2    C112091   0.675   1.041  15.778  0.7532  0.5788 -0.5463
  822MPD2    C212092   0.648   1.115  15.889 -0.1370 -0.1779 -0.1296
  822MPD2    C312093   0.543   1.207  15.891 -0.5584  0.1535 -0.7508
  822MPD2    C412094   0.453   1.205  15.786 -0.5997  0.7286  0.5685
  822MPD2    C512095   0.481   1.144  15.668 -0.3643 -0.2331  0.7789
  822MPD2     H12096   0.704   1.101  15.980  1.2217  0.4907 -0.8692
  822MPD2    H112097   0.369   1.274  15.795 -0.4711  0.9694 -0.0436
  822MPD2    H212098   0.622   1.009  15.577  0.4284  0.8666  0.1052
  822MPD2    H312099   0.414   1.145  15.583  1.0776 -0.1207 -0.3609
  822MPD2     N12100   0.518   1.278  16.012 -0.3023  0.9167 -0.7525
  822MPD2    H512101   0.565   1.246  16.096  0.2153 -0.1671 -1.4550
  822MPD2    N112102   0.792   0.963  15.803 -0.3263  0.2804 -0.5541
  822MPD2    H712103   0.860   0.985  15.875  1.5778  1.0687 -2.5744
  823MPD2     C12104   0.296   1.401  16.804 -0.3437  0.5239 -0.3671
  823MPD2    C112105   0.312   1.314  16.701  0.1034  0.3815 -0.0360
  823MPD2    C212106   0.387   1.205  16.719 -0.2161  0.2379  0.1882
  823MPD2    C312107   0.442   1.171  16.837  0.1939 -0.8520 -0.3201
  823MPD2    C412108   0.426   1.256  16.945 -0.3192  0.0047  0.3891
  823MPD2    C512109   0.355   1.373  16.922  0.7428  0.0541 -0.0000
  823MPD2     H12110   0.407   1.146  16.631 -1.5137  1.7391 -1.0987
  823MPD2    H112111   0.474   1.241  17.041 -5.0971 -1.0751  2.6192
  823MPD2    H212112   0.233   1.486  16.781 -1.5163 -0.8934 -2.3833
  823MPD2    H312113   0.321   1.433  17.006  2.2350  1.8422 -0.6728
  823MPD2     N12114   0.523   1.057  16.863 -0.5773 -0.7075 -0.4061
  823MPD2    H512115   0.551   1.045  16.960  0.8837 -1.0846 -0.8770
  823MPD2    N112116   0.251   1.363  16.576 -0.6262 -0.4492 -0.1716
  823MPD2    H712117   0.200   1.450  16.585  1.5891  0.7274  1.0036
  824MPD2     C12118   1.140   0.194  15.727  0.5197  0.0009  0.3328
  824MPD2    C112119   1.251   0.274  15.736  0.1012 -0.6206 -0.4954
  824MPD2    C212120   1.376   0.228  15.731  0.6063 -0.1760 -0.1451
  824MPD2    C312121   1.398   0.094  15.719  0.1808  0.4498  0.1861
  824MPD2    C412122   1.284   0.009  15.723  0.4098  0.6558  0.8636
  824MPD2    C512123   1.159   0.060  15.728 -0.7723 -0.4666 -0.1126
  824MPD2     H12124   1.459   0.298  15.735  0.8714 -0.5936  1.7353
  824MPD2    H112125   1.309   4.635  15.688 -0.3038  0.7824 -0.0048
  824MPD2    H212126   1.039   0.230  15.715  0.1473 -0.5895  1.6562
  824MPD2    H312127   1.067   0.003  15.723 -1.2703  0.3546 -0.2988
  824MPD2     N12128   1.533   0.050  15.706  0.1258  0.1409 -0.5200
  824MPD2    H512129   1.597   0.128  15.706  2.0989 -1.4776  0.3471
  824MPD2    N112130   1.242   0.420  15.742 -0.0849 -0.5974  0.3303
  824MPD2    H712131   1.316   0.477  15.781  0.2992 -0.3692 -0.7327
  825MPD2     C12132   2.147   4.679  15.154 -0.5562  0.0370 -1.1397
  825MPD2    C112133   2.087   0.034  15.251 -0.4768  0.5242  0.1420
  825MPD2    C212134   2.092   0.170  15.222 -1.1291 -0.0159 -0.3246
  825MPD2    C312135   2.159   0.226  15.110 -0.7186 -0.8510 -0.1195
  825MPD2    C412136   2.213   0.135  15.021  0.3274  0.0387  0.5382
  825MPD2    C512137   2.205   0.004  15.043  0.1286  0.1842 -0.2384
  825MPD2     H12138   2.048   0.237  15.295  2.5996  1.9550  0.1006
  825MPD2    H112139   2.267   0.172  14.934 -0.4057  0.3610  0.2126
  825MPD2    H212140   2.131   4.573  15.169  2.1225 -0.4034 -1.3953
  825MPD2    H312141   2.240   4.664  14.964  3.4884  2.9305 -1.0115
  825MPD2     N12142   2.182   0.365  15.082 -0.0774  0.1292  0.5330
  825MPD2    H512143   2.241   0.387  15.003 -1.9878  2.0388 -0.3743
  825MPD2    N112144   2.018   4.704  15.361 -0.3290 -0.4379 -0.6289
  825MPD2    H712145   2.033   4.604  15.371 -3.1241 -0.7417  0.4947
  826MPD2     C12146   1.664   4.682  13.689  0.5175 -0.5393  0.0443
  826MPD2    C112147   1.533   4.659  13.646  0.1178 -0.5976 -0.3778
  826MPD2    C212148   1.442   0.004  13.720 -0.0674 -0.1337 -0.5660
  826MPD2    C312149   1.473   0.096  13.817 -0.2839 -0.1038 -0.1875
  826MPD2    C412150   1.602   0.122  13.853 -0.4156 -0.3624 -0.0216
  826MPD2    C512151   1.689   0.040  13.791  0.3968 -0.5976  0.3374
  826MPD2     H12152   1.343   4.721  13.678 -0.9794 -2.5442  2.0943
  826MPD2    H112153   1.632   0.187  13.935  0.1675  0.1168 -0.6134
  826MPD2    H212154   1.747   4.621  13.657 -0.6415 -2.3227  0.4514
  826MPD2    H312155   1.790   0.067  13.818  1.4177 -1.9768 -2.0660
  826MPD2     N12156   1.378   0.176  13.881  0.6728 -0.1660 -0.0137
  826MPD2    H512157   1.418   0.241  13.948  2.6111  0.0170 -1.3384
  826MPD2    N112158   1.506   4.558  13.549  0.2161 -0.1350 -0.3360
  826MPD2    H712159   1.587   4.516  13.504  0.7869 -0.4321  0.9959
  827MPD2     C12160   2.364   1.717  10.126 -0.1413 -0.8668  0.2364
  827MPD2    C112161   2.377   1.586  10.162  0.4225  0.2689  0.0741
  827MPD2    C212162   2.290   1.495  10.109  0.1476 -0.1123 -0.2416
  827MPD2    C312163   2.193   1.539  10.022  0.6368  0.5672 -0.3855
  827MPD2    C412164   2.184   1.668   9.983 -0.1032  0.2613 -0.4681
  827MPD2    C512165   2.271   1.759  10.036  0.3432 -0.1974  0.1282
  827MPD2     H12166   2.297   1.389  10.131  0.5394 -0.1833 -0.7038
  827MPD2    H112167   2.107   1.704   9.916 -0.8522 -0.4917 -0.0253
  827MPD2    H212168   2.428   1.792  10.170  1.0099 -2.2542  0.9307
  827MPD2    H312169   2.259   1.864  10.013  0.4140 -0.4613 -1.0933
  827MPD2     N12170   2.111   1.440   9.966  0.1953 -0.2614  0.6383
  827MPD2    H512171   2.128   1.343   9.989 -0.5011 -0.5986 -0.2717
  827MPD2    N112172   2.473   1.550  10.257 -0.1817  0.2049  0.1099
  827MPD2    H712173   2.538   1.625  10.278  0.7985 -0.4331 -0.6623
  828MPD2     C12174   0.481   1.211  12.906  0.2365  0.1322  0.8145
  828MPD2    C112175   0.466   1.253  12.776 -0.0506 -0.0259  0.2656
  828MPD2    C212176   0.584   1.281  12.708  0.7509  0.0039  1.0223
  828MPD2    C312177   0.708   1.248  12.751 -1.1888  0.2844 -0.0437
  828MPD2    C412178   0.715   1.194  12.876 -0.8695  0.0795  0.4068
  828MPD2    C512179   0.607   1.175  12.953 -0.0971  0.0944 -0.4383
  828MPD2     H12180   0.563   1.315  12.607 -0.5745 -1.3477  0.8432
  828MPD2    H112181   0.812   1.162  12.911 -0.6458  1.9003  1.4260
  828MPD2    H212182   0.391   1.206  12.965 -1.1086  1.3349 -1.1439
  828MPD2    H312183   0.615   1.132  13.052 -0.6877 -0.4612 -0.6287
  828MPD2     N12184   0.820   1.236  12.665 -0.7552 -0.4604 -0.0657
  828MPD2    H512185   0.903   1.189  12.701 -1.3958 -1.1571  0.5203
  828MPD2    N112186   0.341   1.269  12.710  0.0553 -0.0731  0.1906
  828MPD2    H712187   0.349   1.309  12.618  1.5159 -2.8927 -0.8974
  829MPD2     C12188   0.553   1.158  11.971  0.2338  0.1749  0.4598
  829MPD2    C112189   0.428   1.213  11.944 -0.3805  0.7835 -0.4661
  829MPD2    C212190   0.332   1.225  12.042  0.0742 -0.6665  0.6604
  829MPD2    C312191   0.348   1.153  12.161 -1.1985  0.0961  0.1340
  829MPD2    C412192   0.461   1.073  12.172 -0.1111 -0.2960  0.1109
  829MPD2    C512193   0.566   1.085  12.084  0.8489 -0.3831  0.0379
  829MPD2     H12194   0.237   1.278  12.037  1.5785  2.1252  1.7890
  829MPD2    H112195   0.480   1.018  12.263  0.7689 -1.3403 -0.7145
  829MPD2    H212196   0.635   1.161  11.899  0.1077  0.8114  0.3403
  829MPD2    H312197   0.658   1.031  12.102  1.3026  0.8319  1.4254
  829MPD2     N12198   0.253   1.152  12.270 -0.0473  0.4458  0.1857
  829MPD2    H512199   0.292   1.099  12.348  4.0248 -0.1730 -2.2664
  829MPD2    N112200   0.407   1.268  11.817  0.2281  0.0253  0.3334
  829MPD2    H712201   0.485   1.251  11.753  0.8869 -0.1381  1.1834
  830MPD2     C12202   0.435   3.733  16.288  0.0715  0.5594 -0.5204
  830MPD2    C112203   0.414   3.817  16.179 -0.3117  0.3921 -0.8138
  830MPD2    C212204   0.405   3.774  16.049  0.7506 -0.6656  0.1570
  830MPD2    C312205   0.429   3.638  16.026 -0.9642 -0.6100 -0.3531
  830MPD2    C412206   0.455   3.557  16.133  0.2419  0.0082 -0.0473
  830MPD2    C512207   0.451   3.600  16.261  0.0552  0.2480 -0.0866
  830MPD2     H12208   0.405   3.845  15.967  0.2513 -1.9190 -0.9225
  830MPD2    H112209   0.467   3.449  16.128  0.2634 -0.0452  1.1739
  830MPD2    H212210   0.427   3.770  16.390  0.4577 -0.6311 -0.0595
  830MPD2    H312211   0.456   3.523  16.338  2.5389  0.5200  0.0335
  830MPD2     N12212   0.450   3.574  15.898  0.2137  0.3831  0.2763
  830MPD2    H512213   0.476   3.476  15.904  0.0833  0.2925 -0.5811
  830MPD2    N112214   0.409   3.952  16.198 -0.7032 -0.5878 -0.0291
  830MPD2    H712215   0.433   3.984  16.291 -1.8479  2.0552 -0.6439
  831MPD2     C12216   0.753   1.473  16.325 -0.5223 -0.4607 -0.1559
  831MPD2    C112217   0.782   1.373  16.232  0.1896  0.7032  0.2287
  831MPD2    C212218   0.724   1.246  16.245  0.0977 -0.0032  0.4066
  831MPD2    C312219   0.645   1.210  16.349 -0.0085 -0.7390 -0.9337
  831MPD2    C412220   0.619   1.303  16.448  0.3327  0.0643  0.1583
  831MPD2    C512221   0.673   1.424  16.436  0.8251  0.2786 -0.0235
  831MPD2     H12222   0.738   1.189  16.154 -0.6954  1.8473 -0.8988
  831MPD2    H112223   0.559   1.268  16.532  0.6209  0.3877  0.5024
  831MPD2    H212224   0.802   1.569  16.332 -2.0798  0.3311 -0.2626
  831MPD2    H312225   0.663   1.491  16.520  1.4355 -0.4247  0.6142
  831MPD2     N12226   0.586   1.085  16.361  0.4000 -0.3802 -0.3955
  831MPD2    H512227   0.515   1.077  16.433  0.6121 -0.4426 -0.1968
  831MPD2    N112228   0.843   1.418  16.113  0.1370  0.8081  0.4349
  831MPD2    H712229   0.865   1.516  16.104 -1.2549  1.0894  0.2098
  832MPD2     C12230   3.968   2.542  17.626  0.3186 -0.4110  0.4429
  832MPD2    C112231   3.986   2.649  17.537 -0.1724  0.1694 -0.6384
  832MPD2    C212232   3.875   2.692  17.466  0.2501 -0.8022  0.0497
  832MPD2    C312233   3.749   2.633  17.469 -0.0599 -1.4873  0.4504
  832MPD2    C412234   3.736   2.528  17.549  0.3103  0.2622 -0.3196
  832MPD2    C512235   3.838   2.490  17.633 -0.1118 -0.3849  0.2973
  832MPD2     H12236   3.882   2.786  17.412  0.9423  0.3579  2.1608
  832MPD2    H112237   3.648   2.464  17.551  1.8006 -1.8874 -3.1289
  832MPD2    H212238   4.050   2.501  17.684 -1.2838 -2.4602  1.2565
  832MPD2    H312239   3.830   2.414   0.006 -2.5447  0.7419  1.1615
  832MPD2     N12240   3.640   2.681  17.397 -0.1377  0.0821  0.0157
  832MPD2    H512241   3.550   2.633  17.402 -1.0952  1.8208 -0.3085
  832MPD2    N112242   4.110   2.710  17.518  0.3120  0.9719  0.2222
  832MPD2    H712243   4.192   2.661  17.554  0.8091  1.9941  0.4673
  833MPD2     C12244   1.075   3.565  12.505 -0.4570  0.5493 -0.9324
  833MPD2    C112245   1.155   3.675  12.515  0.2860  0.1782  0.0273
  833MPD2    C212246   1.289   3.673  12.475  0.4212 -0.3795 -0.3489
  833MPD2    C312247   1.353   3.564  12.419  0.0581 -0.2278 -0.7544
  833MPD2    C412248   1.267   3.453  12.400 -0.7440  0.4551 -0.5408
  833MPD2    C512249   1.137   3.449  12.453  0.1976 -0.3182  0.3052
  833MPD2     H12250   1.351   3.761  12.484 -0.4455  0.3624 -1.5236
  833MPD2    H112251   1.315   3.360  12.369 -0.7688  1.1374 -2.5912
  833MPD2    H212252   0.972   3.568  12.538 -1.2487 -2.2453 -3.1012
  833MPD2    H312253   1.067   3.366  12.453  0.1329 -0.2397 -3.7155
  833MPD2     N12254   1.480   3.567  12.367  0.5611 -0.1487 -0.4406
  833MPD2    H512255   1.510   3.488  12.311  0.2868 -0.3630 -0.2884
  833MPD2    N112256   1.089   3.788  12.569 -0.0607  0.0761  0.0597
  833MPD2    H712257   0.995   3.773  12.604  0.0452  0.7618  0.6407
  834MPD2     C12258   1.976   3.598  11.471  0.5123 -0.0047  0.2637
  834MPD2    C112259   1.856   3.550  11.518  0.0844  0.8235  0.3486
  834MPD2    C212260   1.819   3.567  11.656  0.0073 -0.1174  0.0210
  834MPD2    C312261   1.910   3.616  11.750 -0.2009 -0.7051 -0.1839
  834MPD2    C412262   2.035   3.653  11.696 -0.2319  0.5927 -0.0718
  834MPD2    C512263   2.071   3.644  11.560 -0.8331 -0.4906  0.4161
  834MPD2     H12264   1.720   3.527  11.679 -0.1233 -0.8751 -1.8081
  834MPD2    H112265   2.105   3.713  11.753  1.3466 -1.1543 -0.1420
  834MPD2    H212266   1.999   3.578  11.367 -1.0014 -2.0637  0.3227
  834MPD2    H312267   2.159   3.682  11.509 -0.9341  1.1520  1.4640
  834MPD2     N12268   1.882   3.637  11.888 -0.7129  0.2542  0.1786
  834MPD2    H512269   1.952   3.680  11.947  1.4149 -1.9658 -0.7198
  834MPD2    N112270   1.778   3.496  11.410  0.2693  0.2527  0.3280
  834MPD2    H712271   1.821   3.492  11.318  2.2087  2.3772  1.1361
  835MPD2     C12272   1.922   1.042  11.598  0.1102  0.3419  0.0637
  835MPD2    C112273   1.889   1.179  11.604 -0.0618  0.7687 -0.0354
  835MPD2    C212274   1.872   1.232  11.732 -0.0384 -0.5823 -0.2948
  835MPD2    C312275   1.885   1.158  11.848 -0.5421  0.6233  0.9994
  835MPD2    C412276   1.928   1.026  11.838 -0.5075  0.4337  0.3834
  835MPD2    C512277   1.942   0.970  11.715  0.0851 -0.4648 -0.2512
  835MPD2     H12278   1.857   1.339  11.733  0.5543 -0.4971 -0.7496
  835MPD2    H112279   1.936   0.965  11.926  0.9533 -0.6562 -0.4995
  835MPD2    H212280   1.925   0.989  11.504  1.1214  0.5051  0.0122
  835MPD2    H312281   1.966   0.865  11.712  2.9058  0.1593 -0.2182
  835MPD2     N12282   1.865   1.218  11.975  0.0674 -0.3846  0.0432
  835MPD2    H512283   1.866   1.149  12.050  0.8578  0.8510  1.1546
  835MPD2    N112284   1.875   1.266  11.496 -0.0574  0.1266  0.6310
  835MPD2    H712285   1.879   1.366  11.512 -1.5203  0.1361  0.9459
  836MPD2     C12286   1.170   1.475  12.151  0.0722  0.1561 -0.4894
  836MPD2    C112287   1.248   1.495  12.268 -0.7457 -0.0479 -0.2120
  836MPD2    C212288   1.188   1.539  12.381  0.0716 -0.1726 -0.4351
  836MPD2    C312289   1.058   1.557  12.392 -0.4228 -0.8261  0.6002
  836MPD2    C412290   0.977   1.546  12.275 -0.1500 -0.3139  0.4390
  836MPD2    C512291   1.039   1.500  12.161  0.3683 -0.6915  0.0242
  836MPD2     H12292   1.246   1.549  12.471  0.9250  0.2752 -1.0347
  836MPD2    H112293   0.871   1.566  12.273 -0.1656 -0.6563 -2.0057
  836MPD2    H212294   1.190   1.431  12.054 -0.6734  1.2910 -1.1611
  836MPD2    H312295   0.974   1.472  12.079  0.6539 -0.7521 -0.1812
  836MPD2     N12296   0.991   1.585  12.512  0.4192  0.5675  0.1940
  836MPD2    H512297   0.890   1.590  12.505  0.5120 -0.9997 -2.1133
  836MPD2    N112298   1.382   1.451  12.256 -0.2982  0.0527  0.0045
  836MPD2    H712299   1.407   1.426  12.161 -0.5940  0.5669 -0.2098
  837MPD2     C12300   4.448   1.356  10.480  0.2161  0.5497  0.2845
  837MPD2    C112301   4.453   1.313  10.352 -0.6052 -0.2165  0.5999
  837MPD2    C212302   4.400   1.392  10.247 -0.0625  0.0548  0.1119
  837MPD2    C312303   4.317   1.494  10.283  0.3306  0.1116 -0.9927
  837MPD2    C412304   4.296   1.533  10.417  0.2279 -0.3978  0.1467
  837MPD2    C512305   4.367   1.464  10.516  0.3581  0.2586 -0.3582
  837MPD2     H12306   4.398   1.356  10.145  0.0789 -1.4858  0.6470
  837MPD2    H112307   4.242   1.623  10.444  2.1583  0.6257  0.6043
  837MPD2    H212308   4.486   1.299  10.564 -1.6426  0.1891  0.8827
  837MPD2    H312309   4.368   1.490  10.621 -1.6466 -0.6234 -0.1313
  837MPD2     N12310   4.251   1.561  10.172 -0.2510  0.0025  0.5092
  837MPD2    H512311   4.270   1.530  10.077  0.4175  1.7382  0.0609
  837MPD2    N112312   4.517   1.193  10.300  0.7212  0.3525  0.0616
  837MPD2    H712313   4.513   1.164  10.203  0.9927 -0.6561  0.3568
  838MPD2     C12314   3.303   4.506  11.830  0.6531  0.3466 -0.3344
  838MPD2    C112315   3.267   4.375  11.824 -0.1889 -0.1422  0.3858
  838MPD2    C212316   3.148   4.331  11.881  0.1503 -0.2646 -0.3709
  838MPD2    C312317   3.062   4.427  11.927  0.1266 -0.2091 -0.3119
  838MPD2    C412318   3.101   4.558  11.930  0.6087 -0.1042  0.3803
  838MPD2    C512319   3.220   4.602  11.882  0.0131 -0.0019  0.5203
  838MPD2     H12320   3.129   4.225  11.888 -0.3262  0.0021  2.3976
  838MPD2    H112321   3.044   4.632  11.985  0.4066 -1.6256  2.2441
  838MPD2    H212322   3.400   4.538  11.794 -0.5820  1.6652 -2.4818
  838MPD2    H312323   3.242   4.705  11.905 -1.1710  0.7807 -1.8651
  838MPD2     N12324   2.934   4.412  11.960 -0.2291 -0.5600  0.6682
  838MPD2    H512325   2.889   4.495  11.998 -2.2908 -0.9979 -0.8461
  838MPD2    N112326   3.332   4.275  11.745 -0.4130  0.4217  0.1726
  838MPD2    H712327   3.309   4.177  11.761  1.8731 -0.0525  0.4781
  839MPD2     C12328   2.837   3.680  11.679 -0.2324 -0.7605 -0.3183
  839MPD2    C112329   2.872   3.674  11.550  0.9222  0.1964 -0.2040
  839MPD2    C212330   3.005   3.716  11.512 -0.0587 -0.4079  0.6558
  839MPD2    C312331   3.078   3.788  11.604  0.7902  0.7061 -0.2947
  839MPD2    C412332   3.034   3.801  11.735  0.6229  0.3684 -0.0548
  839MPD2    C512333   2.914   3.748  11.768 -0.0012  0.6425  0.2958
  839MPD2     H12334   3.033   3.701  11.409 -3.4630  0.5347 -0.4179
  839MPD2    H112335   3.093   3.847  11.813  1.7659 -0.5276 -0.3933
  839MPD2    H212336   2.747   3.633  11.717 -0.4091 -0.8750 -0.8789
  839MPD2    H312337   2.883   3.749  11.872  0.1433 -1.7888  0.3563
  839MPD2     N12338   3.190   3.862  11.568 -0.3615 -0.0224 -0.2728
  839MPD2    H512339   3.227   3.915  11.647  0.1447 -1.6385  0.5911
  839MPD2    N112340   2.784   3.621  11.457 -0.5023  0.3051  0.0758
  839MPD2    H712341   2.829   3.572  11.380 -1.5610  1.8148 -1.4939
  840MPD2     C12342   2.927   1.931  10.343  0.3731  0.7931  0.1118
  840MPD2    C112343   2.934   1.861  10.462 -0.4475  0.0224 -0.4773
  840MPD2    C212344   2.975   1.932  10.571  0.1097 -0.2715 -0.5667
  840MPD2    C312345   3.023   2.060  10.561 -0.3552 -0.4275  0.2843
  840MPD2    C412346   3.023   2.117  10.434 -0.1221 -0.4610 -0.2533
  840MPD2    C512347   2.969   2.055  10.323 -0.3119  0.0294  0.2368
  840MPD2     H12348   2.970   1.893  10.672 -0.8777 -0.1267 -0.5662
  840MPD2    H112349   3.062   2.217  10.420  2.2009 -1.2605  0.5577
  840MPD2    H212350   2.887   1.880  10.256  0.4180  2.3390 -0.8195
  840MPD2    H312351   2.975   2.091  10.222  0.7940 -0.0766  0.2654
  840MPD2     N12352   3.091   2.136  10.660 -0.0719  0.0718  0.1975
  840MPD2    H512353   3.117   2.231  10.635  0.1639  0.2402  1.0886
  840MPD2    N112354   2.872   1.731  10.458 -0.8243 -0.9426 -0.1109
  840MPD2    H712355   2.826   1.700  10.374 -0.0798 -1.8128 -0.1856
  841MPD2     C12356   2.466   1.045  15.061  0.0005 -0.7263  0.5100
  841MPD2    C112357   2.477   1.031  14.923 -0.3005  0.1307  0.0321
  841MPD2    C212358   2.445   1.148  14.846  0.5378 -0.7411  0.2680
  841MPD2    C312359   2.383   1.261  14.907 -0.0723  0.1264 -0.4971
  841MPD2    C412360   2.374   1.267  15.043 -0.0737 -0.2792 -0.3339
  841MPD2    C512361   2.420   1.160  15.115  0.2396 -0.4448  0.3527
  841MPD2     H12362   2.458   1.145  14.739  1.0878 -0.6076  0.3339
  841MPD2    H112363   2.355   1.356  15.102 -1.0354 -1.2512  0.8275
  841MPD2    H212364   2.500   0.967  15.128  3.9893  1.3765  0.9689
  841MPD2    H312365   2.419   1.170  15.223  1.6263 -1.1198  0.4192
  841MPD2     N12366   2.362   1.376  14.828  0.1683  0.4794  0.3634
  841MPD2    H512367   2.385   1.375  14.729 -0.5669  1.2027  0.1873
  841MPD2    N112368   2.549   0.919  14.865  0.4317 -0.1210 -0.2237
  841MPD2    H712369   2.564   0.918  14.765 -1.0712 -0.3658 -0.4517
  842MPD2     C12370   3.040   2.479  16.601  0.1132  0.5682 -0.3166
  842MPD2    C112371   3.000   2.359  16.647 -0.0823 -0.4792 -0.1966
  842MPD2    C212372   2.950   2.349  16.772  0.7434 -0.9259  0.2201
  842MPD2    C312373   2.939   2.460  16.859 -0.0737 -0.3351  0.9043
  842MPD2    C412374   2.979   2.578  16.806  0.5873  0.0860 -0.1361
  842MPD2    C512375   3.028   2.582  16.680  0.4440  0.3453 -0.4905
  842MPD2     H12376   2.912   2.254  16.806 -0.0119 -1.0993 -1.1178
  842MPD2    H112377   2.979   2.671  16.860 -2.4728 -0.4044  0.7079
  842MPD2    H212378   3.091   2.494  16.507  0.8261  1.1404  0.1656
  842MPD2    H312379   3.075   2.674  16.650  1.0400  0.2213  0.0589
  842MPD2     N12380   2.874   2.464  16.981 -0.3688 -0.3778 -0.2407
  842MPD2    H512381   2.869   2.548  17.038 -0.5971 -0.4913 -0.0902
  842MPD2    N112382   2.998   2.246  16.559 -0.0753  0.2049  0.2421
  842MPD2    H712383   3.017   2.276  16.463  1.0080  2.1116  1.0487
  843MPD2     C12384   1.421   2.014   0.755  0.0081  0.1756 -0.1081
  843MPD2    C112385   1.333   2.118   0.739  0.5459 -0.2107  0.1906
  843MPD2    C212386   1.309   2.163   0.610 -0.5183  0.2986  0.3230
  843MPD2    C312387   1.351   2.091   0.497  0.2023  0.9031 -0.6919
  843MPD2    C412388   1.418   1.967   0.520 -0.0816  1.0107 -0.4347
  843MPD2    C512389   1.461   1.935   0.646  0.1990  0.0804 -0.4884
  843MPD2     H12390   1.254   2.255   0.597  2.1858  2.0248  1.0279
  843MPD2    H112391   1.451   1.905   0.438 -0.9571 -0.3085  0.2183
  843MPD2    H212392   1.462   1.998   0.854 -0.3506  2.3093  0.3820
  843MPD2    H312393   1.522   1.847   0.664  1.4291  0.8230 -1.0426
  843MPD2     N12394   1.341   2.134   0.362 -0.7575 -0.2899  0.0565
  843MPD2    H512395   1.391   2.075   0.297 -0.9317 -1.0755  0.6247
  843MPD2    N112396   1.258   2.164   0.856  0.2128 -1.0227  0.0186
  843MPD2    H712397   1.266   2.113   0.943 -0.2484  0.0025  0.6642
  844MPD2     C12398   3.516   2.159  17.198 -0.3375  0.5002  0.6791
  844MPD2    C112399   3.560   2.217  17.081  0.4236  0.0268 -0.6551
  844MPD2    C212400   3.669   2.299  17.079  0.7875  0.0427  0.6753
  844MPD2    C312401   3.745   2.319  17.199 -0.9587  0.6594 -0.2261
  844MPD2    C412402   3.697   2.252  17.317  0.1506  0.2139 -0.2970
  844MPD2    C512403   3.582   2.180  17.316 -0.1315  0.5811  0.3595
  844MPD2     H12404   3.707   2.343  16.987  0.0273 -0.5764  0.0706
  844MPD2    H112405   3.754   2.260  17.408 -0.6321 -0.3217  0.2335
  844MPD2    H212406   3.423   2.105  17.199  0.0388 -0.1564 -0.4927
  844MPD2    H312407   3.550   2.136  17.410 -2.0322 -2.8790 -1.9316
  844MPD2     N12408   3.868   2.386  17.187 -0.2729  0.7997 -0.1059
  844MPD2    H512409   3.898   2.414  17.095 -0.6596 -1.6260 -0.9675
  844MPD2    N112410   3.486   2.175  16.964  0.0106  0.0409  0.7273
  844MPD2    H712411   3.409   2.112  16.984 -1.2447  1.3659  0.0912
  845MPD2     C12412   4.182   2.991  16.590 -0.1186 -0.1232 -0.7598
  845MPD2    C112413   4.113   3.036  16.702 -0.3270 -0.1191 -0.0735
  845MPD2    C212414   4.107   2.951  16.809  0.3331 -0.6353 -0.7458
  845MPD2    C312415   4.168   2.831  16.813  0.7890  0.2679  0.0279
  845MPD2    C412416   4.249   2.795  16.705  0.1986  0.6740  0.2432
  845MPD2    C512417   4.249   2.879  16.591 -0.2613  0.8129  0.6454
  845MPD2     H12418   4.042   2.965  16.895  1.0722  3.4835 -0.8233
  845MPD2    H112419   4.308   2.703  16.702  0.1898  0.6800 -0.1848
  845MPD2    H212420   4.185   3.057  16.504 -2.7056  0.1515 -0.6422
  845MPD2    H312421   4.317   2.858  16.509  1.3343  0.1602  2.1492
  845MPD2     N12422   4.148   2.744  16.923 -0.6350 -0.0691 -0.5919
  845MPD2    H512423   4.076   2.764  16.992  0.9301  2.9804  0.1664
  845MPD2    N112424   4.046   3.158  16.688  0.1629 -0.1091  0.3652
  845MPD2    H712425   4.047   3.213  16.603  2.2622 -0.7153  0.0007
  846MPD2     C12426   0.581   3.126  13.561 -0.5903 -0.3201 -0.3909
  846MPD2    C112427   0.527   3.242  13.603 -0.8442  0.0648 -0.0039
  846MPD2    C212428   0.500   3.270  13.730  0.4802  0.3220 -0.5183
  846MPD2    C312429   0.519   3.171  13.830  0.1758  0.2349  0.1053
  846MPD2    C412430   0.584   3.053  13.789  0.4431 -0.8724 -0.3452
  846MPD2    C512431   0.609   3.035  13.658 -0.2714 -0.2787 -0.0111
  846MPD2     H12432   0.450   3.359  13.765 -1.9668 -0.9482 -0.7753
  846MPD2    H112433   0.612   2.971  13.854  1.3168 -0.3658 -0.0804
  846MPD2    H212434   0.609   3.095  13.461 -1.5387 -0.4961 -0.5946
  846MPD2    H312435   0.659   2.943  13.630 -0.2888 -0.4555  0.5447
  846MPD2     N12436   0.463   3.192  13.960  0.0413  0.2823 -0.3257
  846MPD2    H512437   0.403   3.274  13.968 -2.3350 -1.7407  2.4447
  846MPD2    N112438   0.499   3.349  13.513  0.7954  0.6523 -0.8912
  846MPD2    H712439   0.462   3.431  13.559 -0.3289 -1.7857  2.6126
  847MPD2     C12440   1.130   4.178  14.395 -0.4625  0.2826  0.0437
  847MPD2    C112441   1.161   4.143  14.523  0.0471  0.2245  0.3332
  847MPD2    C212442   1.172   4.007  14.547  0.1955 -0.5393 -0.3276
  847MPD2    C312443   1.141   3.921  14.451  0.6212  0.5158 -0.0860
  847MPD2    C412444   1.116   3.956  14.322  0.2457 -0.0151 -0.3856
  847MPD2    C512445   1.109   4.088  14.297 -0.0605  0.4007 -0.6121
  847MPD2     H12446   1.185   3.971  14.649 -2.5923 -0.7793 -0.0353
  847MPD2    H112447   1.088   3.883  14.247  1.1765 -0.7242 -0.0390
  847MPD2    H212448   1.130   4.283  14.369 -4.1174  0.7647  1.9139
  847MPD2    H312449   1.078   4.127  14.201 -0.9136  0.5126 -0.2865
  847MPD2     N12450   1.148   3.782  14.486  0.1371  0.3554 -0.1342
  847MPD2    H512451   1.190   3.766  14.577 -2.0981 -1.9138  0.4890
  847MPD2    N112452   1.180   4.233  14.631  0.4052 -0.0156  0.1069
  847MPD2    H712453   1.205   4.197  14.723 -1.5898 -0.9906  0.2621
  848MPD2     C12454   3.222   3.295  16.910  0.0686 -0.0242 -0.3640
  848MPD2    C112455   3.232   3.170  16.855 -0.1038 -0.3177 -0.2681
  848MPD2    C212456   3.186   3.151  16.725 -0.5231  0.2267 -0.4121
  848MPD2    C312457   3.131   3.257  16.647  0.0612 -0.1129  0.6338
  848MPD2    C412458   3.111   3.382  16.709 -0.2189  0.9835  0.0376
  848MPD2    C512459   3.153   3.388  16.845  0.3197  0.2068  0.3744
  848MPD2     H12460   3.195   3.054  16.677 -1.3348 -0.4203  0.7407
  848MPD2    H112461   3.070   3.471  16.665  1.8133  1.5500 -0.7383
  848MPD2    H212462   3.245   3.314  17.015 -0.6815 -1.1242  0.0060
  848MPD2    H312463   3.141   3.482  16.898  1.6924  1.6130 -1.7772
  848MPD2     N12464   3.091   3.244  16.504  0.1165  0.4763 -0.0274
  848MPD2    H512465   3.070   3.333  16.462 -2.2651 -0.1970 -0.2689
  848MPD2    N112466   3.280   3.047  16.919 -0.8970 -0.0758  0.4167
  848MPD2    H712467   3.281   2.962  16.865 -0.3727 -0.9947  1.8615
  849MPD2     C12468   2.706   2.519  13.994  0.2724 -0.0757 -0.2134
  849MPD2    C112469   2.794   2.418  13.967 -0.1385  0.1445 -0.3414
  849MPD2    C212470   2.795   2.308  14.051 -0.5084 -0.5409  0.4584
  849MPD2    C312471   2.692   2.287  14.145 -0.3817 -0.0190  0.6316
  849MPD2    C412472   2.599   2.386  14.159 -0.0352 -0.2609  0.7757
  849MPD2    C512473   2.611   2.499  14.087  1.1305 -0.6564 -0.0111
  849MPD2     H12474   2.875   2.236  14.046  0.2747  0.4097 -0.9058
  849MPD2    H112475   2.506   2.371  14.213 -0.2909  0.0584  0.4335
  849MPD2    H212476   2.705   2.616  13.945 -0.6933 -0.4430 -0.9112
  849MPD2    H312477   2.553   2.584  14.122  1.4658  0.4259 -2.0819
  849MPD2     N12478   2.693   2.169  14.224  0.0480 -0.1059  0.5283
  849MPD2    H512479   2.766   2.101  14.202 -0.0077 -0.4058  1.2615
  849MPD2    N112480   2.895   2.423  13.877  0.2862  0.0646 -0.4205
  849MPD2    H712481   2.971   2.356  13.886 -0.8055 -1.3943 -2.1950
  850MPD2     C12482   1.377   4.607  15.339 -0.1347 -0.2632 -1.0971
  850MPD2    C112483   1.276   4.700  15.347 -0.7853 -0.2629  0.4955
  850MPD2    C212484   1.312   0.111  15.355 -0.1742  0.2109  0.7136
  850MPD2    C312485   1.443   0.147  15.348  0.1225  0.0402  0.2737
  850MPD2    C412486   1.545   0.053  15.338 -0.0414 -0.0135  0.6167
  850MPD2    C512487   1.510   4.647  15.325 -0.1246  0.3253 -0.5070
  850MPD2     H12488   1.236   0.187  15.369 -0.5148  0.1600 -0.8006
  850MPD2    H112489   1.649   0.081  15.344 -0.1323  0.0423  1.8014
  850MPD2    H212490   1.347   4.503  15.344  1.1479 -0.6332 -1.1159
  850MPD2    H312491   1.590   4.575  15.319  0.0466  0.3944  0.9578
  850MPD2     N12492   1.488   0.280  15.369 -1.0886 -0.1714 -0.1281
  850MPD2    H512493   1.588   0.295  15.361 -0.8386 -2.3259 -0.9970
  850MPD2    N112494   1.143   4.647  15.367  0.2126 -0.5993 -1.4621
  850MPD2    H712495   1.128   4.547  15.372  1.7137 -0.7181  1.0718
  851MPD2     C12496   1.058   4.111  15.635  0.4392 -0.0724 -0.1397
  851MPD2    C112497   0.945   4.124  15.570  0.6259 -0.1543 -0.2338
  851MPD2    C212498   0.855   4.019  15.557 -0.3177  0.2709 -0.2391
  851MPD2    C312499   0.887   3.892  15.608  0.4121  0.4316  0.0764
  851MPD2    C412500   1.006   3.876  15.675  0.2851 -0.6336  0.2803
  851MPD2    C512501   1.082   3.987  15.693 -0.2835 -0.4900 -0.0082
  851MPD2     H12502   0.763   4.033  15.503 -0.4644 -0.9165 -0.3096
  851MPD2    H112503   1.032   3.783  15.723  1.5842  0.4140  1.6097
  851MPD2    H212504   1.132   4.190  15.644  0.1124  0.1396  0.6689
  851MPD2    H312505   1.175   3.981  15.749 -1.4644 -3.9874  1.5885
  851MPD2     N12506   0.805   3.779  15.565 -0.2804  0.7311 -0.4807
  851MPD2    H512507   0.728   3.804  15.503 -1.5138  0.7615  1.0799
  851MPD2    N112508   0.927   4.246  15.507 -0.1672  0.2996 -0.4087
  851MPD2    H712509   1.000   4.316  15.513 -0.4810  0.6113 -0.1904
  852MPD2     C12510   0.214   4.005   9.952  0.8518  0.1069  0.1367
  852MPD2    C112511   0.282   3.891   9.987 -0.0607 -0.2961 -0.9527
  852MPD2    C212512   0.421   3.884   9.979  0.7508 -0.3060  0.0583
  852MPD2    C312513   0.494   3.987   9.924  0.5219 -0.4556  0.5761
  852MPD2    C412514   0.428   4.105   9.888 -0.3492  0.5419 -0.0312
  852MPD2    C512515   0.289   4.107   9.902  0.3972  0.1024  0.2859
  852MPD2     H12516   0.481   3.798  10.006  1.7157  0.4383  0.2890
  852MPD2    H112517   0.485   4.194   9.862 -1.3062  1.1143 -0.1942
  852MPD2    H212518   0.106   4.018   9.957  0.8068 -0.4087  0.4720
  852MPD2    H312519   0.251   4.205   9.876  1.0193  0.2143 -0.2048
  852MPD2     N12520   0.632   3.990   9.944 -0.0887  0.3692 -0.1923
  852MPD2    H512521   0.668   3.899   9.969 -0.8540  0.2984  0.6265
  852MPD2    N112522   0.216   3.782  10.048 -0.4638  0.1722  0.1082
  852MPD2    H712523   0.262   3.696  10.080 -1.4341 -0.7935 -1.1277
  853MPD2     C12524   2.436   2.542  12.136  0.4631  0.4443  0.4508
  853MPD2    C112525   2.413   2.675  12.102  0.1077 -0.6151  0.1398
  853MPD2    C212526   2.471   2.727  11.986 -0.4467  0.2254  0.2479
  853MPD2    C312527   2.540   2.645  11.903 -0.6073  0.1308 -0.0722
  853MPD2    C412528   2.559   2.510  11.934  1.3145 -0.0302  0.4083
  853MPD2    C512529   2.505   2.460  12.049  0.1127  0.2267 -0.0438
  853MPD2     H12530   2.453   2.833  11.973 -1.3551  0.4000  2.9232
  853MPD2    H112531   2.607   2.439  11.867 -0.6425  0.2267 -1.2768
  853MPD2    H212532   2.398   2.501  12.229  0.0703  0.3050  0.2316
  853MPD2    H312533   2.513   2.354  12.072 -0.6822 -0.0334 -0.9624
  853MPD2     N12534   2.601   2.682  11.781 -0.0973 -0.2032  0.7452
  853MPD2    H512535   2.648   2.609  11.729  1.7053  0.8687  0.8618
  853MPD2    N112536   2.356   2.754  12.201  0.6594 -0.0691 -0.3958
  853MPD2    H712537   2.326   2.706  12.285  0.5544 -3.9650 -2.6589
  854MPD2     C12538   3.822   2.583  13.178 -0.4972  0.0573  0.2021
  854MPD2    C112539   3.888   2.610  13.061 -0.2647  0.2128 -0.4575
  854MPD2    C212540   4.009   2.552  13.033 -0.1626  0.8838  0.1518
  854MPD2    C312541   4.057   2.453  13.126  0.5167 -0.1249 -0.2174
  854MPD2    C412542   3.994   2.428  13.243 -0.0479  0.1558 -0.0864
  854MPD2    C512543   3.882   2.494  13.266  0.6042  0.4286  0.1779
  854MPD2     H12544   4.063   2.582  12.944 -0.6500 -0.2784 -0.5366
  854MPD2    H112545   4.021   2.352  13.315  0.3709 -0.3635 -0.7951
  854MPD2    H212546   3.726   2.629  13.198  1.0013  1.9820  2.9900
  854MPD2    H312547   3.832   2.475  13.360  0.2037 -2.3077 -0.5849
  854MPD2     N12548   4.156   2.360  13.096  0.1570  0.0114  0.7515
  854MPD2    H512549   4.169   2.285  13.163 -1.1451  0.4574  1.5023
  854MPD2    N112550   3.830   2.716  12.990  0.0566 -0.2856  0.0980
  854MPD2    H712551   3.736   2.747  13.011 -0.0670  0.1607 -1.1429
  855MPD2     C12552   0.244   2.282  13.643 -0.2997 -0.3388  0.6130
  855MPD2    C112553   0.120   2.224  13.646  0.9001  0.2713  0.6343
  855MPD2    C212554   0.047   2.216  13.528 -0.4557 -0.1986 -0.5539
  855MPD2    C312555   0.081   2.282  13.409  0.1732 -0.0436  0.6639
  855MPD2    C412556   0.203   2.340  13.411 -0.3930  0.7014  0.5362
  855MPD2    C512557   0.279   2.344  13.529 -0.0704  0.2065 -0.2222
  855MPD2     H12558   4.692   2.147  13.546 -2.2181  1.9146 -0.4263
  855MPD2    H112559   0.246   2.400  13.332 -1.5787  1.5774  0.5509
  855MPD2    H212560   0.306   2.285  13.732  0.8795  0.5178 -0.2459
  855MPD2    H312561   0.376   2.393  13.534  0.3748 -0.7754  0.5885
  855MPD2     N12562   0.001   2.278  13.290 -0.5667  0.2634 -0.6947
  855MPD2    H512563   0.036   2.320  13.205 -1.3637  2.5899  0.1407
  855MPD2    N112564   0.059   2.169  13.757  0.5557 -0.4353 -0.2703
  855MPD2    H712565   4.701   2.116  13.737  1.4707 -2.2917  0.7231
  856MPD2     C12566   1.379   3.257  14.053 -0.1059  0.6738  0.8576
  856MPD2    C112567   1.473   3.353  14.079  0.4790 -0.4360  0.7108
  856MPD2    C212568   1.447   3.487  14.053 -0.2017 -0.2964  0.2641
  856MPD2    C312569   1.324   3.530  14.002  0.8622  0.1434 -0.2668
  856MPD2    C412570   1.230   3.434  13.972 -0.2427 -0.4323  0.2810
  856MPD2    C512571   1.257   3.306  14.010 -0.5152  0.7844 -0.0808
  856MPD2     H12572   1.515   3.565  14.086  2.5331 -3.2376  1.5685
  856MPD2    H112573   1.130   3.444  13.930 -0.3508  1.5011  0.9759
  856MPD2    H212574   1.392   3.150  14.055  0.3683  0.7034 -0.7981
  856MPD2    H312575   1.174   3.237  13.996  1.1783 -0.9194 -1.6139
  856MPD2     N12576   1.297   3.665  13.965  0.5574 -0.0259 -0.0193
  856MPD2    H512577   1.199   3.682  13.944  1.1035 -0.5446 -2.9831
  856MPD2    N112578   1.607   3.329  14.108  0.5557  0.1626  0.1388
  856MPD2    H712579   1.659   3.411  14.135  1.5516  0.6934 -3.3711
  857MPD2     C12580   2.989   0.882  13.342 -0.0897 -0.5308 -0.2071
  857MPD2    C112581   3.113   0.866  13.285 -0.4493  0.1122 -0.4491
  857MPD2    C212582   3.210   0.969  13.295  0.2939  0.0725  0.4179
  857MPD2    C312583   3.176   1.086  13.349 -0.0904 -0.0791 -0.3318
  857MPD2    C412584   3.045   1.110  13.381 -0.0788  0.4649 -0.5078
  857MPD2    C512585   2.960   1.006  13.394 -0.1152 -0.0672  0.2309
  857MPD2     H12586   3.312   0.956  13.261 -0.0247  3.4674 -1.8061
  857MPD2    H112587   3.010   1.208  13.412 -1.2491  0.9239 -3.3237
  857MPD2    H212588   2.914   0.804  13.350 -0.7965  0.0650 -1.0517
  857MPD2    H312589   2.863   1.022  13.442  0.2567 -0.8470  1.2273
  857MPD2     N12590   3.275   1.185  13.332  0.1478 -0.5062 -0.4504
  857MPD2    H512591   3.359   1.150  13.289 -0.3405 -1.1815 -0.8481
  857MPD2    N112592   3.138   0.757  13.205 -0.4666  0.3923 -0.2592
  857MPD2    H712593   3.234   0.742  13.174 -0.8232 -1.8930 -0.2439
  858MPD2     C12594   3.420   0.173  16.850 -0.1207 -0.0357 -0.1703
  858MPD2    C112595   3.555   0.161  16.827 -0.9497 -0.5563 -0.6182
  858MPD2    C212596   3.651   0.244  16.883 -0.4908 -0.7801 -0.5036
  858MPD2    C312597   3.604   0.351  16.959  0.2578  0.3070 -0.1050
  858MPD2    C412598   3.462   0.374  16.965 -0.7333 -0.3161 -0.5362
  858MPD2    C512599   3.376   0.280  16.912  0.0500  0.4676  0.0954
  858MPD2     H12600   3.758   0.224  16.878 -0.2531  0.9664 -2.4798
  858MPD2    H112601   3.421   0.455  17.023 -2.4195 -1.5149 -0.0669
  858MPD2    H212602   3.355   0.091  16.821  1.9092 -0.3241 -3.9218
  858MPD2    H312603   3.269   0.286  16.929  0.0238 -2.1294  0.7759
  858MPD2     N12604   3.690   0.433  17.031 -0.3186  0.7733  0.3484
  858MPD2    H512605   3.645   0.504  17.089 -2.0499 -0.7876  0.9172
  858MPD2    N112606   3.598   0.053  16.750  0.0134 -0.2204 -0.2281
  858MPD2    H712607   3.526   0.002  16.700 -2.7269  0.5361  2.9018
  859MPD2     C12608   2.448   1.641  15.400  0.4518  1.0789 -0.2239
  859MPD2    C112609   2.541   1.691  15.312 -0.1041 -0.1526 -0.2686
  859MPD2    C212610   2.617   1.606  15.233  0.0838  0.1440  0.0840
  859MPD2    C312611   2.614   1.466  15.261 -0.9691  0.7321  0.6878
  859MPD2    C412612   2.528   1.420  15.361 -0.5411  0.5382 -0.6219
  859MPD2    C512613   2.444   1.507  15.427  0.0216 -0.3003 -0.0500
  859MPD2     H12614   2.683   1.642  15.156 -1.5389  0.4458 -1.1625
  859MPD2    H112615   2.519   1.314  15.382  0.1070  0.3456 -1.3175
  859MPD2    H212616   2.386   1.703  15.464 -0.1151 -0.4263  0.7012
  859MPD2    H312617   2.387   1.469  15.511  3.0794 -2.0631  1.2619
  859MPD2     N12618   2.692   1.372  15.191  0.0568 -1.1809 -0.1561
  859MPD2    H512619   2.695   1.277  15.226  0.7874 -1.4937 -1.0893
  859MPD2    N112620   2.562   1.830  15.299  0.1500 -0.5200 -0.7278
  859MPD2    H712621   2.482   1.884  15.329  0.9192 -0.2047  0.7878
  860MPD2     C12622   0.155   2.630  11.384  0.6783  0.5934  0.3794
  860MPD2    C112623   0.144   2.703  11.504  0.4986 -0.0435  1.0621
  860MPD2    C212624   0.042   2.665  11.596  0.3328 -0.2783 -0.1377
  860MPD2    C312625   4.704   2.545  11.579  0.2753 -0.7849  0.1381
  860MPD2    C412626   0.003   2.468  11.465 -0.8559  0.9021 -0.4752
  860MPD2    C512627   0.090   2.513  11.370  0.1523  0.1583 -0.4696
  860MPD2     H12628   0.010   2.718  11.685  1.1753  0.1792 -0.1062
  860MPD2    H112629   4.674   2.378  11.439  2.3767 -1.6116  1.4691
  860MPD2    H212630   0.215   2.665  11.301  0.1502  0.3665 -0.0988
  860MPD2    H312631   0.102   2.461  11.275  2.4742  1.6861 -0.9924
  860MPD2     N12632   4.612   2.516  11.680 -0.1967  0.1411 -0.1931
  860MPD2    H512633   4.595   2.589  11.749  1.6998 -1.4461  1.9447
  860MPD2    N112634   0.214   2.826  11.535  0.3893 -0.1425  0.0856
  860MPD2    H712635   0.195   2.876  11.621 -0.7194  0.1982 -0.3643
  861MPD2     C12636   3.933   0.803  11.168 -0.8168 -0.2956 -0.3990
  861MPD2    C112637   3.969   0.936  11.182  0.0432  0.4835  0.0228
  861MPD2    C212638   3.923   1.029  11.093  0.1429  0.0207 -0.1666
  861MPD2    C312639   3.837   1.001  10.987 -0.5790  0.2558 -0.6849
  861MPD2    C412640   3.793   0.872  10.982 -0.0902 -0.4175  0.1098
  861MPD2    C512641   3.841   0.772  11.069  0.2918  0.0118  0.3879
  861MPD2     H12642   3.955   1.132  11.102  0.7878 -0.2870  1.0784
  861MPD2    H112643   3.719   0.844  10.908  0.9934  0.5094 -1.3089
  861MPD2    H212644   3.978   0.725  11.229  2.3179  1.1151 -0.9162
  861MPD2    H312645   3.805   0.671  11.055 -1.7048  0.9081 -1.0047
  861MPD2     N12646   3.798   1.087  10.882  0.2444  0.3167  0.1131
  861MPD2    H512647   3.739   1.039  10.815  0.0130  2.0702 -0.9638
  861MPD2    N112648   4.041   0.983  11.294  0.3968 -0.0595  0.6942
  861MPD2    H712649   4.038   1.081  11.320 -1.7889 -0.5328  2.2290
  862MPD2     C12650   3.684   1.061  10.160 -0.2341  1.0060 -0.0913
  862MPD2    C112651   3.664   1.019  10.290 -1.2811  0.2310 -0.1470
  862MPD2    C212652   3.656   0.881  10.310  0.1596  0.0863  0.1827
  862MPD2    C312653   3.661   0.792  10.206  0.3168 -0.2003 -0.2126
  862MPD2    C412654   3.666   0.836  10.074 -0.8294 -0.4483  0.0188
  862MPD2    C512655   3.679   0.968  10.050 -0.1253  0.0252  0.2393
  862MPD2     H12656   3.648   0.852  10.414  1.5364 -1.7801 -0.2384
  862MPD2    H112657   3.664   0.765   9.992 -0.3162  0.5428 -0.8593
  862MPD2    H212658   3.682   1.167  10.138 -0.1920  1.5313  2.4157
  862MPD2    H312659   3.679   0.993   9.944  2.8827  0.3649  0.3235
  862MPD2     N12660   3.659   0.648  10.224 -0.2603  0.0730  0.3590
  862MPD2    H512661   3.636   0.585  10.148 -0.3539 -2.2792  2.3576
  862MPD2    N112662   3.665   1.105  10.403  0.8224  0.4612 -0.4353
  862MPD2    H712663   3.666   1.057  10.492 -1.3955 -0.8998 -1.1601
  863MPD2     C12664   2.088   4.471  16.852 -0.1281  0.2627 -0.4598
  863MPD2    C112665   2.113   4.339  16.812 -0.2812 -0.3579 -0.0964
  863MPD2    C212666   2.231   4.280  16.851 -0.1570 -0.1172 -0.2218
  863MPD2    C312667   2.321   4.359  16.924 -0.3352 -0.1356 -0.5356
  863MPD2    C412668   2.296   4.487  16.957  0.5609  0.2653  0.2231
  863MPD2    C512669   2.179   4.543  16.918  0.3211 -0.7405 -0.1921
  863MPD2     H12670   2.248   4.177  16.825 -2.4152 -0.5356  0.0097
  863MPD2    H112671   2.360   4.531  17.032  0.8244 -0.4339  0.4065
  863MPD2    H212672   2.000   4.530  16.828 -0.4389 -0.0139  0.0145
  863MPD2    H312673   2.145   4.635  16.963  0.5372  0.0843 -1.7177
  863MPD2     N12674   2.443   4.311  16.969 -0.1979  0.0084  0.8167
  863MPD2    H512675   2.479   4.380  17.035  0.6481  1.5013 -1.2139
  863MPD2    N112676   2.013   4.286  16.728  0.1312  0.3636 -0.1522
  863MPD2    H712677   1.927   4.339  16.725 -0.9492 -1.5417 -3.2860
  864MPD2     C12678   2.858   0.630  17.498  0.0956 -0.1983  0.6887
  864MPD2    C112679   2.848   0.565  17.376  0.2010 -0.2448  0.2687
  864MPD2    C212680   2.903   0.635  17.269 -0.2649  0.2281  0.3344
  864MPD2    C312681   2.986   0.742  17.282 -0.2078  0.2859  0.2789
  864MPD2    C412682   2.998   0.808  17.405 -0.7166 -0.4394  0.2861
  864MPD2    C512683   2.929   0.752  17.506  0.5699  0.2783 -0.7532
  864MPD2     H12684   2.901   0.592  17.169 -0.2344  0.1765  0.3566
  864MPD2    H112685   3.058   0.897  17.422  1.0328 -1.2423 -1.5797
  864MPD2    H212686   2.814   0.594  17.590  0.5141 -1.0207  0.5626
  864MPD2    H312687   2.951   0.796  17.602 -1.3112 -1.7802  0.6238
  864MPD2     N12688   3.042   0.798  17.162 -0.0575 -0.6600 -0.2063
  864MPD2    H512689   2.987   0.777  17.079 -1.3500 -0.0028  0.4796
  864MPD2    N112690   2.781   0.443  17.359 -0.0516  0.3921  0.7249
  864MPD2    H712691   2.749   0.400  17.445 -2.2230  0.0627 -0.2567
  865MPD2     C12692   3.027   0.807  16.188  0.0191  0.2421 -0.0534
  865MPD2    C112693   2.997   0.718  16.285 -0.4923 -0.2280  0.8149
  865MPD2    C212694   2.987   0.763  16.423  0.4501 -0.2352 -0.6126
  865MPD2    C312695   3.036   0.884  16.456 -0.1178  0.0014 -0.3841
  865MPD2    C412696   3.074   0.972  16.352 -0.0747 -0.1383 -0.5470
  865MPD2    C512697   3.059   0.937  16.222 -0.0742  0.7957  0.5137
  865MPD2     H12698   2.959   0.701  16.508  2.3052  1.9585  1.6008
  865MPD2    H112699   3.110   1.073  16.366 -1.7509  0.1989  1.3870
  865MPD2    H212700   3.026   0.783  16.082 -0.3411 -1.2092  0.2821
  865MPD2    H312701   3.076   1.011  16.144 -1.5757  0.6423  0.0284
  865MPD2     N12702   3.054   0.926  16.590  0.2112 -0.1478  0.3624
  865MPD2    H512703   3.094   1.019  16.598  1.3490 -0.6148  0.1243
  865MPD2    N112704   2.978   0.589  16.236  0.0452  0.4852  0.1960
  865MPD2    H712705   2.980   0.571  16.136  2.6706 -0.7414  0.4813
  866MPD2     C12706   4.634   1.232  11.599 -0.4810  0.3570 -0.3763
  866MPD2    C112707   4.615   1.236  11.460  0.4882 -0.2949  0.8466
  866MPD2    C212708   4.506   1.310  11.418 -0.1058 -0.2154  0.3505
  866MPD2    C312709   4.428   1.382  11.500 -0.0239 -0.1464 -0.3801
  866MPD2    C412710   4.447   1.374  11.637  0.0329 -0.2440  0.3223
  866MPD2    C512711   4.548   1.296  11.686  0.2142  0.2213  0.6305
  866MPD2     H12712   4.493   1.309  11.310  1.3869 -0.1174  0.1667
  866MPD2    H112713   4.375   1.428  11.697  0.9322  0.0697  1.1239
  866MPD2    H212714   4.711   1.169  11.640 -0.5918  1.2861  1.2485
  866MPD2    H312715   4.545   1.277  11.793  0.4683  1.0591  0.7828
  866MPD2     N12716   4.320   1.463  11.446  0.6776 -0.0103  0.6964
  866MPD2    H512717   4.258   1.496  11.519 -0.8159  0.2695 -0.7031
  866MPD2    N112718   4.716   1.183  11.383  0.2848 -0.0089 -0.5567
  866MPD2    H712719   0.056   1.129  11.438  1.1928  0.5504 -1.0803
  867MPD2     C12720   1.678   0.508  16.864 -0.1010  0.1003 -0.2318
  867MPD2    C112721   1.808   0.559  16.847  0.9550 -0.3366 -0.8701
  867MPD2    C212722   1.837   0.664  16.936  0.1158 -0.6913  0.1416
  867MPD2    C312723   1.740   0.730  17.017  0.3454 -0.3075 -0.7692
  867MPD2    C412724   1.613   0.690  17.008  0.8314 -0.7186  0.4192
  867MPD2    C512725   1.581   0.574  16.935 -0.1015 -0.0534  0.0135
  867MPD2     H12726   1.942   0.687  16.953 -0.2123 -0.4718  1.8264
  867MPD2    H112727   1.534   0.746  17.057  0.8225 -2.6268  2.5858
  867MPD2    H212728   1.650   0.414  16.818 -0.7880  0.1773  0.0406
  867MPD2    H312729   1.480   0.537  16.922 -0.0803 -0.6144  1.4948
  867MPD2     N12730   1.771   0.823  17.125  0.4668  0.5284 -0.0252
  867MPD2    H512731   1.693   0.852  17.184  2.0378  2.3689  1.1404
  867MPD2    N112732   1.902   0.484  16.777  0.2260  0.1690 -0.5886
  867MPD2    H712733   1.878   0.392  16.743  0.1938 -0.6333  1.6407
  868MPD2     C12734   3.551   4.011  12.823 -0.1060  0.1484 -0.3651
  868MPD2    C112735   3.549   3.932  12.937 -0.4454 -0.1313  0.4213
  868MPD2    C212736   3.464   3.969  13.037  0.0109  0.4809  0.3545
  868MPD2    C312737   3.370   4.065  13.023 -0.1668  0.8228  0.4984
  868MPD2    C412738   3.359   4.128  12.901  0.2809  0.2052 -0.4244
  868MPD2    C512739   3.455   4.110  12.806 -1.0688  0.7708  0.2405
  868MPD2     H12740   3.462   3.920  13.133 -2.6062  1.3317  0.7294
  868MPD2    H112741   3.284   4.203  12.878 -2.1382 -1.2716  2.6278
  868MPD2    H212742   3.626   4.001  12.745 -0.8152 -2.0931 -0.7629
  868MPD2    H312743   3.455   4.171  12.716 -0.1381  0.8890  0.3233
  868MPD2     N12744   3.290   4.095  13.140 -0.3629  0.2277  0.2532
  868MPD2    H512745   3.305   4.033  13.219 -1.4823  1.6694  1.5864
  868MPD2    N112746   3.659   3.841  12.961  0.5240  0.6042 -0.1285
  868MPD2    H712747   3.719   3.834  12.880 -0.9187  1.8047 -1.2960
  869MPD2     C12748   0.390   3.514   2.032  0.0365 -0.2646 -0.3800
  869MPD2    C112749   0.456   3.394   2.018 -0.0476 -0.2163  0.1374
  869MPD2    C212750   0.490   3.352   1.893  0.6037  0.3392 -0.1328
  869MPD2    C312751   0.458   3.427   1.782 -0.8611  0.3709 -0.2112
  869MPD2    C412752   0.383   3.546   1.797 -0.4674 -0.1219  0.1541
  869MPD2    C512753   0.349   3.589   1.925 -0.1630 -0.0117 -1.1611
  869MPD2     H12754   0.561   3.271   1.878  0.1260 -0.2760  0.9913
  869MPD2    H112755   0.364   3.615   1.715 -0.5017  1.0273  1.1340
  869MPD2    H212756   0.346   3.548   2.125  1.2397  1.0830 -0.2993
  869MPD2    H312757   0.307   3.687   1.941 -1.7581 -0.6238 -1.5725
  869MPD2     N12758   0.498   3.405   1.649  0.1842 -0.0683 -0.9013
  869MPD2    H512759   0.465   3.474   1.582  3.8084 -2.3206 -5.1006
  869MPD2    N112760   0.467   3.322   2.134 -0.2708  0.3741  0.2399
  869MPD2    H712761   0.433   3.366   2.220  0.0254  1.4171 -0.1728
  870MPD2     C12762   0.348   1.089   1.943 -0.1412 -0.1756  0.5490
  870MPD2    C112763   0.475   1.083   1.900  0.4223  0.1087  0.3357
  870MPD2    C212764   0.523   1.192   1.833  0.3337  0.0021 -0.3831
  870MPD2    C312765   0.440   1.305   1.805  0.5060  1.0248  0.7400
  870MPD2    C412766   0.309   1.303   1.856  0.5245 -0.7536  0.3247
  870MPD2    C512767   0.262   1.183   1.901  0.6813 -0.0626  0.3390
  870MPD2     H12768   0.618   1.194   1.782 -0.5220 -0.5165 -1.9923
  870MPD2    H112769   0.246   1.389   1.835 -0.3044 -1.4383  0.0066
  870MPD2    H212770   0.302   1.011   2.002  0.0454 -0.6114  0.1130
  870MPD2    H312771   0.159   1.167   1.930  0.6523  1.1774  0.8938
  870MPD2     N12772   0.494   1.416   1.731 -0.8525 -0.3154 -0.0921
  870MPD2    H512773   0.585   1.399   1.688  0.9820 -0.2158  3.7295
  870MPD2    N112774   0.545   0.973   1.933 -0.0034 -0.2716 -0.1828
  870MPD2    H712775   0.497   0.896   1.979  0.2346  0.3130  1.0502
  871MPD2     C12776   0.827   0.669  16.235 -0.3854  0.2738 -0.6878
  871MPD2    C112777   0.815   0.602  16.352 -0.1344  0.7533  0.3364
  871MPD2    C212778   0.827   0.464  16.351 -0.1751 -0.7136 -0.2890
  871MPD2    C312779   0.869   0.399  16.237  0.2616  0.1970  0.0906
  871MPD2    C412780   0.882   0.469  16.117 -0.5432 -0.1150  0.1926
  871MPD2    C512781   0.855   0.601  16.116 -0.4277 -0.3977 -0.6366
  871MPD2     H12782   0.804   0.406  16.440  0.2192  0.3616  0.5155
  871MPD2    H112783   0.913   0.427  16.021  1.6676 -0.0341  0.8603
  871MPD2    H212784   0.824   0.777  16.227 -1.3158  0.2373 -0.8740
  871MPD2    H312785   0.853   0.656  16.022  0.5390  1.4561  0.4282
  871MPD2     N12786   0.881   0.259  16.236 -0.0640  0.3337  0.2554
  871MPD2    H512787   0.844   0.208  16.316 -0.0423  0.7704  0.5398
  871MPD2    N112788   0.792   0.665  16.474  0.1726  0.0994 -0.2395
  871MPD2    H712789   0.811   0.765  16.479  1.4925 -0.2436  1.4934
  872MPD2     C12790   1.352   2.725  13.790 -0.5443 -0.6016  0.3170
  872MPD2    C112791   1.263   2.831  13.796 -0.3145  0.6205  0.3034
  872MPD2    C212792   1.131   2.812  13.824 -0.0043  0.0318 -0.3485
  872MPD2    C312793   1.094   2.689  13.883 -0.3839  0.1949  0.1940
  872MPD2    C412794   1.189   2.587  13.884  0.6299 -0.1568 -0.4082
  872MPD2    C512795   1.311   2.608  13.829  0.4095  0.3816  0.2383
  872MPD2     H12796   1.065   2.898  13.823  2.1139  1.6558 -0.5459
  872MPD2    H112797   1.170   2.487  13.922  2.3048 -0.0513  0.7194
  872MPD2    H212798   1.455   2.716  13.756 -0.8077 -1.3333 -0.2940
  872MPD2    H312799   1.380   2.524  13.836  0.0653 -0.0048 -0.9614
  872MPD2     N12800   0.981   2.667  13.958  0.0617  0.4354 -0.1510
  872MPD2    H512801   0.992   2.596  14.030 -1.4227  0.2320 -0.1229
  872MPD2    N112802   1.312   2.963  13.773  0.4134 -0.0399 -0.3857
  872MPD2    H712803   1.247   3.040  13.761 -0.5672 -0.8880 -0.5119
  873MPD2     C12804   3.177   3.180   0.976 -0.2061 -0.3073 -0.0519
  873MPD2    C112805   3.077   3.143   1.060 -0.6733  0.6299  0.2509
  873MPD2    C212806   2.998   3.028   1.027  0.6375 -0.4694 -0.3076
  873MPD2    C312807   3.025   2.966   0.907 -0.0994  0.4591 -0.2593
  873MPD2    C412808   3.117   3.020   0.817 -0.2884 -0.5525 -0.0453
  873MPD2    C512809   3.188   3.127   0.854 -0.1102  0.1854 -0.4703
  873MPD2     H12810   2.922   2.987   1.092 -1.2864  0.9222 -1.6925
  873MPD2    H112811   3.151   2.972   0.726 -1.9190  0.4348 -1.1746
  873MPD2    H212812   3.246   3.257   1.009 -0.3147  0.1082 -0.7883
  873MPD2    H312813   3.256   3.166   0.778  1.2073  0.7335  0.9867
  873MPD2     N12814   2.966   2.843   0.879 -0.1258 -0.1226 -0.4052
  873MPD2    H512815   2.979   2.802   0.788  2.8074  0.8870 -0.4535
  873MPD2    N112816   3.073   3.208   1.188 -0.0981 -0.3202 -0.0712
  873MPD2    H712817   3.154   3.264   1.215  0.1347  0.0817 -1.6414
  874MPD2     C12818   2.709   2.494  15.936 -0.6292  0.1864 -0.5339
  874MPD2    C112819   2.783   2.466  16.047  0.0611 -0.3440  0.4005
  874MPD2    C212820   2.850   2.582  16.099  0.4873  0.2322  0.5574
  874MPD2    C312821   2.854   2.699  16.025  0.0748 -0.3573 -0.0963
  874MPD2    C412822   2.791   2.708  15.904 -0.4025  0.4886  0.4345
  874MPD2    C512823   2.711   2.607  15.866 -0.0443  0.0279 -0.1154
  874MPD2     H12824   2.900   2.575  16.195  1.5763  0.1605 -0.0205
  874MPD2    H112825   2.797   2.792  15.836 -1.2947 -0.1264 -0.3974
  874MPD2    H212826   2.649   2.413  15.896 -1.0816 -0.2542  1.0436
  874MPD2    H312827   2.651   2.617  15.777 -1.2977 -0.9335  0.6286
  874MPD2     N12828   2.929   2.806  16.078  0.7442  0.4952  0.0472
  874MPD2    H512829   2.973   2.796  16.169 -0.7878  0.5458  0.7885
  874MPD2    N112830   2.790   2.335  16.105  0.3032 -0.5004 -0.3150
  874MPD2    H712831   2.730   2.265  16.064  1.4541 -0.8697 -1.3759
  875MPD2     C12832   4.347   0.822  14.834 -0.4770 -0.7735 -1.1202
  875MPD2    C112833   4.247   0.901  14.881  0.5618 -0.8674 -0.3293
  875MPD2    C212834   4.255   0.957  15.009  0.2457 -0.1472  0.0580
  875MPD2    C312835   4.368   0.934  15.086 -0.4328  0.3147  0.4425
  875MPD2    C412836   4.472   0.864  15.024  0.1398  0.2793  0.4078
  875MPD2    C512837   4.456   0.792  14.909  0.1001  0.6965 -0.7306
  875MPD2     H12838   4.176   1.018  15.052 -0.2338 -2.2029  2.1333
  875MPD2    H112839   4.564   0.837  15.073  0.0456 -1.9340 -0.6117
  875MPD2    H212840   4.357   0.786  14.732  4.8267  1.1993 -1.3218
  875MPD2    H312841   4.541   0.733  14.877 -0.8605 -0.8593 -0.4090
  875MPD2     N12842   4.388   0.996  15.214  0.7068 -0.3809  0.3514
  875MPD2    H512843   4.483   0.990  15.250  1.2575  0.1279 -1.0030
  875MPD2    N112844   4.129   0.935  14.804  0.4053  0.1034  0.3762
  875MPD2    H712845   4.050   0.974  14.855 -0.5073 -1.3470  0.0918
  876MPD2     C12846   2.745   2.044  15.699  0.2418 -0.1708 -0.5052
  876MPD2    C112847   2.849   2.102  15.765  0.1760  0.0810 -0.0689
  876MPD2    C212848   2.892   2.038  15.876 -0.3183 -0.6121 -0.9455
  876MPD2    C312849   2.828   1.926  15.936 -0.5907  0.0362 -0.7093
  876MPD2    C412850   2.721   1.874  15.862  0.0229 -0.2105 -0.5016
  876MPD2    C512851   2.678   1.934  15.746  0.6484  0.0458  0.2013
  876MPD2     H12852   2.980   2.069  15.930 -2.0627  2.0410  0.3505
  876MPD2    H112853   2.678   1.776  15.881  0.3965 -0.2454  0.1574
  876MPD2    H212854   2.706   2.084  15.606 -0.4208 -2.0833 -1.0600
  876MPD2    H312855   2.612   1.880  15.680 -0.8863  1.2935  0.7324
  876MPD2     N12856   2.878   1.857  16.047  0.3497  0.4001  0.3317
  876MPD2    H512857   2.971   1.884  16.078 -0.5909  1.8553  1.8917
  876MPD2    N112858   2.903   2.222  15.712 -0.8491  0.0147  0.0103
  876MPD2    H712859   2.873   2.267  15.627  2.3774  0.2173 -1.0178
  877MPD2     C12860   2.696   2.647  15.199  0.7695 -0.0027 -0.6481
  877MPD2    C112861   2.830   2.676  15.217  0.0432  0.0165 -0.1774
  877MPD2    C212862   2.912   2.720  15.116 -0.0064  0.4903 -0.0721
  877MPD2    C312863   2.859   2.727  14.988 -0.1833  0.5243  0.5141
  877MPD2    C412864   2.725   2.692  14.968 -0.1873  0.2467 -0.3821
  877MPD2    C512865   2.644   2.662  15.076  0.3194 -0.2774 -0.3851
  877MPD2     H12866   3.019   2.732  15.127  0.3491  0.8936 -3.9316
  877MPD2    H112867   2.682   2.697  14.869 -1.2263  1.5469  0.1410
  877MPD2    H212868   2.633   2.612  15.280  1.2085  2.9459  0.9746
  877MPD2    H312869   2.542   2.629  15.058 -0.2530  1.8434 -1.0453
  877MPD2     N12870   2.930   2.762  14.869 -0.3873  0.5917 -0.1974
  877MPD2    H512871   2.877   2.752  14.783 -1.0679 -1.4154  0.4574
  877MPD2    N112872   2.889   2.651  15.343  0.9370  0.1989  0.0825
  877MPD2    H712873   2.988   2.671  15.346  0.8631  0.5751  0.0273
  878MPD2     C12874   3.354   2.090  12.994 -0.1555  0.1400 -0.4183
  878MPD2    C112875   3.307   2.222  13.008  0.5164  0.6377  0.0755
  878MPD2    C212876   3.254   2.262  13.135 -0.5161  0.6996  0.2431
  878MPD2    C312877   3.259   2.178  13.247  0.4416  0.2707 -0.3562
  878MPD2    C412878   3.296   2.044  13.221  0.4947 -0.1003  0.3874
  878MPD2    C512879   3.353   2.008  13.099 -0.0637  0.2436  0.1826
  878MPD2     H12880   3.215   2.363  13.141  1.8001  1.5043  1.7170
  878MPD2    H112881   3.315   1.974  13.302 -1.5351 -0.5494  0.4727
  878MPD2    H212882   3.410   2.050  12.910 -0.7963 -1.4152 -0.1135
  878MPD2    H312883   3.399   1.911  13.087  3.4953  1.9654 -0.2032
  878MPD2     N12884   3.216   2.213  13.373  0.0369 -0.4435  0.0582
  878MPD2    H512885   3.245   2.142  13.440  0.5511  0.8446  1.1916
  878MPD2    N112886   3.312   2.298  12.887  0.0354 -0.1205  0.9417
  878MPD2    H712887   3.342   2.244  12.806  0.0484 -0.0454  0.8960
  879MPD2     C12888   3.119   4.212  17.295  0.0935 -0.1282  0.0608
  879MPD2    C112889   3.067   4.147  17.411 -0.5687 -0.4846 -0.1033
  879MPD2    C212890   3.016   4.021  17.402 -0.0290 -0.3642 -0.3847
  879MPD2    C312891   3.024   3.945  17.279 -0.6239  0.5367 -0.5658
  879MPD2    C412892   3.081   4.006  17.171  0.0711 -0.7186 -0.3914
  879MPD2    C512893   3.124   4.140  17.179  0.2970  0.2205  0.1276
  879MPD2     H12894   2.967   3.968  17.484 -4.0402  2.7569 -0.8002
  879MPD2    H112895   3.091   3.964  17.071 -3.2821 -2.4849  0.0336
  879MPD2    H212896   3.162   4.311  17.300 -0.7742  0.3601 -2.2579
  879MPD2    H312897   3.161   4.199  17.097 -0.0175  2.3052  1.4985
  879MPD2     N12898   2.972   3.808  17.264  0.1928 -0.3383  0.5600
  879MPD2    H512899   2.966   3.768  17.171 -1.9413  1.2993  0.0016
  879MPD2    N112900   3.065   4.225  17.526  0.5206  0.0141 -0.4072
  879MPD2    H712901   3.099   4.319  17.506 -2.1369  0.6974 -1.6754
  880MPD2     C12902   0.340   0.456   0.666  0.1221 -0.6845 -0.3521
  880MPD2    C112903   0.402   0.534   0.757  0.1735 -0.4339 -0.6900
  880MPD2    C212904   0.382   0.506   0.891  0.2744  0.0183  0.3685
  880MPD2    C312905   0.307   0.399   0.933 -0.4349 -0.4792  0.0958
  880MPD2    C412906   0.254   0.314   0.838  0.5691  0.8831  0.4714
  880MPD2    C512907   0.269   0.347   0.701 -0.1118  0.9882  0.4513
  880MPD2     H12908   0.438   0.558   0.967 -0.2054  1.1572 -0.0593
  880MPD2    H112909   0.198   0.224   0.861  0.5092  0.2817 -2.0228
  880MPD2    H212910   0.351   0.497   0.567  0.4920  0.0045 -0.0251
  880MPD2    H312911   0.222   0.284   0.627  1.3791 -0.7167  0.9843
  880MPD2     N12912   0.288   0.378   1.077 -0.5785  0.1769  0.8295
  880MPD2    H512913   0.336   0.447   1.134  1.0391 -0.6003  0.4220
  880MPD2    N112914   0.480   0.640   0.709  0.6333  0.6601  0.5242
  880MPD2    H712915   0.497   0.625   0.610  1.0977  1.3814  0.4955
  881MPD2     C12916   0.135   1.370   0.148 -0.1341  0.1551 -0.3467
  881MPD2    C112917   0.212   1.260   0.113  0.1684  0.0668  0.0917
  881MPD2    C212918   0.267   1.183   0.215 -0.4135  0.3166  0.4102
  881MPD2    C312919   0.264   1.228   0.354 -0.9020 -0.4561 -0.0832
  881MPD2    C412920   0.194   1.343   0.377 -0.3663 -0.4233  0.4808
  881MPD2    C512921   0.125   1.408   0.279  0.5640 -0.1128 -0.1161
  881MPD2     H12922   0.323   1.092   0.197 -1.6258 -0.2790 -0.3499
  881MPD2    H112923   0.199   1.380   0.479  0.3204 -1.5332  0.8540
  881MPD2    H212924   0.064   1.410   0.076 -0.1795  1.2431  0.3045
  881MPD2    H312925   0.076   1.503   0.301  0.0435 -0.5468  0.6055
  881MPD2     N12926   0.342   1.174   0.456  0.1141 -0.3311 -0.4592
  881MPD2    H512927   0.348   1.221   0.546  0.7582 -0.5753 -0.3783
  881MPD2    N112928   0.189   1.221  17.688  0.8069  0.0813  0.4769
  881MPD2    H712929   0.132   1.286  17.636  0.2063  2.0629  3.6214
  882MPD2     C12930   2.881   2.890  14.042 -0.3992 -0.0726 -0.1828
  882MPD2    C112931   2.833   2.876  14.170 -0.2290  1.1276 -0.2546
  882MPD2    C212932   2.695   2.873  14.196  0.0343  0.4123 -0.2405
  882MPD2    C312933   2.602   2.881  14.096 -0.5366  0.2972  0.4442
  882MPD2    C412934   2.653   2.880  13.970  0.0692  0.2029 -0.1791
  882MPD2    C512935   2.787   2.887  13.941  0.0258 -0.1478  0.0153
  882MPD2     H12936   2.666   2.844  14.296 -0.1297 -0.5490 -0.5729
  882MPD2    H112937   2.589   2.851  13.888 -0.8876 -0.6120  0.8471
  882MPD2    H212938   2.987   2.900  14.020 -0.5846 -1.8779 -1.8841
  882MPD2    H312939   2.813   2.881  13.836 -0.3499 -0.8376 -0.0367
  882MPD2     N12940   2.471   2.846  14.124 -0.1806 -0.4286  0.0326
  882MPD2    H512941   2.412   2.817  14.047  0.5373  0.0152 -0.6811
  882MPD2    N112942   2.926   2.858  14.273  0.2490 -0.0338  0.1325
  882MPD2    H712943   3.020   2.827  14.252  0.5883 -0.0154  1.6504
  883MPD2     C12944   0.176   2.761  16.466 -0.0911  0.1230 -0.2059
  883MPD2    C112945   0.244   2.838  16.376 -0.1126 -0.2886  0.8705
  883MPD2    C212946   0.370   2.886  16.418  0.6254 -0.3200  0.0762
  883MPD2    C312947   0.427   2.851  16.540  0.2253  0.0427 -0.1054
  883MPD2    C412948   0.362   2.766  16.623  0.5235 -0.2474 -0.3935
  883MPD2    C512949   0.234   2.724  16.583  0.1481  0.0431 -0.2779
  883MPD2     H12950   0.415   2.968  16.363  0.2695  0.9674  1.7164
  883MPD2    H112951   0.405   2.724  16.713  1.7100 -1.3290 -1.4599
  883MPD2    H212952   0.071   2.738  16.452  0.1066 -1.1757  0.4380
  883MPD2    H312953   0.177   2.658  16.648  2.7673 -0.9256  1.0407
  883MPD2     N12954   0.562   2.897  16.569  0.1725  0.3969  0.0143
  883MPD2    H512955   0.616   2.952  16.503  0.1545  1.7764  1.1331
  883MPD2    N112956   0.193   2.878  16.246  0.0015  0.5673 -0.4384
  883MPD2    H712957   0.243   2.952  16.197 -0.4189  0.9798 -0.2419
  884MPD2     C12958   2.040   3.114  15.387  0.4881 -0.0408 -0.2458
  884MPD2    C112959   2.049   3.254  15.403 -0.4178 -0.0003  0.1326
  884MPD2    C212960   1.932   3.329  15.411  0.3788 -0.2393  0.3143
  884MPD2    C312961   1.812   3.271  15.371 -0.3480  0.8423  0.4503
  884MPD2    C412962   1.805   3.143  15.345 -0.1678  0.9842 -0.2132
  884MPD2    C512963   1.916   3.065  15.357  0.1936  0.0358 -0.1043
  884MPD2     H12964   1.941   3.437  15.417 -0.8197 -0.1821  1.1891
  884MPD2    H112965   1.718   3.102  15.294 -0.1097 -0.9505  1.2220
  884MPD2    H212966   2.117   3.039  15.375 -0.2612 -0.5539 -1.8336
  884MPD2    H312967   1.906   2.959  15.333 -0.0192  0.1884 -0.6858
  884MPD2     N12968   1.686   3.343  15.364  0.1468 -0.5135 -0.4964
  884MPD2    H512969   1.611   3.286  15.325  0.0295  0.0280 -1.0638
  884MPD2    N112970   2.173   3.328  15.421 -0.2567 -0.8478 -0.2738
  884MPD2    H712971   2.171   3.429  15.425  0.3521 -0.8037 -1.1551
  885MPD2     C12972   0.008   3.787   0.244 -0.4918  0.0056  0.4568
  885MPD2    C112973   0.149   3.816   0.257 -0.6855 -0.3676  0.3018
  885MPD2    C212974   0.219   3.867   0.150  0.2033  0.4904  0.0926
  885MPD2    C312975   0.149   3.920   0.051 -0.5200 -0.1765  0.2908
  885MPD2    C412976   0.010   3.910   0.040  0.2984  0.0783 -0.7263
  885MPD2    C512977   4.672   3.828   0.133  0.3576 -0.5711 -0.4308
  885MPD2     H12978   0.324   3.893   0.158  0.4353 -0.7463  1.0440
  885MPD2    H112979   4.683   3.957  17.661  1.7363  0.6649 -1.3126
  885MPD2    H212980   4.676   3.737   0.321 -2.1031  0.0199 -0.7643
  885MPD2    H312981   4.568   3.804   0.115 -0.1169  1.5738 -0.5417
  885MPD2     N12982   0.225   3.989  17.655 -0.0799  0.0426 -0.5919
  885MPD2    H512983   0.325   4.003  17.668 -0.1524  1.0257 -1.0719
  885MPD2    N112984   0.214   3.761   0.372 -0.2773  0.1377 -0.5401
  885MPD2    H712985   0.152   3.713   0.436 -1.9820 -0.8126 -2.8841
  886MPD2     C12986   1.290   2.043  15.589 -0.3601 -0.1913  0.0595
  886MPD2    C112987   1.426   2.051  15.585 -0.1941  0.2304 -0.1700
  886MPD2    C212988   1.486   2.142  15.501 -0.0891 -0.3546 -0.0522
  886MPD2    C312989   1.412   2.218  15.406  0.3081 -0.1066 -0.7055
  886MPD2    C412990   1.275   2.204  15.414 -0.0334  0.6563  0.3729
  886MPD2    C512991   1.218   2.126  15.510 -0.0736  0.2447  0.0916
  886MPD2     H12992   1.593   2.158  15.513 -0.6317  0.4469  3.7499
  886MPD2    H112993   1.213   2.266  15.349  0.6773  0.7370 -0.2302
  886MPD2    H212994   1.233   1.978  15.655 -1.6211  1.4519  0.5761
  886MPD2    H312995   1.110   2.129  15.508 -0.1023 -0.3599  0.8822
  886MPD2     N12996   1.470   2.319  15.332  0.0139 -0.8102  0.0938
  886MPD2    H512997   1.412   2.373  15.269  0.5693 -0.3294  0.0028
  886MPD2    N112998   1.518   1.973  15.659  0.1330 -0.0636  0.6031
  886MPD2    H712999   1.614   1.982  15.627 -0.4879 -0.6121 -1.4087
  887MPD2     C13000   2.205   1.939  15.839  0.0042 -0.2890 -0.1241
  887MPD2    C113001   2.080   2.001  15.816  0.2111 -0.4066 -0.3669
  887MPD2    C213002   2.079   2.129  15.776  1.0845  0.6098  0.7779
  887MPD2    C313003   2.200   2.195  15.751 -0.2779 -0.3318 -0.0474
  887MPD2    C413004   2.319   2.138  15.782  0.7790 -0.4776 -0.2034
  887MPD2    C513005   2.319   2.006  15.820  0.8713 -0.2590  0.3388
  887MPD2     H13006   1.983   2.175  15.758  0.0234 -1.1026  2.0711
  887MPD2    H113007   2.409   2.195  15.760  0.4499  0.1183  0.0128
  887MPD2    H213008   2.214   1.840  15.882  1.2508  0.4887  1.3996
  887MPD2    H313009   2.409   1.950  15.842  1.0663 -0.5887 -1.2452
  887MPD2     N13010   2.186   2.332  15.709 -0.4860 -0.7504 -0.2205
  887MPD2    H513011   2.092   2.369  15.697 -1.3011 -2.8809 -0.4680
  887MPD2    N113012   1.958   1.944  15.856 -0.4593  0.9404  0.1774
  887MPD2    H713013   1.885   2.013  15.872 -0.2383  0.9212  1.2937
  888MPD2     C13014   4.108   2.521  14.853  0.2736  0.4825  0.1333
  888MPD2    C113015   4.066   2.574  14.972  0.2447  0.2231 -0.1945
  888MPD2    C213016   4.082   2.709  14.984  0.3425 -0.4740  0.0850
  888MPD2    C313017   4.122   2.799  14.888 -0.4388  0.1020  0.2993
  888MPD2    C413018   4.162   2.743  14.767 -0.0172  0.1230 -0.1366
  888MPD2    C513019   4.164   2.601  14.760  0.5656 -1.2351 -0.1061
  888MPD2     H13020   4.048   2.752  15.078  3.5337  1.5884  0.3235
  888MPD2    H113021   4.198   2.793  14.678  1.4693 -2.0963 -0.7758
  888MPD2    H213022   4.117   2.414  14.838  0.3021  0.3141  1.3774
  888MPD2    H313023   4.192   2.547  14.670 -1.5319 -0.9487 -0.9224
  888MPD2     N13024   4.126   2.931  14.919 -0.6240 -0.0179 -0.3193
  888MPD2    H513025   4.114   2.957  15.017  3.0424  1.5584 -0.3197
  888MPD2    N113026   4.015   2.495  15.077  1.3695  0.3406 -0.0652
  888MPD2    H713027   4.001   2.535  15.170  0.5018 -2.1020  0.8540
  889MPD2     C13028   3.781   1.885  13.081  0.1894 -0.5666  0.1142
  889MPD2    C113029   3.673   1.858  13.168 -0.2480 -0.2988 -0.2380
  889MPD2    C213030   3.638   1.970  13.242  0.5114 -0.0286  0.6895
  889MPD2    C313031   3.660   2.100  13.201 -0.3985 -0.5983 -0.1949
  889MPD2    C413032   3.744   2.118  13.091  1.1041 -0.0760  0.0894
  889MPD2    C513033   3.804   2.011  13.041 -0.1865 -0.0203 -0.1496
  889MPD2     H13034   3.557   1.956  13.312  1.8636  0.4266  2.3374
  889MPD2    H113035   3.768   2.215  13.049 -0.8815  1.5336  2.6621
  889MPD2    H213036   3.836   1.802  13.038  1.3670  0.9868 -1.4040
  889MPD2    H313037   3.870   2.041  12.961  1.4994 -1.0241  0.8375
  889MPD2     N13038   3.597   2.208  13.269  0.1399  0.4725 -0.3153
  889MPD2    H513039   3.548   2.177  13.351 -0.3835 -1.9375 -1.5601
  889MPD2    N113040   3.660   1.727  13.218  0.0054 -0.3157 -0.0266
  889MPD2    H713041   3.723   1.659  13.177  2.9381  2.6967 -0.4941
  890MPD2     C13042   3.085   3.379  14.402 -0.4919 -0.1746  0.1403
  890MPD2    C113043   3.120   3.483  14.487  0.1552  0.4591 -0.1876
  890MPD2    C213044   3.106   3.467  14.625  0.1703  0.3690  0.3084
  890MPD2    C313045   3.065   3.344  14.673  0.2135 -0.2192 -0.0902
  890MPD2    C413046   3.024   3.250  14.585  0.1216 -0.0933 -0.6342
  890MPD2    C513047   3.032   3.263  14.450 -0.2342  1.6481  0.0486
  890MPD2     H13048   3.147   3.543  14.690  0.8966  0.5574 -0.3706
  890MPD2    H113049   3.002   3.150  14.621  0.3198  0.5147  1.1774
  890MPD2    H213050   3.112   3.393  14.298  2.1959  0.2351  0.8980
  890MPD2    H313051   3.016   3.177  14.385 -0.2393  1.3001  0.5108
  890MPD2     N13052   3.067   3.323  14.815 -0.0656 -0.6746 -0.0172
  890MPD2    H513053   3.114   3.381  14.885  0.9091  0.8905 -1.9636
  890MPD2    N113054   3.166   3.601  14.420  0.0131 -0.1412 -0.6223
  890MPD2    H713055   3.179   3.601  14.319  1.4013 -0.8637 -0.4467
  891MPD2     C13056   1.182   2.222  16.805 -0.0433  0.4222 -0.1828
  891MPD2    C113057   1.062   2.152  16.839 -0.6677  0.3611 -0.6304
  891MPD2    C213058   1.072   2.036  16.908 -0.0623 -0.9220 -0.1657
  891MPD2    C313059   1.190   1.987  16.955  0.9274  0.6925 -0.9179
  891MPD2    C413060   1.301   2.058  16.922  0.2879 -0.5555  0.1805
  891MPD2    C513061   1.299   2.168  16.847  0.7061  0.3947  0.0804
  891MPD2     H13062   0.977   1.987  16.927 -0.2169 -0.6958 -0.3561
  891MPD2    H113063   1.404   2.030  16.942  0.5004 -0.7778 -1.2246
  891MPD2    H213064   1.189   2.310  16.742 -0.8796 -0.0789 -0.9805
  891MPD2    H313065   1.395   2.204  16.812  0.4210  0.5870 -0.5031
  891MPD2     N13066   1.188   1.863  17.023  0.2874  0.4928 -0.3130
  891MPD2    H513067   1.097   1.831  17.053  1.0920 -0.9604  0.5964
  891MPD2    N113068   0.936   2.202  16.798 -0.2064 -0.4489 -0.2173
  891MPD2    H713069   0.940   2.284  16.738 -0.3008 -0.5971 -0.4282
  892MPD2     C13070   1.973   2.871  15.017  0.0894 -0.0874  0.2218
  892MPD2    C113071   1.884   2.850  14.908  0.6619  0.3482  0.1809
  892MPD2    C213072   1.935   2.826  14.784 -1.1279  0.1566 -0.1500
  892MPD2    C313073   2.074   2.808  14.764 -0.4357  0.0671 -0.3240
  892MPD2    C413074   2.157   2.812  14.875 -0.6223  0.1926  1.0113
  892MPD2    C513075   2.105   2.845  15.003 -0.3937  0.0009  0.6134
  892MPD2     H13076   1.870   2.833  14.698  0.1475  0.7873 -1.0728
  892MPD2    H113077   2.263   2.794  14.857 -0.1453  3.5744  0.2996
  892MPD2    H213078   1.933   2.898  15.115 -1.2362  0.8018 -0.5655
  892MPD2    H313079   2.178   2.862  15.081 -1.8454 -0.5195  2.0823
  892MPD2     N13080   2.131   2.775  14.642  0.5137  0.2160  0.1377
  892MPD2    H513081   2.232   2.776  14.637  0.6210 -0.5634  2.2565
  892MPD2    N113082   1.750   2.883  14.912 -0.2454 -0.0010  0.1673
  892MPD2    H713083   1.706   2.896  14.821  2.0866 -1.8241 -1.2141
  893MPD2     C13084   0.541   2.111   1.214 -1.0371 -0.1205 -0.5570
  893MPD2    C113085   0.513   2.216   1.293 -0.8364  0.7434  0.2094
  893MPD2    C213086   0.399   2.290   1.261 -0.1024  0.4348 -0.3917
  893MPD2    C313087   0.302   2.245   1.163 -0.0703  0.0914  0.2634
  893MPD2    C413088   0.325   2.123   1.107 -0.5866  0.7105 -0.0691
  893MPD2    C513089   0.444   2.059   1.128  0.4150 -0.1198  0.3627
  893MPD2     H13090   0.380   2.382   1.315  1.3998  0.6201 -0.1982
  893MPD2    H113091   0.261   2.082   1.030 -1.7324  2.4177 -0.0045
  893MPD2    H213092   0.635   2.058   1.225 -0.1992  1.7215  1.1392
  893MPD2    H313093   0.464   1.963   1.083  0.3119  0.5418 -1.1031
  893MPD2     N13094   0.188   2.312   1.118 -0.1685 -0.1043  1.0055
  893MPD2    H513095   0.126   2.271   1.048  0.7038 -0.0785  0.2209
  893MPD2    N113096   0.612   2.260   1.391  0.0141 -0.3902 -0.4073
  893MPD2    H713097   0.693   2.200   1.383  1.0475  0.8974  0.3749
  894MPD2     C13098   1.494   4.063   1.542  0.3459 -0.5767  0.3355
  894MPD2    C113099   1.630   4.046   1.557 -0.0262 -0.2975  0.4070
  894MPD2    C213100   1.709   4.145   1.509 -0.1169  0.1070  0.0224
  894MPD2    C313101   1.664   4.268   1.455 -0.0299  0.1430 -0.1518
  894MPD2    C413102   1.526   4.271   1.435 -0.3585  0.6801 -0.1469
  894MPD2    C513103   1.444   4.172   1.476 -0.0188  0.1348 -0.7501
  894MPD2     H13104   1.817   4.138   1.520 -0.0647  0.6038 -0.1639
  894MPD2    H113105   1.471   4.355   1.394 -2.6012 -0.6444  0.1364
  894MPD2    H213106   1.424   3.994   1.589 -0.7308 -0.3160 -0.8910
  894MPD2    H313107   1.344   4.170   1.433  1.1721 -1.3506 -3.4579
  894MPD2     N13108   1.751   4.376   1.444  0.3248 -0.8862  0.4824
  894MPD2    H513109   1.847   4.349   1.463  0.6429 -0.0180  0.0805
  894MPD2    N113110   1.687   3.932   1.617 -0.7966  0.4213  0.7333
  894MPD2    H713111   1.788   3.925   1.619 -0.8722 -0.5138  1.4442
  895MPD2     C13112   1.152   2.910  13.207 -0.7311 -0.3557  0.4576
  895MPD2    C113113   1.096   2.788  13.229 -0.6150  0.1440  0.2470
  895MPD2    C213114   1.188   2.682  13.234 -0.2907  0.0449 -0.1899
  895MPD2    C313115   1.326   2.694  13.213 -0.1979 -0.6440  0.0041
  895MPD2    C413116   1.381   2.818  13.185  0.6789  0.0454  0.6380
  895MPD2    C513117   1.287   2.918  13.183  0.4462  0.5825  0.1262
  895MPD2     H13118   1.156   2.579  13.238 -1.3472  0.4531  1.4068
  895MPD2    H113119   1.482   2.845  13.158  0.9871 -1.5329  0.2260
  895MPD2    H213120   1.107   3.008  13.204  1.0058  0.5315  3.3884
  895MPD2    H313121   1.328   3.016  13.165 -0.4556  0.8594 -0.4425
  895MPD2     N13122   1.413   2.579  13.199  0.3651 -0.5104 -0.0968
  895MPD2    H513123   1.509   2.602  13.177  0.5181 -1.2292 -0.1856
  895MPD2    N113124   0.957   2.767  13.246 -0.2027 -0.3481 -0.0867
  895MPD2    H713125   0.935   2.675  13.284 -0.5963  0.2061  1.0051
  896MPD2     C13126   4.273   4.705   1.820 -0.3314 -0.1690  0.8827
  896MPD2    C113127   4.212   0.070   1.740  0.5309 -0.1510  0.6058
  896MPD2    C213128   4.074   0.061   1.735 -0.0003 -0.8411 -0.2727
  896MPD2    C313129   4.011   4.678   1.791 -0.1043  0.2319 -0.0183
  896MPD2    C413130   4.078   4.585   1.866  0.3181  0.0780 -0.1335
  896MPD2    C513131   4.214   4.595   1.869  0.4818 -0.4048 -0.5101
  896MPD2     H13132   4.016   0.130   1.675 -0.2957 -0.4241  0.4972
  896MPD2    H113133   4.031   4.498   1.912 -0.8846  0.0242 -1.4755
  896MPD2    H213134   4.378   4.722   1.837 -0.2501 -0.4576  0.6729
  896MPD2    H313135   4.272   4.517   1.916 -1.9244 -0.1472  2.9574
  896MPD2     N13136   3.870   4.660   1.765 -0.2454  0.2568  0.1540
  896MPD2    H513137   3.816   0.004   1.715  2.1464  0.5732 -1.9344
  896MPD2    N113138   4.285   0.183   1.683 -0.4552 -1.0912 -1.0950
  896MPD2    H713139   4.386   0.178   1.694 -0.5572 -0.5707  0.1199
  897MPD2     C13140   0.056   2.026  10.402 -0.3693 -0.2305 -0.1895
  897MPD2    C113141   4.663   2.093  10.378  0.7147  0.1217  0.8860
  897MPD2    C213142   4.563   2.084  10.471  0.3001 -0.6547  0.0180
  897MPD2    C313143   4.583   2.023  10.590  0.0113 -0.7514  0.2568
  897MPD2    C413144   4.700   1.957  10.617  0.6982 -1.0352 -0.2428
  897MPD2    C513145   0.074   1.962  10.523 -0.3568  0.2056 -0.0322
  897MPD2     H13146   4.478   2.152  10.470  0.4544 -0.4986 -3.3353
  897MPD2    H113147   0.005   1.923  10.715  1.7286 -0.1420 -0.2546
  897MPD2    H213148   0.134   2.029  10.327 -2.6165 -1.3082 -2.5811
  897MPD2    H313149   0.171   1.913  10.532 -0.1856  0.2120 -1.7437
  897MPD2     N13150   4.481   2.037  10.685  0.3666  0.0024 -0.1375
  897MPD2    H513151   4.405   2.099  10.659  2.4362  3.6992  2.5803
  897MPD2    N113152   4.659   2.175  10.267  0.3513  0.9237  0.3483
  897MPD2    H713153   0.020   2.180  10.214 -0.0091 -0.7258 -0.4060
  898MPD2     C13154   1.438   2.179  17.517 -0.5482  0.2696 -0.0209
  898MPD2    C113155   1.558   2.223  17.463 -1.1636  0.1885 -0.3790
  898MPD2    C213156   1.562   2.309  17.354 -0.0201 -1.1177 -0.0568
  898MPD2    C313157   1.446   2.364  17.297 -0.3249  0.4820 -0.5332
  898MPD2    C413158   1.324   2.314  17.352  0.0436  0.0243 -0.3647
  898MPD2    C513159   1.328   2.222  17.454 -0.2301  0.0581 -0.3439
  898MPD2     H13160   1.658   2.344  17.316  0.9547 -1.8977  1.6617
  898MPD2    H113161   1.229   2.356  17.320 -1.1201 -3.2042 -1.1095
  898MPD2    H213162   1.434   2.110  17.600  2.4648  0.1155  0.0028
  898MPD2    H313163   1.229   2.199  17.491 -0.4639  0.0776 -0.9729
  898MPD2     N13164   1.452   2.457  17.194  0.0633  0.0490  0.5299
  898MPD2    H513165   1.545   2.481  17.158  0.0428 -2.3382 -1.1346
  898MPD2    N113166   1.682   2.199  17.518  0.4894 -0.6350 -0.2011
  898MPD2    H713167   1.759   2.225  17.456  3.1891  0.0220  3.4714
  899MPD2     C13168   2.420   3.640  17.233 -0.9443  1.1819  0.1224
  899MPD2    C113169   2.435   3.737  17.322 -0.3605 -0.4863  0.2195
  899MPD2    C213170   2.354   3.742  17.432  0.2005  0.1355  0.1808
  899MPD2    C313171   2.241   3.658  17.437  0.3048  0.8152 -0.0219
  899MPD2    C413172   2.220   3.561  17.346 -0.3672  0.3248 -0.7777
  899MPD2    C513173   2.309   3.554  17.241 -0.3852 -0.0544 -0.0043
  899MPD2     H13174   2.365   3.829  17.494  0.8301 -0.6555  1.1767
  899MPD2    H113175   2.142   3.488  17.361 -0.2299  0.7005  1.7793
  899MPD2    H213176   2.476   3.625  17.142 -0.2777  0.1345  0.7048
  899MPD2    H313177   2.304   3.481  17.160 -0.3447 -0.6906  0.5669
  899MPD2     N13178   2.150   3.665  17.543  0.3226  0.0596  0.0113
  899MPD2    H513179   2.058   3.626  17.530  0.1156  0.2256  0.9647
  899MPD2    N113180   2.537   3.829  17.286  0.3610  0.3215  0.0571
  899MPD2    H713181   2.595   3.813  17.204  0.8750  2.6035 -0.0228
  900MPD2     C13182   2.187   0.249  12.868  0.5223  0.9512 -0.2495
  900MPD2    C113183   2.123   0.180  12.768 -0.1389  0.0474  0.3738
  900MPD2    C213184   2.003   0.231  12.708  0.3033  0.0443 -0.0181
  900MPD2    C313185   1.955   0.357  12.749  0.1221  0.1465  0.1965
  900MPD2    C413186   2.028   0.424  12.841  0.4033  0.0378 -0.8315
  900MPD2    C513187   2.135   0.371  12.909  0.2645  0.1500  0.1970
  900MPD2     H13188   1.952   0.167  12.637  2.6513 -1.0668 -0.7101
  900MPD2    H113189   2.011   0.524  12.880 -1.5705  0.2167 -2.1309
  900MPD2    H213190   2.265   0.206  12.930  0.2363 -1.3801 -1.5185
  900MPD2    H313191   2.168   0.426  12.997  0.3947 -1.5366  1.1902
  900MPD2     N13192   1.840   0.401  12.687  0.4999 -0.1739 -0.1881
  900MPD2    H513193   1.787   0.322  12.651  0.3292 -0.3917  0.5407
  900MPD2    N113194   2.172   0.057  12.733 -0.2218  0.1851  0.1136
  900MPD2    H713195   2.258   0.027  12.777  0.8454  0.4431 -1.8068
  901MPD2     C13196   2.375   3.810  12.988  0.3869  0.0257 -0.1985
  901MPD2    C113197   2.371   3.797  12.849  0.0131 -0.2987 -0.4483
  901MPD2    C213198   2.319   3.901  12.775 -0.2100  0.1216  0.0447
  901MPD2    C313199   2.282   4.020  12.832 -0.5866  0.2870  0.0434
  901MPD2    C413200   2.305   4.039  12.969 -0.2445 -0.1612  0.1430
  901MPD2    C513201   2.342   3.934  13.048  0.0968 -0.8971  0.6952
  901MPD2     H13202   2.292   3.889  12.670  0.2324  2.2985 -0.3272
  901MPD2    H113203   2.279   4.131  13.019  2.7054  0.2635  0.8826
  901MPD2    H213204   2.406   3.726  13.049  1.6354  1.4141  1.0874
  901MPD2    H313205   2.352   3.952  13.154  2.8101  1.5937  0.0133
  901MPD2     N13206   2.252   4.121  12.738  0.3119 -0.1070 -0.2407
  901MPD2    H513207   2.252   4.089  12.642  2.4904 -0.0437 -0.2511
  901MPD2    N113208   2.419   3.678  12.785 -0.7309  0.8682  0.0445
  901MPD2    H713209   2.435   3.598  12.845 -0.0646  0.1994 -1.0405
  902MPD2     C13210   1.107   2.906  12.829  0.4010  0.4044 -0.2710
  902MPD2    C113211   1.039   2.911  12.709  0.2197  0.0672  0.0998
  902MPD2    C213212   1.073   2.824  12.607 -0.2942 -0.0242 -0.3968
  902MPD2    C313213   1.183   2.743  12.620 -1.0045 -0.0291  0.1582
  902MPD2    C413214   1.257   2.741  12.734  0.0224  0.1960 -0.6728
  902MPD2    C513215   1.214   2.823  12.838 -0.0023  0.0629  0.6766
  902MPD2     H13216   1.017   2.827  12.514 -0.7020 -2.4427 -0.2447
  902MPD2    H113217   1.337   2.671  12.753 -0.4767  0.0758  0.9997
  902MPD2    H213218   1.071   2.956  12.919 -1.5621  1.0799 -1.4318
  902MPD2    H313219   1.253   2.817  12.939  0.2035 -1.2878  0.5291
  902MPD2     N13220   1.215   2.668  12.506 -0.3696  0.4014 -0.2458
  902MPD2    H513221   1.143   2.681  12.436  0.4670 -0.4457 -1.2608
  902MPD2    N113222   0.929   3.003  12.694  0.2279  0.2051 -0.6734
  902MPD2    H713223   0.891   3.041  12.780  2.2401 -2.3122  1.3420
  903MPD2     C13224   1.271   2.824  11.687 -0.8574 -0.0518 -0.0863
  903MPD2    C113225   1.203   2.771  11.794  0.1093  0.2970  0.7043
  903MPD2    C213226   1.065   2.794  11.798  0.3367 -1.1907 -0.4926
  903MPD2    C313227   0.996   2.838  11.684 -0.1070  0.2122 -0.6400
  903MPD2    C413228   1.070   2.862  11.569 -0.0816  0.3622 -0.2212
  903MPD2    C513229   1.205   2.857  11.575  0.0287  0.0265 -0.2808
  903MPD2     H13230   1.010   2.766  11.887 -0.6883  1.4724 -0.2884
  903MPD2    H113231   1.023   2.880  11.473 -2.2174  0.4743  0.8228
  903MPD2    H213232   1.379   2.825  11.694 -1.0702  1.3771  2.8358
  903MPD2    H313233   1.259   2.891  11.488  0.4435 -0.7813 -0.3394
  903MPD2     N13234   0.859   2.849  11.699  0.1859 -0.0857 -0.1327
  903MPD2    H513235   0.816   2.832  11.789  1.2675 -0.2329  0.3549
  903MPD2    N113236   1.264   2.713  11.903 -0.0465 -0.0664 -0.0641
  903MPD2    H713237   1.365   2.708  11.895 -0.0206 -1.2751  0.8579
  904MPD2     C13238   1.110   2.042  13.517 -0.3784 -0.1130  1.1449
  904MPD2    C113239   1.081   1.973  13.635  0.1701 -0.2431  0.0884
  904MPD2    C213240   1.186   1.958  13.726  0.5027 -0.2910 -0.2130
  904MPD2    C313241   1.296   2.031  13.720 -0.4710  0.3676 -0.2084
  904MPD2    C413242   1.326   2.100  13.605  0.0117  0.8709 -0.0596
  904MPD2    C513243   1.232   2.100  13.501  0.1759  0.4263  0.1755
  904MPD2     H13244   1.176   1.898  13.815  1.0457 -1.1889 -0.7608
  904MPD2    H113245   1.418   2.155  13.589  0.3806  1.0856  2.6840
  904MPD2    H213246   1.050   2.033  13.428  1.4104 -0.6668 -0.0001
  904MPD2    H313247   1.245   2.145  13.404 -0.2663 -0.9703 -0.5256
  904MPD2     N13248   1.388   2.018  13.832 -0.3404 -0.4599 -0.0160
  904MPD2    H513249   1.362   1.957  13.909  0.0621  0.7694  1.0900
  904MPD2    N113250   0.962   1.895  13.649 -0.6393  0.0133 -0.3735
  904MPD2    H713251   0.945   1.843  13.735 -1.3033  1.2888  0.2576
  905MPD2     C13252   0.843   2.474  13.012  0.2460 -0.0099  0.8496
  905MPD2    C113253   0.892   2.361  13.073 -0.0951  0.4073  0.3152
  905MPD2    C213254   1.003   2.305  13.030  0.7296  0.1393 -0.2351
  905MPD2    C313255   1.080   2.363  12.925 -0.1936 -0.0745 -0.3920
  905MPD2    C413256   1.037   2.488  12.884  0.3524  0.0839 -0.5136
  905MPD2    C513257   0.915   2.532  12.913  0.0998 -0.0169  0.2072
  905MPD2     H13258   1.027   2.205  13.064  0.0766  0.0175 -0.1325
  905MPD2    H113259   1.079   2.555  12.809 -0.2501  0.2861 -0.6757
  905MPD2    H213260   0.747   2.514  13.041  0.6651  1.7655 -0.1779
  905MPD2    H313261   0.882   2.630  12.879  1.2246  0.5298  0.6861
  905MPD2     N13262   1.205   2.311  12.888 -0.6248  0.4755  0.2151
  905MPD2    H513263   1.279   2.370  12.851 -1.1432 -0.6033 -2.5105
  905MPD2    N113264   0.805   2.304  13.169 -0.2521  0.2666  0.1731
  905MPD2    H713265   0.725   2.362  13.193 -0.6906  0.8129 -2.5812
  906MPD2     C13266   3.208   2.203  11.503  0.8160 -0.3024  0.2298
  906MPD2    C113267   3.222   2.109  11.401 -0.1921  0.4016 -0.1629
  906MPD2    C213268   3.226   1.977  11.434 -1.5615  0.9202  0.9310
  906MPD2    C313269   3.197   1.939  11.566  0.0645  0.2098  0.0343
  906MPD2    C413270   3.185   2.032  11.670 -0.0670  0.0114  0.1991
  906MPD2    C513271   3.189   2.164  11.632  0.8127 -0.0493 -0.7207
  906MPD2     H13272   3.246   1.907  11.355 -1.8370  1.1619  0.6482
  906MPD2    H113273   3.161   2.013  11.774  0.2908 -0.4892  0.1889
  906MPD2    H213274   3.224   2.309  11.488  2.3311 -0.2328  2.3531
  906MPD2    H313275   3.182   2.246  11.701 -1.0527  0.3686 -1.4082
  906MPD2     N13276   3.163   1.800  11.591 -0.0436 -0.2045  0.6013
  906MPD2    H513277   3.116   1.792  11.681 -2.6986 -1.1347 -0.8929
  906MPD2    N113278   3.238   2.139  11.258 -0.1327 -0.0614  0.5099
  906MPD2    H713279   3.233   2.063  11.192 -2.4077  1.0225 -0.5902
  907MPD2     C13280   2.148   1.152  15.410  0.0421 -0.0601  0.1679
  907MPD2    C113281   2.253   1.059  15.402  0.0349 -0.7488  0.7349
  907MPD2    C213282   2.360   1.072  15.488 -0.2235 -0.1522  0.6665
  907MPD2    C313283   2.361   1.172  15.584  0.6276 -1.1194 -0.0453
  907MPD2    C413284   2.262   1.261  15.592 -0.2187 -0.1199 -0.3056
  907MPD2    C513285   2.156   1.250  15.506  0.8047 -0.0202  0.0421
  907MPD2     H13286   2.444   1.004  15.478  0.3188  0.7066 -0.6174
  907MPD2    H113287   2.263   1.343  15.663  0.0788  1.8020 -2.5141
  907MPD2    H213288   2.057   1.137  15.352  0.9953 -1.2002 -1.0457
  907MPD2    H313289   2.075   1.320  15.524 -1.0764 -2.1530 -0.0230
  907MPD2     N13290   2.464   1.171  15.681 -0.3872 -0.1386  0.0835
  907MPD2    H513291   2.515   1.084  15.667 -2.2848 -1.4992  1.5331
  907MPD2    N113292   2.242   0.951  15.311 -0.4653  0.6037 -0.4913
  907MPD2    H713293   2.324   0.891  15.303 -1.2241 -0.6380  0.9081
  908MPD2     C13294   4.139   2.279   9.407 -0.3828  0.1416  0.3983
  908MPD2    C113295   4.213   2.179   9.464  0.5885 -0.0379  0.1581
  908MPD2    C213296   4.278   2.204   9.583 -0.0500 -0.2857  0.6671
  908MPD2    C313297   4.260   2.331   9.648 -0.1227 -0.2355  0.8074
  908MPD2    C413298   4.172   2.422   9.603  0.0327  0.1640 -0.5385
  908MPD2    C513299   4.122   2.400   9.478 -0.6344  0.0294  0.3655
  908MPD2     H13300   4.342   2.133   9.633  0.9261  0.8579  1.0422
  908MPD2    H113301   4.159   2.514   9.658 -4.7555 -0.4937 -0.6228
  908MPD2    H213302   4.103   2.265   9.306 -0.0086 -0.9302  0.4144
  908MPD2    H313303   4.071   2.482   9.428 -1.2273  0.4888  1.7373
  908MPD2     N13304   4.333   2.351   9.764  0.6629 -0.0309  0.1686
  908MPD2    H513305   4.386   2.271   9.795 -0.9971 -1.2863 -0.2480
  908MPD2    N113306   4.233   2.061   9.388  0.2635 -0.3881 -0.0173
  908MPD2    H713307   4.167   2.042   9.314 -0.8200 -1.2681  1.1741
  909MPD2     C13308   0.377   4.490  11.696  0.2486  0.2612 -0.7985
  909MPD2    C113309   0.352   4.613  11.644 -0.2188  0.0603 -0.4533
  909MPD2    C213310   0.323   4.714  11.727  1.1075  0.5689  0.5851
  909MPD2    C313311   0.313   4.689  11.862  0.2285  0.2788  0.5250
  909MPD2    C413312   0.331   4.564  11.917 -0.1858  0.7392 -0.4591
  909MPD2    C513313   0.377   4.468  11.830 -0.1836  0.6113 -0.3187
  909MPD2     H13314   0.296   0.087  11.690 -0.6971 -0.8519 -1.8987
  909MPD2    H113315   0.319   4.543  12.023 -0.0348  2.7451 -0.0300
  909MPD2    H213316   0.402   4.411  11.626  2.0503 -0.5027  0.7184
  909MPD2    H313317   0.394   4.368  11.868 -1.0746  0.9120  0.8700
  909MPD2     N13318   0.266   0.077  11.932  0.5908 -0.1771 -0.9045
  909MPD2    H513319   0.238   0.163  11.886  1.7525  1.0433  0.6760
  909MPD2    N113320   0.375   4.639  11.504  0.2274 -0.0083  0.6439
  909MPD2    H713321   0.380   0.010  11.472 -2.3333 -0.9390 -2.5942
  910MPD2     C13322   1.179   1.626  15.831 -0.0696  0.2296 -0.0047
  910MPD2    C113323   1.189   1.526  15.730 -0.3853  0.2357  0.3252
  910MPD2    C213324   1.115   1.532  15.609  0.0454 -0.2360  0.0297
  910MPD2    C313325   1.023   1.634  15.602  0.1745  0.7664  0.4594
  910MPD2    C413326   1.010   1.726  15.701 -0.2647  0.0421 -0.0527
  910MPD2    C513327   1.089   1.725  15.810  0.4870  0.0251 -0.1521
  910MPD2     H13328   1.137   1.463  15.529 -0.9363 -0.8697  0.3120
  910MPD2    H113329   0.952   1.815  15.682 -0.1500  0.0721 -0.2648
  910MPD2    H213330   1.234   1.626  15.924  0.1472  0.1055 -0.1321
  910MPD2    H313331   1.088   1.805  15.882  1.4798  1.1890 -1.4131
  910MPD2     N13332   0.951   1.656  15.485  0.1207  0.2516 -0.6241
  910MPD2    H513333   0.881   1.729  15.494 -0.4976 -0.2857 -1.0685
  910MPD2    N113334   1.280   1.423  15.751 -0.2553  0.0077 -0.0784
  910MPD2    H713335   1.336   1.431  15.836 -0.6024 -1.6775  0.3105
  911MPD2     C13336   3.816   2.630  16.833  1.0037  0.3201  0.4299
  911MPD2    C113337   3.902   2.643  16.728 -0.2402 -0.8240  0.6784
  911MPD2    C213338   3.889   2.747  16.645 -0.1579 -0.1339 -0.3036
  911MPD2    C313339   3.790   2.844  16.671 -0.5138 -0.4834 -0.1150
  911MPD2    C413340   3.721   2.835  16.785  0.0794  0.1848  0.6820
  911MPD2    C513341   3.738   2.734  16.875 -0.0981  0.0608 -0.6426
  911MPD2     H13342   3.955   2.769  16.562  0.9150  0.6089  0.7551
  911MPD2    H113343   3.658   2.912  16.828 -1.8293 -1.1686  0.3242
  911MPD2    H213344   3.823   2.542  16.896  0.7319  0.4112  0.5862
  911MPD2    H313345   3.676   2.727  16.964 -0.9473 -0.0151 -1.2481
  911MPD2     N13346   3.770   2.951  16.584 -0.5073 -0.3514  0.1420
  911MPD2    H513347   3.818   2.940  16.495  1.8129  2.7832  1.0380
  911MPD2    N113348   3.986   2.534  16.700 -0.0562  1.1542 -0.3036
  911MPD2    H713349   3.990   2.455  16.763 -1.2191  2.2998  1.2009
  912MPD2     C13350   3.280   2.630  16.089 -0.7477  0.4112 -0.1287
  912MPD2    C113351   3.333   2.663  16.214 -0.1546 -0.0598 -0.3840
  912MPD2    C213352   3.327   2.580  16.319 -0.1412  0.2791 -0.0115
  912MPD2    C313353   3.290   2.449  16.298  0.9940 -0.4841 -0.2023
  912MPD2    C413354   3.236   2.411  16.176 -0.6388  0.2142  0.2888
  912MPD2    C513355   3.227   2.501  16.075  0.3508  0.4766 -0.1943
  912MPD2     H13356   3.374   2.606  16.413 -2.3593 -2.0820  1.7753
  912MPD2    H113357   3.196   2.312  16.156  2.5785 -1.0257 -0.0346
  912MPD2    H213358   3.265   2.693  16.002  0.4193  1.2941  0.3059
  912MPD2    H313359   3.162   2.482  15.990  0.8462  1.0253 -0.6936
  912MPD2     N13360   3.305   2.357  16.405 -0.8411 -0.0101  0.4180
  912MPD2    H513361   3.342   2.393  16.492  0.4434 -1.8852  0.6506
  912MPD2    N113362   3.400   2.791  16.214 -0.4115 -0.3343 -0.1822
  912MPD2    H713363   3.403   2.835  16.123  0.8262  0.0589  0.0459
  913MPD2     C13364   4.630   3.071   9.933  0.1038 -0.0459  0.2425
  913MPD2    C113365   4.557   3.118  10.041  0.5694  0.7144 -0.4510
  913MPD2    C213366   4.515   3.247  10.040  0.0153  0.8951 -0.4135
  913MPD2    C313367   4.512   3.323   9.924  0.3958  0.4169 -0.1288
  913MPD2    C413368   4.579   3.276   9.808  0.6118  0.5889  0.1280
  913MPD2    C513369   4.645   3.155   9.818  0.1834  0.5373  0.3190
  913MPD2     H13370   4.472   3.285  10.132  0.0509 -1.3255  0.5287
  913MPD2    H113371   4.582   3.338   9.719 -1.7109 -2.4203 -2.0122
  913MPD2    H213372   4.674   2.973   9.926  0.6545  0.4219 -2.9151
  913MPD2    H313373   4.717   3.128   9.742 -0.9039  0.1007 -0.5701
  913MPD2     N13374   4.459   3.454   9.911 -0.4440  0.2177  0.1905
  913MPD2    H513375   4.442   3.484   9.815 -1.1543 -0.4204  0.1171
  913MPD2    N113376   4.554   3.035  10.156  0.8864  0.2844  0.7234
  913MPD2    H713377   4.575   2.936  10.144  1.1258  0.5239 -0.8058
  914MPD2     C13378   2.473   3.761  11.888 -0.0756  0.7712 -0.3817
  914MPD2    C113379   2.489   3.832  12.005  0.0115 -0.2924 -0.2217
  914MPD2    C213380   2.481   3.764  12.132 -0.7022 -1.0559 -0.2561
  914MPD2    C313381   2.487   3.630  12.125 -0.1006 -0.6330  0.2339
  914MPD2    C413382   2.474   3.562  12.009 -0.0095  0.2698 -0.0576
  914MPD2    C513383   2.474   3.627  11.886  0.5135  0.6157 -0.0067
  914MPD2     H13384   2.485   3.812  12.229  0.1431 -1.0441 -0.2956
  914MPD2    H113385   2.467   3.454  12.002  0.5243  0.1476  1.3131
  914MPD2    H213386   2.468   3.813  11.794 -0.3647  1.2186 -0.1197
  914MPD2    H313387   2.458   3.580  11.789 -1.8858  0.3055  0.5610
  914MPD2     N13388   2.493   3.564  12.251 -0.6207 -0.0006  0.4227
  914MPD2    H513389   2.491   3.624  12.334 -2.7929  1.4252 -0.6744
  914MPD2    N113390   2.511   3.969  12.004 -0.2207  0.0748 -0.7492
  914MPD2    H713391   2.552   4.007  11.919  0.9555  0.5589  0.0478
  915MPD2     C13392   0.139   3.311  15.743 -0.2029 -0.4700  0.6104
  915MPD2    C113393   0.109   3.432  15.691 -0.4310  0.2450  0.1385
  915MPD2    C213394   0.099   3.543  15.776 -0.4621 -0.1616  0.3562
  915MPD2    C313395   0.117   3.532  15.908  1.0462 -0.3170  0.7538
  915MPD2    C413396   0.149   3.413  15.957  0.9843  0.0783 -0.2371
  915MPD2    C513397   0.161   3.306  15.873 -0.6356 -0.2086  0.6649
  915MPD2     H13398   0.063   3.638  15.740 -1.7742 -0.1121  1.8034
  915MPD2    H113399   0.168   3.391  16.062  0.3802 -0.6095 -0.2657
  915MPD2    H213400   0.137   3.217  15.689 -0.0543  1.2005 -2.3218
  915MPD2    H313401   0.192   3.211  15.916 -1.3108 -0.3646  0.7985
  915MPD2     N13402   0.081   3.644  15.991 -0.3038  0.2320  0.4786
  915MPD2    H513403   0.055   3.732  15.948 -0.9420  1.0379  2.5297
  915MPD2    N113404   0.069   3.429  15.555  0.4345 -0.2236  0.0675
  915MPD2    H713405   0.042   3.339  15.514  2.2933 -0.7344 -0.0510
  916MPD2     C13406   3.594   1.664  16.363  0.4836  0.2604 -0.1474
  916MPD2    C113407   3.500   1.604  16.283 -0.1823  0.4631 -0.5838
  916MPD2    C213408   3.549   1.522  16.188 -0.1814 -0.3221 -0.1359
  916MPD2    C313409   3.685   1.486  16.185  0.4723 -0.6327 -0.0106
  916MPD2    C413410   3.774   1.532  16.275 -0.6673 -0.2952  0.5584
  916MPD2    C513411   3.728   1.622  16.362  0.0508 -0.0150  0.0671
  916MPD2     H13412   3.487   1.470  16.116  1.2842 -1.4684 -0.5760
  916MPD2    H113413   3.875   1.495  16.287 -0.4023 -0.0595 -0.8613
  916MPD2    H213414   3.567   1.737  16.438  0.6646  1.3719 -1.1617
  916MPD2    H313415   3.792   1.655  16.443 -1.1078  1.9243  0.1726
  916MPD2     N13416   3.714   1.382  16.095  0.7669 -0.1585 -0.0037
  916MPD2    H513417   3.644   1.344  16.033  1.6667  0.3085 -1.2969
  916MPD2    N113418   3.362   1.635  16.291  0.0595 -0.2251 -0.2838
  916MPD2    H713419   3.330   1.675  16.379 -0.5673 -2.2418  0.4116
  917MPD2     C13420   3.958   4.056  11.188 -0.1103  0.6225  0.6584
  917MPD2    C113421   3.981   4.133  11.299 -0.7303 -0.1887  0.1310
  917MPD2    C213422   4.052   4.253  11.284 -0.1831  0.7925 -0.1591
  917MPD2    C313423   4.070   4.301  11.157 -0.3705 -0.9753  0.0268
  917MPD2    C413424   4.028   4.231  11.048 -0.0385  0.0334  0.1275
  917MPD2    C513425   3.982   4.103  11.063  0.2113 -1.1724 -0.0064
  917MPD2     H13426   4.070   4.319  11.367  2.7038 -0.6187  0.3334
  917MPD2    H113427   4.019   4.289  10.956 -0.3651 -2.3332 -1.3439
  917MPD2    H213428   3.902   3.963  11.185  1.8061 -0.5095 -0.1084
  917MPD2    H313429   3.964   4.041  10.976  1.0789 -0.5427 -0.6344
  917MPD2     N13430   4.128   4.427  11.133 -0.3255  0.6888  0.2007
  917MPD2    H513431   4.112   4.469  11.042  3.0599 -0.1641 -0.7990
  917MPD2    N113432   3.934   4.084  11.422 -0.0393 -0.0570 -0.3761
  917MPD2    H713433   3.873   4.003  11.412 -1.6067  0.8706  1.7177
  918MPD2     C13434   3.917   4.452  12.345 -0.3054 -0.8364  0.2145
  918MPD2    C113435   4.022   4.400  12.270 -0.6676  0.8341 -0.3302
  918MPD2    C213436   3.989   4.357  12.142 -0.2024  0.0978  0.3072
  918MPD2    C313437   3.857   4.344  12.095 -0.4470 -0.0122  1.3352
  918MPD2    C413438   3.759   4.406  12.163  0.4828  0.1440  0.2661
  918MPD2    C513439   3.794   4.475  12.280  0.1629 -0.4994 -0.1069
  918MPD2     H13440   4.061   4.309  12.076 -0.7765 -0.5093  0.1269
  918MPD2    H113441   3.654   4.419  12.137 -0.0039 -2.9139  0.7365
  918MPD2    H213442   3.923   4.486  12.447 -0.0350 -1.0008  0.2524
  918MPD2    H313443   3.718   4.529  12.336  1.4052  1.0146  0.1214
  918MPD2     N13444   3.832   4.273  11.978  0.0587  0.1257 -0.5407
  918MPD2    H513445   3.916   4.238  11.934 -0.3546  0.0231 -1.2494
  918MPD2    N113446   4.153   4.393  12.318  0.2216  0.3064  0.1890
  918MPD2    H713447   4.222   4.354  12.254  0.4145  3.1924 -1.3203
  919MPD2     C13448   4.324   3.529  11.542  0.2993 -0.3989  0.7900
  919MPD2    C113449   4.257   3.418  11.498 -0.4086  0.2892  0.1488
  919MPD2    C213450   4.253   3.390  11.360  0.9160 -0.7424  0.1150
  919MPD2    C313451   4.334   3.456  11.275  0.2454 -0.2582  0.2063
  919MPD2    C413452   4.408   3.564  11.318  0.1745 -0.0353  0.2940
  919MPD2    C513453   4.396   3.602  11.455 -0.0773  0.0150 -0.2535
  919MPD2     H13454   4.183   3.313  11.330  1.8393 -0.8791 -1.6527
  919MPD2    H113455   4.474   3.611  11.245  1.3174 -0.8137  0.8353
  919MPD2    H213456   4.293   3.561  11.641  1.2222  0.6697  0.7265
  919MPD2    H313457   4.431   3.702  11.478  0.0825  0.2835 -1.6312
  919MPD2     N13458   4.337   3.429  11.139  0.7318 -0.0079  0.5166
  919MPD2    H513459   4.398   3.498  11.095  1.7870 -0.9735  0.4648
  919MPD2    N113460   4.193   3.324  11.584 -0.2488 -0.2446 -0.7608
  919MPD2    H713461   4.157   3.239  11.541  0.8353 -0.4400 -1.2741
  920MPD2     C13462   4.178   3.948  10.300  0.1107 -0.4887 -0.6791
  920MPD2    C113463   4.095   3.836  10.298  0.5084 -0.5286  0.0517
  920MPD2    C213464   4.109   3.738  10.392 -0.4554 -0.3397 -0.1161
  920MPD2    C313465   4.211   3.739  10.487 -0.0602 -0.3275  0.4969
  920MPD2    C413466   4.304   3.844  10.474 -0.3840 -0.3054  0.0177
  920MPD2    C513467   4.287   3.948  10.388 -0.2820  0.1162  0.3861
  920MPD2     H13468   4.047   3.650  10.386 -1.2005  0.3100 -2.1638
  920MPD2    H113469   4.381   3.851  10.550  1.5508 -0.6283 -1.9297
  920MPD2    H213470   4.172   4.031  10.231 -1.8287 -0.1023 -0.0707
  920MPD2    H313471   4.350   4.035  10.402  0.0627 -0.0230 -0.3383
  920MPD2     N13472   4.228   3.633  10.577 -0.1238 -0.6507  0.0105
  920MPD2    H513473   4.145   3.575  10.585  1.4037 -2.7940  0.3838
  920MPD2    N113474   3.998   3.809  10.205 -0.4942  0.1040 -0.2569
  920MPD2    H713475   3.937   3.728  10.214  0.3335 -0.5317 -0.3122
  921MPD2     C13476   0.113   2.194  16.993 -0.6489 -0.1519 -0.5118
  921MPD2    C113477   0.147   2.220  16.864  0.2144  0.1447 -0.4152
  921MPD2    C213478   0.050   2.239  16.765 -0.2555 -0.4460 -0.2308
  921MPD2    C313479   4.642   2.221  16.804  0.4661 -0.0513 -0.2707
  921MPD2    C413480   4.618   2.174  16.930 -0.7164  0.0017  0.2090
  921MPD2    C513481   4.715   2.145  17.020  0.3112  0.0118 -0.5900
  921MPD2     H13482   0.078   2.279  16.668 -1.8614  2.4922  0.5306
  921MPD2    H113483   4.518   2.144  16.956 -0.3512 -0.4800  1.0664
  921MPD2    H213484   0.193   2.172  17.063 -0.3928  1.2550 -0.3581
  921MPD2    H313485   4.705   2.093  17.114  3.3919 -0.7970 -0.6941
  921MPD2     N13486   4.539   2.244  16.706  0.3381  0.3146 -0.3061
  921MPD2    H513487   4.563   2.264  16.609 -0.1293 -0.9195 -0.6765
  921MPD2    N113488   0.280   2.228  16.842  0.2693  0.3613  0.0683
  921MPD2    H713489   0.337   2.209  16.925 -0.0224 -0.2132  0.1362
  922MPD2     C13490   1.051   4.246  17.456  0.3990  0.1174 -0.3699
  922MPD2    C113491   1.058   4.314  17.337  0.1913  0.3168 -0.3892
  922MPD2    C213492   0.946   4.366  17.277 -0.5032 -0.6075  0.1234
  922MPD2    C313493   0.823   4.351  17.343  0.0734  0.8412  0.2211
  922MPD2    C413494   0.819   4.286  17.466  0.6684 -0.3456  0.1144
  922MPD2    C513495   0.927   4.225  17.520  0.4474  0.0360 -1.3940
  922MPD2     H13496   0.960   4.413  17.181  0.0465 -0.8266  0.0965
  922MPD2    H113497   0.726   4.264  17.516 -0.1544  0.1553 -1.2127
  922MPD2    H213498   1.138   4.210  17.511  0.1393  0.1862  0.0882
  922MPD2    H313499   0.919   4.161  17.607  1.0987 -0.5352 -1.7560
  922MPD2     N13500   0.712   4.417  17.286 -0.3206  0.2085  0.1087
  922MPD2    H513501   0.735   4.456  17.195 -2.0597 -4.3317 -2.3072
  922MPD2    N113502   1.183   4.347  17.282 -0.5028  0.0703  0.3982
  922MPD2    H713503   1.179   4.432  17.227 -0.2690 -0.8164 -0.9899
  923MPD2     C13504   0.927   1.769   9.285  0.5671 -0.0603 -0.0352
  923MPD2    C113505   1.010   1.884   9.290 -0.1292 -1.0587 -0.4825
  923MPD2    C213506   1.143   1.865   9.315  0.0506  0.0616  0.6824
  923MPD2    C313507   1.197   1.736   9.329 -0.6480  0.1275 -0.2094
  923MPD2    C413508   1.115   1.627   9.323 -0.3880 -0.3259  0.6295
  923MPD2    C513509   0.979   1.649   9.305 -0.2521 -0.0340 -0.8775
  923MPD2     H13510   1.212   1.947   9.329 -1.2668  0.8495  2.4742
  923MPD2    H113511   1.155   1.529   9.342  0.1515 -0.6232 -2.0198
  923MPD2    H213512   0.819   1.772   9.271  0.1910  0.6424  3.1555
  923MPD2    H313513   0.922   1.558   9.292  1.0274 -1.0972  0.9437
  923MPD2     N13514   1.335   1.710   9.349 -1.0619  0.4697  0.0608
  923MPD2    H513515   1.363   1.617   9.378 -0.7615  1.0817  1.7492
  923MPD2    N113516   0.952   2.009   9.282 -0.4822 -0.3984 -0.6701
  923MPD2    H713517   0.852   2.007   9.268 -0.9936 -1.0821  3.0372
  924MPD2     C13518   2.314   0.498  15.950 -0.7841 -0.3193  0.5368
  924MPD2    C113519   2.366   0.568  16.059  0.2521 -0.1707 -0.0434
  924MPD2    C213520   2.449   0.671  16.037 -0.6540  0.3888  0.7562
  924MPD2    C313521   2.505   0.695  15.913  0.1397 -0.2920  0.5754
  924MPD2    C413522   2.455   0.624  15.811  0.5380 -0.2816  0.0335
  924MPD2    C513523   2.359   0.522  15.825 -0.4349 -0.4977 -0.1107
  924MPD2     H13524   2.481   0.723  16.127  2.3523  0.3910 -0.3185
  924MPD2    H113525   2.502   0.631  15.713  1.6333 -2.0558  0.4315
  924MPD2    H213526   2.237   0.424  15.967 -1.3044 -0.4369 -2.2861
  924MPD2    H313527   2.335   0.465  15.736 -0.5560  0.7161 -0.8678
  924MPD2     N13528   2.585   0.814  15.891  0.9097 -0.5754 -0.4240
  924MPD2    H513529   2.585   0.837  15.792 -1.2625 -0.2100 -0.3497
  924MPD2    N113530   2.317   0.532  16.192 -0.0001  0.0058 -0.1628
  924MPD2    H713531   2.233   0.474  16.194 -0.0193 -0.0070 -1.3357
  925MPD2     C13532   1.083   2.563  14.642  0.5562  0.2330  0.0709
  925MPD2    C113533   0.949   2.590  14.659 -0.2299  0.5253 -0.5441
  925MPD2    C213534   0.877   2.559  14.769  0.1446  0.2284  0.0410
  925MPD2    C313535   0.950   2.514  14.882  0.3905  0.7801 -0.0852
  925MPD2    C413536   1.082   2.480  14.864  0.2700  0.2150 -0.0723
  925MPD2    C513537   1.147   2.505  14.745  0.0561  0.0986 -0.0518
  925MPD2     H13538   0.770   2.579  14.777  0.4475  1.1991  1.5589
  925MPD2    H113539   1.144   2.443  14.945  1.1986  3.3049  0.6176
  925MPD2    H213540   1.145   2.590  14.557 -0.4810 -0.3780 -0.8772
  925MPD2    H313541   1.253   2.482  14.739 -0.4328 -2.2681  0.3916
  925MPD2     N13542   0.901   2.527  15.007 -0.1818  0.1078  0.5805
  925MPD2    H513543   0.949   2.465  15.072 -0.7615  0.1965  1.0889
  925MPD2    N113544   0.871   2.647  14.557  0.4158  0.4383  0.1364
  925MPD2    H713545   0.780   2.685  14.582 -0.0804 -0.1695 -0.7435
  926MPD2     C13546   0.063   1.083  13.759 -0.0258  0.6077  0.1153
  926MPD2    C113547   4.699   1.168  13.697  0.1672 -0.3287 -0.6121
  926MPD2    C213548   0.026   1.251  13.606 -0.5864 -0.5005 -0.1350
  926MPD2    C313549   0.159   1.247  13.561 -0.5254 -0.3192  0.2532
  926MPD2    C413550   0.252   1.167  13.634  0.3382 -1.0846  0.7175
  926MPD2    C513551   0.198   1.085  13.733  0.1788  0.0398  0.7347
  926MPD2     H13552   4.680   1.317  13.559  0.2740  1.2476  0.9826
  926MPD2    H113553   0.356   1.154  13.606  0.8012  3.0632  0.6070
  926MPD2    H213554   0.022   1.023  13.840  1.1672  2.6750  2.2607
  926MPD2    H313555   0.258   1.007  13.779 -0.4612 -0.7503  0.2236
  926MPD2     N13556   0.216   1.323  13.455  0.0095  0.0370 -0.1887
  926MPD2    H513557   0.314   1.324  13.430 -0.1625 -0.4242 -0.9076
  926MPD2    N113558   4.561   1.171  13.732 -0.1998  0.2836 -0.1706
  926MPD2    H713559   4.502   1.231  13.675  0.3533  0.2614 -0.7639
  927MPD2     C13560   4.147   3.442  17.601  0.7832 -0.3907 -1.3546
  927MPD2    C113561   4.143   3.577  17.640 -0.2166 -0.1251  0.2997
  927MPD2    C213562   4.221   3.664  17.566  0.0185  0.2278  0.2699
  927MPD2    C313563   4.296   3.619  17.456  0.3001 -0.6592  0.5670
  927MPD2    C413564   4.301   3.485  17.429 -0.4145 -0.0569  0.2131
  927MPD2    C513565   4.222   3.399  17.495 -0.3111  0.0497 -0.0044
  927MPD2     H13566   4.233   3.770  17.586  2.3226  0.1736 -0.7974
  927MPD2    H113567   4.350   3.444  17.341 -2.0621  1.4813 -1.4398
  927MPD2    H213568   4.084   3.368  17.648 -0.6525  2.2604  0.8951
  927MPD2    H313569   4.216   3.298  17.459 -1.0305 -0.7046  2.1788
  927MPD2     N13570   4.366   3.720  17.386 -0.1982 -0.2888 -0.1936
  927MPD2    H513571   4.355   3.817  17.415  0.4653 -0.4243  0.5075
  927MPD2    N113572   4.058   3.617   0.039  0.2974 -0.0363  0.5774
  927MPD2    H713573   4.001   3.543   0.079 -0.4242 -0.8803 -2.0159
  928MPD2     C13574   1.839   1.820   1.106  0.8911 -0.4507 -0.0419
  928MPD2    C113575   1.903   1.932   1.146 -0.3197  0.2034 -0.1948
  928MPD2    C213576   1.983   1.999   1.052 -0.1897  0.0957 -0.1407
  928MPD2    C313577   2.009   1.949   0.928  0.1193 -1.0167  0.7041
  928MPD2    C413578   1.935   1.841   0.897 -0.2442  0.3999 -0.0793
  928MPD2    C513579   1.857   1.769   0.982 -0.2386 -0.7963  0.5194
  928MPD2     H13580   2.029   2.090   1.087 -1.2417  0.7248 -0.3777
  928MPD2    H113581   1.939   1.810   0.793 -1.6919 -0.0911  0.0100
  928MPD2    H213582   1.787   1.760   1.180 -1.2114  0.7111 -0.5830
  928MPD2    H313583   1.813   1.675   0.949 -0.3135 -0.6035  0.0755
  928MPD2     N13584   2.096   2.008   0.831  0.2783 -0.3698  0.6058
  928MPD2    H513585   2.099   1.971   0.737  0.5315 -0.2307  0.5569
  928MPD2    N113586   1.892   1.984   1.282 -0.4599  0.0579 -0.1042
  928MPD2    H713587   1.954   2.057   1.314  1.3831 -1.9114  0.8023
  929MPD2     C13588   2.372   2.312  10.470  1.0698 -0.2090 -0.6314
  929MPD2    C113589   2.330   2.220  10.375 -0.7435  0.5409 -0.0793
  929MPD2    C213590   2.335   2.251  10.240 -0.0466  0.6611  0.5339
  929MPD2    C313591   2.372   2.373  10.199 -0.0323  1.0288 -0.0378
  929MPD2    C413592   2.421   2.461  10.293 -0.1050  0.3973 -0.1407
  929MPD2    C513593   2.415   2.436  10.431  0.5641  0.5135 -0.7894
  929MPD2     H13594   2.305   2.178  10.165 -0.3145  0.1178  1.1711
  929MPD2    H113595   2.459   2.558  10.263  0.7583  0.8188  2.3087
  929MPD2    H213596   2.378   2.290  10.576  1.4219  0.2629 -0.5537
  929MPD2    H313597   2.458   2.512  10.495  0.5897 -0.9869  0.9551
  929MPD2     N13598   2.367   2.412  10.059 -0.5339 -0.3763 -0.1692
  929MPD2    H513599   2.402   2.505  10.040 -0.8793 -0.2103  0.0246
  929MPD2    N113600   2.312   2.079  10.418 -0.1286  0.1382 -0.2826
  929MPD2    H713601   2.326   2.054  10.515 -1.5060 -0.2459 -0.1914
  930MPD2     C13602   4.074   3.895  14.247  0.1040 -0.5752  0.5669
  930MPD2    C113603   4.030   4.008  14.190 -0.1967 -0.1454 -0.1088
  930MPD2    C213604   3.951   4.002  14.080  0.1806  0.3119 -0.3844
  930MPD2    C313605   3.915   3.883  14.017  0.3257  0.4536  0.4297
  930MPD2    C413606   3.947   3.768  14.084  0.2554  1.0105  0.7122
  930MPD2    C513607   4.027   3.779  14.195 -0.0682  0.4176 -0.1225
  930MPD2     H13608   3.934   4.092  14.021  1.9640  1.4217  0.8190
  930MPD2    H113609   3.930   3.671  14.039  2.9170  0.2358  1.3840
  930MPD2    H213610   4.138   3.887  14.334  0.0408  1.3801  0.7833
  930MPD2    H313611   4.076   3.687  14.224  0.0880  0.9344  1.2402
  930MPD2     N13612   3.873   3.864  13.886  0.2709 -0.4852 -0.3992
  930MPD2    H513613   3.867   3.771  13.845  2.4445 -0.8464  0.1192
  930MPD2    N113614   4.088   4.129  14.247 -0.6559  0.1341  0.0226
  930MPD2    H713615   4.180   4.115  14.289 -0.5143  2.5696  0.5774
  931MPD2     C13616   3.609   3.317   0.651  1.2350  0.7170  0.1679
  931MPD2    C113617   3.733   3.366   0.627  0.4940 -0.1035  0.1954
  931MPD2    C213618   3.830   3.350   0.727  0.5489 -0.6505 -0.6708
  931MPD2    C313619   3.805   3.267   0.830 -0.4615  0.2945 -0.1570
  931MPD2    C413620   3.674   3.226   0.859 -0.2216  0.0198 -0.4481
  931MPD2    C513621   3.576   3.239   0.762  0.0448 -0.4382  0.4538
  931MPD2     H13622   3.925   3.396   0.703  1.0956 -1.7152 -0.5573
  931MPD2    H113623   3.647   3.166   0.945  1.3920  0.9339  0.6905
  931MPD2    H213624   3.527   3.342   0.585  1.8886  1.4648 -0.3587
  931MPD2    H313625   3.473   3.208   0.774 -0.6442  1.5837 -0.2771
  931MPD2     N13626   3.896   3.230   0.929 -0.1493  0.3535 -0.1552
  931MPD2    H513627   3.864   3.176   1.009  0.6457  1.7115  1.0817
  931MPD2    N113628   3.745   3.452   0.516  0.6739 -0.0554 -0.1455
  931MPD2    H713629   3.657   3.463   0.466  1.4409  1.3452 -1.1379
  932MPD2     C13630   1.487   2.760  11.307 -0.0334  0.0494 -0.7049
  932MPD2    C113631   1.593   2.844  11.308  0.0069 -0.5460  0.9784
  932MPD2    C213632   1.714   2.804  11.347 -0.4916  0.2546  0.1762
  932MPD2    C313633   1.728   2.674  11.396  0.1736  0.1400  0.4599
  932MPD2    C413634   1.619   2.591  11.399 -0.2442  0.0126  0.9386
  932MPD2    C513635   1.498   2.628  11.346 -0.2520 -0.2318 -1.1892
  932MPD2     H13636   1.790   2.881  11.348  2.2461 -2.4560 -0.3102
  932MPD2    H113637   1.622   2.499  11.456  2.4028 -1.6116 -1.7662
  932MPD2    H213638   1.394   2.792  11.259 -0.0211 -1.0970 -1.4983
  932MPD2    H313639   1.415   2.560  11.361  0.2810 -0.3060  1.5200
  932MPD2     N13640   1.851   2.631  11.443  0.8574  0.0275  0.0606
  932MPD2    H513641   1.863   2.533  11.465 -0.3340  0.0124  0.6747
  932MPD2    N113642   1.585   2.978  11.263  0.5125 -0.2316 -0.3440
  932MPD2    H713643   1.674   3.026  11.261 -0.2281  1.2945  2.8214
  933MPD2     C13644   1.536   2.537   1.873 -0.1430 -0.3397 -0.4810
  933MPD2    C113645   1.557   2.514   1.738 -0.7760  0.5543 -0.0248
  933MPD2    C213646   1.507   2.603   1.647  0.8362  0.2886  0.6171
  933MPD2    C313647   1.455   2.721   1.707  0.3538  1.3908 -0.4435
  933MPD2    C413648   1.436   2.746   1.839  0.5312  0.6982  0.7918
  933MPD2    C513649   1.474   2.647   1.921 -0.0865 -0.0012  0.3234
  933MPD2     H13650   1.531   2.593   1.542  2.0615 -0.7915  1.0074
  933MPD2    H113651   1.382   2.833   1.877 -1.8849  0.0414 -1.1151
  933MPD2    H213652   1.571   2.464   1.945  0.1134  0.6236  0.3656
  933MPD2    H313653   1.456   2.664   2.027  0.5792  1.3052  0.2284
  933MPD2     N13654   1.405   2.804   1.602  0.2247  0.2505 -0.0743
  933MPD2    H513655   1.413   2.759   1.511 -0.2884  0.0230 -0.0079
  933MPD2    N113656   1.634   2.399   1.705 -0.6081 -0.6136  0.5334
  933MPD2    H713657   1.668   2.354   1.789  1.2245 -3.9169 -1.9991
  934MPD2     C13658   3.345   4.469   2.085  0.1598  0.1499 -0.3949
  934MPD2    C113659   3.386   4.347   2.031 -0.5451  0.7444  0.5088
  934MPD2    C213660   3.300   4.293   1.934 -0.4318 -0.4575 -0.4444
  934MPD2    C313661   3.173   4.339   1.913  0.5917  0.7834  0.6710
  934MPD2    C413662   3.131   4.447   1.988  0.8548 -0.1220 -1.0385
  934MPD2    C513663   3.215   4.507   2.074 -0.4700  0.3379  0.5275
  934MPD2     H13664   3.343   4.206   1.885 -1.4568  0.3806 -2.8130
  934MPD2    H113665   3.032   4.491   1.976 -0.2004 -2.8760 -2.5410
  934MPD2    H213666   3.401   4.537   2.148  0.1092  0.6715 -0.9152
  934MPD2    H313667   3.185   4.591   2.135  1.1615  0.0414  1.7519
  934MPD2     N13668   3.074   4.286   1.819 -0.2175 -0.8302 -0.0853
  934MPD2    H513669   2.990   4.342   1.812  0.8245  0.6348 -0.8368
  934MPD2    N113670   3.522   4.295   2.049  0.8175 -0.5120  0.0434
  934MPD2    H713671   3.545   4.213   1.995  2.9257  1.3959 -1.9246
  935MPD2     C13672   3.133   3.572   1.133  0.5833 -0.0916  0.0177
  935MPD2    C113673   3.021   3.639   1.100 -0.2205 -0.4267 -0.4062
  935MPD2    C213674   2.964   3.732   1.187  0.3423  0.5995 -0.0154
  935MPD2    C313675   3.025   3.747   1.313 -0.3857 -0.7947 -0.6371
  935MPD2    C413676   3.140   3.674   1.339  0.4812 -0.1196  0.9159
  935MPD2    C513677   3.190   3.584   1.252 -0.2033 -0.1825  0.2125
  935MPD2     H13678   2.873   3.786   1.165  0.1138  0.2773  0.1406
  935MPD2    H113679   3.183   3.673   1.439 -0.7214 -0.5930  1.4252
  935MPD2    H213680   3.171   3.490   1.072  0.7757 -0.5287  0.7213
  935MPD2    H313681   3.279   3.528   1.278  1.4769  0.5658 -3.9254
  935MPD2     N13682   2.982   3.836   1.410  0.2876  0.0950 -0.1196
  935MPD2    H513683   3.051   3.865   1.479  1.2396  1.6191 -1.6925
  935MPD2    N113684   2.975   3.629   0.965  0.3552  0.2179  0.4202
  935MPD2    H713685   2.903   3.696   0.940  0.1889 -0.4182 -0.7750
  936MPD2     C13686   2.512   0.894  12.774  0.5330  0.4119 -0.7353
  936MPD2    C113687   2.491   0.960  12.890 -0.0929 -0.5755 -0.0406
  936MPD2    C213688   2.536   1.092  12.909 -0.3947  0.1249  0.0814
  936MPD2    C313689   2.598   1.165  12.810  0.5380 -0.5967  0.3741
  936MPD2    C413690   2.615   1.092  12.693 -0.1485 -0.1569 -0.0150
  936MPD2    C513691   2.569   0.962  12.673  0.2696  0.1190 -0.1290
  936MPD2     H13692   2.522   1.135  13.008  0.2545  0.1847  0.1513
  936MPD2    H113693   2.670   1.149  12.619 -1.2841 -0.1397 -0.8449
  936MPD2    H213694   2.489   0.790  12.754  0.9832  0.3329 -0.8435
  936MPD2    H313695   2.593   0.910  12.581 -0.0314  1.4511 -0.9641
  936MPD2     N13696   2.642   1.299  12.821  0.3322  0.0591  0.3527
  936MPD2    H513697   2.706   1.339  12.754  0.6819 -0.1438  0.5613
  936MPD2    N113698   2.439   0.899  13.006 -1.0305 -0.2889  0.0716
  936MPD2    H713699   2.429   0.961  13.085  0.8494  2.2556 -1.6631
  937MPD2     C13700   4.367   2.654  11.551  0.4141  0.7617 -0.5220
  937MPD2    C113701   4.408   2.780  11.569  0.4154  0.1118  0.5109
  937MPD2    C213702   4.497   2.826  11.471 -0.2397  0.3441  0.1421
  937MPD2    C313703   4.539   2.758  11.357 -0.4915  0.6204 -0.4633
  937MPD2    C413704   4.494   2.632  11.350 -0.1775  0.9947 -0.1073
  937MPD2    C513705   4.402   2.577  11.442 -0.9812 -0.5040  0.0101
  937MPD2     H13706   4.518   2.933  11.466  2.7162 -0.2040  0.7320
  937MPD2    H113707   4.528   2.567  11.270 -1.7814 -0.3135  0.2811
  937MPD2    H213708   4.311   2.604  11.629 -1.7775  2.4041 -1.0721
  937MPD2    H313709   4.373   2.473  11.434  1.7930 -1.2032 -1.3369
  937MPD2     N13710   4.622   2.819  11.263 -0.2356 -0.0515  0.2840
  937MPD2    H513711   4.651   2.915  11.277 -0.7704  0.1863 -0.2225
  937MPD2    N113712   4.361   2.874  11.663  0.4345  0.5112 -0.3229
  937MPD2    H713713   4.399   2.968  11.659 -0.8189  1.0456  0.3002
  938MPD2     C13714   2.360   3.757   1.178 -0.3809 -0.3938  0.1441
  938MPD2    C113715   2.278   3.861   1.205  0.1379 -0.4784 -0.9146
  938MPD2    C213716   2.142   3.841   1.223  0.5016 -1.3901 -0.2550
  938MPD2    C313717   2.089   3.719   1.202  0.4715 -0.6190 -0.0654
  938MPD2    C413718   2.167   3.622   1.161  0.0333  1.0073 -0.0255
  938MPD2    C513719   2.304   3.639   1.151 -0.5937 -0.2376  0.0698
  938MPD2     H13720   2.089   3.923   1.271  1.6383 -0.1070 -1.2090
  938MPD2    H113721   2.144   3.516   1.168 -0.1878  1.0448 -0.1964
  938MPD2    H213722   2.468   3.763   1.189 -0.3042 -0.3318 -0.6583
  938MPD2    H313723   2.371   3.554   1.143 -1.3011 -0.8466  0.5942
  938MPD2     N13724   1.950   3.684   1.228 -0.1993  0.0837  0.1790
  938MPD2    H513725   1.928   3.586   1.236  1.6081 -0.5115 -2.2218
  938MPD2    N113726   2.335   3.989   1.235 -0.7539 -0.5099  0.5671
  938MPD2    H713727   2.276   4.053   1.286 -0.4926  0.0085  0.2194
  939MPD2     C13728   0.237   0.964   1.023 -0.4482  0.3827 -0.3191
  939MPD2    C113729   0.149   1.057   0.979  0.0101 -0.2017  0.3209
  939MPD2    C213730   0.106   1.064   0.845  0.2204  0.0155  0.1685
  939MPD2    C313731   0.146   0.968   0.757 -0.0696  0.2529 -0.4406
  939MPD2    C413732   0.220   0.858   0.804 -0.4312  0.0467  0.1831
  939MPD2    C513733   0.271   0.865   0.932 -0.5741 -0.1666  0.4895
  939MPD2     H13734   0.029   1.136   0.819  0.0652 -0.3474 -0.3769
  939MPD2    H113735   0.233   0.771   0.740  0.9815  0.2337  0.2269
  939MPD2    H213736   0.258   0.969   1.129  1.0445 -1.3482 -0.5268
  939MPD2    H313737   0.329   0.780   0.965 -0.1046 -0.1863 -0.4009
  939MPD2     N13738   0.100   0.984   0.619  0.3444 -0.0212  0.3479
  939MPD2    H513739   0.033   1.061   0.611 -0.1732 -0.6383 -1.1863
  939MPD2    N113740   0.088   1.145   1.080  0.5540  0.0995 -0.2595
  939MPD2    H713741   0.132   1.141   1.171 -0.0158 -0.2798  0.0019
  940MPD2     C13742   2.773   1.435  13.388 -0.4980  0.1817 -0.5348
  940MPD2    C113743   2.701   1.315  13.388 -0.2500 -0.1289 -0.1883
  940MPD2    C213744   2.736   1.224  13.294  0.2209 -0.5151  0.9922
  940MPD2    C313745   2.819   1.243  13.189  0.0041 -0.4884  0.4317
  940MPD2    C413746   2.890   1.362  13.193 -0.2048 -0.5199  0.6074
  940MPD2    C513747   2.864   1.460  13.287 -0.1863 -0.1434 -0.2312
  940MPD2     H13748   2.680   1.132  13.295  1.2116 -1.1345 -0.3225
  940MPD2    H113749   2.971   1.390  13.126 -1.0507 -0.7918 -0.5411
  940MPD2    H213750   2.748   1.504  13.468 -0.5504 -1.9291  1.2717
  940MPD2    H313751   2.929   1.546  13.275 -1.8915  1.1228 -0.2371
  940MPD2     N13752   2.852   1.149  13.090  0.2340 -0.1188  0.4722
  940MPD2    H513753   2.912   1.193  13.021 -1.0009  0.5645 -0.1877
  940MPD2    N113754   2.618   1.265  13.493 -0.1663 -0.2136  0.5852
  940MPD2    H713755   2.573   1.177  13.471 -0.3755  0.2409 -0.8416
  941MPD2     C13756   2.513   0.395   9.526 -0.3951 -0.6258 -0.1713
  941MPD2    C113757   2.479   0.424   9.658 -0.2665 -0.3168  0.2896
  941MPD2    C213758   2.424   0.326   9.744 -0.0633  0.4538  0.0468
  941MPD2    C313759   2.400   0.201   9.691 -0.1613 -0.0759  0.2555
  941MPD2    C413760   2.433   0.171   9.557 -0.6578  0.0404  0.7475
  941MPD2    C513761   2.484   0.270   9.472 -0.5043 -0.9569  0.3588
  941MPD2     H13762   2.413   0.357   9.848  1.2470  3.0118 -0.5929
  941MPD2    H113763   2.411   0.070   9.524 -1.1526  0.5091 -0.3668
  941MPD2    H213764   2.572   0.456   9.458  1.4577 -1.1411  0.9584
  941MPD2    H313765   2.504   0.252   9.367  1.0500 -1.7088  0.7776
  941MPD2     N13766   2.335   0.099   9.768 -0.2932 -0.2323 -0.3009
  941MPD2    H513767   2.332   0.008   9.721 -0.5948  0.1310 -0.9833
  941MPD2    N113768   2.508   0.548   9.712  0.3817  0.5348  0.5423
  941MPD2    H713769   2.494   0.558   9.812 -1.1286 -0.0304  0.3904
  942MPD2     C13770   0.278   1.824   9.343  0.3033 -0.6366  0.0056
  942MPD2    C113771   0.339   1.931   9.406 -0.4004  0.3072 -0.8154
  942MPD2    C213772   0.466   1.915   9.453 -0.2137 -0.3888 -0.0039
  942MPD2    C313773   0.530   1.786   9.467 -0.4710 -0.0525  0.1911
  942MPD2    C413774   0.458   1.684   9.407  0.2864  0.0303  0.4192
  942MPD2    C513775   0.338   1.702   9.348 -0.8753  0.0975  0.4844
  942MPD2     H13776   0.511   2.006   9.490 -1.5817  0.4307 -0.3370
  942MPD2    H113777   0.482   1.580   9.424 -1.7899 -1.0225 -3.1587
  942MPD2    H213778   0.186   1.822   9.285  0.8622 -0.5294 -0.8729
  942MPD2    H313779   0.282   1.619   9.307  0.3424 -1.0514  1.1542
  942MPD2     N13780   0.662   1.769   9.514  0.2088 -0.1306 -0.1323
  942MPD2    H513781   0.692   1.672   9.517 -0.9434 -0.5114 -1.1823
  942MPD2    N113782   0.284   2.058   9.402 -0.0460  0.0616  0.4524
  942MPD2    H713783   0.344   2.134   9.435 -0.8560  0.3893  1.1667
  943MPD2     C13784   4.120   0.472   9.626  0.3190  0.2959 -0.0258
  943MPD2    C113785   4.119   0.333   9.648 -0.1878  0.0779 -0.1367
  943MPD2    C213786   4.032   0.257   9.570 -0.2002 -0.0629  0.3356
  943MPD2    C313787   3.936   0.317   9.486 -0.4633  0.5274  0.5125
  943MPD2    C413788   3.938   0.457   9.474 -0.1545  0.2794  0.6671
  943MPD2    C513789   4.025   0.530   9.546  0.6779 -0.3459  0.8111
  943MPD2     H13790   4.021   0.150   9.579 -0.4367 -0.1963 -1.5886
  943MPD2    H113791   3.882   0.515   9.402 -0.2064  0.1524  0.6050
  943MPD2    H213792   4.201   0.529   9.671 -0.9106  0.8216  1.5125
  943MPD2    H313793   4.023   0.634   9.514 -0.0657 -0.7444 -0.4363
  943MPD2     N13794   3.844   0.247   9.413 -0.0906  0.6342  0.9622
  943MPD2    H513795   3.788   0.294   9.343 -0.3213 -1.4218 -0.2360
  943MPD2    N113796   4.214   0.280   9.739 -0.1946 -0.0011 -0.7556
  943MPD2    H713797   4.263   0.349   9.795  1.3781  0.0185 -2.1535
  944MPD2     C13798   0.244   3.573  11.251 -0.6416  0.1731 -0.0809
  944MPD2    C113799   0.322   3.682  11.217 -0.7174 -0.5390  0.5850
  944MPD2    C213800   0.275   3.804  11.262 -0.0848 -0.3524 -0.3286
  944MPD2    C313801   0.167   3.824  11.341 -0.9716  0.5105  0.2279
  944MPD2    C413802   0.096   3.719  11.381  0.3449 -0.1508 -0.0127
  944MPD2    C513803   0.128   3.595  11.324 -0.1645 -0.5480 -0.3154
  944MPD2     H13804   0.323   3.896  11.232 -0.1362 -0.2670 -0.1499
  944MPD2    H113805   0.010   3.738  11.444  0.8168  2.3524 -0.0961
  944MPD2    H213806   0.257   3.471  11.217  1.0909 -0.0984  1.4187
  944MPD2    H313807   0.072   3.506  11.352 -0.8239 -0.5868 -1.7663
  944MPD2     N13808   0.136   3.963  11.365  0.0456  0.1054  0.5306
  944MPD2    H513809   0.195   4.033  11.322  0.4436  1.4281  3.2381
  944MPD2    N113810   0.434   3.671  11.128  0.0731  0.0556 -0.5818
  944MPD2    H713811   0.444   3.590  11.068 -1.6265 -1.3810  1.0751
    1TCq1    O113812   3.221   4.625  14.434 -0.4626 -0.1465 -0.1042
    1TCq1    C113813   3.217   4.562  14.549  0.9588 -0.5873 -0.1366
    1TCq1    O213814   3.161   4.458  14.560  0.1576 -0.0177  0.4745
    1TCq1    C213815   3.162   4.667  14.635  0.1118  0.2946  0.0816
    1TCq1    C313816   3.027   4.687  14.627  0.4056 -0.2101 -0.2690
    1TCq1    C413817   2.979   0.074  14.682 -0.4018 -0.0683 -0.7560
    1TCq1    C513818   3.054   0.159  14.751  0.2695 -0.1237  0.4139
    1TCq1    C613819   3.190   0.138  14.758  0.4244 -0.3734  0.4941
    1TCq1    C713820   3.251   0.025  14.698 -0.4089 -0.6064  0.1281
    1TCq1    C813821   3.271   0.217  14.844 -0.4933  0.3856 -0.7795
    1TCq1    O413822   3.380   0.173  14.871  0.3868 -0.1384 -0.1920
    1TCq1    C913823   2.830   0.086  14.686  0.4919  0.5672 -0.2400
    1TCq1    O513824   2.792   0.198  14.733  0.7552 -0.0143 -0.3184
    1TCq1    O613825   2.767   0.021  14.599 -0.1927 -0.1693  0.0104
    1TCq1    H113826   3.262   4.713  14.443 -0.5188 -0.1371  0.0530
    1TCq1    H213827   2.959   4.624  14.571 -1.2526  0.1541  1.3053
    1TCq1    H313828   2.996   0.226  14.814 -1.1124 -1.6798  0.7924
    1TCq1    H413829   3.356   0.003  14.686 -0.3593 -0.6784  0.6981
    2MPD2     C13830   3.389   0.653  15.082  0.4250 -0.6312 -0.3658
    2MPD2    C113831   3.294   0.688  14.979 -0.0816  0.0254  0.5757
    2MPD2    C213832   3.244   0.581  14.905  0.0243  0.1100 -0.7024
    2MPD2    C313833   3.286   0.454  14.924 -0.3101  0.3801  0.1931
    2MPD2    C413834   3.382   0.424  15.015  0.6147  0.1299 -0.1088
    2MPD2    C513835   3.423   0.521  15.103 -0.6053 -0.4745 -0.1201
    2MPD2     H13836   3.179   0.599  14.820  2.3299 -0.3656 -2.5818
    2MPD2    H113837   3.419   0.323  15.031 -0.0860  0.1014  1.4149
    2MPD2    H213838   3.438   0.716  15.155  1.4997 -0.5789 -1.1326
    2MPD2    H313839   3.497   0.501  15.179 -2.5849 -1.6653  1.4968
    2MPD2     N13840   3.224   0.346  14.851 -0.3377  0.5948  0.2701
    2MPD2    H513841   3.147   0.377  14.793 -0.7713 -0.5783  0.2041
    2MPD2    N113842   3.259   0.824  14.950 -0.2884  0.2652 -0.7594
    2MPD2    H713843   3.295   0.895  15.014  0.2926 -2.2163  1.6705
    3TMC2    C113844   3.189   1.015  14.816 -0.0831  0.6553 -0.1891
    3TMC2    C213845   3.176   1.085  14.931  0.5726  0.0209 -0.3217
    3TMC2    C313846   3.182   1.218  14.920 -0.0395  0.2974  0.2393
    3TMC2    C413847   3.197   1.074  14.694  0.0739 -0.3855 -0.1650
    3TMC2    C513848   3.188   1.210  14.692  0.8393 -0.2996  0.8098
    3TMC2    C613849   3.183   1.284  14.804 -0.0532 -0.3186 -0.5387
    3TMC2     C13850   3.199   0.867  14.829  0.4551 -0.0035  0.1022
    3TMC2     O13851   3.163   0.807  14.729 -0.7503 -0.4625  0.2343
    3TMC2     H13852   3.181   1.038  15.029 -0.1452 -0.4949 -0.5269
    3TMC2    H113853   3.210   1.008  14.609 -2.2407 -1.1969  0.1070
    3TMC2    H213854   3.178   1.392  14.805  1.1932 -0.2651  0.3406
    3TMC2    C713855   3.168   1.279  14.563  0.1779  0.0063 -0.1135
    3TMC2    C813856   3.225   1.285  15.037 -0.1095 -0.4058 -0.0570
    3TMC2    O113857   3.111   1.385  14.560  0.3006 -0.6952 -0.4170
    3TMC2    O213858   3.153   1.372  15.081 -0.6059  0.1983  0.3532
    3TMC2    O513859   3.309   1.215  15.112 -0.0190  0.5235  0.4166
    3TMC2    H513860   3.353   1.148  15.055 -1.3986  0.4657 -0.5812
    4MPD2     C13861   2.029   1.837  13.829 -0.0250 -0.0623 -0.6928
    4MPD2    C113862   2.123   1.853  13.731  0.6672 -0.1793  0.3795
    4MPD2    C213863   2.260   1.833  13.762  0.1968  0.2529  0.0042
    4MPD2    C313864   2.301   1.760  13.871 -0.0965 -0.9189  0.3763
    4MPD2    C413865   2.206   1.731  13.965 -0.2743 -0.2581 -0.1070
    4MPD2    C513866   2.080   1.771  13.939 -0.1113  0.0042 -0.1918
    4MPD2     H13867   2.338   1.860  13.691  0.9829 -2.1130 -0.0257
    4MPD2    H113868   2.209   1.671  14.055  3.3826 -1.5932 -1.1364
    4MPD2    H213869   1.923   1.858  13.818 -0.0621  0.3223  0.3947
    4MPD2    H313870   2.007   1.752  14.017 -0.7454 -1.6842 -1.2068
    4MPD2     N13871   2.431   1.726  13.880 -0.8386  0.3066 -0.7781
    4MPD2    H513872   2.497   1.768  13.815  0.2030  1.3398  0.9185
    4MPD2    N113873   2.079   1.900  13.602 -0.5517  0.0775  0.1252
    4MPD2    H713874   1.978   1.894  13.595 -0.6935  2.6091  0.0248
    5TCq2    C113875   2.484   1.636  13.963  0.3367 -0.1253 -0.2979
    5TCq2    O213876   2.435   1.569  14.054  0.3748 -0.2750 -0.4506
    5TCq2    C213877   2.631   1.634  13.942  0.0656  0.2863 -0.2698
    5TCq2    C313878   2.690   1.700  13.833  0.1064 -0.1229 -0.2739
    5TCq2    C413879   2.827   1.689  13.822  0.4063  0.3490  0.1787
    5TCq2    C513880   2.904   1.640  13.920  0.4933 -0.0901  0.0111
    5TCq2    C613881   2.839   1.584  14.028 -0.8839  0.3600 -0.3144
    5TCq2    C713882   2.705   1.572  14.036 -0.0565 -1.3759 -0.1347
    5TCq2    C813883   2.911   1.502  14.121 -0.1108  0.3538  0.1652
    5TCq2    O413884   2.856   1.488  14.231  0.3549  0.3812  0.5455
    5TCq2    C913885   2.896   1.746  13.709 -0.5319  0.7762 -0.5802
    5TCq2    O513886   3.018   1.746  13.705  0.3260  0.2510  0.2509
    5TCq2    O613887   2.821   1.780  13.614 -0.1520  0.1808 -0.7068
    5TCq2    H213888   2.640   1.750  13.752 -1.0846  0.7481  1.0034
    5TCq2    H313889   3.011   1.658  13.926  0.4313 -0.0160  0.8814
    5TCq2    H413890   2.655   1.508  14.108 -1.4394 -0.0279  0.1176
    6MPD1     C13891   1.184   3.059  12.261 -0.2117 -0.5549  0.0995
    6MPD1    C113892   1.296   3.004  12.194  0.1491  0.2425  0.1381
    6MPD1    C213893   1.404   2.961  12.268 -0.1576  0.5731 -0.2149
    6MPD1    C313894   1.400   2.964  12.406  0.3719 -0.4190 -0.0165
    6MPD1    C413895   1.297   3.022  12.475 -0.2008  0.6764  0.5647
    6MPD1    C513896   1.187   3.069  12.398 -0.8614 -0.6970  0.3724
    6MPD1     H13897   1.487   2.918  12.212  1.3704  2.9010  0.2960
    6MPD1    H113898   1.295   3.033  12.583 -0.4671 -1.4727  0.7709
    6MPD1    H213899   1.107   3.107  12.202  0.5289 -1.2105 -1.4268
    6MPD1    H313900   1.109   3.125  12.448 -1.6797  0.8144 -2.6130
    6MPD1     N13901   1.498   2.907  12.487  0.6071  0.2814 -0.8581
    6MPD1    H513902   1.489   2.928  12.586 -0.1492 -1.0429 -0.6506
    6MPD1    N113903   1.309   2.999  12.049 -0.4761  0.2303  0.3754
    6MPD1    H613904   1.361   2.913  12.031  0.9232  0.8119  1.6118
    6MPD1    H713905   1.223   2.986  11.997  1.0002 -1.2316 -1.7225
    7MPD2     C13906   1.707   2.677  13.221 -0.1123 -0.2802  0.1053
    7MPD2    C113907   1.736   2.588  13.122 -0.1100 -0.4070 -0.0233
    7MPD2    C213908   1.780   2.463  13.153 -0.8636  0.1346  0.5175
    7MPD2    C313909   1.798   2.425  13.294  0.3024 -0.0756 -0.4528
    7MPD2    C413910   1.781   2.521  13.388  0.0260 -0.4005 -0.3855
    7MPD2    C513911   1.733   2.641  13.352  0.0010  0.5844 -1.0332
    7MPD2     H13912   1.811   2.399  13.071  0.5841  1.4059  0.0900
    7MPD2    H113913   1.814   2.508  13.490 -2.0167  2.9971  0.6970
    7MPD2    H213914   1.671   2.777  13.198 -0.4678 -0.2698  0.7188
    7MPD2    H313915   1.727   2.720  13.425  1.8592 -1.6025  1.4832
    7MPD2     N13916   1.839   2.298  13.329  0.8671 -0.0457  0.6172
    7MPD2    H513917   1.832   2.280  13.429  1.2861  0.1933  0.6898
    7MPD2    N113918   1.733   2.623  12.986 -0.0446 -0.7758  0.4816
    7MPD2    H713919   1.752   2.550  12.918  2.3703  0.1393  0.1831
    8TMC3    C113920   1.895   2.059  13.288  0.3908 -0.8795  0.7073
    8TMC3    C213921   1.979   2.055  13.396 -0.0897  0.6657 -0.2321
    8TMC3    C313922   2.096   1.991  13.378 -0.5377  1.1201 -0.2625
    8TMC3    C413923   1.928   1.998  13.168 -0.0962 -0.1270  0.8157
    8TMC3    C513924   2.054   1.954  13.155  0.0647 -0.5644  0.5393
    8TMC3    C613925   2.143   1.944  13.258  0.5998  0.3145  0.5153
    8TMC3     C13926   1.853   2.193  13.242 -0.1070  0.4320  0.0455
    8TMC3     O13927   1.859   2.202  13.119 -0.2866 -0.0999  0.4522
    8TMC3     H13928   1.977   2.126  13.478  1.5742  0.0262  0.3451
    8TMC3    H113929   1.848   1.978  13.098 -0.6994 -2.3116  2.1375
    8TMC3    H213930   2.244   1.904  13.248  0.1780 -0.5226 -0.3365
    8TMC3    C713931   2.103   1.981  13.020 -0.1105 -1.0704 -0.6322
    8TMC3    C813932   2.165   1.941  13.495  0.5019  0.3076 -0.3830
    8TMC3    O113933   2.210   1.934  12.981  0.1279  0.4098  0.0204
    8TMC3    O213934   2.289   1.923  13.491  0.6633  0.6587  0.3189
    9TMC3    C113935   1.683   2.776  12.552  0.0324  0.1465 -1.0064
    9TMC3    C213936   1.783   2.690  12.517 -0.2854  0.9484  0.7971
    9TMC3    C313937   1.853   2.625  12.614  0.0351  0.1077 -0.0416
    9TMC3    C413938   1.652   2.789  12.690 -0.0361 -0.5270  0.2993
    9TMC3    C513939   1.732   2.734  12.786 -0.5911  0.4704  0.4670
    9TMC3    C613940   1.827   2.644  12.745  0.1403  0.0762  0.5830
    9TMC3     C13941   1.603   2.832  12.441 -0.1380 -0.3944 -0.2585
    9TMC3     O13942   1.641   2.814  12.330  0.0497 -0.0867 -0.2506
    9TMC3     H13943   1.806   2.675  12.412 -2.7079  0.1116  0.3810
    9TMC3    H113944   1.559   2.839  12.713  0.0171  0.3698 -1.4211
    9TMC3    H213945   1.896   2.600  12.816  1.1267  1.5579  0.5422
    9TMC3    C713946   1.697   2.739  12.930 -0.7334 -0.3521  0.1034
    9TMC3    C813947   1.945   2.526  12.575 -0.4140  0.7371 -0.0725
    9TMC3    O113948   1.631   2.836  12.969  0.3032  0.3606  0.4834
    9TMC3    O213949   1.987   2.519  12.459 -0.1764  0.2501 -0.1029
   10MPD2     C13950   2.121   2.066  12.730 -0.2596 -0.1972  0.5583
   10MPD2    C113951   2.060   2.132  12.832  0.2483  0.6942 -0.1888
   10MPD2    C213952   2.008   2.250  12.811  0.3302  0.3014 -0.4923
   10MPD2    C313953   2.021   2.311  12.684  0.1121  0.1119  0.0665
   10MPD2    C413954   2.075   2.241  12.578 -0.2703 -0.1134 -0.1404
   10MPD2    C513955   2.123   2.114  12.600 -0.4274  0.7162 -0.3762
   10MPD2     H13956   1.945   2.297  12.886 -0.0805 -0.1406 -0.5581
   10MPD2    H113957   2.085   2.281  12.477 -0.0352  1.7791  0.6251
   10MPD2    H213958   2.158   1.965  12.738 -0.7545 -0.5480 -1.5544
   10MPD2    H313959   2.160   2.048  12.522 -2.6148 -0.6843 -0.2446
   10MPD2     N13960   1.962   2.439  12.676 -0.0971  0.2726 -0.3637
   10MPD2    H513961   1.906   2.459  12.758 -0.0690 -2.3688  0.3034
   10MPD2    N113962   2.039   2.079  12.960  0.0089 -0.1384 -0.7805
   10MPD2    H713963   1.964   2.125  13.011 -0.0871 -0.6300 -0.4809
   11MPD2     C13964   3.368   1.294  14.264 -0.1577  0.5172 -0.0809
   11MPD2    C113965   3.250   1.288  14.331  0.3457 -0.5140 -0.2667
   11MPD2    C213966   3.137   1.344  14.268 -0.5160 -0.2624 -0.6080
   11MPD2    C313967   3.145   1.413  14.142  0.0638  0.6557 -0.7097
   11MPD2    C413968   3.269   1.413  14.081 -0.1228 -0.3349  0.3163
   11MPD2    C513969   3.379   1.359  14.143  0.2273  0.1450 -0.4261
   11MPD2     H13970   3.042   1.323  14.317 -1.6312 -0.2081 -2.7565
   11MPD2    H113971   3.286   1.455  13.982  1.1889  0.7838  1.0268
   11MPD2    H213972   3.462   1.268  14.312 -0.5429 -1.3265 -0.3288
   11MPD2    H313973   3.473   1.360  14.090  0.4614 -0.1741 -0.0152
   11MPD2     N13974   3.038   1.475  14.076  0.1141  1.1790 -0.5003
   11MPD2    H513975   3.050   1.511  13.983 -0.0353 -1.4793 -1.5590
   11MPD2    N113976   3.254   1.235  14.464  0.2778 -0.2524  0.4205
   11MPD2    H713977   3.324   1.166  14.489 -0.5353 -1.1242  0.3014
    1MPD1     C13978   1.269   2.039  16.546  0.3336 -0.0299 -0.6422
    1MPD1    C113979   1.403   2.051  16.548  0.1164 -0.3385 -0.0814
    1MPD1    C213980   1.466   2.160  16.487  0.0478 -0.7019  0.1858
    1MPD1    C313981   1.391   2.252  16.410  0.9022  0.2249 -0.6191
    1MPD1    C413982   1.262   2.222  16.397 -0.2156  0.0757 -0.7961
    1MPD1    C513983   1.198   2.121  16.466  0.0248 -0.1137  0.5627
    1MPD1     H13984   1.569   2.172  16.518 -0.0722  0.6239  0.0387
    1MPD1    H113985   1.195   2.287  16.343 -0.7051  0.8068  0.7024
    1MPD1    H213986   1.209   1.960  16.589 -0.6849  0.4051 -1.2540
    1MPD1    H313987   1.090   2.112  16.460  0.4244 -2.1503 -3.4146
    1MPD1     N13988   1.447   2.364  16.341  0.3508 -0.1857  0.3386
    1MPD1    H513989   1.383   2.415  16.282  3.7614  2.0712 -1.4560
    1MPD1    N113990   1.476   1.948  16.613 -0.1036  0.2472  0.9446
    1MPD1    H613991   1.423   1.862  16.627 -0.8278  0.3886 -0.9888
    1MPD1    H713992   1.567   1.930  16.573 -1.2641  0.4780 -1.8154
    2MPD1     C13993   2.394   2.614  16.092  0.0772 -0.7052 -0.7150
    2MPD1    C113994   2.319   2.500  16.097 -0.1604  0.2406  0.7276
    2MPD1    C213995   2.192   2.512  16.153 -0.6449  0.9042  0.6139
    2MPD1    C313996   2.127   2.631  16.187 -0.0724  0.4698 -0.6602
    2MPD1    C413997   2.197   2.740  16.152 -0.5151 -1.2410  0.1888
    2MPD1    C513998   2.326   2.735  16.107  0.0619  0.0168  0.1107
    2MPD1     H13999   2.134   2.422  16.174  0.8254 -0.4923 -1.3319
    2MPD1    H114000   2.153   2.839  16.167  1.8300 -0.1371 -0.2326
    2MPD1    H214001   2.499   2.615  16.067 -0.3258  2.3326 -2.2880
    2MPD1    H314002   2.376   2.831  16.105 -2.7019  1.4576 -0.4212
    2MPD1     N14003   1.987   2.639  16.218 -0.8334  0.1555 -0.0085
    2MPD1    H514004   1.938   2.550  16.213 -1.3812  0.4885 -0.5475
    2MPD1    N114005   2.378   2.369  16.107  0.6913 -0.6458  0.9998
    2MPD1    H614006   2.310   2.294  16.097  2.7951 -2.3001 -1.0515
    2MPD1    H714007   2.444   2.341  16.034 -1.6716 -0.8701 -1.0184
    3TMC3    C114008   1.772   2.703  16.257 -0.5304  0.1290 -0.5964
    3TMC3    C214009   1.671   2.798  16.233  0.1088  0.2472 -0.4474
    3TMC3    C314010   1.540   2.756  16.231 -0.1153 -0.3668  0.2555
    3TMC3    C414011   1.737   2.570  16.282  0.4607 -1.0221 -0.6084
    3TMC3    C514012   1.604   2.535  16.283 -0.7536 -0.1529 -0.9226
    3TMC3    C614013   1.502   2.624  16.254  0.7300 -0.0029  0.2511
    3TMC3     C14014   1.906   2.744  16.237 -0.2164  0.3792 -0.7556
    3TMC3     O14015   1.939   2.862  16.245  0.2841  0.0002 -0.4015
    3TMC3     H14016   1.702   2.898  16.205 -1.8782  0.8076 -0.6618
    3TMC3    H114017   1.813   2.503  16.322  1.1689  0.9807  1.4187
    3TMC3    H214018   1.402   2.590  16.280  0.4973 -1.1351 -2.1363
    3TMC3    C714019   1.572   2.404  16.345  0.0837 -0.1409  0.2174
    3TMC3    C814020   1.433   2.855  16.260 -1.2652  0.8337  0.7843
    3TMC3    O114021   1.663   2.353  16.407 -0.5325 -0.8152 -0.8316
    3TMC3    O214022   1.328   2.799  16.290 -0.3268  0.4361 -0.4937
    4MPD1     C14023   1.254   3.315  16.369  0.7510 -0.0831 -0.0642
    4MPD1    C114024   1.391   3.327  16.378 -0.2632  0.3856  0.2648
    4MPD1    C214025   1.465   3.212  16.368  0.0600 -0.8928  0.0089
    4MPD1    C314026   1.405   3.090  16.333 -0.1114  0.3394  0.5240
    4MPD1    C414027   1.268   3.083  16.329 -0.3510 -0.4464 -0.4646
    4MPD1    C514028   1.195   3.196  16.341  0.2818 -0.2011 -0.0409
    4MPD1     H14029   1.572   3.213  16.350  0.3318  0.7161  1.7401
    4MPD1    H114030   1.219   2.997  16.284  1.4099 -1.8418  0.2995
    4MPD1    H214031   1.191   3.403  16.373  3.3727  1.8025 -0.2193
    4MPD1    H314032   1.089   3.186  16.323  0.2265 -1.2210  0.8454
    4MPD1     N14033   1.488   2.982  16.298 -0.1305  0.0441 -0.0847
    4MPD1    H514034   1.587   3.002  16.297 -0.7227  3.0833  0.5897
    4MPD1    N114035   1.444   3.448  16.430 -0.2032  0.0941 -0.3684
    4MPD1    H614036   1.544   3.449  16.410  0.9465  1.2406  5.2697
    4MPD1    H714037   1.390   3.524  16.390  0.7982  1.2207  0.4044
    1TCq1    O114038   1.128   3.473  11.092 -0.0589  0.6333 -0.0897
    1TCq1    C114039   1.256   3.509  11.080 -0.2379 -0.1343  0.1536
    1TCq1    O214040   1.315   3.584  11.159 -0.1452 -0.1343 -0.0763
    1TCq1    C214041   1.309   3.454  10.959 -0.0914 -0.9118  0.6854
    1TCq1    C314042   1.255   3.341  10.918 -0.0678 -0.3156  0.2753
    1TCq1    C414043   1.306   3.279  10.810  0.3193  0.7811 -0.7818
    1TCq1    C514044   1.386   3.341  10.720 -0.0679 -0.2759 -0.3440
    1TCq1    C614045   1.442   3.465  10.765 -0.2131  0.7981  0.5944
    1TCq1    C714046   1.403   3.520  10.885 -0.3281 -0.2917  0.4147
    1TCq1    C814047   1.529   3.533  10.671  0.1997  0.1217  0.8195
    1TCq1    O414048   1.560   3.481  10.567  0.9576  0.4481 -0.4903
    1TCq1    C914049   1.231   3.164  10.766  0.3206  0.2745 -0.1811
    1TCq1    O514050   1.263   3.111  10.657 -0.5460 -0.2608 -0.3075
    1TCq1    O614051   1.141   3.118  10.841  0.2137 -0.4684 -0.2481
    1TCq1    H114052   1.083   3.447  11.009 -1.9516 -1.7461  1.6525
    1TCq1    H214053   1.198   3.278  10.986 -2.0212  2.3479  1.0948
    1TCq1    H314054   1.415   3.302  10.623 -0.4405  3.2816 -1.8883
    1TCq1    H414055   1.453   3.599  10.941 -0.1343 -0.5257  0.5776
    2MPD1     C14056   1.718   3.979  10.518  0.3843 -0.2703  0.4616
    2MPD1    C114057   1.665   3.990  10.649 -0.4597 -0.3775 -0.2987
    2MPD1    C214058   1.602   3.882  10.714  0.3606 -0.2023 -0.5477
    2MPD1    C314059   1.603   3.764  10.650  0.3935  1.1290  0.3674
    2MPD1    C414060   1.671   3.749  10.533  0.3165  0.0431 -0.2176
    2MPD1    C514061   1.731   3.854  10.473  0.4428 -0.5353  0.5097
    2MPD1     H14062   1.555   3.901  10.810 -0.9005 -1.7824 -0.8522
    2MPD1    H114063   1.693   3.651  10.491  0.2601 -0.2095  0.3374
    2MPD1    H214064   1.767   4.063  10.471  0.0627 -0.6211 -0.4926
    2MPD1    H314065   1.791   3.837  10.384  1.2559  1.3616  0.7146
    2MPD1     N14066   1.538   3.659  10.711  0.1843 -0.8370  0.2116
    2MPD1    H514067   1.477   3.675  10.790  0.4982 -0.8397  0.4537
    2MPD1    N114068   1.660   4.121  10.695  0.1010 -0.1909 -0.2924
    2MPD1    H614069   1.664   4.124  10.797 -0.3754 -1.6522 -0.2408
    2MPD1    H714070   1.726   4.182  10.646  1.1131 -1.4732 -0.5205
    1TCq1    O114071   4.037   3.612   1.491  0.0168  0.0541 -0.0508
    1TCq1    C114072   4.121   3.651   1.398 -0.1065 -0.1581  0.2241
    1TCq1    O214073   4.097   3.711   1.294 -0.0294  0.5235 -0.7098
    1TCq1    C214074   4.251   3.664   1.465  0.1217  0.2895  0.0178
    1TCq1    C314075   4.309   3.553   1.528  0.4194  0.6976  0.8864
    1TCq1    C414076   4.445   3.549   1.543 -0.0131 -0.6754 -0.4927
    1TCq1    C514077   4.524   3.654   1.512  0.6852  0.2912 -0.4948
    1TCq1    C614078   4.465   3.760   1.443  0.2397  0.2168 -0.7554
    1TCq1    C714079   4.331   3.763   1.415 -0.2331  0.1485  0.5911
    1TCq1    C814080   4.556   3.852   1.363  0.4144  1.0029 -0.0999
    1TCq1    O414081   4.666   3.879   1.402 -0.2152  0.1841 -0.5333
    1TCq1    C914082   4.498   3.462   1.645 -0.4196 -0.1164  0.2248
    1TCq1    O514083   4.621   3.426   1.642 -0.2507  0.0456 -0.7647
    1TCq1    O614084   4.410   3.418   1.723 -0.2876  0.2226  0.0771
    1TCq1    H114085   4.077   3.591   1.578  0.3987  1.8762  0.2048
    1TCq1    H214086   4.245   3.479   1.574  1.1901 -1.5848 -1.7007
    1TCq1    H314087   4.621   3.660   1.560  1.3265  1.5555 -1.9651
    1TCq1    H414088   4.289   3.857   1.381 -2.6202 -0.0610  2.9595
    2MPD1     C14089   4.667   4.144   0.949  0.2321 -0.4845 -0.0912
    2MPD1    C114090   4.548   4.074   0.936 -0.3323  0.5621  0.2111
    2MPD1    C214091   4.506   3.977   1.024 -0.2473  0.4673  0.0652
    2MPD1    C314092   4.565   3.971   1.147  0.2331 -0.6155 -0.3058
    2MPD1    C414093   4.685   4.039   1.165  0.5694  0.4809 -0.1434
    2MPD1    C514094   0.014   4.113   1.061  0.3210  0.1151  0.3417
    2MPD1     H14095   4.417   3.918   1.005  0.3615 -0.7587  1.0380
    2MPD1    H114096   0.021   4.040   1.254  2.4180 -1.9506 -1.3657
    2MPD1    H214097   4.704   4.213   0.874 -0.7152 -1.4384 -1.4075
    2MPD1    H314098   0.114   4.151   1.077  0.3277 -0.5029  1.8101
    2MPD1     N14099   4.500   3.882   1.245  0.3354 -0.5794 -0.7392
    2MPD1    H514100   4.414   3.834   1.220 -0.2462  0.1707 -0.2015
    2MPD1    N114101   4.495   4.088   0.812  0.1329 -0.0004  0.4725
    2MPD1    H614102   4.395   4.075   0.802 -0.0507  2.3535 -0.8038
    2MPD1    H714103   4.519   4.178   0.770 -1.4992 -0.7112 -1.9746
    1MPD1     C14104   2.873   1.823  12.449 -0.2324  0.6169  0.6175
    1MPD1    C114105   2.972   1.766  12.364 -0.3234 -0.3751  0.9119
    1MPD1    C214106   3.073   1.849  12.325  0.2196 -0.2033  0.5340
    1MPD1    C314107   3.082   1.987  12.362  0.1347 -0.2669 -0.2493
    1MPD1    C414108   2.971   2.044  12.432 -0.2662 -0.2579  0.5057
    1MPD1    C514109   2.871   1.957  12.482  1.2930  0.4697 -0.1695
    1MPD1     H14110   3.163   1.815  12.275  0.5064  0.4941  0.5697
    1MPD1    H114111   2.971   2.147  12.465 -0.6945 -0.6521  1.7331
    1MPD1    H214112   2.795   1.770  12.503 -0.4367 -1.9163 -2.1523
    1MPD1    H314113   2.805   1.995  12.558  0.5186  0.4226 -0.8254
    1MPD1     N14114   3.195   2.070  12.323  0.0805  0.5254 -0.0282
    1MPD1    H514115   3.279   2.025  12.290 -1.1303 -1.5921 -0.2529
    1MPD1    N114116   2.988   1.630  12.350 -0.0018 -0.8750 -0.2207
    1MPD1    H614117   3.026   1.613  12.257  2.2694 -0.9977  0.7307
    1MPD1    H714118   2.891   1.600  12.357 -0.1037  0.2448  2.8547
    2MPD1     C14119   2.969   2.939  11.031  0.0309 -1.0958 -0.3792
    2MPD1    C114120   3.055   2.891  11.136 -0.2271  0.4707 -1.0405
    2MPD1    C214121   3.175   2.841  11.091  0.6053  0.1052 -0.1095
    2MPD1    C314122   3.226   2.845  10.962 -0.8457 -0.1009 -0.2153
    2MPD1    C414123   3.136   2.879  10.863  0.4481  0.1860 -0.2625
    2MPD1    C514124   3.009   2.925  10.895 -0.1371  0.1219  0.3662
    2MPD1     H14125   3.239   2.802  11.169 -2.3609 -1.6733  1.4514
    2MPD1    H114126   3.168   2.862  10.761  0.8023  1.2259 -0.3274
    2MPD1    H214127   2.867   2.974  11.042 -0.1331 -0.9813 -2.2471
    2MPD1    H314128   2.946   2.952  10.811  2.0979  1.3882 -0.8960
    2MPD1     N14129   3.357   2.800  10.922  0.0616 -0.3300 -0.2503
    2MPD1    H514130   3.366   2.814  10.822 -0.9228 -0.4544 -0.3581
    2MPD1    N114131   3.010   2.884  11.265  0.8343  0.1489  0.0618
    2MPD1    H614132   2.939   2.954  11.288  1.0497  0.4940 -0.3226
    2MPD1    H714133   3.083   2.882  11.335  0.3847  1.2394  0.5643
    3MPD1     C14134   3.916   2.783  10.140 -0.4676  0.3935 -0.8053
    3MPD1    C114135   3.972   2.856  10.241 -0.3521  0.1183 -0.3473
    3MPD1    C214136   3.929   2.825  10.373  0.2906  0.8093  0.6558
    3MPD1    C314137   3.822   2.743  10.408  0.0476  0.1713 -0.8430
    3MPD1    C414138   3.761   2.680  10.299 -0.3952  0.0182  0.1025
    3MPD1    C514139   3.804   2.703  10.166 -0.7010  0.1227 -0.4103
    3MPD1     H14140   3.980   2.879  10.451  1.1201  1.1588 -0.1247
    3MPD1    H114141   3.685   2.609  10.328  0.9188 -1.4148  0.0621
    3MPD1    H214142   3.950   2.782  10.037 -1.8046 -3.0427 -1.2010
    3MPD1    H314143   3.754   2.653  10.084  0.3548  0.7686 -1.4465
    3MPD1     N14144   3.796   2.725  10.538  0.2573 -0.4393 -0.2859
    3MPD1    H514145   3.873   2.750  10.599  1.1253 -2.3874 -0.5920
    3MPD1    N114146   4.085   2.933  10.215 -0.0258 -0.0358 -0.9067
    3MPD1    H614147   4.074   2.967  10.120  1.7356  1.0498 -0.7132
    3MPD1    H714148   4.082   3.016  10.274 -2.3297  0.8164 -2.2345
    4MPD2     C14149   3.653   2.681  12.126  0.8127  0.3641 -0.1709
    4MPD2    C114150   3.714   2.567  12.171 -1.3576  0.6057 -0.1362
    4MPD2    C214151   3.830   2.518  12.110  0.1241 -0.2068 -0.6342
    4MPD2    C314152   3.878   2.572  11.993 -0.5662 -0.1497  0.3636
    4MPD2    C414153   3.810   2.682  11.946  0.2283 -0.0517 -0.1820
    4MPD2    C514154   3.702   2.734  12.009 -0.1203 -0.0891 -0.1586
    4MPD2     H14155   3.884   2.433  12.149 -0.2362 -1.4857 -2.9490
    4MPD2    H114156   3.830   2.729  11.851  1.3032 -1.3153 -0.5751
    4MPD2    H214157   3.559   2.719  12.165  0.7819 -0.8697  0.9636
    4MPD2    H314158   3.650   2.819  11.965  2.7778  1.8321  0.1466
    4MPD2     N14159   3.992   2.527  11.918 -0.1141  0.0095 -0.0826
    4MPD2    H514160   4.016   2.591  11.843 -1.1349  1.7378  1.0639
    4MPD2    N114161   3.662   2.494  12.272 -0.2940 -0.5439 -0.1147
    4MPD2    H714162   3.710   2.406  12.288 -0.6339 -0.4848  1.2653
    5TMC3    C114163   3.504   2.391  12.420  0.7185 -0.0853  0.1322
    5TMC3    C214164   3.375   2.358  12.380  0.2943  0.2854  0.1511
    5TMC3    C314165   3.348   2.240  12.320 -0.0556  0.8362 -0.9251
    5TMC3    C414166   3.605   2.299  12.414 -0.4410 -0.7474 -0.2616
    5TMC3    C514167   3.577   2.181  12.350 -0.1129 -0.3421 -0.0222
    5TMC3    C614168   3.452   2.148  12.301 -0.0360  0.8966  0.4156
    5TMC3     C14169   3.543   2.509  12.343  0.3083 -0.1247  0.3077
    5TMC3     O14170   3.470   2.606  12.346  0.1651 -0.0280 -0.0149
    5TMC3     H14171   3.298   2.432  12.371  1.6715  1.6709 -0.2442
    5TMC3    H114172   3.702   2.321  12.457 -1.7457  0.9045  1.8660
    5TMC3    H214173   3.436   2.054  12.250 -0.4531  2.4712 -2.3418
    5TMC3    C714174   3.698   2.144  12.278 -0.0490 -0.0005  0.3553
    5TMC3    C814175   3.212   2.202  12.346 -0.5097 -0.2475 -0.3620
    5TMC3    O114176   3.790   2.220  12.273  0.2302 -0.0284 -0.1202
    5TMC3    O214177   3.131   2.294  12.363 -0.2007 -0.0260  0.6882
    6TMC3    C114178   3.582   2.733  10.933  1.0437  0.5848  0.2110
    6TMC3    C214179   3.576   2.698  10.796 -0.0959  0.5494  0.5987
    6TMC3    C314180   3.683   2.657  10.731  0.7982 -0.7169 -0.6729
    6TMC3    C414181   3.681   2.682  11.013 -0.0567  0.3255 -0.1139
    6TMC3    C514182   3.783   2.613  10.944 -0.5924 -0.1066 -0.1552
    6TMC3    C614183   3.793   2.613  10.805 -0.2814  0.2882 -0.5233
    6TMC3     C14184   3.465   2.768  11.004 -0.2263 -0.2082 -0.2919
    6TMC3     O14185   3.463   2.765  11.126 -0.0967  0.1139  0.2399
    6TMC3     H14186   3.499   2.737  10.729 -0.4681 -1.7181 -0.2812
    6TMC3    H114187   3.676   2.683  11.121 -4.6963 -1.6624 -0.2755
    6TMC3    H214188   3.875   2.560  10.758 -2.4181 -2.7610 -0.7991
    6TMC3    C714189   3.890   2.565  11.033  0.0704 -0.1198  0.1948
    6TMC3    C814190   3.690   2.655  10.588 -0.2935  0.0547  0.6982
    6TMC3    O114191   3.870   2.582  11.151 -0.3324 -0.4239 -0.1793
    6TMC3    O214192   3.582   2.630  10.534  0.1687  0.1172  0.3294
    7MPD2     C14193   3.929   1.854  11.910 -0.1575 -0.0630  0.0017
    7MPD2    C114194   3.932   1.990  11.930  0.6972  0.2859 -0.2678
    7MPD2    C214195   3.855   2.043  12.034 -0.0943  0.1827  0.2768
    7MPD2    C314196   3.765   1.966  12.102 -0.6840 -0.3582  0.6313
    7MPD2    C414197   3.748   1.832  12.067 -0.2791  0.6715  0.0521
    7MPD2    C514198   3.838   1.774  11.982 -0.9384 -0.4026  0.2988
    7MPD2     H14199   3.860   2.148  12.062  1.1973  0.7307 -1.9572
    7MPD2    H114200   3.685   1.760  12.118  0.8202  0.8772  1.6755
    7MPD2    H214201   3.994   1.807  11.837  2.4362  0.8779  1.7371
    7MPD2    H314202   3.843   1.667  11.970  1.2115 -0.2685  0.0129
    7MPD2     N14203   3.679   2.024  12.197 -0.7728  0.9135  0.3299
    7MPD2    H514204   3.605   1.960  12.227 -0.4783  1.0214  1.3017
    7MPD2    N114205   4.021   2.077  11.874  0.4741  0.2155 -0.8773
    7MPD2    H714206   4.021   2.175  11.902 -0.1860 -0.1754  0.4869
    8TMC3    C114207   4.200   2.155  11.754 -0.1972  0.0143 -0.1033
    8TMC3    C214208   4.176   2.191  11.627  0.7125 -0.0942  0.2396
    8TMC3    C314209   4.125   2.316  11.600 -0.0218 -0.7220  0.2413
    8TMC3    C414210   4.188   2.245  11.857  0.1442  0.3983 -0.1489
    8TMC3    C514211   4.131   2.363  11.828 -0.0690 -0.6391  0.2584
    8TMC3    C614212   4.093   2.400  11.701  0.1082 -0.3973  0.6125
    8TMC3     C14213   4.123   2.038  11.786  0.6727 -0.1535 -0.6736
    8TMC3     O14214   4.132   1.937  11.719 -0.6788  0.3795  0.4328
    8TMC3     H14215   4.187   2.128  11.540 -1.7998  0.6320 -0.5882
    8TMC3    H114216   4.219   2.219  11.957  0.5124 -2.9327 -1.1318
    8TMC3    H214217   4.033   2.490  11.690 -0.4309 -0.8534 -0.2104
    8TMC3    C714218   4.048   2.409  11.940  0.3225  0.3254  0.4123
    8TMC3    C814219   4.109   2.366  11.470  0.2375 -0.7201  0.4456
    8TMC3    O114220   4.039   2.333  12.032 -0.2724 -0.5129  0.1986
    8TMC3    O214221   4.017   2.445  11.448  0.3544 -0.2483  0.2277
    9MPD2     C14222   4.315   2.337  11.175  0.2188  0.4850 -0.3264
    9MPD2    C114223   4.201   2.349  11.241  0.6890 -0.0284 -0.1736
    9MPD2    C214224   4.092   2.400  11.173 -0.0980 -0.1114  0.1414
    9MPD2    C314225   4.104   2.435  11.041 -0.3027 -0.2047 -0.2718
    9MPD2    C414226   4.230   2.419  10.980  0.0908 -0.2055 -1.0256
    9MPD2    C514227   4.338   2.370  11.043  0.3909 -0.1825 -0.4283
    9MPD2     H14228   3.994   2.399  11.218 -0.0585  0.4223  0.2394
    9MPD2    H114229   4.253   2.462  10.883  1.9841 -1.8007 -1.3026
    9MPD2    H214230   4.396   2.302  11.238 -0.4575 -1.4401 -0.5311
    9MPD2    H314231   4.437   2.375  10.998  0.3233 -0.2787 -0.5892
    9MPD2     N14232   3.999   2.504  10.969  0.1303 -0.0245  0.2439
    9MPD2    H514233   4.009   2.527  10.871 -0.5730 -1.8572 -0.2509
    9MPD2    N114234   4.200   2.313  11.377 -0.2786  0.0988 -0.2387
    9MPD2    H714235   4.260   2.236  11.403 -0.4614  0.2995  0.7783
    1MPD1     C14236   3.450   0.824  16.398  0.0645 -0.3332 -0.4923
    1MPD1    C114237   3.395   0.741  16.301 -1.0052  0.6686 -0.2906
    1MPD1    C214238   3.371   0.798  16.174  0.2892 -0.3328  0.4788
    1MPD1    C314239   3.390   0.937  16.164  0.5338 -0.2617 -0.3317
    1MPD1    C414240   3.446   1.011  16.263  0.0859  0.0686  0.2936
    1MPD1    C514241   3.486   0.951  16.382 -0.3354  0.2083 -0.1517
    1MPD1     H14242   3.337   0.736  16.092  0.2681 -0.9824  0.9808
    1MPD1    H114243   3.461   1.118  16.250 -0.4242  0.4017  2.4670
    1MPD1    H214244   3.487   0.778  16.489  0.1135  1.5400  0.4512
    1MPD1    H314245   3.541   1.007  16.457  0.3226  0.0962 -0.5480
    1MPD1     N14246   3.356   1.012  16.048 -0.1697 -0.2654  0.2411
    1MPD1    H514247   3.379   1.110  16.036 -1.0438 -0.2693 -1.4652
    1MPD1    N114248   3.389   0.603  16.317  0.4253 -0.2022  0.0031
    1MPD1    H614249   3.308   0.560  16.272  0.2226 -1.0867  1.2145
    1MPD1    H714250   3.392   0.564  16.411  2.6341  0.5393  0.2404
    2MPD1     C14251   3.871   1.740  15.743 -0.8732  0.2115  0.2221
    2MPD1    C114252   3.847   1.685  15.620 -0.5458  0.5972  0.5101
    2MPD1    C214253   3.742   1.591  15.602  0.3186  0.7790  0.0591
    2MPD1    C314254   3.683   1.533  15.713 -0.3509  0.9311  0.0684
    2MPD1    C414255   3.716   1.590  15.843  0.0248 -0.0305 -0.0440
    2MPD1    C514256   3.813   1.689  15.859  0.3953  0.0507 -0.4295
    2MPD1     H14257   3.717   1.555  15.503 -2.2223  0.4815  0.8126
    2MPD1    H114258   3.667   1.559  15.935  0.7682 -0.9885  0.0275
    2MPD1    H214259   3.933   1.829  15.748  0.8303 -0.9787  0.2317
    2MPD1    H314260   3.834   1.735  15.955  1.8851 -0.4691 -0.5041
    2MPD1     N14261   3.586   1.434  15.690 -0.1648 -0.6951 -0.2501
    2MPD1    H514262   3.571   1.400  15.595 -2.6797  1.8509 -0.7756
    2MPD1    N114263   3.897   1.747  15.503 -0.1478  0.4541  0.7937
    2MPD1    H614264   3.880   1.704  15.412 -0.1159 -0.4964  1.2354
    2MPD1    H714265   3.981   1.804  15.501  0.4581 -0.5124 -1.2080
    3TCq2    C114266   3.528   1.357  15.789 -0.4092 -0.2714  0.2747
    3TCq2    O214267   3.521   1.383  15.907 -0.0045 -0.1947  0.1301
    3TCq2    C214268   3.463   1.235  15.739  0.4892 -0.2404 -0.1823
    3TCq2    C314269   3.528   1.172  15.637 -0.4843  0.5685 -0.4302
    3TCq2    C414270   3.507   1.037  15.627  0.3179 -0.4896  0.3915
    3TCq2    C514271   3.419   0.963  15.703  0.8511  0.1113  0.1418
    3TCq2    C614272   3.366   1.032  15.806  0.3757 -0.5985  0.2975
    3TCq2    C714273   3.391   1.164  15.827 -0.3601  0.2489 -0.4021
    3TCq2    C814274   3.327   0.955  15.930  0.0930  0.1433 -0.3952
    3TCq2    O414275   3.287   0.843  15.904 -0.2729  0.5250 -0.2819
    3TCq2    C914276   3.591   0.955  15.542 -0.0190  0.2900  0.1728
    3TCq2    O514277   3.673   1.014  15.472  0.2006  0.0213 -0.7534
    3TCq2    O614278   3.608   0.837  15.580 -0.1863  0.1251  0.5170
    3TCq2    H214279   3.594   1.218  15.565  1.6433 -1.8469 -0.0177
    3TCq2    H314280   3.405   0.856  15.705 -0.1983  0.2049 -2.0598
    3TCq2    H414281   3.337   1.214  15.908  0.4165  2.1874 -1.0823
    1TCq1    O114282   1.168   0.143  13.070 -0.4760  0.1584  0.0748
    1TCq1    C114283   1.175   0.024  13.134 -0.0907 -1.2110  0.3930
    1TCq1    O214284   1.100   4.657  13.105 -0.3381 -0.4364  0.3775
    1TCq1    C214285   1.312   0.013  13.175  0.4390 -0.1459  0.4744
    1TCq1    C314286   1.380   4.636  13.118 -0.0061  0.3297 -0.1158
    1TCq1    C414287   1.516   4.638  13.132 -0.5685 -0.5413  0.2189
    1TCq1    C514288   1.581   0.007  13.207  0.3163 -0.4276  0.1923
    1TCq1    C614289   1.502   0.100  13.269 -0.1599 -0.5572  0.0447
    1TCq1    C714290   1.364   0.106  13.254  0.0801 -0.0870 -0.3272
    1TCq1    C814291   1.567   0.206  13.349 -0.4773  0.5001 -0.0818
    1TCq1    O414292   1.504   0.306  13.370  0.0585  0.3352  0.9233
    1TCq1    C914293   1.595   4.532  13.086 -0.0905 -0.1726  0.4165
    1TCq1    O514294   1.719   4.551  13.111 -0.3543 -0.1663  0.5450
    1TCq1    O614295   1.537   4.430  13.041 -0.2870 -0.8627 -0.0057
    1TCq1    H114296   1.243   0.203  13.086 -0.3459 -0.1481  0.6233
    1TCq1    H214297   1.340   4.559  13.053  1.0706 -1.2218  1.0761
    1TCq1    H314298   1.689   0.011  13.212  0.4645 -0.9307 -2.4273
    1TCq1    H414299   1.297   0.161  13.319  0.5399  1.1730 -0.9173
    2MPD2     C14300   1.769   0.376  13.506 -0.0485  0.3497 -0.1661
    2MPD2    C114301   1.779   0.234  13.483  0.3169 -0.0346 -0.1450
    2MPD2    C214302   1.886   0.168  13.535 -0.0436  0.4072 -0.3688
    2MPD2    C314303   1.980   0.233  13.617 -0.5853  0.1566  0.1733
    2MPD2    C414304   1.965   0.370  13.635 -0.4664  0.2162  0.0734
    2MPD2    C514305   1.859   0.439  13.587  0.6705 -0.0164 -0.1759
    2MPD2     H14306   1.899   0.062  13.515  2.4710  1.0710 -2.2619
    2MPD2    H114307   2.033   0.432  13.692 -0.9732 -0.8760  1.8442
    2MPD2    H214308   1.691   0.429  13.453 -1.8035 -1.7921  0.2778
    2MPD2    H314309   1.855   0.546  13.598 -2.7732 -0.1348 -0.2140
    2MPD2     N14310   2.089   0.152  13.668  0.2332  0.4667 -0.0749
    2MPD2    H514311   2.097   0.054  13.641 -2.0040  0.8110 -1.9303
    2MPD2    N114312   1.690   0.166  13.400 -0.7678  0.0249  0.0252
    2MPD2    H714313   1.718   0.069  13.386  2.5863  0.9097  0.4397
    3TCq1    O114314   2.614   4.717  14.087 -0.0877  0.1001  0.2172
    3TCq1    C114315   2.503   0.070  14.090  0.2381  0.1288  0.0097
    3TCq1    O214316   2.491   0.185  14.137  0.4389 -0.5442  0.2622
    3TCq1    C214317   2.416   0.018  13.981 -0.7759 -0.2845  0.0074
    3TCq1    C314318   2.376   4.608  13.964 -0.1241 -0.5411 -0.5378
    3TCq1    C414319   2.286   4.576  13.863  0.9309  0.3248  0.4041
    3TCq1    C514320   2.232   4.679  13.786  0.1374  0.2649  0.3065
    3TCq1    C614321   2.269   0.087  13.809  0.5351  0.6097 -0.0331
    3TCq1    C714322   2.365   0.118  13.900  0.2945 -0.2852 -0.4836
    3TCq1    C814323   2.180   0.194  13.754  0.5326 -0.3194  0.1006
    3TCq1    O414324   2.200   0.311  13.787  0.1917 -0.1897  0.6886
    3TCq1    C914325   2.238   4.436  13.852 -0.0056 -0.5708  0.5841
    3TCq1    O514326   2.249   4.367  13.960  0.5320  0.1114  0.2889
    3TCq1    O614327   2.151   4.428  13.763  0.0607  0.0168  1.1835
    3TCq1    H114328   2.600   4.634  14.036 -0.1750 -0.5051  1.2167
    3TCq1    H214329   2.425   4.536  14.029 -0.8432  0.3144  0.9605
    3TCq1    H314330   2.145   4.664  13.724  0.3967  0.1594 -0.0328
    3TCq1    H414331   2.391   0.218  13.932 -1.3514  0.5225 -1.5922
    1MPD2     C14332   1.896   1.963  14.579  0.3993 -0.4774  0.1803
    1MPD2    C114333   1.810   1.940  14.688  0.7786  0.3164 -0.2395
    1MPD2    C214334   1.843   1.988  14.816  0.1371 -0.4182 -0.7145
    1MPD2    C314335   1.961   2.053  14.834  0.1531 -0.3844 -0.5654
    1MPD2    C414336   2.053   2.065  14.730 -0.3985  0.0924 -0.4543
    1MPD2    C514337   2.017   2.027  14.600  0.0726  0.7138 -0.2285
    1MPD2     H14338   1.772   1.977  14.897  0.4009 -0.1429 -0.4454
    1MPD2    H114339   2.152   2.110  14.733 -0.1629 -0.4302 -0.3766
    1MPD2    H214340   1.873   1.926  14.480 -0.8299 -2.8873  1.3543
    1MPD2    H314341   2.082   2.037  14.513  0.9644  1.1209  0.4858
    1MPD2     N14342   2.009   2.108  14.953 -0.4294  0.5604 -0.6288
    1MPD2    H514343   2.109   2.108  14.971 -0.4005  0.1822 -0.7982
    1MPD2    N114344   1.689   1.873  14.656 -0.5971 -0.6071 -0.3964
    1MPD2    H714345   1.665   1.859  14.558 -2.0075  2.7474 -0.5260
    2TMC3    C114346   1.508   1.722  14.702  0.6579  0.2913 -0.1542
    2TMC3    C214347   1.469   1.635  14.803 -0.1509  0.4336 -0.7502
    2TMC3    C314348   1.335   1.632  14.841  0.6033 -0.7343  0.5517
    2TMC3    C414349   1.407   1.771  14.620  0.3682  0.5250  0.3222
    2TMC3    C514350   1.273   1.760  14.656 -0.1543  0.1415 -0.7150
    2TMC3    C614351   1.236   1.691  14.774 -0.3326  0.1710  0.1914
    2TMC3     C14352   1.606   1.817  14.752  0.2807 -0.7466  0.0971
    2TMC3     O14353   1.641   1.797  14.870 -0.1561  0.0394  0.4089
    2TMC3     H14354   1.553   1.589  14.853  1.0939  1.3152 -2.0139
    2TMC3    H114355   1.438   1.835  14.538  0.2175  0.0374 -0.1084
    2TMC3    H214356   1.133   1.680  14.806 -0.5411 -1.5893 -1.0717
    2TMC3    C714357   1.182   1.784  14.544  0.3909 -0.6935 -0.2311
    2TMC3    C814358   1.331   1.618  14.982 -0.5436  0.5976  0.1212
    2TMC3    O114359   1.226   1.850  14.452 -0.6519 -0.1754 -0.4597
    2TMC3    O214360   1.240   1.551  15.026 -0.9110 -0.3176 -0.0251
    3TCq1    O114361   0.072   1.212  14.445 -0.3644 -0.7991 -0.7111
    3TCq1    C114362   0.115   1.313  14.360  0.5263 -0.2006  0.2551
    3TCq1    O214363   0.096   1.315  14.236  0.1827 -0.3298 -0.2920
    3TCq1    C214364   0.214   1.388  14.434 -0.1290 -0.1709  0.2168
    3TCq1    C314365   0.202   1.403  14.570  0.7964  0.3343  0.1963
    3TCq1    C414366   0.293   1.478  14.636 -0.3687 -0.5851  0.5698
    3TCq1    C514367   0.401   1.525  14.570  0.3994 -0.1779 -0.0019
    3TCq1    C614368   0.415   1.506  14.436  0.0868  0.6929  0.1585
    3TCq1    C714369   0.322   1.438  14.362 -0.5196  1.0061  0.6052
    3TCq1    C814370   0.516   1.568  14.359  0.5679 -0.1868  0.4073
    3TCq1    O414371   0.505   1.578  14.236 -0.1234  0.6216 -0.2783
    3TCq1    C914372   0.273   1.508  14.771  0.3940  0.0115  0.0494
    3TCq1    O514373   0.362   1.586  14.824  0.5716  0.2646 -0.2187
    3TCq1    O614374   0.159   1.492  14.816  0.1051  0.9047 -0.1872
    3TCq1    H114375   0.143   1.187  14.508 -1.1429 -2.1597 -0.3739
    3TCq1    H214376   0.109   1.378  14.620  0.0586 -0.9674 -1.8532
    3TCq1    H314377   0.469   1.588  14.627 -1.3134  1.8715 -0.2369
    3TCq1    H414378   0.344   1.418  14.258  0.0825 -0.7704  1.0613
    4MPD2     C14379   0.741   1.754  14.298 -0.6374 -0.2285 -0.5973
    4MPD2    C114380   0.732   1.672  14.404 -0.4212  0.3300  0.5257
    4MPD2    C214381   0.838   1.664  14.478  0.4187  0.5515 -0.3401
    4MPD2    C314382   0.952   1.740  14.456  0.3165  0.3232 -0.2648
    4MPD2    C414383   0.953   1.827  14.346 -0.0322 -0.4127 -0.0133
    4MPD2    C514384   0.842   1.843  14.270 -0.3132  0.0433  0.0165
    4MPD2     H14385   0.832   1.601  14.566  1.4503 -0.1373 -0.7611
    4MPD2    H114386   1.026   1.907  14.344 -0.4478 -0.0003  1.2253
    4MPD2    H214387   0.656   1.753  14.231 -0.8442  3.1764 -0.3957
    4MPD2    H314388   0.834   1.927  14.202  0.9317  0.3478  0.2492
    4MPD2     N14389   1.051   1.726  14.557 -0.3464  0.1172  1.0569
    4MPD2    H514390   1.038   1.657  14.630 -2.0315 -0.2605  0.3845
    4MPD2    N114391   0.622   1.596  14.442  0.6199  0.3773 -0.0184
    4MPD2    H714392   0.628   1.544  14.529  3.7242  0.2466 -0.3292
    5TMC2    C114393   1.885   2.057  15.409  0.4116 -0.0303 -0.0840
    5TMC2    C214394   2.018   2.024  15.445  0.2012 -0.8391 -0.0287
    5TMC2    C314395   2.110   2.041  15.353  0.9267  0.5765 -0.1680
    5TMC2    C414396   1.858   2.107  15.285 -0.7847  0.2427  0.5246
    5TMC2    C514397   1.964   2.127  15.194 -0.4140 -0.1711  0.9645
    5TMC2    C614398   2.091   2.091  15.223  0.3415 -0.5038 -0.5567
    5TMC2     C14399   1.793   1.942  15.447  0.4678 -0.5731 -0.7291
    5TMC2     O14400   1.778   1.926  15.568  0.0423 -0.2775 -0.3508
    5TMC2     H14401   2.049   1.999  15.546 -3.2928  1.9172  1.7486
    5TMC2    H114402   1.755   2.134  15.264 -0.5429  0.6984 -0.0921
    5TMC2    H214403   2.176   2.105  15.157 -1.4458  1.5322 -2.4004
    5TMC2    C714404   1.915   2.133  15.053 -0.8971 -0.2994  0.1749
    5TMC2    C814405   2.250   2.032  15.400 -0.3932 -1.2004  0.0717
    5TMC2    O114406   1.797   2.152  15.050  0.3680 -0.2252  0.1265
    5TMC2    O214407   2.341   2.105  15.372  0.1183  0.0108 -0.2549
    5TMC2    O514408   2.266   1.916  15.453  0.2324 -0.1614  0.6393
    5TMC2    H514409   2.179   1.879  15.481 -0.5591  1.1577 -0.0611
    6MPD2     C14410   1.404   1.642  15.278 -0.4356  0.2400 -0.0392
    6MPD2    C114411   1.466   1.710  15.175  0.4212 -0.2568  0.8184
    6MPD2    C214412   1.571   1.791  15.208 -0.6663 -0.0989 -0.3782
    6MPD2    C314413   1.621   1.807  15.334  0.7374  0.2094 -0.0901
    6MPD2    C414414   1.562   1.736  15.439 -0.2826 -0.0995  0.3072
    6MPD2    C514415   1.451   1.660  15.410  0.2526  0.1379 -1.0729
    6MPD2     H14416   1.635   1.837  15.134 -1.7547  0.5516 -0.9155
    6MPD2    H114417   1.591   1.740  15.544 -1.0733  0.7389  0.4961
    6MPD2    H214418   1.325   1.570  15.260 -1.1259  1.0632 -0.3178
    6MPD2    H314419   1.399   1.596  15.479 -0.1574  1.7299  0.0891
    6MPD2     N14420   1.737   1.893  15.337  1.0515 -0.0285 -1.0960
    6MPD2    H514421   1.769   1.918  15.244 -2.1723  0.5257 -2.0429
    6MPD2    N114422   1.434   1.693  15.039 -0.1811 -0.2599 -0.1888
    6MPD2    H714423   1.499   1.746  14.981  1.0669 -2.4194 -0.7380
  945NH4     N114424   0.818   2.866   0.968  0.2641 -0.5887 -0.0998
  945NH4     H214425   0.790   2.846   1.066  1.3101 -0.6049  0.1973
  945NH4     H314426   0.777   2.801   0.898  0.0472  0.5103 -0.9986
  945NH4     H414427   0.920   2.860   0.949  0.3490 -1.6288  0.6525
  945NH4     H514428   0.787   2.962   0.942  0.8383 -0.9796 -2.1801
  946SOD     NA14429   1.915   4.565  12.336 -0.2995 -0.6619 -0.0231
  947SOD     NA14430   0.570   1.596  14.888  0.4813 -0.2250 -0.5932
  948SOD     NA14431   4.015   4.387  12.751 -0.4328  0.0085 -0.2522
  949SOD     NA14432   2.289   0.225  14.579  0.0963  0.3862  0.0474
  950SOD     NA14433   2.360   3.963   2.231 -0.0455 -0.2619 -0.2477
  951SOD     NA14434   2.276   0.875   1.630 -0.1162 -0.2059 -0.0590
  952SOD     NA14435   1.282   3.837  11.154  0.1729  0.4596  0.2188
  953SOD     NA14436   3.020   2.920   2.476 -0.4949  0.3548  0.2697
  954SOD     NA14437   4.596   1.476  11.154  0.4434  0.0371 -0.6925
  955SOD     NA14438   2.726   4.316  12.636 -0.0507  0.1781 -0.2658
  956SOD     NA14439   0.067   4.640  12.836  0.3907  0.3052 -0.0581
  957SOD     NA14440   0.705   0.829   3.930  0.3329 -0.4545 -0.1357
  958SOD     NA14441   0.719   1.354   7.179 -0.1614  0.3004 -0.1086
  959SOD     NA14442   0.203   0.356   9.860 -0.3950 -0.4357  0.4505
  960SOD     NA14443   1.342   0.932  11.464 -0.0556  0.1745  0.3473
  961SOD     NA14444   2.857   0.843   2.943  0.2237 -0.0509 -0.3358
  962SOD     NA14445   0.186   4.154   6.760  0.0203  0.4342  0.3153
  963SOD     NA14446   0.972   3.233   2.049 -0.5177  0.0305 -0.1641
  964SOD     NA14447   0.777   4.402   6.659  0.0593 -0.0370 -0.4171
  965SOD     NA14448   3.807   2.426  11.341 -0.2341  0.0587  0.4270
  966SOD     NA14449   1.244   0.728  10.146  0.2000  0.1185 -0.0107
  967SOD     NA14450   3.093   1.461  10.963  0.0616  0.1269  0.2436
  968SOD     NA14451   2.926   0.125   3.634 -0.0228  0.3356  0.3764
  969SOD     NA14452   0.912   0.713  10.259 -0.2129 -0.3458 -0.3430
  970SOD     NA14453   4.113   1.892   8.066  0.2140  0.1915 -0.3917
  971SOD     NA14454   1.102   3.897  11.401 -0.4031  0.1587 -0.1076
  972SOD     NA14455   2.751   0.063  14.359  0.3259 -0.3648 -0.2665
  973SOD     NA14456   0.874   0.596   9.698 -0.1225 -0.1083 -0.0254
  974SOD     NA14457   1.192   3.133  10.461  0.3669 -0.2584 -0.1038
  975SOD     NA14458   1.918   4.575  13.051  0.1128 -0.5324  0.0177
  976SOD     NA14459   3.257   1.274   3.095  0.3224 -0.0402 -0.1029
  977SOD     NA14460   2.607   3.580   0.035 -0.8222  0.3068 -0.5671
  978SOD     NA14461   3.002   3.829   8.034 -0.2037  0.0445  0.8347
  979SOD     NA14462   1.096   3.612  11.322 -0.4602  0.4046 -0.3946
  980SOD     NA14463   3.685   1.073  15.270  0.1128 -0.0137  0.0754
  981SOD     NA14464   0.107   3.089   1.525 -1.0856 -0.2419  0.4485
  982SOD     NA14465   0.601   3.902  14.257 -0.2946  0.4964 -0.0981
  983SOD     NA14466   2.130   1.461  16.232  0.5372  0.5347  0.2697
  984SOD     NA14467   4.483   2.753   1.551 -0.0012 -0.2034  0.1016
  985SOD     NA14468   1.421   2.961  10.606 -0.0352  1.0270  0.3688
  986SOD     NA14469   0.568   0.290   3.492  0.2396  0.0332  0.2032
  987SOD     NA14470   2.600   3.039  14.504 -0.0817  0.3321  0.4863
  988SOD     NA14471   3.437   3.504  14.954 -0.0887  0.9326 -0.0612
  989SOD     NA14472   2.596   4.272  10.866  0.1838 -0.0748  0.0815
  990SOD     NA14473   2.366   1.373   1.790  0.4910 -0.0918 -0.5060
  991SOD     NA14474   2.863   3.376   0.156  0.4528  0.0556  0.0524
  992SOD     NA14475   3.606   0.066  11.787  0.1785  0.2036  0.1709
  993SOD     NA14476   3.852   0.901  15.440  0.0171  0.2287 -0.2720
  994SOD     NA14477   0.304   1.744  14.975  0.9453  0.1448  0.4274
  995SOD     NA14478   2.744   4.270  14.434 -0.0669 -0.4990 -0.5930
  996SOD     NA14479   0.741   4.693  13.255 -0.7025 -0.1413 -0.0661
  997SOD     NA14480   3.662   3.138   5.942 -0.0755 -0.0262  0.4312
  998SOD     NA14481   1.642   4.284  12.945 -0.8305 -0.1326 -0.2407
  999SOD     NA14482   1.563   0.810  11.992  0.3321  0.2884  0.0256
 1000SOD     NA14483   2.500   1.893  13.416  0.0565 -0.3830 -0.1948
 1001SOD     NA14484   3.072   1.895  13.555  0.2688  0.3446 -0.0805
 1002SOD     NA14485   3.608   4.520  13.800  0.0828 -0.5974  0.2706
 1003SOD     NA14486   2.373   0.218   1.232 -0.3284  0.1940  0.5659
 1004SOD     NA14487   0.515   2.596  15.741  0.4432 -0.3616 -0.2473
 1005SOD     NA14488   2.729   3.979  15.651 -0.4826  0.2382  0.4950
 1006SOD     NA14489   2.578   0.135  14.622  0.0691  0.3403  0.1999
 1007SOD     NA14490   4.307   3.570   1.837  0.1265  0.3466 -0.2943
 1008SOD     NA14491   1.665   3.305   9.941  0.2139 -0.1491  0.0851
 1009SOD     NA14492   1.230   1.490  13.093  0.2562  0.2420 -0.2593
 1010SOD     NA14493   2.746   2.120  11.647 -0.1834  0.2934  0.1004
 1011SOL     OW14494   4.388   1.898   2.645  0.1026  0.0446 -0.3427
 1011SOL    HW114495   4.374   1.810   2.680  0.9598  0.2941  0.6258
 1011SOL    HW214496   4.404   1.945   2.726  2.0949  0.2097 -0.8415
 1012SOL     OW14497   3.416   4.550   4.487  0.2944 -0.6059 -0.2203
 1012SOL    HW114498   3.332   4.517   4.518  0.0591  0.9128  0.7351
 1012SOL    HW214499   3.452   4.476   4.437  0.8685 -0.7454  0.3865
 1013SOL     OW14500   2.680   3.100  15.102  0.2247 -0.3780  0.4688
 1013SOL    HW114501   2.597   3.089  15.148 -1.2085  2.8023 -1.2937
 1013SOL    HW214502   2.661   3.051  15.022 -0.2794  1.1648 -0.3741
 1014SOL     OW14503   1.906   3.039  17.671 -0.0603 -0.4288  0.3246
 1014SOL    HW114504   1.929   2.982  17.597 -1.1408  1.2765 -1.3130
 1014SOL    HW214505   1.926   3.125  17.635  0.5940 -0.5211  0.4733
 1015SOL     OW14506   3.339   3.016  10.404 -0.5042 -0.0189  0.3554
 1015SOL    HW114507   3.287   3.071  10.345  1.2842  0.4926 -0.7389
 1015SOL    HW214508   3.364   3.075  10.475  0.7856 -1.1469  0.8214
 1016SOL     OW14509   2.373   3.401   2.600 -0.2411  0.4657  0.4038
 1016SOL    HW114510   2.314   3.398   2.525 -0.2893 -0.9079  0.5019
 1016SOL    HW214511   2.443   3.458   2.568  0.9262 -0.4746  1.2936
 1017SOL     OW14512   0.720   3.518   6.268  0.0302  0.1907 -0.0696
 1017SOL    HW114513   0.686   3.456   6.333  0.3370  1.4375  1.2618
 1017SOL    HW214514   0.641   3.514   6.214 -1.2750  1.2768  1.7999
 1018SOL     OW14515   2.755   0.485  13.097 -0.0041 -0.1427  0.3476
 1018SOL    HW114516   2.802   0.553  13.145 -1.3540  1.7551 -1.0139
 1018SOL    HW214517   2.726   0.532  13.019  3.3826 -1.3049 -1.6417
 1019SOL     OW14518   2.780   4.583  10.613 -0.3929  0.1205 -0.0569
 1019SOL    HW114519   2.834   4.593  10.535 -1.1349  2.6109 -0.2590
 1019SOL    HW214520   2.704   4.540  10.575  0.0889 -0.1093 -0.7491
 1020SOL     OW14521   2.202   3.428   6.772 -0.0134 -0.1146 -0.1535
 1020SOL    HW114522   2.130   3.444   6.833  1.0601 -0.7824  1.2767
 1020SOL    HW214523   2.216   3.334   6.780 -2.2101 -0.3812  0.5592
 1021SOL     OW14524   2.019   2.295  14.350 -0.3677  0.0658 -0.3339
 1021SOL    HW114525   2.022   2.215  14.298  2.2531  0.8102 -1.3701
 1021SOL    HW214526   2.101   2.276  14.398  0.1470  1.0947 -0.8097
 1022SOL     OW14527   4.344   1.317   8.968 -0.3972 -0.4445 -0.1220
 1022SOL    HW114528   4.274   1.276   9.019 -0.5070  0.5377  0.5115
 1022SOL    HW214529   4.331   1.411   8.972 -0.1441 -0.4320  0.4558
 1023SOL     OW14530   0.338   1.988  12.719  0.2923  0.5749 -0.2204
 1023SOL    HW114531   0.402   2.031  12.662  1.9979 -1.2475  0.3044
 1023SOL    HW214532   0.384   1.904  12.721 -0.2214  0.2022 -4.0623
 1024SOL     OW14533   0.211   4.137  13.776  0.9079  0.2315 -1.0703
 1024SOL    HW114534   0.285   4.196  13.788  2.9114 -2.5711  0.5005
 1024SOL    HW214535   0.159   4.147  13.856  0.3844  2.7491 -1.7355
 1025SOL     OW14536   3.148   3.914  16.233  0.1031 -0.0999 -0.0430
 1025SOL    HW114537   3.170   3.898  16.325  0.9960 -1.1354 -0.4329
 1025SOL    HW214538   3.109   3.829  16.213  0.1502 -0.0357 -0.4139
 1026SOL     OW14539   2.384   4.097  15.546 -0.2326  0.1050 -0.0560
 1026SOL    HW114540   2.301   4.086  15.499  1.2323  1.1883 -2.8807
 1026SOL    HW214541   2.374   4.176  15.600 -1.8078 -0.4574  0.4869
 1027SOL     OW14542   2.792   1.661   5.688 -0.2187 -0.0286  0.3346
 1027SOL    HW114543   2.857   1.726   5.715  0.3139 -0.9756  1.3306
 1027SOL    HW214544   2.713   1.706   5.718 -1.1002 -0.2843 -1.5725
 1028SOL     OW14545   2.459   2.119   1.086 -0.8422  0.0074 -0.0912
 1028SOL    HW114546   2.405   2.063   1.142 -0.6576  0.3515  0.4344
 1028SOL    HW214547   2.476   2.056   1.017 -2.4064  0.2594 -0.6933
 1029SOL     OW14548   4.234   0.467   7.022  0.1353  0.0033  0.0897
 1029SOL    HW114549   4.262   0.505   6.939  3.5971 -1.8434  0.4282
 1029SOL    HW214550   4.141   0.467   6.999  0.9833  2.3363 -3.3715
 1030SOL     OW14551   4.373   2.124   8.300 -0.0062  0.0956 -0.0835
 1030SOL    HW114552   4.460   2.082   8.301  0.6661  1.5188  1.0910
 1030SOL    HW214553   4.333   2.072   8.371  0.8078  1.4649  1.3766
 1031SOL     OW14554   2.941   2.997   7.505  0.1525  0.7384 -0.9312
 1031SOL    HW114555   2.903   3.082   7.480 -0.1770  0.8005 -0.2266
 1031SOL    HW214556   2.864   2.946   7.530 -0.7159  2.3155 -0.3602
 1032SOL     OW14557   3.986   1.621  14.960 -0.1996  0.3814  0.0152
 1032SOL    HW114558   3.966   1.590  14.872  0.8563  0.3725 -0.2180
 1032SOL    HW214559   3.996   1.536  15.003 -0.8423  1.2234  1.8258
 1033SOL     OW14560   1.553   0.591   7.196 -0.0076 -0.2663  0.3988
 1033SOL    HW114561   1.517   0.577   7.284  0.7598 -0.3971  0.6912
 1033SOL    HW214562   1.646   0.574   7.201  0.0303  0.2615  1.6180
 1034SOL     OW14563   3.732   0.130   8.399 -0.0618  0.1353 -0.0827
 1034SOL    HW114564   3.655   0.144   8.344  0.8586  1.7668 -0.9628
 1034SOL    HW214565   3.775   0.215   8.412 -0.4184  0.1897  0.6856
 1035SOL     OW14566   1.018   1.913  10.012 -0.1926 -0.2950 -0.2635
 1035SOL    HW114567   0.958   1.959   9.953  0.7204  0.8103 -0.3390
 1035SOL    HW214568   0.962   1.891  10.086 -0.8305  1.2053 -0.3046
 1036SOL     OW14569   1.438   2.010  12.126 -0.2017 -0.0239 -0.0682
 1036SOL    HW114570   1.355   2.059  12.124  0.3406  0.9835  1.9451
 1036SOL    HW214571   1.495   2.072  12.080 -0.0798 -0.9850 -1.1904
 1037SOL     OW14572   1.109   1.821   5.280 -0.3898  0.2319  0.6849
 1037SOL    HW114573   1.161   1.784   5.209  0.2745 -0.4134  1.5064
 1037SOL    HW214574   1.162   1.815   5.360  3.8117  2.2337 -1.9895
 1038SOL     OW14575   2.534   3.128   6.447 -0.3594 -0.2640 -0.0160
 1038SOL    HW114576   2.550   3.056   6.385  0.7345  0.9553 -1.1485
 1038SOL    HW214577   2.439   3.120   6.460 -0.2122  0.7013  1.5707
 1039SOL     OW14578   1.178   3.381  13.486  1.2563 -0.0398 -0.1562
 1039SOL    HW114579   1.224   3.297  13.479  1.1600 -0.0743 -0.3891
 1039SOL    HW214580   1.104   3.354  13.541  1.4906 -1.2473 -0.4220
 1040SOL     OW14581   1.013   2.928   0.546  0.3996 -0.2877 -0.7075
 1040SOL    HW114582   0.977   3.002   0.496 -2.0562 -0.8276  0.2405
 1040SOL    HW214583   1.060   2.879   0.479 -0.3936  0.9420 -2.1656
 1041SOL     OW14584   0.676   1.549   6.150 -0.8855  0.4273 -0.3937
 1041SOL    HW114585   0.661   1.486   6.079  1.8841 -0.6403 -0.0482
 1041SOL    HW214586   0.595   1.533   6.199  0.2647 -2.6270  0.5093
 1042SOL     OW14587   3.433   0.770   0.704 -0.6989  0.1537 -0.4546
 1042SOL    HW114588   3.408   0.755   0.613 -0.2347 -0.1374 -0.5376
 1042SOL    HW214589   3.520   0.732   0.718 -0.8838 -1.0950 -2.5565
 1043SOL     OW14590   4.382   1.462   4.367  0.2417  0.2728 -0.3456
 1043SOL    HW114591   4.450   1.410   4.410  0.3880  2.6658  2.3310
 1043SOL    HW214592   4.332   1.493   4.443  0.9241 -0.8613  0.5660
 1044SOL     OW14593   0.923   3.230   3.569  0.1727 -0.0709 -0.6514
 1044SOL    HW114594   0.886   3.151   3.607  1.5718  0.2863  1.4092
 1044SOL    HW214595   0.872   3.299   3.611  0.4365  0.3095 -0.9562
 1045SOL     OW14596   4.250   1.250   6.929  0.0366  0.1690 -0.0731
 1045SOL    HW114597   4.156   1.239   6.918  0.3412 -0.6456 -1.8999
 1045SOL    HW214598   4.275   1.171   6.976 -1.7680  1.3759  2.9461
 1046SOL     OW14599   4.134   2.307   7.154 -0.1545 -0.5823 -0.1210
 1046SOL    HW114600   4.179   2.351   7.225  0.2208  1.3703 -1.5633
 1046SOL    HW214601   4.059   2.271   7.200  0.0863 -1.0775 -0.1187
 1047SOL     OW14602   2.170   0.960   0.158 -0.2220 -0.2343  0.3212
 1047SOL    HW114603   2.082   0.952   0.196 -2.3765  0.9815 -4.3834
 1047SOL    HW214604   2.194   1.052   0.171 -0.6135 -0.0620 -0.1919
 1048SOL     OW14605   3.159   2.206   1.667  0.3529  0.2051  0.3790
 1048SOL    HW114606   3.199   2.214   1.753 -0.1068 -0.5525  0.6666
 1048SOL    HW214607   3.194   2.120   1.644 -0.6103 -0.2018  0.4272
 1049SOL     OW14608   3.056   4.383   4.070 -0.4086 -0.4631 -0.2633
 1049SOL    HW114609   3.101   4.365   4.153  1.0149  1.7538 -0.5541
 1049SOL    HW214610   3.019   4.297   4.048 -0.9742 -0.5097  0.8919
 1050SOL     OW14611   2.762   1.792   6.400 -0.3814  0.0706 -0.6099
 1050SOL    HW114612   2.843   1.742   6.406  0.1662  1.2356  1.8373
 1050SOL    HW214613   2.695   1.732   6.368 -0.7162 -0.1627  0.5491
 1051SOL     OW14614   2.439   2.319   8.320 -0.6273  0.0667 -0.5134
 1051SOL    HW114615   2.405   2.338   8.233  0.6846 -1.4139 -1.3599
 1051SOL    HW214616   2.356   2.288   8.356 -0.6097 -0.8383 -1.2372
 1052SOL     OW14617   2.588   1.475   0.758 -0.0605  0.0623  0.1759
 1052SOL    HW114618   2.503   1.448   0.722  2.2589 -2.3397 -3.4867
 1052SOL    HW214619   2.622   1.520   0.681 -0.9021 -0.1227 -0.3060
 1053SOL     OW14620   1.700   2.124  10.293 -0.4406  0.3866 -0.2363
 1053SOL    HW114621   1.700   2.151  10.201 -1.1744  1.4788  0.0805
 1053SOL    HW214622   1.616   2.156  10.328  0.0249  0.9477  0.3546
 1054SOL     OW14623   4.522   2.518   1.627  0.3258  0.8584  0.4078
 1054SOL    HW114624   4.488   2.438   1.586  1.3296  1.6332 -1.9213
 1054SOL    HW214625   4.575   2.480   1.697  0.0803  2.6500  1.5701
 1055SOL     OW14626   0.261   3.024   2.912 -0.0919 -0.4590  0.5952
 1055SOL    HW114627   0.292   3.101   2.960  1.6207 -1.4558  1.0733
 1055SOL    HW214628   0.287   3.054   2.825 -0.6674 -2.1068 -0.1356
 1056SOL     OW14629   3.666   3.835   6.206  0.4204 -0.3615 -0.4240
 1056SOL    HW114630   3.633   3.760   6.256  2.7597 -0.9793  0.1768
 1056SOL    HW214631   3.697   3.887   6.279 -1.1288 -0.4827  0.3322
 1057SOL     OW14632   3.280   2.354   7.682  0.1018 -0.0686  0.5387
 1057SOL    HW114633   3.312   2.397   7.761 -0.3814  0.8392  0.2366
 1057SOL    HW214634   3.231   2.416   7.628 -0.8970 -0.2850  1.1901
 1058SOL     OW14635   1.907   4.631   2.882  0.4747 -0.0557  0.3466
 1058SOL    HW114636   1.852   4.629   2.804 -0.3361  0.0905  0.9038
 1058SOL    HW214637   1.909   0.000   2.898  0.6136 -0.1044  0.6202
 1059SOL     OW14638   2.203   0.658   1.214 -0.7824  0.1319 -0.5530
 1059SOL    HW114639   2.135   0.722   1.233 -1.8525 -1.1441 -0.0995
 1059SOL    HW214640   2.241   0.699   1.136  3.5573 -2.2008  0.3187
 1060SOL     OW14641   3.417   1.359   6.387  0.4247 -0.2145  0.1361
 1060SOL    HW114642   3.372   1.393   6.309 -1.0543  3.2795  2.4890
 1060SOL    HW214643   3.400   1.265   6.387  2.3774 -0.5618  0.4875
 1061SOL     OW14644   4.578   1.771  16.956 -0.2746 -0.0649 -0.7795
 1061SOL    HW114645   4.612   1.842  16.902  0.7961 -0.0611 -0.0948
 1061SOL    HW214646   4.655   1.715  16.962  0.1972  0.7320  0.6612
 1062SOL     OW14647   0.447   4.376   0.719 -0.8345 -0.5912 -0.3262
 1062SOL    HW114648   0.359   4.414   0.710 -0.6644  0.3821  2.0270
 1062SOL    HW214649   0.463   4.356   0.627 -0.0520 -0.7910 -0.1477
 1063SOL     OW14650   0.311   4.359   9.336  0.1026  0.0170  0.0407
 1063SOL    HW114651   0.278   4.428   9.279 -1.4884  0.1075  1.0575
 1063SOL    HW214652   0.253   4.288   9.306  0.8368  0.8445 -3.2292
 1064SOL     OW14653   3.819   3.010   8.785  0.4319 -0.4256 -0.0558
 1064SOL    HW114654   3.889   3.037   8.725 -0.8246  0.5324 -1.0940
 1064SOL    HW214655   3.846   2.930   8.831  2.2971  0.3790  0.2641
 1065SOL     OW14656   2.130   3.827   2.911  0.2862 -0.0735  0.6306
 1065SOL    HW114657   2.186   3.895   2.948 -3.9824  3.2334  0.9533
 1065SOL    HW214658   2.175   3.811   2.828 -0.6281 -0.1811  0.1529
 1066SOL     OW14659   1.696   1.831   5.503 -0.1560 -0.5731  0.4501
 1066SOL    HW114660   1.634   1.787   5.445 -0.2848  1.2200 -0.7573
 1066SOL    HW214661   1.667   1.921   5.488  0.5954 -0.6591 -1.5356
 1067SOL     OW14662   3.407   0.132  14.436  0.1389 -0.7643  0.2406
 1067SOL    HW114663   3.465   0.140  14.360 -0.1749  1.0298  0.1839
 1067SOL    HW214664   3.443   0.187  14.505 -1.2323  0.1478  0.2369
 1068SOL     OW14665   3.527   0.066   8.718  0.3076 -0.4174  0.1806
 1068SOL    HW114666   3.488   0.095   8.800  0.6506 -0.4732  0.3609
 1068SOL    HW214667   3.580   0.142   8.694 -0.6931  1.4095  3.7930
 1069SOL     OW14668   2.351   0.111   1.458  0.1442  0.0094  0.0071
 1069SOL    HW114669   2.359   0.017   1.470  1.9820  0.2343  0.6104
 1069SOL    HW214670   2.335   0.139   1.548 -0.2143  0.4475 -0.1932
 1070SOL     OW14671   3.944   3.620  15.406 -0.2004  0.4406  0.0576
 1070SOL    HW114672   3.963   3.538  15.362 -0.5333  0.5992 -0.3824
 1070SOL    HW214673   3.921   3.675  15.330 -2.0136  0.0204  0.2993
 1071SOL     OW14674   3.737   1.262   8.336 -0.5884 -0.1713  0.7937
 1071SOL    HW114675   3.728   1.255   8.241  1.7528  2.2720  0.3954
 1071SOL    HW214676   3.766   1.352   8.352  0.5432 -0.7800  2.2006
 1072SOL     OW14677   1.430   2.257   2.541  0.0288 -0.5154 -0.0543
 1072SOL    HW114678   1.398   2.280   2.629 -2.0707  1.3124 -1.2929
 1072SOL    HW214679   1.506   2.314   2.547  0.2822 -0.8279 -0.3249
 1073SOL     OW14680   0.545   2.605  11.283  0.3135 -0.0697 -0.1986
 1073SOL    HW114681   0.476   2.653  11.329 -0.2516 -0.1512 -0.9611
 1073SOL    HW214682   0.621   2.628  11.336 -1.3092  1.6755  1.3382
 1074SOL     OW14683   4.554   4.150   5.505 -0.1902  0.0170 -1.1163
 1074SOL    HW114684   4.486   4.114   5.449 -0.4925  0.3957 -0.9932
 1074SOL    HW214685   4.554   4.244   5.486 -1.2059  0.5498  1.3720
 1075SOL     OW14686   1.804   0.374   3.077  0.2795 -0.1301 -0.7570
 1075SOL    HW114687   1.851   0.328   3.147 -0.8233 -1.8174 -1.1193
 1075SOL    HW214688   1.724   0.400   3.121  0.7843  0.5329 -0.2407
 1076SOL     OW14689   3.115   2.303   3.150  0.3680  0.7182  0.1240
 1076SOL    HW114690   3.053   2.376   3.141  0.5681  0.6284 -1.8781
 1076SOL    HW214691   3.091   2.275   3.239 -1.8583 -0.4227 -0.8343
 1077SOL     OW14692   4.249   4.171   7.662 -0.3866  0.5095 -0.6328
 1077SOL    HW114693   4.256   4.251   7.713 -0.4313 -0.4429  0.8672
 1077SOL    HW214694   4.160   4.148   7.686  0.5972 -0.7561  1.8151
 1078SOL     OW14695   2.905   3.128  13.361  0.6488 -0.3113  0.1743
 1078SOL    HW114696   2.892   3.212  13.317  0.1288 -1.2598 -1.4576
 1078SOL    HW214697   2.863   3.064  13.305 -0.5027 -0.5215  1.2830
 1079SOL     OW14698   4.107   3.112   7.806 -0.2501  0.3062  0.1888
 1079SOL    HW114699   4.129   3.037   7.862  0.1312  0.0149 -0.3399
 1079SOL    HW214700   4.123   3.181   7.870  0.2035 -0.4316  0.8778
 1080SOL     OW14701   1.265   0.749   7.394 -0.8656  0.7848  0.1696
 1080SOL    HW114702   1.305   0.813   7.336 -0.2443 -0.6150 -0.9602
 1080SOL    HW214703   1.207   0.795   7.455 -1.4414  1.3640 -0.8143
 1081SOL     OW14704   3.701   3.790   7.975 -0.6637 -0.1332 -0.4053
 1081SOL    HW114705   3.713   3.882   7.952  2.5148 -0.6470 -0.8237
 1081SOL    HW214706   3.712   3.797   8.070 -0.6440 -1.3647 -0.3140
 1082SOL     OW14707   4.673   0.749  14.174 -0.2888  0.0407  0.2652
 1082SOL    HW114708   4.690   0.833  14.216 -2.5313 -0.0299  1.3178
 1082SOL    HW214709   4.725   0.757  14.095  2.4339 -1.4104  1.8873
 1083SOL     OW14710   0.058   0.735   2.802  0.0666  0.2258 -0.3302
 1083SOL    HW114711   0.018   0.669   2.745 -0.4741 -0.4745  0.8574
 1083SOL    HW214712   0.119   0.775   2.741  0.7252  2.1229  1.5830
 1084SOL     OW14713   3.235   2.769  10.373 -0.4675 -0.5327 -0.0118
 1084SOL    HW114714   3.276   2.855  10.386 -1.2915 -0.4585  2.0038
 1084SOL    HW214715   3.191   2.797  10.292 -1.9777 -0.3706  0.8685
 1085SOL     OW14716   1.201   0.427  16.098 -0.1058 -0.0639 -0.1337
 1085SOL    HW114717   1.261   0.371  16.148  0.8162  2.2431  1.3645
 1085SOL    HW214718   1.128   0.368  16.077 -0.1771 -0.0871  0.1688
 1086SOL     OW14719   2.279   2.503  12.454  0.3737  1.0403 -0.0242
 1086SOL    HW114720   2.185   2.503  12.472  0.2991 -1.3229 -0.4124
 1086SOL    HW214721   2.299   2.411  12.436  1.1842  0.7093  2.6142
 1087SOL     OW14722   1.931   1.375   8.840  0.0052 -0.4772 -0.0682
 1087SOL    HW114723   1.964   1.365   8.929  2.9647  2.2556 -0.8590
 1087SOL    HW214724   1.977   1.456   8.820  0.1755 -1.2580 -2.8582
 1088SOL     OW14725   2.830   2.749  17.053 -0.1370  0.2198  0.1875
 1088SOL    HW114726   2.773   2.805  17.000 -0.2039  1.7900  1.9509
 1088SOL    HW214727   2.809   2.771  17.144  1.1126  0.4904  0.4047
 1089SOL     OW14728   2.238   1.616   8.615  0.0714  0.3391  0.0584
 1089SOL    HW114729   2.234   1.593   8.522 -0.5302  1.9688 -0.3236
 1089SOL    HW214730   2.289   1.696   8.604  0.5501  0.4383  2.9150
 1090SOL     OW14731   3.004   2.261  14.339 -0.0122  0.2827 -0.1173
 1090SOL    HW114732   3.046   2.337  14.377 -1.8800  1.5455 -0.5490
 1090SOL    HW214733   3.055   2.240  14.260 -1.4751 -0.3721 -0.9019
 1091SOL     OW14734   3.975   2.574   1.330  0.1514  0.0966 -0.2937
 1091SOL    HW114735   4.047   2.598   1.388 -0.7949 -1.0218  1.3224
 1091SOL    HW214736   4.024   2.582   1.247 -1.0787  0.7274 -0.9558
 1092SOL     OW14737   4.270   1.221   5.057 -0.8109  0.1811  0.0357
 1092SOL    HW114738   4.289   1.301   5.008  2.0719 -0.7421 -0.3280
 1092SOL    HW214739   4.290   1.155   4.990 -0.2269 -0.5440  0.9247
 1093SOL     OW14740   2.784   4.043  16.522 -0.0518  0.3830  0.5475
 1093SOL    HW114741   2.716   4.042  16.589  0.6402  1.1061  1.2536
 1093SOL    HW214742   2.802   3.950  16.508 -0.1734  0.4457 -0.0280
 1094SOL     OW14743   4.660   3.822   7.145  0.4300 -0.2001  0.7382
 1094SOL    HW114744   0.023   3.793   7.161  0.1966 -1.7613 -0.8510
 1094SOL    HW214745   4.671   3.917   7.155 -2.0823 -0.1468  2.9116
 1095SOL     OW14746   4.611   2.100   5.464 -0.3166 -0.0175  0.4735
 1095SOL    HW114747   4.688   2.152   5.485 -0.7971  0.8148  0.1670
 1095SOL    HW214748   4.541   2.165   5.462  1.0936  1.5397  2.3332
 1096SOL     OW14749   3.849   4.451   1.093 -0.5454 -0.4722  0.1824
 1096SOL    HW114750   3.915   4.410   1.148 -0.7519 -0.6197  0.3142
 1096SOL    HW214751   3.778   4.491   1.143 -0.5838 -1.3373  0.8010
 1097SOL     OW14752   0.444   3.614  10.182  0.0146 -0.0727 -0.1327
 1097SOL    HW114753   0.425   3.585  10.271 -0.8382 -1.3141 -0.7106
 1097SOL    HW214754   0.518   3.671  10.204 -1.3786  0.9570  1.8722
 1098SOL     OW14755   3.520   3.414   3.447  0.6068  0.0889 -0.5639
 1098SOL    HW114756   3.452   3.395   3.383  0.2086 -0.6972  0.0790
 1098SOL    HW214757   3.572   3.334   3.455 -0.5948 -0.6560 -0.1078
 1099SOL     OW14758   0.219   2.141   2.586 -0.1424 -0.0659 -0.2623
 1099SOL    HW114759   0.128   2.118   2.605 -0.9807  4.1266  0.9037
 1099SOL    HW214760   0.241   2.082   2.514  2.2595  0.3062  0.1523
 1100SOL     OW14761   0.324   3.094   5.788  0.1521  0.7195  0.3401
 1100SOL    HW114762   0.229   3.091   5.800  0.1863 -0.6715  0.1685
 1100SOL    HW214763   0.347   3.003   5.774 -0.8039  0.2565  1.8559
 1101SOL     OW14764   1.186   1.571   6.553  0.5261  0.4266  0.2428
 1101SOL    HW114765   1.239   1.639   6.595 -1.0605  1.4588  0.6136
 1101SOL    HW214766   1.105   1.584   6.603  1.0688  1.6176  0.8130
 1102SOL     OW14767   2.582   3.006  12.940  0.3882  0.6384 -0.1388
 1102SOL    HW114768   2.548   2.950  13.010  1.2445 -0.8438 -0.9234
 1102SOL    HW214769   2.590   2.947  12.866 -1.1349  0.6218 -0.3053
 1103SOL     OW14770   3.118   4.135   2.625  0.1203 -0.2667  0.2492
 1103SOL    HW114771   3.147   4.044   2.626 -0.9109 -0.5975 -0.4433
 1103SOL    HW214772   3.029   4.134   2.589  0.1579  0.7032  0.1294
 1104SOL     OW14773   4.605   1.508   2.839  0.1814  0.0629  0.1389
 1104SOL    HW114774   4.584   1.546   2.924  2.8291  0.5157  0.5990
 1104SOL    HW214775   4.698   1.484   2.843  0.2646  0.7147  1.9771
 1105SOL     OW14776   3.257   2.565   8.758 -0.1199 -0.0454 -0.6359
 1105SOL    HW114777   3.259   2.592   8.850 -0.1445 -0.9488 -0.3709
 1105SOL    HW214778   3.196   2.492   8.772 -1.2896  1.6762  3.2210
 1106SOL     OW14779   3.945   4.437   4.997  0.1320  0.0820 -0.9190
 1106SOL    HW114780   3.962   4.483   4.914 -2.5173  0.4038 -1.2974
 1106SOL    HW214781   3.909   4.507   5.051  0.5128 -0.3077 -0.1677
 1107SOL     OW14782   0.493   0.376   2.200 -0.3648  0.2644 -0.6705
 1107SOL    HW114783   0.495   0.295   2.250 -1.9242 -0.5031 -1.8402
 1107SOL    HW214784   0.547   0.340   2.130  1.6670  1.7290  0.1395
 1108SOL     OW14785   2.195   1.840   7.316 -0.1700 -0.3607 -0.3696
 1108SOL    HW114786   2.282   1.871   7.339  0.1801 -1.1369 -0.6440
 1108SOL    HW214787   2.196   1.811   7.225 -0.6924  3.3424 -1.5426
 1109SOL     OW14788   1.904   1.883   5.698 -0.4076  0.0324 -0.0247
 1109SOL    HW114789   1.912   1.972   5.733 -2.0190  0.2317 -0.1765
 1109SOL    HW214790   1.824   1.891   5.646  0.3604  1.0421 -1.0386
 1110SOL     OW14791   1.662   2.326   2.223  0.0685 -0.0710  0.5546
 1110SOL    HW114792   1.664   2.310   2.318 -0.3553  1.7004  0.8621
 1110SOL    HW214793   1.622   2.412   2.214  0.6201  0.2281  0.9599
 1111SOL     OW14794   3.202   3.505   3.698  0.0027  0.0331 -0.6935
 1111SOL    HW114795   3.209   3.448   3.622 -0.2236 -1.9950  0.7978
 1111SOL    HW214796   3.136   3.565   3.664  0.1298  0.4743 -0.1605
 1112SOL     OW14797   4.001   4.385   0.723  0.2861 -0.3339  0.5679
 1112SOL    HW114798   4.044   4.430   0.795  0.5432 -1.3134  1.0217
 1112SOL    HW214799   3.920   4.351   0.762  0.2367  0.1234  0.8529
 1113SOL     OW14800   0.890   1.460   7.298 -0.5279 -0.1998  0.6386
 1113SOL    HW114801   0.891   1.487   7.390 -1.6311 -0.0183  0.5969
 1113SOL    HW214802   0.975   1.420   7.277 -1.5525 -1.7630 -0.4710
 1114SOL     OW14803   3.649   1.891  16.066  0.5550  0.2866 -0.3258
 1114SOL    HW114804   3.615   1.977  16.042  0.1566 -0.4629 -2.4755
 1114SOL    HW214805   3.590   1.836  16.015  1.4204 -0.6921 -0.2710
 1115SOL     OW14806   2.124   4.459   2.488  0.5973  0.4612 -0.5064
 1115SOL    HW114807   2.110   4.456   2.582 -2.4639  0.8578 -0.9650
 1115SOL    HW214808   2.047   4.507   2.459  1.6069  1.2833 -1.8998
 1116SOL     OW14809   2.956   1.301  12.893  0.2568 -0.1843  0.3834
 1116SOL    HW114810   2.927   1.392  12.906  0.0249 -0.2595  0.4068
 1116SOL    HW214811   2.949   1.292  12.798 -0.7577 -1.3504  0.5683
 1117SOL     OW14812   0.342   2.265   5.693 -0.3895 -0.1022  0.2326
 1117SOL    HW114813   0.400   2.221   5.756  1.4769 -0.0859 -1.4852
 1117SOL    HW214814   0.256   2.240   5.727  0.1351 -1.9184  0.2279
 1118SOL     OW14815   0.551   3.808   1.179  0.1402 -0.2128 -0.3297
 1118SOL    HW114816   0.465   3.838   1.150 -0.5926 -2.6096 -0.6301
 1118SOL    HW214817   0.597   3.830   1.098  0.1744  2.4453  0.4406
 1119SOL     OW14818   0.449   0.504   6.885 -0.1641  0.7696  0.1297
 1119SOL    HW114819   0.529   0.542   6.850  1.4074 -1.8625  0.8929
 1119SOL    HW214820   0.414   0.581   6.930  0.2162  1.1188 -0.1736
 1120SOL     OW14821   0.321   4.237   3.823  0.3553 -0.1436  0.5202
 1120SOL    HW114822   0.351   4.315   3.870 -0.9668  0.4284  0.4155
 1120SOL    HW214823   0.397   4.208   3.773 -0.8655  0.7562 -1.8527
 1121SOL     OW14824   2.192   3.835   6.520  0.0468 -0.7732  0.0403
 1121SOL    HW114825   2.123   3.889   6.481  2.7997  1.8367 -1.1566
 1121SOL    HW214826   2.266   3.895   6.512 -1.1503  0.9475  1.7053
 1122SOL     OW14827   3.134   0.239   0.351  0.5479 -0.1817 -0.2549
 1122SOL    HW114828   3.140   0.153   0.311 -0.2524 -0.7254  0.7925
 1122SOL    HW214829   3.050   0.267   0.316  0.4931  0.4265  0.3541
 1123SOL     OW14830   2.484   0.723   8.007  0.1001 -0.2369 -0.6728
 1123SOL    HW114831   2.538   0.797   7.979 -0.0960 -0.4488 -1.5895
 1123SOL    HW214832   2.418   0.713   7.939  1.5066  0.5816 -2.1740
 1124SOL     OW14833   1.412   3.305   1.803  0.2598  0.0209 -0.4269
 1124SOL    HW114834   1.475   3.329   1.735  1.9839 -1.1104  0.7471
 1124SOL    HW214835   1.345   3.372   1.794 -0.1504  0.3702  5.3141
 1125SOL     OW14836   1.711   4.703   4.082 -0.0882  0.7123 -0.2035
 1125SOL    HW114837   1.793   0.008   4.043  0.5203 -0.8651 -0.1694
 1125SOL    HW214838   1.735   4.628   4.135  0.6505  0.0288 -1.5003
 1126SOL     OW14839   0.310   3.225  12.223 -0.1517 -0.1475 -0.2624
 1126SOL    HW114840   0.401   3.254  12.231  0.0133 -0.1594 -2.0104
 1126SOL    HW214841   0.317   3.135  12.254  1.0680  0.8510  2.2799
 1127SOL     OW14842   0.604   2.215   9.699  0.0248  0.2691  0.3529
 1127SOL    HW114843   0.600   2.167   9.782  0.3722  1.0525  0.8237
 1127SOL    HW214844   0.635   2.139   9.650  1.8138  0.7982  0.6809
 1128SOL     OW14845   2.861   4.556   8.028  0.0539 -0.1314  0.1661
 1128SOL    HW114846   2.845   4.650   8.038 -1.5609 -0.6198  2.0968
 1128SOL    HW214847   2.926   4.553   7.957 -1.8810 -0.0855 -1.5857
 1129SOL     OW14848   0.852   4.672  16.902  0.4424  0.4543 -0.2264
 1129SOL    HW114849   0.882   4.585  16.929 -0.5383 -0.0941 -0.9070
 1129SOL    HW214850   0.934   4.721  16.903  0.9622 -0.4495  0.9210
 1130SOL     OW14851   1.809   3.255  11.812 -0.2584 -0.0960 -0.0249
 1130SOL    HW114852   1.771   3.229  11.896  3.2327  3.4096  2.6324
 1130SOL    HW214853   1.900   3.268  11.839  0.0090 -1.5768 -0.2054
 1131SOL     OW14854   0.537   4.171   3.701  0.0457  0.0034  0.2611
 1131SOL    HW114855   0.571   4.216   3.624 -0.3849 -1.7258 -0.9514
 1131SOL    HW214856   0.622   4.184   3.744  0.2724 -0.0302 -0.1713
 1132SOL     OW14857   3.167   3.246  10.327  0.0209  0.7757  0.5977
 1132SOL    HW114858   3.251   3.289  10.311  0.0076  0.2176 -0.9587
 1132SOL    HW214859   3.129   3.311  10.386  0.7512  1.0775  0.7348
 1133SOL     OW14860   0.007   0.272  13.316 -0.0651  0.0534  0.4726
 1133SOL    HW114861   0.021   0.222  13.397  0.4385 -0.7248 -0.1017
 1133SOL    HW214862   0.001   0.207  13.247 -1.8299 -0.5952  1.2325
 1134SOL     OW14863   0.563   1.173  14.696 -0.4242  0.5858  0.3382
 1134SOL    HW114864   0.546   1.092  14.648 -0.1442  0.7418 -0.0258
 1134SOL    HW214865   0.542   1.148  14.786  0.0503  2.3310  0.9506
 1135SOL     OW14866   3.785   2.881   7.397  0.1676  0.3143 -0.0593
 1135SOL    HW114867   3.724   2.875   7.324  0.7497 -3.8636 -0.1872
 1135SOL    HW214868   3.743   2.944   7.455 -0.0288 -1.3310  1.5961
 1136SOL     OW14869   1.830   0.123   3.512  0.2510  0.0517 -0.3734
 1136SOL    HW114870   1.866   0.040   3.543 -0.8680 -0.2631  0.0900
 1136SOL    HW214871   1.866   0.187   3.573 -1.7596  1.8172 -1.0239
 1137SOL     OW14872   1.557   4.218   4.293 -0.5625  0.2973 -0.2816
 1137SOL    HW114873   1.583   4.134   4.257  0.1978  0.1425  0.6193
 1137SOL    HW214874   1.611   4.221   4.372  0.4113  0.2085 -0.9407
 1138SOL     OW14875   2.856   1.325   0.603  0.0964 -0.3150  0.7373
 1138SOL    HW114876   2.867   1.405   0.655 -1.9353 -0.5557  1.5340
 1138SOL    HW214877   2.901   1.363   0.527 -0.9102  2.3968  1.4978
 1139SOL     OW14878   1.408   4.182  10.540 -0.6128 -0.1752  0.5453
 1139SOL    HW114879   1.500   4.171  10.563 -0.9625  0.6627  2.3333
 1139SOL    HW214880   1.390   4.270  10.570  2.5302  1.2077 -1.6039
 1140SOL     OW14881   0.214   1.736   0.219 -0.2027  0.0049 -0.2577
 1140SOL    HW114882   0.197   1.697   0.304  1.3463  0.7760  0.4157
 1140SOL    HW214883   0.239   1.825   0.244 -1.8557  0.3605  0.0640
 1141SOL     OW14884   4.215   3.148   6.206 -0.2404 -0.5699 -0.2425
 1141SOL    HW114885   4.239   3.183   6.292  0.3697  0.8815 -1.0002
 1141SOL    HW214886   4.263   3.205   6.145 -0.9471  1.3887  1.0209
 1142SOL     OW14887   4.039   2.542   3.374  0.0330  0.7384  0.4167
 1142SOL    HW114888   3.948   2.532   3.403 -0.3558  0.1674 -1.0439
 1142SOL    HW214889   4.078   2.467   3.418  0.3777  0.0630 -1.0549
 1143SOL     OW14890   3.635   3.642   2.886 -0.1394  0.2242 -0.5393
 1143SOL    HW114891   3.721   3.610   2.913  0.1595  0.2005 -1.5495
 1143SOL    HW214892   3.648   3.656   2.793 -2.3743  3.4428 -0.3498
 1144SOL     OW14893   0.874   2.754   7.214 -0.4507  0.5102  0.0565
 1144SOL    HW114894   0.788   2.758   7.258 -0.6421  0.8083 -0.3480
 1144SOL    HW214895   0.870   2.835   7.163  1.8266  0.9693  0.5936
 1145SOL     OW14896   1.207   3.249   4.617  0.2394 -0.0063  0.4942
 1145SOL    HW114897   1.252   3.321   4.574  0.7905 -0.3679  0.4714
 1145SOL    HW214898   1.197   3.282   4.707 -0.6204 -0.3897  0.5403
 1146SOL     OW14899   0.316   1.878  16.135 -0.4949 -0.2872 -0.2765
 1146SOL    HW114900   0.373   1.930  16.079  1.4811 -2.8078 -0.5912
 1146SOL    HW214901   0.239   1.857  16.082 -1.2647  1.5545  0.1083
 1147SOL     OW14902   3.961   0.023   6.053  0.4543 -0.1225 -0.3712
 1147SOL    HW114903   3.871   4.724   6.075  0.5056  1.5901  1.7240
 1147SOL    HW214904   3.959   0.115   6.078 -1.5851  0.0454 -1.1572
 1148SOL     OW14905   2.692   1.766   7.819 -0.4394  0.2841 -0.0378
 1148SOL    HW114906   2.766   1.715   7.852 -2.4670 -3.3539 -1.0889
 1148SOL    HW214907   2.707   1.851   7.859 -2.4423  0.7390 -0.2904
 1149SOL     OW14908   3.915   0.444   2.702 -0.3116 -0.3438 -0.1177
 1149SOL    HW114909   3.944   0.532   2.677  0.4712 -0.4108  0.5538
 1149SOL    HW214910   3.929   0.439   2.797 -1.1061  1.3136  0.0933
 1150SOL     OW14911   2.931   4.641  10.393 -0.1661 -0.3405  0.0557
 1150SOL    HW114912   2.965   4.587  10.321 -0.6727 -1.4514  0.6466
 1150SOL    HW214913   2.973   4.725  10.374 -0.5632 -0.8638 -3.2225
 1151SOL     OW14914   4.237   3.069   2.952 -0.5176 -0.8015  0.2958
 1151SOL    HW114915   4.185   3.016   2.890  0.7460 -2.1258  0.3847
 1151SOL    HW214916   4.167   3.109   3.003 -2.0604  2.0824 -4.0354
 1152SOL     OW14917   3.797   1.653   7.830  0.1927  0.3597  0.0664
 1152SOL    HW114918   3.832   1.586   7.889  0.0743  1.6000  1.5560
 1152SOL    HW214919   3.707   1.621   7.823  0.7007 -0.8620 -0.8100
 1153SOL     OW14920   1.104   0.926   7.538 -0.9529  0.2127  0.1755
 1153SOL    HW114921   1.028   0.984   7.530 -0.6689  0.2889 -1.8472
 1153SOL    HW214922   1.096   0.898   7.629  0.9225  1.7304  0.8003
 1154SOL     OW14923   2.841   1.354   6.345 -0.4922 -0.2510  0.2221
 1154SOL    HW114924   2.930   1.359   6.310 -1.4052 -0.0331 -2.1144
 1154SOL    HW214925   2.791   1.373   6.265 -1.7932  0.2734  1.1675
 1155SOL     OW14926   3.739   2.386  14.801 -0.1126  0.3477  0.1238
 1155SOL    HW114927   3.810   2.356  14.858  0.6408  3.4303  0.7981
 1155SOL    HW214928   3.732   2.313  14.740  0.6208  0.8085 -0.5120
 1156SOL     OW14929   1.864   3.159   6.234 -0.4196 -0.5829  0.4288
 1156SOL    HW114930   1.930   3.117   6.179  0.3992 -1.1119  1.7971
 1156SOL    HW214931   1.905   3.143   6.319 -0.3028  0.7806  0.6226
 1157SOL     OW14932   3.768   1.747   3.869  0.3255 -0.1585  0.0350
 1157SOL    HW114933   3.855   1.720   3.840  0.0752 -2.4554  1.4809
 1157SOL    HW214934   3.764   1.677   3.934 -0.5023 -0.0898  0.0573
 1158SOL     OW14935   3.742   2.395   9.230  0.4157 -1.0481 -0.0841
 1158SOL    HW114936   3.718   2.441   9.150  1.1333  1.6444  1.2319
 1158SOL    HW214937   3.746   2.472   9.288  0.0469 -0.8929 -0.2628
 1159SOL     OW14938   1.834   0.910  15.503  0.2759 -0.2819 -0.0779
 1159SOL    HW114939   1.903   0.844  15.492  0.9196  0.2446  0.8228
 1159SOL    HW214940   1.854   0.971  15.432  0.4400  0.5220  0.6543
 1160SOL     OW14941   4.026   3.015   2.243  0.2571  0.0827  0.0437
 1160SOL    HW114942   4.068   3.004   2.157 -3.4870 -2.0656 -1.4981
 1160SOL    HW214943   3.944   2.968   2.227  0.3668 -0.1430  0.1387
 1161SOL     OW14944   4.043   1.757   6.234  0.0297 -0.3985 -0.2280
 1161SOL    HW114945   4.004   1.845   6.237  2.2918  0.5839  0.7291
 1161SOL    HW214946   4.110   1.771   6.168  1.0113 -0.7657  0.6879
 1162SOL     OW14947   1.114   0.214  13.479  0.0125  0.1210  0.3399
 1162SOL    HW114948   1.130   0.195  13.571  0.7384  0.6880  0.3324
 1162SOL    HW214949   1.124   0.309  13.469 -1.6550  0.3738  1.1276
 1163SOL     OW14950   3.708   1.727   4.879 -0.4650 -0.4035  0.1395
 1163SOL    HW114951   3.776   1.729   4.946  0.1918 -0.8187 -0.5122
 1163SOL    HW214952   3.661   1.644   4.884  0.2060 -0.8911 -1.4130
 1164SOL     OW14953   3.615   0.701   2.143  0.2225 -0.3497  0.2238
 1164SOL    HW114954   3.582   0.612   2.157  3.2878 -1.2015  2.1921
 1164SOL    HW214955   3.704   0.674   2.119  0.5824  0.4970  0.6140
 1165SOL     OW14956   2.395   2.494   6.372 -0.2321 -0.6240  0.5465
 1165SOL    HW114957   2.447   2.414   6.378  0.4880 -0.4671 -3.3712
 1165SOL    HW214958   2.394   2.508   6.277  2.0794  0.6980  0.7317
 1166SOL     OW14959   0.170   1.024   4.192  0.2395 -0.7055  0.8059
 1166SOL    HW114960   0.157   1.118   4.179  0.3707 -0.5827  1.5788
 1166SOL    HW214961   0.107   1.013   4.263 -2.7266  0.8280 -1.6291
 1167SOL     OW14962   0.649   2.093   1.977 -0.0911 -0.4589  0.3976
 1167SOL    HW114963   0.607   2.156   2.036 -0.6239  1.1583 -1.7131
 1167SOL    HW214964   0.737   2.102   2.014 -0.2942 -1.9300  1.2184
 1168SOL     OW14965   2.712   0.909   1.062  0.1160  0.5682  0.5537
 1168SOL    HW114966   2.779   0.894   0.995 -1.0447  4.2446 -1.4678
 1168SOL    HW214967   2.756   0.972   1.119 -0.0613 -0.1635  1.4959
 1169SOL     OW14968   0.240   4.024  10.583 -0.0481 -0.1250  0.1787
 1169SOL    HW114969   0.273   4.008  10.671 -1.2453 -0.2398  0.5953
 1169SOL    HW214970   0.251   4.119  10.581  0.5961 -0.2203 -1.3108
 1170SOL     OW14971   0.288   2.143  14.329 -0.3457  0.4369 -0.0590
 1170SOL    HW114972   0.380   2.117  14.333 -0.4222  0.4385  1.5923
 1170SOL    HW214973   0.292   2.236  14.309  1.8893  0.0028 -1.5988
 1171SOL     OW14974   0.212   2.315  10.614 -0.2831  0.0280 -0.2401
 1171SOL    HW114975   0.177   2.229  10.637  0.9131 -1.1535 -2.7871
 1171SOL    HW214976   0.297   2.312  10.660 -0.1477  0.5967 -0.4567
 1172SOL     OW14977   0.552   4.163   7.353  0.7133 -0.3707  0.2652
 1172SOL    HW114978   0.602   4.135   7.429  0.0563  1.5704  1.4305
 1172SOL    HW214979   0.616   4.227   7.322 -0.9328  0.8093 -0.7336
 1173SOL     OW14980   0.610   0.473   3.345  0.4845  0.0657  0.2285
 1173SOL    HW114981   0.622   0.556   3.392 -0.4258 -0.7890  1.9580
 1173SOL    HW214982   0.545   0.490   3.277  1.5041 -1.6895 -1.1685
 1174SOL     OW14983   1.073   3.524   4.908  0.0068  0.1000 -0.0754
 1174SOL    HW114984   1.118   3.585   4.966 -2.9393  0.5958  1.7403
 1174SOL    HW214985   0.989   3.510   4.953  0.1646  2.5980  0.9724
 1175SOL     OW14986   2.284   2.210   6.068  0.8022 -0.1539  0.5608
 1175SOL    HW114987   2.190   2.230   6.072  0.8629  0.0615  0.8449
 1175SOL    HW214988   2.315   2.281   6.013 -1.8882  0.4310 -0.2297
 1176SOL     OW14989   2.671   1.392  17.291 -0.2997  0.3851  0.2805
 1176SOL    HW114990   2.622   1.474  17.284 -0.2993  0.3605 -0.0249
 1176SOL    HW214991   2.759   1.429  17.300  0.2591 -0.8393 -0.1528
 1177SOL     OW14992   2.879   3.803  14.582  0.6967 -0.5016  0.0810
 1177SOL    HW114993   2.858   3.737  14.516 -1.3923  1.2214 -0.9819
 1177SOL    HW214994   2.912   3.753  14.657  0.6049  2.2727  1.9492
 1178SOL     OW14995   2.934   2.936   4.614 -0.3564 -0.0654  0.8127
 1178SOL    HW114996   3.014   2.886   4.624 -0.1663 -0.6819 -4.1950
 1178SOL    HW214997   2.889   2.872   4.559  2.1468  1.1814 -2.6806
 1179SOL     OW14998   0.955   3.681   7.225  0.4436  0.0735 -0.6142
 1179SOL    HW114999   1.048   3.669   7.207  0.3630 -0.9194 -0.3947
 1179SOL    HW215000   0.951   3.775   7.209 -0.5367  0.0492 -0.5147
 1180SOL     OW15001   3.806   2.982   9.837  0.5333 -0.2368 -0.4415
 1180SOL    HW115002   3.897   2.986   9.868 -0.2984  0.6287  1.9324
 1180SOL    HW215003   3.750   2.997   9.913 -0.4480 -0.1580 -1.1814
 1181SOL     OW15004   2.179   0.505   7.308 -0.1146  0.2780  0.0029
 1181SOL    HW115005   2.242   0.485   7.378 -0.2475 -1.2314 -0.3122
 1181SOL    HW215006   2.138   0.586   7.340  1.7729  1.1294  0.2227
 1182SOL     OW15007   1.282   1.796  12.907  0.5878  0.1615 -0.9199
 1182SOL    HW115008   1.372   1.802  12.940  0.6686 -0.5762 -1.0044
 1182SOL    HW215009   1.238   1.874  12.942 -0.7604 -0.5591 -1.0122
 1183SOL     OW15010   3.816   2.928   2.077  0.4658  0.7257 -0.0083
 1183SOL    HW115011   3.798   2.948   1.985 -1.7925  2.7490  0.8534
 1183SOL    HW215012   3.729   2.950   2.113  0.5974  2.1116 -0.5186
 1184SOL     OW15013   1.981   3.701  10.109 -0.0258 -0.5616  0.3137
 1184SOL    HW115014   1.927   3.763  10.159 -0.3541 -1.6261  1.2676
 1184SOL    HW215015   1.988   3.635  10.178 -0.3881 -0.0130  0.8701
 1185SOL     OW15016   1.983   2.390   6.839  0.6163  0.4390  0.4774
 1185SOL    HW115017   2.055   2.453   6.847  0.0385  0.7930  2.6380
 1185SOL    HW215018   2.003   2.354   6.752 -2.5677  2.3924 -1.0434
 1186SOL     OW15019   2.374   3.083   2.521 -0.0057  0.4978 -0.1592
 1186SOL    HW115020   2.339   3.137   2.592  0.0484 -0.8959  0.9301
 1186SOL    HW215021   2.305   3.016   2.513  1.8837 -1.1838 -2.3158
 1187SOL     OW15022   0.879   3.885  13.943 -0.3834 -0.2401  0.0768
 1187SOL    HW115023   0.799   3.880  13.890 -0.4164  1.5365 -0.0516
 1187SOL    HW215024   0.869   3.976  13.972  0.0005 -0.6046  1.3677
 1188SOL     OW15025   0.506   2.664   7.647  0.1771  0.2113  0.3081
 1188SOL    HW115026   0.472   2.620   7.725 -1.7929  0.6158 -0.3178
 1188SOL    HW215027   0.593   2.680   7.683  1.2934 -2.4960 -1.2374
 1189SOL     OW15028   2.350   1.899   7.541  0.5175  0.6724  0.1527
 1189SOL    HW115029   2.262   1.880   7.572  0.0491  1.7021 -0.5585
 1189SOL    HW215030   2.382   1.952   7.614 -0.6372  0.9751  0.4340
 1190SOL     OW15031   4.257   3.557   2.602  0.0976 -0.2380 -0.0755
 1190SOL    HW115032   4.228   3.636   2.557  1.0034  0.3752  0.3965
 1190SOL    HW215033   4.351   3.573   2.608  0.0451 -0.0335  0.1914
 1191SOL     OW15034   3.628   2.782   0.552 -0.1247 -0.0351 -0.7046
 1191SOL    HW115035   3.565   2.830   0.498 -0.6097  1.1295  0.9038
 1191SOL    HW215036   3.572   2.728   0.608  1.8970 -2.3737 -0.9585
 1192SOL     OW15037   2.375   0.139  10.984 -0.0385 -0.2226  0.3533
 1192SOL    HW115038   2.338   0.128  11.072 -0.9018 -0.3504 -0.0297
 1192SOL    HW215039   2.416   0.225  10.987  1.2876 -0.7894 -1.6680
 1193SOL     OW15040   4.514   3.974   6.620 -0.4027 -0.1746 -0.5705
 1193SOL    HW115041   4.577   3.903   6.606  1.1596  0.7484  1.8078
 1193SOL    HW215042   4.452   3.925   6.675  1.0657 -0.4868  0.8279
 1194SOL     OW15043   0.367   1.397   3.315  0.0510 -0.0397 -0.9063
 1194SOL    HW115044   0.336   1.342   3.387  1.0100  0.1211 -0.3719
 1194SOL    HW215045   0.462   1.390   3.317 -0.0696 -1.7170 -1.1219
 1195SOL     OW15046   3.958   2.624   5.842  0.1727 -0.1189 -0.1456
 1195SOL    HW115047   4.038   2.572   5.839  0.1081 -0.0753 -3.1038
 1195SOL    HW215048   3.990   2.714   5.839  1.2374 -0.5409 -1.2733
 1196SOL     OW15049   2.042   2.725  10.565 -0.2571 -0.0416 -0.4766
 1196SOL    HW115050   1.954   2.742  10.532 -0.7660  0.7509  1.2699
 1196SOL    HW215051   2.052   2.803  10.620 -1.3908  0.0449 -0.4052
 1197SOL     OW15052   0.054   2.671   5.499  0.1025  0.1896 -0.3124
 1197SOL    HW115053   0.056   2.723   5.579  0.8158 -0.3622  0.0264
 1197SOL    HW215054   0.064   2.582   5.531 -3.2085 -0.3798 -0.8769
 1198SOL     OW15055   0.216   1.820   8.084 -0.6739 -0.1775  0.3159
 1198SOL    HW115056   0.305   1.790   8.065 -0.5534  0.6659 -0.4939
 1198SOL    HW215057   0.213   1.878   8.007  0.2304  1.1633  1.2896
 1199SOL     OW15058   0.893   3.809  11.789  0.0298 -0.3359 -0.0366
 1199SOL    HW115059   0.980   3.817  11.828 -0.1899 -1.5334  0.6855
 1199SOL    HW215060   0.876   3.715  11.798  1.6640 -0.4225  2.3239
 1200SOL     OW15061   0.648   1.303  15.214  0.2779 -0.1689  0.0598
 1200SOL    HW115062   0.694   1.317  15.297  1.0321  0.5035 -0.4722
 1200SOL    HW215063   0.566   1.265  15.246  0.9992 -1.8575 -0.0858
 1201SOL     OW15064   4.263   4.390   6.350  0.4550  0.2657 -0.2483
 1201SOL    HW115065   4.334   4.368   6.410  0.9451 -1.3744 -1.4317
 1201SOL    HW215066   4.193   4.417   6.410 -0.7228 -1.0525 -1.0114
 1202SOL     OW15067   0.745   1.647  16.815 -0.4425  0.0673  0.3463
 1202SOL    HW115068   0.656   1.658  16.782  0.1066  1.6756 -0.6087
 1202SOL    HW215069   0.797   1.626  16.737 -1.5165  0.3337 -0.4437
 1203SOL     OW15070   1.687   3.418   2.328  0.3822 -0.1928 -0.3045
 1203SOL    HW115071   1.594   3.422   2.349  0.2512 -1.7022 -0.6089
 1203SOL    HW215072   1.687   3.355   2.256  0.1384  1.5244 -1.7881
 1204SOL     OW15073   1.932   3.087   6.508  0.4569  0.8546 -0.0342
 1204SOL    HW115074   1.918   3.017   6.572 -0.6061  1.1032 -0.0031
 1204SOL    HW215075   1.882   3.150   6.559 -0.9227  0.7231 -1.2609
 1205SOL     OW15076   3.854   3.388   9.524  0.2506  0.5321  0.0943
 1205SOL    HW115077   3.825   3.299   9.503  3.6618  0.3116 -3.5623
 1205SOL    HW215078   3.850   3.385   9.620 -2.0227  2.1027  0.0525
 1206SOL     OW15079   2.283   0.683  11.976  0.1760  0.1793  0.2936
 1206SOL    HW115080   2.325   0.654  12.057 -1.0682  0.2389  0.9524
 1206SOL    HW215081   2.296   0.607  11.919 -2.5671  0.2392 -0.3723
 1207SOL     OW15082   1.801   3.588   0.681  0.1627 -0.6467 -0.4490
 1207SOL    HW115083   1.847   3.529   0.621 -0.1941 -0.7333 -0.6399
 1207SOL    HW215084   1.822   3.674   0.646  1.2912 -0.5806  0.4182
 1208SOL     OW15085   2.363   1.278   9.144  0.4555  0.2875  0.2221
 1208SOL    HW115086   2.379   1.192   9.183  0.0924 -0.1506 -0.6033
 1208SOL    HW215087   2.267   1.284   9.150  0.2984 -0.2610 -1.8442
 1209SOL     OW15088   3.280   2.186   2.876 -0.2053  0.5872  0.4678
 1209SOL    HW115089   3.376   2.190   2.880  0.0408 -3.2459 -1.5092
 1209SOL    HW215090   3.262   2.280   2.879  1.1947  0.8836 -0.2593
 1210SOL     OW15091   2.604   2.814   3.892 -0.2145 -0.5107  0.3250
 1210SOL    HW115092   2.638   2.731   3.859 -0.7241 -1.5549  2.5115
 1210SOL    HW215093   2.665   2.817   3.965 -0.2667 -0.8322  0.3802
 1211SOL     OW15094   0.547   1.100  10.128  0.3511  0.1190  0.4929
 1211SOL    HW115095   0.537   1.193  10.107  1.5672 -0.2366 -1.5916
 1211SOL    HW215096   0.498   1.093  10.210 -2.3527 -0.8641 -1.1978
 1212SOL     OW15097   0.321   3.087   8.309 -0.2795  0.1501  0.0828
 1212SOL    HW115098   0.335   3.181   8.296 -0.7778 -0.0563 -1.8361
 1212SOL    HW215099   0.365   3.073   8.393  1.8193  1.7208 -0.7546
 1213SOL     OW15100   3.737   4.244   2.915  0.1362  0.1893  0.4147
 1213SOL    HW115101   3.762   4.260   2.824 -1.6383 -2.1211 -0.4440
 1213SOL    HW215102   3.802   4.176   2.931  0.6753  0.3162 -1.1876
 1214SOL     OW15103   0.116   1.129   7.809 -0.3540 -0.1033 -0.0601
 1214SOL    HW115104   0.151   1.143   7.721 -1.2569  0.8885 -0.2583
 1214SOL    HW215105   0.183   1.164   7.868 -0.5836 -1.2949  0.9068
 1215SOL     OW15106   1.717   4.287   5.296  0.2135  0.0642 -0.3467
 1215SOL    HW115107   1.748   4.196   5.301 -2.2514 -0.8327 -1.2357
 1215SOL    HW215108   1.630   4.281   5.256 -0.8523 -0.2855  2.0053
 1216SOL     OW15109   4.170   2.746   9.516  0.2919 -0.3912  0.1847
 1216SOL    HW115110   4.240   2.732   9.453 -1.7239 -2.8899 -1.4879
 1216SOL    HW215111   4.192   2.831   9.555  0.0852 -0.0564 -0.4323
 1217SOL     OW15112   2.779   4.381  11.427  0.4240  0.2949 -0.2569
 1217SOL    HW115113   2.778   4.423  11.341  1.1603  2.3178  0.7305
 1217SOL    HW215114   2.815   4.299  11.393  0.2123  0.5716 -1.1565
 1218SOL     OW15115   1.990   3.284   4.881 -0.1635  0.5032 -0.2659
 1218SOL    HW115116   1.964   3.341   4.953  0.2888  0.7405 -0.2912
 1218SOL    HW215117   1.936   3.326   4.815  0.6441 -2.0041 -2.5127
 1219SOL     OW15118   1.205   0.788   2.858  0.5730  0.4660 -0.2197
 1219SOL    HW115119   1.202   0.720   2.926 -0.9980  1.4345  0.6748
 1219SOL    HW215120   1.246   0.737   2.788  1.7047 -0.3652  1.0399
 1220SOL     OW15121   0.585   1.927   2.993 -0.7994 -0.1977  0.2480
 1220SOL    HW115122   0.512   1.937   3.053 -0.4192  0.9335  0.5211
 1220SOL    HW215123   0.549   1.986   2.926  0.5167 -0.4717 -0.7032
 1221SOL     OW15124   4.667   3.242   7.025  0.4206 -0.0411 -0.0585
 1221SOL    HW115125   4.681   3.291   6.943 -1.2327  1.2053  0.4082
 1221SOL    HW215126   0.017   3.273   7.073  1.4691 -0.5105 -1.3882
 1222SOL     OW15127   4.091   2.446  16.090  0.1929 -0.5192 -0.0176
 1222SOL    HW115128   3.999   2.471  16.079  0.1336 -0.1320  1.2708
 1222SOL    HW215129   4.086   2.353  16.114 -1.6964 -0.1595  0.9732
 1223SOL     OW15130   1.236   0.783  17.031  0.2652 -0.1659  0.1989
 1223SOL    HW115131   1.188   0.826  16.961  0.7792  1.3311  0.7509
 1223SOL    HW215132   1.221   0.834  17.111  0.4000  1.2551 -0.6710
 1224SOL     OW15133   2.387   2.853  17.232 -0.0653 -0.4145  0.3946
 1224SOL    HW115134   2.373   2.937  17.277 -0.3072  0.8169 -1.9610
 1224SOL    HW215135   2.481   2.851  17.214 -0.3856  3.7815 -1.7901
 1225SOL     OW15136   3.998   0.271   8.577  1.0054  0.6910 -0.5678
 1225SOL    HW115137   3.992   0.191   8.630  2.2068  1.7596  1.1951
 1225SOL    HW215138   3.911   0.309   8.564  0.6286  0.1122  0.2528
 1226SOL     OW15139   4.606   2.071   6.654  0.2054  0.3068  0.3286
 1226SOL    HW115140   4.522   2.082   6.610 -0.5712  2.3013  2.3149
 1226SOL    HW215141   4.591   2.016   6.730 -0.1020  2.3806  1.7601
 1227SOL     OW15142   0.662   0.711   4.782  0.1994  0.3535 -0.3089
 1227SOL    HW115143   0.752   0.708   4.814  0.0566  1.3724  0.1883
 1227SOL    HW215144   0.647   0.623   4.747  0.6790 -0.8567  2.5477
 1228SOL     OW15145   4.543   2.062   0.102  0.0645 -0.7111 -0.0271
 1228SOL    HW115146   4.455   2.089   0.128  0.2442  2.0286 -2.2158
 1228SOL    HW215147   4.561   2.106   0.018 -0.4072 -0.0520  0.2193
 1229SOL     OW15148   3.232   2.084   7.123 -0.3931 -0.4355 -0.0940
 1229SOL    HW115149   3.247   2.143   7.197 -0.2168  0.8634 -1.1781
 1229SOL    HW215150   3.274   2.005   7.159 -0.0677  0.4081  1.3418
 1230SOL     OW15151   2.101   3.567  15.125  0.5019  0.7275 -0.1709
 1230SOL    HW115152   2.081   3.660  15.135 -0.0338  0.7434 -1.4182
 1230SOL    HW215153   2.030   3.546  15.064 -0.0243 -2.2391  1.4680
 1231SOL     OW15154   2.428   1.130   3.368  0.0681 -0.2040  0.9220
 1231SOL    HW115155   2.388   1.214   3.344  0.4864  0.8784  3.9928
 1231SOL    HW215156   2.465   1.142   3.456 -0.1221 -0.4280  1.0332
 1232SOL     OW15157   0.653   0.387   7.794 -0.1508  0.2727  0.2403
 1232SOL    HW115158   0.724   0.443   7.827 -0.3086  0.3837  0.3880
 1232SOL    HW215159   0.704   0.312   7.763 -0.8163 -0.2881  0.5313
 1233SOL     OW15160   2.399   4.187   9.351  0.4081  0.0067 -0.0242
 1233SOL    HW115161   2.366   4.274   9.330  0.4618 -0.4026 -1.7912
 1233SOL    HW215162   2.494   4.195   9.363  0.3300  0.1375  0.4945
 1234SOL     OW15163   0.128   3.020  12.122  0.0379  0.0734 -0.5051
 1234SOL    HW115164   0.150   3.113  12.127  0.1342  0.0541 -0.5659
 1234SOL    HW215165   0.212   2.978  12.139 -0.9772 -0.8033  2.2465
 1235SOL     OW15166   1.453   3.578   8.489 -0.7611 -0.0313  0.2030
 1235SOL    HW115167   1.538   3.564   8.448  0.4290  1.2808  2.2251
 1235SOL    HW215168   1.455   3.672   8.505  0.0156 -0.2171  1.2052
 1236SOL     OW15169   1.204   3.481  11.877  0.0453 -0.6770 -0.4642
 1236SOL    HW115170   1.232   3.447  11.962  0.8613 -1.1156 -0.9162
 1236SOL    HW215171   1.247   3.566  11.890 -0.2595 -0.8017  1.3123
 1237SOL     OW15172   1.360   1.140  11.761 -0.5288  0.4118 -0.9364
 1237SOL    HW115173   1.337   1.198  11.688 -0.6933 -1.2802 -2.2322
 1237SOL    HW215174   1.337   1.056  11.720 -0.1366  0.3478 -1.0264
 1238SOL     OW15175   2.808   3.594   6.807 -0.2287  0.2886  0.3594
 1238SOL    HW115176   2.824   3.525   6.872  0.9171  0.1052 -0.1100
 1238SOL    HW215177   2.761   3.538   6.745  2.5227 -2.8482  1.1143
 1239SOL     OW15178   3.634   1.420   0.736 -0.2152 -0.1050 -0.3059
 1239SOL    HW115179   3.643   1.508   0.772 -0.3555  0.3753 -1.4342
 1239SOL    HW215180   3.577   1.372   0.796 -0.1351  1.1710  0.7871
 1240SOL     OW15181   2.389   0.855   5.682  0.0699 -0.2391  1.1193
 1240SOL    HW115182   2.412   0.795   5.611 -0.2227 -0.5336  1.2706
 1240SOL    HW215183   2.339   0.791   5.734 -0.0927 -1.5800 -0.6885
 1241SOL     OW15184   0.850   0.058   8.528 -0.2372  0.2042 -0.0791
 1241SOL    HW115185   0.896   0.009   8.461  0.7657  1.6535 -0.4357
 1241SOL    HW215186   0.771   0.095   8.488 -0.6137 -0.7211 -0.1733
 1242SOL     OW15187   2.197   1.196   2.264 -1.0416  0.5063  0.0382
 1242SOL    HW115188   2.283   1.177   2.301 -0.7229  1.8406 -0.0179
 1242SOL    HW215189   2.150   1.221   2.344 -0.9113 -2.3054  0.9653
 1243SOL     OW15190   2.447   0.301   7.222  0.1156 -0.3885  0.5430
 1243SOL    HW115191   2.439   0.312   7.127  0.2323  2.2548  0.8450
 1243SOL    HW215192   2.382   0.233   7.238 -2.5991  1.6790 -1.6586
 1244SOL     OW15193   3.500   4.583  10.677  0.5749  0.1461  0.0128
 1244SOL    HW115194   3.587   4.581  10.639  0.6118  0.3281  0.0885
 1244SOL    HW215195   3.495   4.655  10.740 -2.5568  1.2069 -1.4062
 1245SOL     OW15196   1.073   2.792   5.403 -0.5356  0.4223  0.0011
 1245SOL    HW115197   1.118   2.782   5.319 -0.1623 -1.1658  0.3859
 1245SOL    HW215198   0.989   2.781   5.358  0.5643 -2.3348 -1.4183
 1246SOL     OW15199   0.311   0.574   4.776  0.0949 -0.5706 -0.0564
 1246SOL    HW115200   0.252   0.647   4.791 -0.7774 -1.2472 -0.1871
 1246SOL    HW215201   0.368   0.576   4.852 -2.8443 -1.4414  2.1816
 1247SOL     OW15202   3.716   3.842   3.929  0.5929 -0.2627  0.1271
 1247SOL    HW115203   3.655   3.827   4.002  2.1954 -0.4690  1.4154
 1247SOL    HW215204   3.667   3.808   3.854  1.9758 -1.0420 -0.4153
 1248SOL     OW15205   4.436   2.962   1.429 -0.1713  0.3724  0.8089
 1248SOL    HW115206   4.374   3.020   1.473 -1.7096  0.4622 -1.4806
 1248SOL    HW215207   4.495   3.024   1.385 -0.6658 -0.4602 -1.0448
 1249SOL     OW15208   1.345   4.418   7.180 -0.4608  0.5347  0.5306
 1249SOL    HW115209   1.338   4.448   7.270  0.8993  1.3336  0.3710
 1249SOL    HW215210   1.252   4.418   7.160 -0.1953  0.8357 -0.7179
 1250SOL     OW15211   2.076   3.060   6.089  0.3077 -0.3875 -0.4897
 1250SOL    HW115212   2.135   3.003   6.138 -0.0493  0.3507  0.7793
 1250SOL    HW215213   2.114   3.070   6.001 -3.0626  2.2645 -1.6598
 1251SOL     OW15214   0.230   4.284   5.572  0.1775  0.0120 -0.3225
 1251SOL    HW115215   0.210   4.357   5.631 -0.6580 -0.5760  0.1156
 1251SOL    HW215216   0.314   4.257   5.610  0.7291  0.5365 -1.1619
 1252SOL     OW15217   2.722   0.438   9.125 -0.2268  0.1361 -0.1633
 1252SOL    HW115218   2.765   0.454   9.041 -0.6071 -3.3010 -1.0209
 1252SOL    HW215219   2.801   0.411   9.172 -0.0285  1.0273  0.0192
 1253SOL     OW15220   4.474   1.588   5.997 -0.5440 -0.1040  0.7897
 1253SOL    HW115221   4.478   1.645   5.921  0.4266 -0.9685  0.2018
 1253SOL    HW215222   4.409   1.520   5.979 -0.6251  0.4789 -1.0888
 1254SOL     OW15223   1.474   2.766   6.367  0.1098 -0.5357  0.0836
 1254SOL    HW115224   1.533   2.837   6.392  0.9454 -0.9096 -0.8628
 1254SOL    HW215225   1.537   2.694   6.366 -1.3915 -1.8878  1.1961
 1255SOL     OW15226   0.027   2.683   7.208  0.7857  0.4372  0.2680
 1255SOL    HW115227   0.112   2.718   7.233  0.4386  0.9310  0.7407
 1255SOL    HW215228   4.721   2.760   7.160 -2.7396 -0.3411  1.3297
 1256SOL     OW15229   0.501   3.042   0.956 -0.4153 -0.4532 -0.1369
 1256SOL    HW115230   0.517   3.053   0.862  1.2072  0.9299  0.3033
 1256SOL    HW215231   0.506   3.135   0.981  0.2184 -0.7029  0.6643
 1257SOL     OW15232   2.232   2.319   7.259  0.3375 -0.5263  0.3637
 1257SOL    HW115233   2.180   2.276   7.327  0.4157  0.1279  0.8323
 1257SOL    HW215234   2.193   2.308   7.173  0.4918  5.2352 -0.4492
 1258SOL     OW15235   0.860   1.139  11.459  0.5619  0.2355 -0.2830
 1258SOL    HW115236   0.944   1.093  11.452  0.7268  0.2559  1.3979
 1258SOL    HW215237   0.844   1.177  11.373 -0.0726  1.5573  0.4212
 1259SOL     OW15238   4.658   4.129   9.714 -0.8739 -0.0969  0.3574
 1259SOL    HW115239   0.005   4.187   9.691 -1.8901  1.0129 -0.0882
 1259SOL    HW215240   4.586   4.187   9.687 -1.4268 -0.6340  0.6842
 1260SOL     OW15241   0.346   1.884  12.190 -0.0441 -0.2041  0.5919
 1260SOL    HW115242   0.304   1.965  12.162  0.4546 -0.2098 -0.1762
 1260SOL    HW215243   0.270   1.827  12.174  0.4032  0.2461 -3.2028
 1261SOL     OW15244   2.693   3.158   4.591 -0.1304  0.1402  0.0432
 1261SOL    HW115245   2.714   3.102   4.516  1.6718  0.8003  0.0542
 1261SOL    HW215246   2.680   3.093   4.659  0.1125  1.4076  1.3021
 1262SOL     OW15247   0.220   4.146   5.856 -0.1038 -0.3040  0.2864
 1262SOL    HW115248   0.260   4.139   5.943  1.8172  1.3728 -0.4693
 1262SOL    HW215249   0.137   4.187   5.877  0.1790  1.5854 -2.3380
 1263SOL     OW15250   2.762   0.329  17.665 -0.1208  0.1536 -0.1837
 1263SOL    HW115251   2.723   0.405   0.005 -1.4452 -0.0894 -0.9628
 1263SOL    HW215252   2.854   0.355  17.664  0.7599 -2.8398  2.7269
 1264SOL     OW15253   0.784   1.280   2.321 -0.3084 -0.2820  0.3835
 1264SOL    HW115254   0.823   1.364   2.301 -1.4409  0.2694  0.4788
 1264SOL    HW215255   0.813   1.268   2.411 -2.3590  0.5056  1.1533
 1265SOL     OW15256   0.215   3.419  13.886 -0.0779  0.3899  0.5498
 1265SOL    HW115257   0.123   3.420  13.914 -0.8554  0.8923 -1.9507
 1265SOL    HW215258   0.194   3.427  13.793 -1.2127 -0.8299  0.6935
 1266SOL     OW15259   0.195   3.827   9.593  0.1467 -0.3803  0.2497
 1266SOL    HW115260   0.161   3.887   9.659 -1.0508 -1.8291  0.9630
 1266SOL    HW215261   0.252   3.766   9.640 -0.2160  1.0075  2.4933
 1267SOL     OW15262   1.098   0.813  10.687 -0.4332  0.2467 -0.1828
 1267SOL    HW115263   1.025   0.826  10.748  0.6766  1.1597  0.9439
 1267SOL    HW215264   1.080   0.726  10.653 -1.0258  0.5507 -0.6597
 1268SOL     OW15265   2.917   4.286   8.640 -0.4304  0.4418  0.2905
 1268SOL    HW115266   2.977   4.250   8.574 -0.6505  0.5874  0.0109
 1268SOL    HW215267   2.835   4.238   8.631 -0.1341 -0.0936  0.4008
 1269SOL     OW15268   2.052   4.470  13.249 -0.0011 -0.0500  0.3579
 1269SOL    HW115269   2.143   4.492  13.269  0.4741  1.1860 -3.1876
 1269SOL    HW215270   2.060   4.379  13.221 -0.1951  0.7061 -2.2281
 1270SOL     OW15271   1.641   3.661   4.128 -0.1201  0.1443  0.2913
 1270SOL    HW115272   1.632   3.567   4.139 -0.3124 -0.0666 -1.6967
 1270SOL    HW215273   1.555   3.681   4.092  0.2546 -0.1215 -0.7620
 1271SOL     OW15274   3.842   2.760   6.635 -0.3994 -0.7075  0.8906
 1271SOL    HW115275   3.883   2.840   6.602 -2.3342  0.0208  0.2611
 1271SOL    HW215276   3.894   2.691   6.594  1.2128  0.6955  0.5914
 1272SOL     OW15277   2.463   2.632   4.993 -1.2361  0.2070  0.0704
 1272SOL    HW115278   2.396   2.642   4.925 -2.6860 -1.8891  1.1947
 1272SOL    HW215279   2.484   2.725   5.006  0.0066  0.0002 -0.5328
 1273SOL     OW15280   0.560   4.062  13.206  0.1526  0.2559  0.2737
 1273SOL    HW115281   0.538   4.048  13.114  0.4343  2.1023 -0.0848
 1273SOL    HW215282   0.556   4.158  13.205 -0.3386  0.2470  1.9769
 1274SOL     OW15283   2.733   1.798   3.093  0.5942  0.1727 -0.3325
 1274SOL    HW115284   2.783   1.879   3.079  1.2187 -0.4156 -1.4806
 1274SOL    HW215285   2.807   1.740   3.077 -0.5392 -1.1396 -0.7888
 1275SOL     OW15286   4.344   1.604   5.003  0.7322  0.3326  0.1179
 1275SOL    HW115287   4.281   1.584   4.933  1.2442 -1.6315  0.2063
 1275SOL    HW215288   4.302   1.559   5.077  0.7114  0.4012  0.1477
 1276SOL     OW15289   4.289   3.524   7.173  0.9726  0.8756 -0.1297
 1276SOL    HW115290   4.263   3.597   7.229 -1.5997  0.5174 -0.8422
 1276SOL    HW215291   4.239   3.548   7.095 -0.7353  4.5269  2.0984
 1277SOL     OW15292   0.808   3.479  16.287 -0.0636 -0.0178 -0.5464
 1277SOL    HW115293   0.831   3.537  16.360  0.4080 -0.8497 -0.0409
 1277SOL    HW215294   0.810   3.397  16.335  0.7111  0.4431  0.2134
 1278SOL     OW15295   4.334   0.843  16.338 -0.1421 -0.2628  0.3529
 1278SOL    HW115296   4.249   0.802  16.353 -0.6024  0.5120 -0.1523
 1278SOL    HW215297   4.399   0.773  16.349  0.2343  0.3166  1.8001
 1279SOL     OW15298   0.098   4.472   5.742 -0.1635  0.1429  0.3984
 1279SOL    HW115299   0.004   4.490   5.737  0.0390  2.0616  3.2704
 1279SOL    HW215300   0.104   4.454   5.836  0.4436 -1.1645  0.1029
 1280SOL     OW15301   1.556   2.232   5.807  0.7018 -0.3376  0.6816
 1280SOL    HW115302   1.642   2.269   5.787  1.5784 -1.4228  2.4478
 1280SOL    HW215303   1.503   2.308   5.783 -0.8803 -1.5987  0.2409
 1281SOL     OW15304   1.385   4.420  15.930 -0.1633 -0.6641  0.0475
 1281SOL    HW115305   1.414   4.464  15.850  0.8737  1.0615  1.3858
 1281SOL    HW215306   1.345   4.492  15.978  0.8616 -0.7713  1.0455
 1282SOL     OW15307   0.773   2.532   5.399 -0.2539  0.7271  0.5614
 1282SOL    HW115308   0.765   2.439   5.423 -1.4633  0.3934 -1.1625
 1282SOL    HW215309   0.702   2.561   5.455  1.0352  3.3452  0.8419
 1283SOL     OW15310   1.971   4.700   8.592 -0.0830 -0.5337 -0.0504
 1283SOL    HW115311   1.899   0.018   8.637 -0.6621 -1.7752  0.2372
 1283SOL    HW215312   1.926   4.661   8.517  2.2034  1.5517 -2.4743
 1284SOL     OW15313   0.925   0.911   0.842  0.2451 -0.0574 -0.1586
 1284SOL    HW115314   0.917   0.853   0.767 -0.2319 -0.8623  0.5076
 1284SOL    HW215315   1.004   0.876   0.884 -1.1739  0.1102  2.6772
 1285SOL     OW15316   3.065   1.360   1.904 -0.0099  0.0161  0.6688
 1285SOL    HW115317   3.050   1.447   1.868 -1.2620 -0.3811  0.2052
 1285SOL    HW215318   3.161   1.363   1.908  0.1885 -0.0934 -3.9060
 1286SOL     OW15319   2.445   2.248   5.746 -0.2369  0.1290 -0.0994
 1286SOL    HW115320   2.538   2.270   5.736 -0.2396 -0.0316 -0.4834
 1286SOL    HW215321   2.407   2.334   5.767  0.8689  0.2183  1.5582
 1287SOL     OW15322   4.354   2.256   0.386 -0.2328 -0.3278  0.1254
 1287SOL    HW115323   4.435   2.299   0.360 -0.9703  1.6667  1.0485
 1287SOL    HW215324   4.378   2.229   0.475  0.8597  0.2105 -0.0086
 1288SOL     OW15325   0.482   0.593   1.200  0.0820 -0.0114 -0.2333
 1288SOL    HW115326   0.492   0.677   1.156 -0.2883 -0.7031 -1.6663
 1288SOL    HW215327   0.456   0.618   1.288  2.3075 -2.2915  1.0888
 1289SOL     OW15328   1.103   3.973   6.908  0.0601 -0.1329 -0.2893
 1289SOL    HW115329   1.081   3.972   7.001  0.1367  4.2601 -0.2243
 1289SOL    HW215330   1.160   3.896   6.913 -0.3278 -0.4182 -0.1750
 1290SOL     OW15331   0.519   0.885   2.252 -0.1618 -0.0925 -0.0478
 1290SOL    HW115332   0.501   0.976   2.226 -0.6709  0.2096  1.3360
 1290SOL    HW215333   0.605   0.901   2.291  0.3247  0.0092 -1.1693
 1291SOL     OW15334   0.198   0.492  13.416  0.3177  0.4313  0.2895
 1291SOL    HW115335   0.153   0.539  13.346 -1.4734  1.1890  1.9540
 1291SOL    HW215336   0.146   0.412  13.405  0.5793  0.1155  1.4384
 1292SOL     OW15337   2.305   4.132   7.110 -0.6582 -0.1708  0.2993
 1292SOL    HW115338   2.282   4.199   7.047 -0.9714  0.9055  1.5681
 1292SOL    HW215339   2.306   4.051   7.059 -2.0967  0.5367 -0.8584
 1293SOL     OW15340   1.285   1.517   7.768  0.0058 -0.4519 -0.0353
 1293SOL    HW115341   1.372   1.478   7.761 -0.0374 -0.4626 -0.4690
 1293SOL    HW215342   1.308   1.579   7.838 -0.7520 -0.7815  0.5030
 1294SOL     OW15343   1.152   2.812   0.370 -0.7266 -0.1030 -0.1038
 1294SOL    HW115344   1.178   2.857   0.289 -0.4849  2.2008  1.2507
 1294SOL    HW215345   1.157   2.722   0.339  1.3871  0.3815 -1.2119
 1295SOL     OW15346   0.791   3.407  16.025  0.0537  0.5424 -0.0886
 1295SOL    HW115347   0.884   3.386  16.015  0.0513 -0.0239  1.0773
 1295SOL    HW215348   0.787   3.423  16.119 -3.2124 -1.2849  0.1128
 1296SOL     OW15349   2.573   2.288  13.566  0.4546 -0.3490  0.6811
 1296SOL    HW115350   2.577   2.368  13.514  0.2366 -1.0296 -0.4037
 1296SOL    HW215351   2.638   2.240  13.513 -0.4815  1.3190 -1.9711
 1297SOL     OW15352   1.067   1.301   9.161  0.2537 -0.2705  0.3122
 1297SOL    HW115353   1.161   1.320   9.156  0.2968 -0.9025 -1.3147
 1297SOL    HW215354   1.046   1.311   9.254  0.1839  0.5654  0.2057
 1298SOL     OW15355   4.670   4.441  15.281  0.0417  0.0721  0.1324
 1298SOL    HW115356   0.035   4.467  15.266 -0.9440  3.4663 -0.0752
 1298SOL    HW215357   4.676   4.360  15.331 -0.5071 -0.2056 -0.2463
 1299SOL     OW15358   3.004   2.194   4.930 -0.2733  0.1930  0.0684
 1299SOL    HW115359   3.096   2.178   4.946 -0.8593  0.6184  3.9482
 1299SOL    HW215360   2.986   2.277   4.976  0.7057 -0.0871  0.9346
 1300SOL     OW15361   4.190   0.763   1.066  0.2856 -0.2269 -0.5155
 1300SOL    HW115362   4.197   0.851   1.028  0.4481 -0.6369 -1.4215
 1300SOL    HW215363   4.282   0.748   1.089 -0.6253 -0.9456  2.5889
 1301SOL     OW15364   3.183   1.584  12.565  0.6472 -0.1185  0.3777
 1301SOL    HW115365   3.154   1.493  12.576 -1.2195  0.5041  0.7145
 1301SOL    HW215366   3.111   1.618  12.513  0.4918 -0.1828  0.5483
 1302SOL     OW15367   2.967   1.850   7.174 -0.4052 -0.6101 -0.0854
 1302SOL    HW115368   3.039   1.805   7.130  0.9587  1.7120 -0.2668
 1302SOL    HW215369   2.903   1.785   7.148 -0.1745 -2.0080  2.8170
 1303SOL     OW15370   0.082   1.745  16.019  0.6986  0.5056 -0.0611
 1303SOL    HW115371   0.044   1.693  15.948 -3.6790  1.1391  1.8170
 1303SOL    HW215372   0.002   1.790  16.047  0.3334 -0.1750 -0.0191
 1304SOL     OW15373   4.043   4.055   4.386  0.9697  0.2194  0.3728
 1304SOL    HW115374   4.064   4.019   4.300 -0.2384  0.3468  0.0202
 1304SOL    HW215375   4.133   4.072   4.413  0.8475  3.1746 -1.1101
 1305SOL     OW15376   2.499   3.232  17.697  0.1945  0.1962 -0.3383
 1305SOL    HW115377   2.541   3.284  17.629 -1.1389  1.8538  0.1068
 1305SOL    HW215378   2.546   3.271   0.066 -0.0561  0.2539 -0.2088
 1306SOL     OW15379   0.247   0.260   2.439  0.1451 -0.1309 -0.5332
 1306SOL    HW115380   0.185   0.320   2.397  1.3833  0.4090 -1.5946
 1306SOL    HW215381   0.249   0.275   2.533 -1.4359 -1.5017 -0.2686
 1307SOL     OW15382   0.055   3.852  12.207 -0.1994 -0.1869  0.1587
 1307SOL    HW115383   0.141   3.811  12.202  0.9760  2.1544  0.8808
 1307SOL    HW215384   0.021   3.819  12.124  0.7502  1.8423 -1.0465
 1308SOL     OW15385   2.072   1.431   0.338 -0.5440  0.4659  0.6127
 1308SOL    HW115386   2.095   1.509   0.288  0.6054 -0.3870 -0.1613
 1308SOL    HW215387   2.000   1.401   0.282  2.2007 -3.1239 -0.9095
 1309SOL     OW15388   3.953   2.032   3.723  0.5289 -0.2823 -0.4459
 1309SOL    HW115389   3.932   2.103   3.663  0.9768  0.9570  0.8549
 1309SOL    HW215390   4.046   2.049   3.741  0.2490  0.0490  0.7236
 1310SOL     OW15391   1.635   1.475   3.920  0.4732 -0.2817  0.1213
 1310SOL    HW115392   1.666   1.485   3.830 -0.2037  1.5847  0.0777
 1310SOL    HW215393   1.620   1.382   3.935  0.4140 -0.5105 -1.3642
 1311SOL     OW15394   4.700   0.237  14.652 -0.0227 -0.3483  0.3286
 1311SOL    HW115395   4.654   0.170  14.602  1.9654 -1.0338 -0.5994
 1311SOL    HW215396   4.640   0.312  14.651 -3.0087 -2.7461  0.3388
 1312SOL     OW15397   1.072   4.612   7.416  0.0076  0.4811 -0.5572
 1312SOL    HW115398   1.140   4.589   7.479  1.2134  2.1770 -1.2386
 1312SOL    HW215399   1.119   4.686   7.378 -1.0123  0.4177 -1.9553
 1313SOL     OW15400   1.686   2.754   5.168  0.3796  1.1035 -0.1342
 1313SOL    HW115401   1.639   2.768   5.250 -2.0216 -1.3785 -1.0701
 1313SOL    HW215402   1.694   2.659   5.174 -0.3822  1.1643  1.8806
 1314SOL     OW15403   1.123   2.644   8.376 -0.1319  0.0472 -0.7281
 1314SOL    HW115404   1.192   2.587   8.410  0.0252  1.2346  0.9260
 1314SOL    HW215405   1.173   2.724   8.362 -0.9002  0.5880 -0.4199
 1315SOL     OW15406   0.786   4.191   9.295  0.1122  0.6238 -0.2348
 1315SOL    HW115407   0.768   4.156   9.382  0.1585  0.4414 -0.2988
 1315SOL    HW215408   0.882   4.189   9.288  0.2421  0.6259  1.5475
 1316SOL     OW15409   4.228   1.221   2.082 -0.4067  0.1695 -0.1845
 1316SOL    HW115410   4.275   1.278   2.020 -0.4986 -0.8487 -1.1935
 1316SOL    HW215411   4.307   1.173   2.108 -1.5655 -0.5288  2.0256
 1317SOL     OW15412   3.508   2.299   1.936  0.0283  0.1163 -0.0246
 1317SOL    HW115413   3.486   2.227   1.878  0.7257  0.1085 -0.2746
 1317SOL    HW215414   3.542   2.358   1.868  1.7908 -2.1739 -1.1141
 1318SOL     OW15415   2.592   3.052  11.993 -0.3614  0.0851  0.1139
 1318SOL    HW115416   2.534   2.990  11.951  1.0002 -1.6139  0.7479
 1318SOL    HW215417   2.547   3.084  12.070  1.1290 -1.6498  1.7009
 1319SOL     OW15418   0.063   2.063   8.212  0.0382 -0.2737 -0.1939
 1319SOL    HW115419   0.099   1.986   8.169  2.0224  1.8388 -2.3314
 1319SOL    HW215420   0.116   2.064   8.292 -0.1389 -3.6793 -0.0548
 1320SOL     OW15421   3.987   0.559   4.929 -0.5083 -0.4457 -0.4352
 1320SOL    HW115422   4.078   0.578   4.907 -0.5578  1.0319  0.5929
 1320SOL    HW215423   3.959   0.649   4.945  1.2235 -0.2139  1.3871
 1321SOL     OW15424   3.092   0.172   2.224  0.1327  0.3556  0.0224
 1321SOL    HW115425   3.066   0.120   2.300  0.0922 -0.0039 -0.2385
 1321SOL    HW215426   3.183   0.146   2.206 -0.0645 -0.1824 -0.1857
 1322SOL     OW15427   3.200   1.575   7.350 -0.3386 -0.3900 -0.3514
 1322SOL    HW115428   3.106   1.561   7.345  0.0092 -2.3254 -1.4008
 1322SOL    HW215429   3.196   1.620   7.434 -1.7161 -2.7787  0.8620
 1323SOL     OW15430   2.472   1.928   0.857 -0.4173  0.1173 -0.2751
 1323SOL    HW115431   2.436   1.902   0.772 -0.2846 -1.4673  0.1535
 1323SOL    HW215432   2.491   1.844   0.899 -2.9923 -0.2759  0.0941
 1324SOL     OW15433   0.069   3.807   8.584 -0.7652  0.1063 -0.0376
 1324SOL    HW115434   0.044   3.792   8.493  1.4263 -0.4810 -0.5257
 1324SOL    HW215435   0.116   3.890   8.591  2.1094 -1.4788 -0.5523
 1325SOL     OW15436   2.780   2.283  13.377  0.5766  0.3488 -0.3038
 1325SOL    HW115437   2.737   2.364  13.351 -1.5636 -1.1037 -1.2197
 1325SOL    HW215438   2.805   2.253  13.290  0.3520 -0.1805 -0.1862
 1326SOL     OW15439   4.511   2.302   3.771 -0.3668 -0.3125 -0.6806
 1326SOL    HW115440   4.547   2.231   3.718  1.5717  0.4541 -0.3991
 1326SOL    HW215441   4.583   2.366   3.767  0.4518 -1.0938  1.2645
 1327SOL     OW15442   2.616   3.674   8.519 -0.2784  0.3645 -0.2203
 1327SOL    HW115443   2.612   3.640   8.609 -3.4572  3.1079  0.6655
 1327SOL    HW215444   2.537   3.727   8.524 -1.4254 -1.4188  0.3156
 1328SOL     OW15445   2.791   2.847   9.524 -0.0261 -0.1269 -0.0274
 1328SOL    HW115446   2.847   2.924   9.517 -0.9544  0.4162 -1.4010
 1328SOL    HW215447   2.785   2.830   9.430  0.8069 -0.6897  0.0155
 1329SOL     OW15448   2.352   1.932   6.402 -0.4004 -0.1069  0.1224
 1329SOL    HW115449   2.438   1.941   6.361 -0.1173  1.1747  0.9774
 1329SOL    HW215450   2.311   1.861   6.354  0.4916 -1.6087  1.6005
 1330SOL     OW15451   4.552   2.020   6.369  0.6386  0.5713 -0.2372
 1330SOL    HW115452   4.481   1.996   6.429  0.1564 -0.7913 -1.3626
 1330SOL    HW215453   4.630   2.015   6.425  0.0199 -0.3918  0.5487
 1331SOL     OW15454   0.540   0.759   6.094 -0.1962 -0.6607 -0.1391
 1331SOL    HW115455   0.470   0.698   6.070 -2.3411  0.7156  2.5629
 1331SOL    HW215456   0.608   0.699   6.123 -1.4807 -1.8869  0.3533
 1332SOL     OW15457   1.986   1.411  14.836 -0.0747 -0.1767 -0.4562
 1332SOL    HW115458   2.019   1.376  14.753  0.7855  0.8320 -0.5289
 1332SOL    HW215459   1.988   1.506  14.829  0.1427  0.0053  2.0451
 1333SOL     OW15460   0.633   4.644   1.212 -0.0915  0.0382  0.1651
 1333SOL    HW115461   0.620   0.009   1.184 -0.9872 -1.2232 -3.5518
 1333SOL    HW215462   0.707   4.652   1.273  0.2863  1.3655 -0.4749
 1334SOL     OW15463   2.709   1.540   6.627 -0.0074  0.6716 -0.1737
 1334SOL    HW115464   2.747   1.617   6.670 -0.5961 -0.2315  2.0051
 1334SOL    HW215465   2.787   1.507   6.582  1.6578  1.1466  2.3582
 1335SOL     OW15466   2.658   0.481   0.340 -0.2442  0.7883 -0.1509
 1335SOL    HW115467   2.636   0.482   0.247 -1.1874  0.8927  0.0707
 1335SOL    HW215468   2.601   0.550   0.375  0.1827  0.8857  0.3436
 1336SOL     OW15469   0.657   4.295   9.086  0.4276  0.2983  0.2019
 1336SOL    HW115470   0.606   4.216   9.069 -1.0460  0.8487  2.1915
 1336SOL    HW215471   0.703   4.272   9.167  2.4144  1.4532 -0.6080
 1337SOL     OW15472   0.417   4.053  14.299 -0.3897  0.0249 -0.3689
 1337SOL    HW115473   0.430   4.085  14.389 -0.6636  0.3083 -0.4303
 1337SOL    HW215474   0.389   4.134  14.257 -0.2761 -0.7640 -1.9416
 1338SOL     OW15475   3.144   2.337   6.674  0.9017  0.6012 -0.3146
 1338SOL    HW115476   3.170   2.291   6.754 -1.7083  1.2568  0.9227
 1338SOL    HW215477   3.084   2.400   6.713  0.0127 -0.7615  0.5326
 1339SOL     OW15478   0.740   0.488  12.376 -0.0911  0.4540  0.0276
 1339SOL    HW115479   0.685   0.412  12.357  0.1332  0.2601  0.1546
 1339SOL    HW215480   0.815   0.442  12.414  1.2359  1.5623 -1.2754
 1340SOL     OW15481   1.270   0.954   3.700  0.2654  0.0842 -0.1893
 1340SOL    HW115482   1.204   0.892   3.729 -2.4081  2.3999 -1.2967
 1340SOL    HW215483   1.226   1.007   3.634  1.2026  1.6694  0.4291
 1341SOL     OW15484   0.505   4.011  15.732 -0.3425  0.2837  0.0866
 1341SOL    HW115485   0.553   3.986  15.812  1.2666  3.6649  0.1595
 1341SOL    HW215486   0.483   3.930  15.686 -0.8011  1.0370 -1.0084
 1342SOL     OW15487   1.482   1.830   5.011 -0.0798 -0.4558 -0.7893
 1342SOL    HW115488   1.547   1.781   5.061 -0.1752 -1.7090 -1.9048
 1342SOL    HW215489   1.530   1.809   4.932  0.0209 -1.3568 -0.4839
 1343SOL     OW15490   3.926   1.992   6.822 -0.4960  0.1186 -0.4234
 1343SOL    HW115491   3.902   1.967   6.912 -1.7408 -1.7776 -1.2757
 1343SOL    HW215492   3.890   1.913   6.781  0.0246  0.0632 -0.7650
 1344SOL     OW15493   1.412   2.858   3.743 -0.1509  0.0037  0.4794
 1344SOL    HW115494   1.505   2.833   3.748 -0.5533 -1.5656  0.1512
 1344SOL    HW215495   1.413   2.930   3.680 -0.4429 -1.6438 -1.3876
 1345SOL     OW15496   3.183   2.138   8.342 -0.1883  0.6528 -0.4869
 1345SOL    HW115497   3.259   2.093   8.306 -0.8930 -0.8985  0.0056
 1345SOL    HW215498   3.156   2.073   8.406  0.6874  0.2793 -0.4959
 1346SOL     OW15499   4.340   3.416   8.982  0.2538 -0.0776  0.0339
 1346SOL    HW115500   4.346   3.473   9.059  0.2704 -0.1180  0.0625
 1346SOL    HW215501   4.245   3.407   8.969  0.2508  0.7668 -0.4960
 1347SOL     OW15502   0.082   3.053  13.209 -0.9973 -0.1931  0.0160
 1347SOL    HW115503   0.112   2.983  13.151 -0.9066  1.1551 -1.5641
 1347SOL    HW215504   0.159   3.052  13.265  0.9978 -0.1662 -2.7523
 1348SOL     OW15505   1.676   0.952  11.185 -0.2186 -0.1006  0.2033
 1348SOL    HW115506   1.724   1.007  11.248  0.1571 -1.7232  1.3483
 1348SOL    HW215507   1.747   0.908  11.138 -0.1940  0.2588 -0.0866
 1349SOL     OW15508   3.627   0.977   2.764  0.3571  0.4977  0.0685
 1349SOL    HW115509   3.555   1.000   2.705 -0.3683  1.6873  1.4089
 1349SOL    HW215510   3.634   0.883   2.749  0.9689 -0.1983  4.6975
 1350SOL     OW15511   1.603   0.613  14.293 -0.6421 -0.2790 -0.0267
 1350SOL    HW115512   1.524   0.596  14.242 -0.3822 -2.3233  0.2323
 1350SOL    HW215513   1.595   0.546  14.361 -2.2422  0.4906  0.5369
 1351SOL     OW15514   1.242   1.817  14.161  0.4038 -0.0868  0.1783
 1351SOL    HW115515   1.238   1.818  14.257  2.6058  0.4959  0.2543
 1351SOL    HW215516   1.229   1.724  14.143 -1.7081  0.4208 -0.9617
 1352SOL     OW15517   2.212   3.958   2.071 -0.2522  0.1711  0.0475
 1352SOL    HW115518   2.225   3.942   1.977  1.0297  0.1369  0.2333
 1352SOL    HW215519   2.117   3.962   2.068 -0.2039  1.2742  0.0529
 1353SOL     OW15520   2.916   3.213   7.726 -0.4340 -0.0102 -0.0837
 1353SOL    HW115521   2.924   3.272   7.650  2.1494 -0.2773 -0.0341
 1353SOL    HW215522   2.871   3.273   7.785 -0.0966 -0.6575  0.8188
 1354SOL     OW15523   3.425   3.393   5.560  0.0587 -0.0805  0.0422
 1354SOL    HW115524   3.471   3.454   5.502 -1.8302  0.7690 -0.5691
 1354SOL    HW215525   3.504   3.356   5.599  1.5937  1.3824 -1.6672
 1355SOL     OW15526   4.662   0.816  10.618  0.3929 -0.1651  0.0149
 1355SOL    HW115527   4.697   0.888  10.672 -0.7599 -0.1409  0.7306
 1355SOL    HW215528   4.592   0.868  10.579 -0.3236  0.1380  1.6724
 1356SOL     OW15529   0.828   1.444   2.888 -0.1169  0.1092 -0.6167
 1356SOL    HW115530   0.830   1.534   2.856 -0.4958  0.4696  0.4073
 1356SOL    HW215531   0.832   1.391   2.808  0.0733  2.1016 -1.9284
 1357SOL     OW15532   0.330   1.904   7.003  0.5155 -0.5385 -0.3605
 1357SOL    HW115533   0.238   1.931   7.007  0.7243 -0.2048  2.0279
 1357SOL    HW215534   0.349   1.927   6.912  0.6769 -2.6950 -0.8728
 1358SOL     OW15535   1.413   0.685  14.078 -0.3710 -0.3690 -0.2833
 1358SOL    HW115536   1.475   0.756  14.096  1.7499 -1.6617 -2.6222
 1358SOL    HW215537   1.453   0.637  14.006 -2.5588 -1.8037 -0.5341
 1359SOL     OW15538   3.366   4.338   3.914 -0.0812 -0.2359  0.0996
 1359SOL    HW115539   3.443   4.394   3.908  1.0459 -1.5465  2.2997
 1359SOL    HW215540   3.394   4.266   3.857  0.7035  0.2231 -0.0984
 1360SOL     OW15541   2.149   4.598  12.275 -0.4024 -0.2525  0.1743
 1360SOL    HW115542   2.198   4.588  12.194 -1.5683 -0.8162 -0.4606
 1360SOL    HW215543   2.137   4.693  12.275  0.5032 -0.1443 -1.0876
 1361SOL     OW15544   4.261   0.505  13.369 -0.2360 -0.5475 -0.9211
 1361SOL    HW115545   4.344   0.494  13.415  0.5368  1.1094 -1.9383
 1361SOL    HW215546   4.242   0.412  13.359  2.3589 -1.2503  0.7832
 1362SOL     OW15547   3.473   0.087   4.512 -0.2227 -0.2053 -0.1512
 1362SOL    HW115548   3.479   0.114   4.420  0.2460 -0.7763 -0.2846
 1362SOL    HW215549   3.436   4.725   4.499  3.6906 -2.0630  1.4884
 1363SOL     OW15550   1.713   3.592  13.164  0.3763 -0.1484 -0.3835
 1363SOL    HW115551   1.684   3.518  13.110  1.0150 -0.4241 -0.3428
 1363SOL    HW215552   1.697   3.669  13.110  0.5318 -0.1812 -0.4744
 1364SOL     OW15553   4.449   4.466   9.424  0.0570  0.3609 -1.2536
 1364SOL    HW115554   4.531   4.493   9.464  0.0172 -2.3174  0.6441
 1364SOL    HW215555   4.394   4.470   9.502 -0.8023 -0.0840 -1.8391
 1365SOL     OW15556   0.993   1.959   4.688  0.0381 -0.3133  0.7305
 1365SOL    HW115557   1.008   2.049   4.720 -1.4874  0.1860  0.0000
 1365SOL    HW215558   0.904   1.965   4.655 -0.0515  1.0812  1.2181
 1366SOL     OW15559   1.422   0.014  11.982 -0.0932 -0.5747  0.0639
 1366SOL    HW115560   1.511   0.004  12.017  0.2336  1.0573 -0.2799
 1366SOL    HW215561   1.402   0.102  12.014 -0.7669 -0.5824 -0.3535
 1367SOL     OW15562   3.247   3.718   4.517 -0.1348  0.6672  0.2888
 1367SOL    HW115563   3.339   3.709   4.492 -0.6817 -1.6429 -0.9161
 1367SOL    HW215564   3.222   3.628   4.499 -2.3910  1.2230  0.7050
 1368SOL     OW15565   3.754   3.286   8.604 -0.1206 -0.2220  0.1740
 1368SOL    HW115566   3.811   3.210   8.592 -1.0595 -0.4824 -2.5880
 1368SOL    HW215567   3.773   3.337   8.526  0.5205  0.8475  1.0423
 1369SOL     OW15568   2.358   3.638   7.711 -0.2118 -0.1536 -0.0304
 1369SOL    HW115569   2.355   3.628   7.616  0.1272 -0.0654 -0.0509
 1369SOL    HW215570   2.269   3.609   7.732  0.2314 -1.2751  0.3363
 1370SOL     OW15571   4.458   1.890  17.530 -0.0860 -0.0188 -0.1166
 1370SOL    HW115572   4.404   1.934  17.595  1.5694  0.4351  0.9582
 1370SOL    HW215573   4.527   1.954  17.509 -1.2370  0.7499 -1.5664
 1371SOL     OW15574   0.065   3.119   0.290  0.1582  0.1129  0.2686
 1371SOL    HW115575   0.053   3.133   0.196 -0.2299  0.8302  0.4245
 1371SOL    HW215576   0.030   3.198   0.331  0.1146  0.3432 -0.2276
 1372SOL     OW15577   3.364   3.507   0.860 -0.2872 -0.2610 -0.0331
 1372SOL    HW115578   3.377   3.601   0.844 -1.4943  0.2105  1.6873
 1372SOL    HW215579   3.273   3.491   0.835 -0.2353 -1.7009  0.7334
 1373SOL     OW15580   0.213   1.362  15.100 -0.2115 -0.0533  0.5789
 1373SOL    HW115581   0.200   1.452  15.129 -0.7682  1.0478 -3.0955
 1373SOL    HW215582   0.181   1.377  15.011 -0.7349 -1.6208  0.4957
 1374SOL     OW15583   4.588   2.816   8.626 -0.1777  0.5331  0.0894
 1374SOL    HW115584   4.602   2.910   8.613 -0.0752  0.5435  0.2723
 1374SOL    HW215585   4.641   2.797   8.703  1.5914 -1.8371 -1.6902
 1375SOL     OW15586   0.781   3.120   1.911  0.4278 -0.0264  0.7059
 1375SOL    HW115587   0.702   3.131   1.963 -0.3572 -0.9351 -0.2884
 1375SOL    HW215588   0.780   3.025   1.897 -2.8182  0.1056  0.0275
 1376SOL     OW15589   2.578   0.418   8.483 -0.1100 -0.2568  0.3396
 1376SOL    HW115590   2.504   0.389   8.536  0.5262 -1.7193  0.4142
 1376SOL    HW215591   2.615   0.484   8.543  1.1133 -1.4364  0.8919
 1377SOL     OW15592   2.583   4.298  17.607  0.1315  0.0043 -0.4652
 1377SOL    HW115593   2.519   4.365  17.630  0.1644 -0.7527  1.8490
 1377SOL    HW215594   2.533   4.218  17.622 -1.1047  0.4918 -1.9286
 1378SOL     OW15595   2.717   3.752  15.668 -0.6953  0.4579  0.1174
 1378SOL    HW115596   2.746   3.732  15.757 -0.9842 -0.5376 -0.0033
 1378SOL    HW215597   2.735   3.671  15.620  0.5017  0.8328 -0.0590
 1379SOL     OW15598   1.781   0.376   4.579 -0.3194  0.1324  0.1267
 1379SOL    HW115599   1.859   0.387   4.525 -1.7116 -0.3648 -1.9581
 1379SOL    HW215600   1.812   0.368   4.669  2.9315  6.1013 -0.4814
 1380SOL     OW15601   3.131   2.886   7.643  0.1113  0.1927  0.4461
 1380SOL    HW115602   3.050   2.905   7.596  0.3671 -1.3477 -0.6395
 1380SOL    HW215603   3.100   2.825   7.710 -0.6524  0.3448  0.2336
 1381SOL     OW15604   2.878   0.304   0.326  0.7425  0.6008 -0.0103
 1381SOL    HW115605   2.833   0.228   0.291 -3.2305  2.7928  0.3801
 1381SOL    HW215606   2.801   0.354   0.353 -0.4498 -0.5135 -1.3986
 1382SOL     OW15607   4.161   3.663   8.840  0.2141 -0.0405 -0.2848
 1382SOL    HW115608   4.172   3.756   8.823  1.1740 -0.6036 -2.7246
 1382SOL    HW215609   4.212   3.643   8.919 -0.0323 -0.9885 -0.3602
 1383SOL     OW15610   0.917   4.630   9.274  1.1786 -0.1311 -0.0359
 1383SOL    HW115611   0.848   4.577   9.315  1.0511 -0.7073 -1.0211
 1383SOL    HW215612   0.993   4.571   9.276  0.7997 -0.5928  0.9477
 1384SOL     OW15613   2.262   1.187  10.008 -0.3613 -0.0189 -0.2501
 1384SOL    HW115614   2.309   1.152  10.083  0.9418 -0.5670 -1.3094
 1384SOL    HW215615   2.330   1.179   9.940 -2.1350 -0.3416 -1.9872
 1385SOL     OW15616   3.743   4.607   8.774  0.3345 -0.4423  0.6905
 1385SOL    HW115617   3.663   4.659   8.770  0.3221 -0.2941  2.5292
 1385SOL    HW215618   3.738   4.566   8.688  4.0189 -0.0905  0.2937
 1386SOL     OW15619   1.525   1.449   3.328 -0.3441 -1.2102 -0.4063
 1386SOL    HW115620   1.511   1.523   3.270  0.4784  0.9882  2.1898
 1386SOL    HW215621   1.619   1.453   3.349 -0.6086 -1.6915  0.9060
 1387SOL     OW15622   2.642   3.450   2.901 -0.1520 -0.3984 -0.3068
 1387SOL    HW115623   2.705   3.470   2.971  0.3415 -0.7071 -0.6630
 1387SOL    HW215624   2.682   3.375   2.858  1.7190 -0.1810  1.0254
 1388SOL     OW15625   1.039   0.678   5.941  0.2773  0.5690 -0.6076
 1388SOL    HW115626   1.134   0.673   5.949  0.2799 -0.0886 -1.0545
 1388SOL    HW215627   1.024   0.646   5.852  0.0897  0.6164 -0.5941
 1389SOL     OW15628   0.914   0.021   2.133 -0.2320 -0.3934 -0.1750
 1389SOL    HW115629   0.882   4.676   2.077  1.9236 -0.5488 -1.1875
 1389SOL    HW215630   0.957   0.084   2.075 -0.5053  0.3998  0.4790
 1390SOL     OW15631   3.752   3.830   4.941 -0.5865  0.4410 -0.3775
 1390SOL    HW115632   3.713   3.853   5.026 -0.8487 -2.0069  0.1457
 1390SOL    HW215633   3.841   3.864   4.949 -1.1251  2.1016 -1.3337
 1391SOL     OW15634   2.022   2.688  12.234  0.1049  0.0916 -0.0897
 1391SOL    HW115635   2.054   2.641  12.157 -0.2246  3.0648 -2.0415
 1391SOL    HW215636   2.025   2.612  12.292 -3.7499 -0.9144 -1.2478
 1392SOL     OW15637   4.647   1.383   5.155 -0.2661  1.0149 -0.1021
 1392SOL    HW115638   4.686   1.296   5.143  0.0053  1.0658  0.3932
 1392SOL    HW215639   4.633   1.397   5.249  0.7769 -0.1259  0.2268
 1393SOL     OW15640   2.196   3.501   3.799 -0.1380 -0.2922 -0.2030
 1393SOL    HW115641   2.171   3.593   3.795  1.6036  0.0887 -2.2784
 1393SOL    HW215642   2.192   3.484   3.705 -1.3192  1.2705 -0.4380
 1394SOL     OW15643   0.849   4.689   3.256  0.3029 -0.2797 -0.5018
 1394SOL    HW115644   0.847   4.594   3.262  1.5754 -0.3024 -0.6372
 1394SOL    HW215645   0.797   4.713   3.179  1.6085  0.4949 -1.1405
 1395SOL     OW15646   4.101   1.021   5.150 -0.5582 -0.2577  0.1405
 1395SOL    HW115647   4.039   1.060   5.087 -0.7139 -0.5364  0.1218
 1395SOL    HW215648   4.162   1.095   5.147  0.0293 -0.7072  1.1630
 1396SOL     OW15649   2.027   1.373  15.126  0.0192 -0.3439  0.4200
 1396SOL    HW115650   2.115   1.408  15.125 -0.0559 -0.1477  0.7874
 1396SOL    HW215651   2.017   1.341  15.036  3.3386  0.1398 -0.1239
 1397SOL     OW15652   4.532   2.291   3.040  0.4938 -0.8476  0.3441
 1397SOL    HW115653   4.581   2.305   3.122  1.2573 -0.5243 -0.1705
 1397SOL    HW215654   4.595   2.323   2.976  0.3667 -1.1380  0.0771
 1398SOL     OW15655   0.808   2.232   5.231 -0.1821  0.1148  0.3454
 1398SOL    HW115656   0.755   2.245   5.310  0.3714 -1.1504  0.9358
 1398SOL    HW215657   0.867   2.307   5.230 -0.0420  0.0109  0.7266
 1399SOL     OW15658   3.169   3.488   8.273 -0.4644 -0.2011 -0.0099
 1399SOL    HW115659   3.257   3.461   8.301  0.3791  2.8054  0.2674
 1399SOL    HW215660   3.160   3.562   8.333 -0.3689  0.0779 -0.3403
 1400SOL     OW15661   0.120   4.135  14.033 -0.0763  0.5393  0.8438
 1400SOL    HW115662   0.125   4.211  14.091 -2.6962  0.8290  0.7038
 1400SOL    HW215663   0.202   4.091  14.057 -0.2411  0.4993  1.3397
 1401SOL     OW15664   3.991   4.053   7.999  0.1733 -0.1412 -0.2441
 1401SOL    HW115665   4.074   4.102   7.994 -0.6173  1.0378 -1.9042
 1401SOL    HW215666   4.011   3.969   8.039  2.2500  0.2902 -0.3514
 1402SOL     OW15667   1.220   3.555  10.101  0.1198 -0.5097  0.6197
 1402SOL    HW115668   1.238   3.632  10.154  0.8488  0.3239 -0.8403
 1402SOL    HW215669   1.265   3.567  10.017  1.0347 -5.0705  0.4405
 1403SOL     OW15670   3.302   0.183   7.649 -0.4264 -0.5319 -0.1967
 1403SOL    HW115671   3.296   0.267   7.695  1.3984 -0.6402  0.2437
 1403SOL    HW215672   3.207   0.172   7.639 -0.3370  0.3746 -1.9330
 1404SOL     OW15673   4.143   2.813   4.376 -0.0372  0.3911  0.1060
 1404SOL    HW115674   4.142   2.718   4.363  0.1641 -0.0192  3.0849
 1404SOL    HW215675   4.193   2.820   4.458 -0.3407 -0.1037  0.3353
 1405SOL     OW15676   3.392   2.964   8.452 -0.6590 -0.2488 -0.7493
 1405SOL    HW115677   3.431   3.033   8.505  2.8905 -2.8276 -0.0815
 1405SOL    HW215678   3.330   2.925   8.514 -0.7132  0.1589 -0.5488
 1406SOL     OW15679   3.361   0.770   0.424 -0.5637 -0.4700  0.2327
 1406SOL    HW115680   3.453   0.774   0.397 -1.1942 -0.8681 -2.0234
 1406SOL    HW215681   3.345   0.679   0.399 -1.5287 -0.0937 -0.5129
 1407SOL     OW15682   0.919   3.141  11.404 -0.5241 -0.2283 -0.2994
 1407SOL    HW115683   0.970   3.114  11.327 -1.2759  0.3189 -0.9849
 1407SOL    HW215684   0.849   3.077  11.396  0.1930 -1.0680  0.0540
 1408SOL     OW15685   2.647   0.951   2.589  0.2604 -0.1500  0.4405
 1408SOL    HW115686   2.691   0.991   2.514 -1.1099 -0.3033 -0.4686
 1408SOL    HW215687   2.640   0.859   2.565  2.9651 -0.4718  1.0052
 1409SOL     OW15688   0.072   0.303   3.901 -0.0568 -0.2934 -0.3333
 1409SOL    HW115689   0.023   0.294   3.819  0.3404 -0.4916 -0.5449
 1409SOL    HW215690   0.006   0.349   3.953  1.5872  0.8926  0.6960
 1410SOL     OW15691   2.874   3.473  10.124  0.0411 -0.4944  0.1681
 1410SOL    HW115692   2.783   3.451  10.104 -0.1431 -0.2643  0.7473
 1410SOL    HW215693   2.902   3.414  10.195  1.6850 -0.2193 -0.2481
 1411SOL     OW15694   2.180   4.277   0.380 -0.4191 -0.6375 -0.6857
 1411SOL    HW115695   2.255   4.314   0.426 -1.2479  0.5726 -0.3156
 1411SOL    HW215696   2.191   4.186   0.409  1.1793  0.2185  1.3918
 1412SOL     OW15697   2.561   0.610   7.108  0.7016 -0.1870  0.3268
 1412SOL    HW115698   2.562   0.671   7.034 -0.1631 -0.7669 -0.1729
 1412SOL    HW215699   2.479   0.565   7.088  1.1787 -0.6926 -0.4626
 1413SOL     OW15700   2.314   1.950   6.017 -0.6176 -0.5794 -0.3662
 1413SOL    HW115701   2.310   2.043   6.040  1.6264 -0.5669  0.0216
 1413SOL    HW215702   2.222   1.931   6.001 -0.6671 -1.2706  0.7301
 1414SOL     OW15703   3.356   2.319   7.295 -0.4475 -0.0157 -0.4971
 1414SOL    HW115704   3.387   2.409   7.304 -1.2185  0.1960  0.0240
 1414SOL    HW215705   3.439   2.272   7.286 -1.3447 -2.0334  1.9529
 1415SOL     OW15706   2.696   2.979   7.631  0.0777  0.0503 -0.2727
 1415SOL    HW115707   2.601   2.976   7.619  0.1475  1.3279 -1.1474
 1415SOL    HW215708   2.706   3.014   7.719  0.8190  0.3305 -0.4664
 1416SOL     OW15709   3.914   1.584  14.088 -0.5747  0.3120  0.0625
 1416SOL    HW115710   3.963   1.503  14.102 -1.8923 -0.2535  1.3458
 1416SOL    HW215711   3.844   1.555  14.029  0.4780  2.5652 -2.2948
 1417SOL     OW15712   2.807   1.322   0.156 -0.0889  0.2583  0.1456
 1417SOL    HW115713   2.796   1.316   0.061  4.0074  0.1542 -0.3408
 1417SOL    HW215714   2.901   1.334   0.142 -0.0432 -0.7055 -0.4283
 1418SOL     OW15715   3.482   2.864   6.686 -0.1937 -0.2523 -0.3652
 1418SOL    HW115716   3.400   2.910   6.668 -1.4177 -2.4708 -0.4245
 1418SOL    HW215717   3.479   2.786   6.631 -1.3794 -1.0758  0.8793
 1419SOL     OW15718   3.301   2.383   5.979  0.0829  0.2305 -0.1190
 1419SOL    HW115719   3.310   2.290   6.003  0.3174 -0.4187 -2.7164
 1419SOL    HW215720   3.383   2.421   6.011  1.4459 -0.8302 -2.3240
 1420SOL     OW15721   3.417   1.004   3.432 -0.1165 -0.0585 -0.0197
 1420SOL    HW115722   3.442   1.048   3.513 -1.7226  0.6899  0.0804
 1420SOL    HW215723   3.453   0.918   3.454  0.9425 -0.4832 -3.4302
 1421SOL     OW15724   3.602   2.896   8.284 -0.1065 -0.0173 -0.8755
 1421SOL    HW115725   3.579   2.933   8.369 -2.3694  1.1094 -1.9975
 1421SOL    HW215726   3.517   2.863   8.255  0.1506 -1.6338  0.1907
 1422SOL     OW15727   1.127   1.064   3.483  0.1196 -0.2717  0.6630
 1422SOL    HW115728   1.093   0.988   3.436 -0.6883  1.3178 -1.3160
 1422SOL    HW215729   1.191   1.108   3.426  0.5514 -1.9480 -0.1312
 1423SOL     OW15730   2.053   3.420   5.585  0.2862 -0.0520  0.3065
 1423SOL    HW115731   1.982   3.470   5.627 -0.8375 -0.7628 -0.7690
 1423SOL    HW215732   2.082   3.359   5.653  1.1188 -0.3924 -0.3481
 1424SOL     OW15733   3.974   3.368   4.565 -0.2304 -0.3186  0.2067
 1424SOL    HW115734   3.907   3.398   4.627 -0.1631  1.0461 -0.3849
 1424SOL    HW215735   4.026   3.300   4.607  0.1462  1.7906  3.1735
 1425SOL     OW15736   1.796   1.728   7.436  0.4361 -0.4764 -0.0894
 1425SOL    HW115737   1.747   1.646   7.447 -2.9134  1.7705  1.4393
 1425SOL    HW215738   1.876   1.703   7.482  0.9806  0.0364 -0.7518
 1426SOL     OW15739   1.511   3.042  14.432 -0.0302 -0.1607  0.0743
 1426SOL    HW115740   1.418   3.020  14.424  0.5671 -2.0283 -1.4612
 1426SOL    HW215741   1.542   3.045  14.342 -3.3939  2.9782 -0.9804
 1427SOL     OW15742   4.222   0.718   0.519  0.5372 -0.1677  0.4133
 1427SOL    HW115743   4.249   0.635   0.560 -1.3693 -0.9261  0.1086
 1427SOL    HW215744   4.256   0.785   0.578 -0.7944  2.1339 -1.4643
 1428SOL     OW15745   2.183   0.189  11.228  0.6484 -0.3168 -1.1491
 1428SOL    HW115746   2.123   0.118  11.252  3.6743 -2.1311  0.9205
 1428SOL    HW215747   2.257   0.180  11.287  0.9512  0.8377 -1.3615
 1429SOL     OW15748   4.224   4.389  14.669  0.2835  0.3508  0.0428
 1429SOL    HW115749   4.269   4.337  14.736  1.8185 -1.1387 -2.1266
 1429SOL    HW215750   4.156   4.431  14.722 -0.6239 -0.2794 -0.6214
 1430SOL     OW15751   0.428   0.055   4.154  0.9976  0.0045 -0.5142
 1430SOL    HW115752   0.470   0.055   4.068  3.1413  0.2872  0.5474
 1430SOL    HW215753   0.348   0.005   4.138  0.2832  1.0515 -0.2259
 1431SOL     OW15754   3.917   0.212  12.425  0.0774  0.7176 -0.2676
 1431SOL    HW115755   4.011   0.206  12.438  0.1863 -1.2550 -2.0146
 1431SOL    HW215756   3.911   0.299  12.385 -0.4587  1.0612  0.5496
 1432SOL     OW15757   0.078   0.887   7.383 -0.2022  0.1986  1.1492
 1432SOL    HW115758   0.159   0.836   7.394 -0.9605 -1.4496 -1.0911
 1432SOL    HW215759   0.097   0.937   7.304 -2.4208 -0.3146  0.3114
 1433SOL     OW15760   0.248   3.521   3.006  0.3601 -0.3553  0.1116
 1433SOL    HW115761   0.339   3.494   3.003  0.8990  1.4343  0.5577
 1433SOL    HW215762   0.206   3.448   2.960  0.5926  0.8704 -2.0536
 1434SOL     OW15763   1.324   0.328  14.755  0.2496  0.1883 -0.2303
 1434SOL    HW115764   1.372   0.373  14.825  0.7730  0.8849 -1.0312
 1434SOL    HW215765   1.233   0.354  14.766 -0.9295 -3.9569 -0.3869
 1435SOL     OW15766   1.837   1.365   6.856 -0.5345  0.0359  0.9374
 1435SOL    HW115767   1.742   1.374   6.841 -0.5055  0.2790  0.8975
 1435SOL    HW215768   1.842   1.272   6.879 -4.9357 -0.7482 -1.2458
 1436SOL     OW15769   4.155   0.925   6.178  0.2921 -0.1560  0.5748
 1436SOL    HW115770   4.121   0.856   6.122  1.2093  0.8991 -1.2640
 1436SOL    HW215771   4.152   0.884   6.265  1.2285 -1.1940  0.1075
 1437SOL     OW15772   0.572   4.101   8.109 -0.6828  0.2807 -0.1778
 1437SOL    HW115773   0.519   4.180   8.100 -1.7096 -0.1425  2.1462
 1437SOL    HW215774   0.509   4.035   8.136 -1.6433  1.4163  0.3467
 1438SOL     OW15775   4.329   4.166  12.189  0.2385  0.2015  0.7727
 1438SOL    HW115776   4.381   4.221  12.129 -0.4850 -1.3468 -1.2877
 1438SOL    HW215777   4.254   4.138  12.136 -0.3284  2.6904  0.2723
 1439SOL     OW15778   3.076   1.399  10.530 -0.3194 -0.1423  1.0719
 1439SOL    HW115779   3.164   1.361  10.524 -0.0888  0.6535 -0.5806
 1439SOL    HW215780   3.082   1.492  10.512  0.6221 -0.1953  1.0796
 1440SOL     OW15781   0.120   1.252   5.038 -0.3093 -0.3748 -0.5492
 1440SOL    HW115782   0.129   1.346   5.023 -1.6198 -0.4743 -1.9105
 1440SOL    HW215783   0.211   1.223   5.029 -0.2832 -0.5723  0.3190
 1441SOL     OW15784   3.943   3.981  17.563  0.4871 -0.1112  0.5583
 1441SOL    HW115785   4.004   3.930  17.617 -0.7877 -0.5122  1.6051
 1441SOL    HW215786   3.898   3.914  17.512 -0.4311  0.5219  0.5323
 1442SOL     OW15787   3.307   0.382   4.373  0.0652 -0.5492 -0.7367
 1442SOL    HW115788   3.312   0.288   4.388  2.8048 -0.5809 -1.9254
 1442SOL    HW215789   3.326   0.384   4.280  0.6294  0.0265 -0.6083
 1443SOL     OW15790   2.009   4.219   3.608 -0.3667 -0.0823  0.2617
 1443SOL    HW115791   1.926   4.266   3.611 -0.8612 -0.8348 -1.6959
 1443SOL    HW215792   2.079   4.284   3.616 -0.7947  0.0255  2.8544
 1444SOL     OW15793   4.120   4.713   9.271  0.1212  1.1091 -0.1098
 1444SOL    HW115794   4.161   0.030   9.346  2.6061 -0.2506 -0.6908
 1444SOL    HW215795   4.053   4.661   9.316 -0.4655  2.0753  0.1459
 1445SOL     OW15796   0.611   0.977   7.441 -0.7315  0.5386 -0.2925
 1445SOL    HW115797   0.610   0.984   7.346 -0.2124 -0.2271 -0.3530
 1445SOL    HW215798   0.581   0.887   7.443  0.0499  0.2879 -0.0125
 1446SOL     OW15799   2.927   0.728  14.660 -0.1748 -0.4780  0.3101
 1446SOL    HW115800   3.015   0.765  14.669 -0.3898 -0.6948  3.2935
 1446SOL    HW215801   2.912   0.683  14.743  1.2720 -0.7239  0.4347
 1447SOL     OW15802   2.061   0.520   6.619  0.6613  0.1297 -0.8359
 1447SOL    HW115803   2.043   0.614   6.609  1.3099  0.4504  0.8451
 1447SOL    HW215804   2.093   0.523   6.710  0.4495 -3.0218 -0.6800
 1448SOL     OW15805   0.120   4.207   4.631 -0.0117 -0.3984 -0.3576
 1448SOL    HW115806   0.154   4.220   4.542  2.7838 -0.9072  0.6437
 1448SOL    HW215807   0.131   4.292   4.673  2.2653 -0.2160 -1.3108
 1449SOL     OW15808   3.982   0.859   7.384  0.1462  0.0638  0.2488
 1449SOL    HW115809   3.981   0.884   7.291 -1.0730 -0.1263  0.2180
 1449SOL    HW215810   4.038   0.923   7.428 -1.1482  0.7553  0.8841
 1450SOL     OW15811   2.599   0.838  15.607  0.2029 -0.3118  0.3771
 1450SOL    HW115812   2.628   0.880  15.525  0.7347 -1.2170  0.0969
 1450SOL    HW215813   2.601   0.744  15.592  0.9318 -0.5147  1.7971
 1451SOL     OW15814   1.318   0.384  13.102 -0.2137 -0.9453  0.0474
 1451SOL    HW115815   1.398   0.387  13.155 -0.0929 -0.5213 -0.1576
 1451SOL    HW215816   1.341   0.441  13.029  0.3825 -1.7717 -0.4085
 1452SOL     OW15817   1.993   2.366   3.115  0.1440  0.0667  0.1588
 1452SOL    HW115818   2.067   2.390   3.059 -1.7964  2.4149 -1.3847
 1452SOL    HW215819   1.917   2.404   3.071 -0.4844  0.0891  1.2789
 1453SOL     OW15820   1.913   0.435   5.362 -0.1875  0.2945 -0.0038
 1453SOL    HW115821   1.884   0.475   5.280  0.6467  1.5514  0.2995
 1453SOL    HW215822   1.970   0.366   5.329  0.5102  0.2768  1.2138
 1454SOL     OW15823   0.343   1.694  17.631  0.9126 -0.0360 -0.3550
 1454SOL    HW115824   0.381   1.607  17.640 -0.1923 -0.8143 -3.3138
 1454SOL    HW215825   0.324   1.725   0.016 -0.1485 -0.5065 -0.4224
 1455SOL     OW15826   4.602   0.751  13.837  0.0088  0.1296  0.2160
 1455SOL    HW115827   4.586   0.839  13.871  1.0155  0.4708 -0.2109
 1455SOL    HW215828   4.687   0.735  13.877 -0.2631  0.7387  1.0288
 1456SOL     OW15829   2.138   2.409   4.460  0.1478 -0.3633  0.2499
 1456SOL    HW115830   2.198   2.484   4.466 -0.4821  0.1233  0.3879
 1456SOL    HW215831   2.097   2.421   4.375 -0.4800  0.3099  0.6543
 1457SOL     OW15832   0.311   2.165  16.270 -0.2999  0.0418  0.3469
 1457SOL    HW115833   0.331   2.072  16.277  0.5022  0.1933  0.0534
 1457SOL    HW215834   0.338   2.187  16.181  0.3378  2.0901  1.0397
 1458SOL     OW15835   3.507   3.718   4.510 -0.2165 -0.3873 -0.1284
 1458SOL    HW115836   3.571   3.730   4.579 -1.9290  0.5883  1.2992
 1458SOL    HW215837   3.534   3.793   4.457  0.2190  0.5591  1.4621
 1459SOL     OW15838   2.626   0.383  12.277  0.3040  0.1693 -0.0397
 1459SOL    HW115839   2.615   0.352  12.367  3.9263 -0.9786  0.0014
 1459SOL    HW215840   2.721   0.395  12.277  0.4358 -0.7856  1.9365
 1460SOL     OW15841   4.043   3.030   8.136  0.1489  0.0047 -0.1152
 1460SOL    HW115842   4.083   2.964   8.193  0.2131 -0.0857 -0.2630
 1460SOL    HW215843   3.963   2.981   8.120 -1.2639  1.5700  2.2544
 1461SOL     OW15844   3.928   1.999   8.656 -0.4051 -0.2759  0.9988
 1461SOL    HW115845   3.976   2.004   8.739 -1.1945  2.6361  1.2506
 1461SOL    HW215846   3.888   1.912   8.663 -0.8219 -0.3008 -1.9127
 1462SOL     OW15847   1.686   0.916   9.985 -0.0700  0.9377 -0.2124
 1462SOL    HW115848   1.745   0.844   9.964 -0.6458  0.5597 -0.5489
 1462SOL    HW215849   1.717   0.956  10.067 -1.4643 -1.3444  1.4376
 1463SOL     OW15850   4.001   2.786   5.502  0.4620  0.0269 -0.0639
 1463SOL    HW115851   4.015   2.701   5.460  0.7424 -0.5094  1.1314
 1463SOL    HW215852   3.960   2.831   5.428 -0.8010  3.2160  2.6192
 1464SOL     OW15853   0.740   0.894  10.231 -0.2277  0.3932  1.2867
 1464SOL    HW115854   0.719   0.976  10.187 -0.3151  0.4069  1.3540
 1464SOL    HW215855   0.657   0.871  10.274 -1.7782  2.8504 -0.4238
 1465SOL     OW15856   3.333   0.902   8.678 -0.0265  0.7049 -0.0359
 1465SOL    HW115857   3.417   0.942   8.701 -0.0273 -0.9695  2.7887
 1465SOL    HW215858   3.320   0.852   8.758  1.6990  0.8169  0.3337
 1466SOL     OW15859   0.834   0.206   2.597  0.3680 -0.5216 -0.1187
 1466SOL    HW115860   0.839   0.145   2.524  0.3984 -0.9273  0.2240
 1466SOL    HW215861   0.922   0.245   2.594  0.4552 -0.9268 -2.5162
 1467SOL     OW15862   3.725   2.120   5.591 -0.2200  0.1955 -0.2603
 1467SOL    HW115863   3.663   2.054   5.621 -0.8574  0.4408 -1.0512
 1467SOL    HW215864   3.708   2.192   5.652  1.2870 -0.3453  0.8144
 1468SOL     OW15865   2.875   0.802   4.367  0.5596  0.0323 -0.3041
 1468SOL    HW115866   2.947   0.863   4.382  0.6188 -0.0968 -0.0675
 1468SOL    HW215867   2.911   0.725   4.410 -0.1078  0.0014  0.2064
 1469SOL     OW15868   0.228   2.332   1.508 -0.5182  1.1454  0.2969
 1469SOL    HW115869   0.139   2.299   1.491  0.8617 -1.7603 -1.3304
 1469SOL    HW215870   0.241   2.384   1.429 -1.9412  2.7727  1.1277
 1470SOL     OW15871   2.642   2.331  16.622  0.2670 -0.7310  0.3892
 1470SOL    HW115872   2.620   2.407  16.570 -0.1080  0.2651  1.9978
 1470SOL    HW215873   2.737   2.333  16.632  0.1389 -1.3801  1.8277
 1471SOL     OW15874   4.299   2.351   5.823  0.9360 -0.3538  0.5362
 1471SOL    HW115875   4.241   2.302   5.882  0.6497  0.9659  1.3691
 1471SOL    HW215876   4.377   2.296   5.824  0.0143 -1.6762 -0.0015
 1472SOL     OW15877   0.693   3.333  16.832 -0.1724  0.3942  0.5612
 1472SOL    HW115878   0.650   3.412  16.801 -0.9764 -1.2001 -2.3136
 1472SOL    HW215879   0.775   3.376  16.855  0.7501 -1.3667  0.5889
 1473SOL     OW15880   4.315   1.981   4.167  0.7258 -0.6000 -0.0221
 1473SOL    HW115881   4.359   2.044   4.224  1.0784 -1.6365  0.8607
 1473SOL    HW215882   4.241   2.040   4.153  0.8126 -0.3546  0.5458
 1474SOL     OW15883   2.137   1.539  12.702 -0.4134 -0.1438  0.0368
 1474SOL    HW115884   2.150   1.560  12.794  1.0699 -0.1554 -0.1650
 1474SOL    HW215885   2.044   1.519  12.699 -0.0283 -1.5253 -3.6069
 1475SOL     OW15886   4.147   0.279  11.612  0.4375 -0.0582 -0.1454
 1475SOL    HW115887   4.108   0.326  11.538  2.4661  3.0552  0.7739
 1475SOL    HW215888   4.235   0.267  11.576  0.1745  1.3878 -1.2305
 1476SOL     OW15889   1.197   4.670   3.553  0.0982  0.4844  0.3312
 1476SOL    HW115890   1.244   0.000   3.615  0.7347 -1.2974  1.4503
 1476SOL    HW215891   1.264   4.662   3.486 -1.3418  0.5914 -1.1242
 1477SOL     OW15892   2.351   4.406   7.353 -0.2620 -0.2747  0.2768
 1477SOL    HW115893   2.288   4.441   7.416  1.5071  0.9297  1.4121
 1477SOL    HW215894   2.335   4.313   7.366  1.9289 -0.5215  1.3133
 1478SOL     OW15895   0.200   1.175   8.623 -0.1667  0.6182  0.0524
 1478SOL    HW115896   0.266   1.144   8.685 -0.7873 -0.7358  0.0468
 1478SOL    HW215897   0.256   1.210   8.555  0.4773  1.6102  1.0995
 1479SOL     OW15898   1.276   3.162   3.887 -0.2654 -0.6779  0.7515
 1479SOL    HW115899   1.318   3.094   3.940  0.0292 -1.4053 -0.4134
 1479SOL    HW215900   1.215   3.112   3.832 -1.5428 -1.3881  2.8049
 1480SOL     OW15901   2.834   1.267  15.442 -0.3188  0.0086 -0.7082
 1480SOL    HW115902   2.898   1.313  15.388 -2.2285  2.1651 -1.1422
 1480SOL    HW215903   2.822   1.330  15.514 -0.9409 -1.8355  0.8148
 1481SOL     OW15904   1.513   3.176   4.878 -0.1445  0.1518  0.1952
 1481SOL    HW115905   1.524   3.084   4.900  0.9002  0.0713 -0.6650
 1481SOL    HW215906   1.449   3.176   4.807 -1.5614 -0.7755  1.4643
 1482SOL     OW15907   1.393   0.628   5.095  0.1393 -0.1336 -1.0621
 1482SOL    HW115908   1.411   0.691   5.166  2.2484 -2.4803  0.4650
 1482SOL    HW215909   1.474   0.578   5.090  2.4864  3.7863 -2.0621
 1483SOL     OW15910   4.467   2.169  13.691 -0.9097  0.4030  0.3731
 1483SOL    HW115911   4.491   2.259  13.670 -3.0289  0.4278 -1.8645
 1483SOL    HW215912   4.441   2.145  13.602 -1.0789  1.1144  0.2338
 1484SOL     OW15913   2.436   0.318   0.405  0.2930 -0.4872 -0.0029
 1484SOL    HW115914   2.479   0.367   0.475  0.8570  0.3682 -0.9415
 1484SOL    HW215915   2.437   0.382   0.333 -0.0797 -0.2323  0.2166
 1485SOL     OW15916   4.332   2.871   0.921 -0.1427  0.5430 -0.6421
 1485SOL    HW115917   4.351   2.822   1.002 -2.7665  1.4179  0.5104
 1485SOL    HW215918   4.310   2.796   0.866 -0.9962 -0.7199  1.3969
 1486SOL     OW15919   2.477   0.108  10.208  0.2219  0.2032 -0.0090
 1486SOL    HW115920   2.434   0.181  10.252  1.9086  1.4875 -0.4976
 1486SOL    HW215921   2.548   0.093  10.271 -0.3002  1.0809  0.7847
 1487SOL     OW15922   4.129   2.553   4.267  0.0700 -0.3130 -0.3795
 1487SOL    HW115923   4.196   2.506   4.317  0.1212  0.3360  0.1569
 1487SOL    HW215924   4.088   2.487   4.210 -0.3215 -1.4195  1.1849
 1488SOL     OW15925   3.859   4.675   5.550  0.3378 -0.1077  0.0718
 1488SOL    HW115926   3.850   4.657   5.644 -0.9869 -1.7770 -0.3809
 1488SOL    HW215927   3.769   4.675   5.518  0.5571  0.3994 -0.5277
 1489SOL     OW15928   0.629   0.711   3.514 -0.4157 -0.2841 -0.3943
 1489SOL    HW115929   0.541   0.715   3.550 -1.1613 -0.2131 -2.2094
 1489SOL    HW215930   0.655   0.801   3.492  0.4654  0.0137  1.8304
 1490SOL     OW15931   1.763   4.101   5.597  0.7011 -0.2073  0.4434
 1490SOL    HW115932   1.788   4.083   5.506 -1.4512 -1.0586  0.0152
 1490SOL    HW215933   1.813   4.031   5.639  0.3628  0.6966  2.3443
 1491SOL     OW15934   3.479   2.164   6.899  0.7452  0.0581 -0.3764
 1491SOL    HW115935   3.550   2.102   6.881  0.3757  0.0938 -1.9508
 1491SOL    HW215936   3.397   2.114   6.900  1.1116 -0.5060  0.8160
 1492SOL     OW15937   1.604   1.150   2.779  0.2115  0.6500 -0.1917
 1492SOL    HW115938   1.676   1.090   2.761 -0.6435  0.3321 -2.5225
 1492SOL    HW215939   1.648   1.233   2.795  0.7041  0.3804 -0.1744
 1493SOL     OW15940   0.375   2.613   6.110 -0.5080  0.0388  0.4758
 1493SOL    HW115941   0.378   2.536   6.054  1.5268  1.4370 -1.3517
 1493SOL    HW215942   0.423   2.578   6.186  1.2989  1.3241 -0.0594
 1494SOL     OW15943   3.535   1.039   4.262  0.3794 -0.1094 -0.0980
 1494SOL    HW115944   3.478   1.082   4.325  0.6237 -1.1643  0.8393
 1494SOL    HW215945   3.603   1.024   4.328  2.2601  0.1393 -1.9475
 1495SOL     OW15946   1.118   2.934   3.765  0.1636  0.8725 -0.4159
 1495SOL    HW115947   1.141   2.956   3.675 -0.4793  1.7226 -0.3793
 1495SOL    HW215948   1.191   2.878   3.792 -1.3051 -0.0476  1.5543
 1496SOL     OW15949   2.324   0.275  14.356  0.2092 -0.3577 -0.1139
 1496SOL    HW115950   2.390   0.253  14.290 -0.0828  1.4420 -1.0101
 1496SOL    HW215951   2.305   0.366  14.331 -1.5717 -0.0461  2.3616
 1497SOL     OW15952   1.664   1.042   8.388 -0.1193 -0.2282  0.2491
 1497SOL    HW115953   1.674   1.136   8.377 -1.0388 -0.3013 -1.1408
 1497SOL    HW215954   1.694   1.007   8.304 -1.1345 -0.7750  0.1200
 1498SOL     OW15955   2.175   4.179   5.593 -0.1908 -0.2769 -0.7217
 1498SOL    HW115956   2.221   4.144   5.669  1.1035 -0.2395 -1.4909
 1498SOL    HW215957   2.180   4.105   5.533  0.1857  0.3962 -1.5277
 1499SOL     OW15958   2.589   2.839   6.583 -0.1508 -0.3567 -0.2064
 1499SOL    HW115959   2.682   2.816   6.589  0.7049  3.1286 -0.2458
 1499SOL    HW215960   2.573   2.861   6.492  1.2220  1.0333 -0.1116
 1500SOL     OW15961   1.575   1.085   5.264 -0.4826  0.0506 -0.0920
 1500SOL    HW115962   1.580   1.157   5.201 -1.1060  0.4398  0.3110
 1500SOL    HW215963   1.658   1.093   5.312  0.8364 -1.7135 -2.0508
 1501SOL     OW15964   2.447   0.805   1.045 -0.4524 -0.9140 -0.0554
 1501SOL    HW115965   2.486   0.720   1.023  0.6321  0.2259 -2.5386
 1501SOL    HW215966   2.529   0.854   1.050  0.1570 -1.7529 -1.7446
 1502SOL     OW15967   3.087   3.051   3.395  0.5492 -0.8202  0.4373
 1502SOL    HW115968   3.139   3.083   3.321 -0.3990  0.5124  0.3298
 1502SOL    HW215969   3.009   3.016   3.351  0.3550 -0.7212  0.7019
 1503SOL     OW15970   2.718   0.402  10.227 -0.0906  0.0130  0.2253
 1503SOL    HW115971   2.797   0.455  10.211 -0.0220  0.0857  0.8231
 1503SOL    HW215972   2.725   0.376  10.319  3.1668 -0.0261 -0.0390
 1504SOL     OW15973   1.938   1.302   4.014 -0.7200 -0.3441  0.2010
 1504SOL    HW115974   1.862   1.360   4.017  0.7866  1.5142  2.3646
 1504SOL    HW215975   1.994   1.363   3.966 -1.2003  0.4030  0.5857
 1505SOL     OW15976   3.520   1.644   7.545 -0.5432  0.2487 -0.0547
 1505SOL    HW115977   3.430   1.660   7.516 -0.1000  0.7974 -1.1167
 1505SOL    HW215978   3.520   1.701   7.623  2.0971  1.2420 -0.7858
 1506SOL     OW15979   0.801   2.786   5.273  0.0432  0.3647  0.0054
 1506SOL    HW115980   0.770   2.843   5.343  1.7532  0.7063  0.4891
 1506SOL    HW215981   0.766   2.705   5.309 -2.6847  1.0798 -1.0858
 1507SOL     OW15982   3.399   3.776  16.930  0.0245  0.4312  0.3547
 1507SOL    HW115983   3.483   3.730  16.938  1.1789  2.4974  0.1750
 1507SOL    HW215984   3.421   3.866  16.957  1.8996  0.0710  0.0556
 1508SOL     OW15985   1.110   3.367   7.307  0.2818 -0.1515  0.1793
 1508SOL    HW115986   1.127   3.439   7.246 -0.3662  0.2772  0.5156
 1508SOL    HW215987   1.117   3.413   7.390  1.2758  1.3654 -0.7516
 1509SOL     OW15988   1.623   0.753   8.490  0.1389  0.2445  0.0779
 1509SOL    HW115989   1.687   0.824   8.500  0.5514 -0.3816  1.8942
 1509SOL    HW215990   1.690   0.686   8.503  1.9947  1.7333 -1.6667
 1510SOL     OW15991   4.087   2.393   4.046  0.0006 -0.4888  0.2770
 1510SOL    HW115992   4.173   2.422   4.018 -0.9386  1.0490 -1.0389
 1510SOL    HW215993   4.037   2.404   3.965  1.3145 -2.7646 -0.8279
 1511SOL     OW15994   3.545   2.606  12.775  0.4831  0.7365 -0.3079
 1511SOL    HW115995   3.537   2.659  12.854  3.4078  0.4932  0.1700
 1511SOL    HW215996   3.608   2.539  12.803 -0.0413  0.2019 -0.4207
 1512SOL     OW15997   0.204   1.658   0.510  0.3819  0.0340  0.4302
 1512SOL    HW115998   0.270   1.593   0.532  1.6766  0.6855 -1.4627
 1512SOL    HW215999   0.151   1.655   0.589 -0.3934 -0.9632 -0.1286
 1513SOL     OW16000   4.064   0.567   1.800 -0.3813  0.7848  0.5958
 1513SOL    HW116001   4.096   0.632   1.738 -0.0746  0.3421  0.2899
 1513SOL    HW216002   4.139   0.540   1.853 -1.0795  2.5043  2.4430
 1514SOL     OW16003   1.239   2.908  10.987 -0.2523 -0.7595 -0.1982
 1514SOL    HW116004   1.189   2.961  10.926  0.2649 -3.1988 -2.7259
 1514SOL    HW216005   1.260   2.973  11.054  0.1268  0.4859 -1.5475
 1515SOL     OW16006   4.537   1.910   6.856  0.5811 -0.0451  0.0296
 1515SOL    HW116007   4.465   1.925   6.916  1.9254  0.4621  1.5113
 1515SOL    HW216008   4.521   1.816   6.843  0.7335 -0.4851  3.1567
 1516SOL     OW16009   0.938   2.522  10.819 -0.5405  0.0400  0.2179
 1516SOL    HW116010   1.009   2.571  10.862 -0.8925  0.2510  0.5553
 1516SOL    HW216011   0.901   2.475  10.894  0.7614  1.4424  1.7581
 1517SOL     OW16012   1.309   4.056  10.327 -0.2000 -0.5586  0.2009
 1517SOL    HW116013   1.339   4.111  10.399 -1.5859  0.2362  0.1703
 1517SOL    HW216014   1.325   4.115  10.254  1.0505  0.6568  1.4539
 1518SOL     OW16015   2.480   0.739  15.283 -0.1271  0.0349 -0.7352
 1518SOL    HW116016   2.565   0.760  15.322 -0.0265 -1.7326 -0.0379
 1518SOL    HW216017   2.494   0.769  15.193 -1.0462 -2.6467 -1.7558
 1519SOL     OW16018   1.072   3.153  16.012  0.2675  0.4396 -0.5106
 1519SOL    HW116019   1.152   3.127  15.967  0.8082  1.9068 -0.3744
 1519SOL    HW216020   1.043   3.229  15.962  0.6357  0.3067 -0.9237
 1520SOL     OW16021   4.335   2.367   2.300  0.6211  0.6249 -0.3043
 1520SOL    HW116022   4.277   2.438   2.273 -0.0940  0.5499  1.0076
 1520SOL    HW216023   4.306   2.331   2.384  3.0149  1.0194  0.6791
 1521SOL     OW16024   0.718   1.924   8.935 -0.2833 -0.4466  0.4465
 1521SOL    HW116025   0.790   1.875   8.896 -1.3934 -0.4187 -1.6433
 1521SOL    HW216026   0.751   2.013   8.940  3.5422 -1.8644  0.2661
 1522SOL     OW16027   0.430   1.318   5.569  0.0212  0.1470 -0.2062
 1522SOL    HW116028   0.473   1.376   5.506  0.9675  0.7915  1.0291
 1522SOL    HW216029   0.502   1.273   5.612 -0.4445  0.0301  0.4517
 1523SOL     OW16030   4.582   0.568   3.586 -0.0391  0.6410 -0.2591
 1523SOL    HW116031   4.522   0.583   3.659  0.3032  1.4153 -0.1355
 1523SOL    HW216032   4.605   0.661   3.573 -1.8528  1.3310  1.6140
 1524SOL     OW16033   4.524   1.763   5.333  0.1657  0.1149 -0.8592
 1524SOL    HW116034   4.548   1.779   5.242  1.2438  1.6643 -0.2829
 1524SOL    HW216035   4.610   1.762   5.373 -0.1877  0.0232 -0.1036
 1525SOL     OW16036   2.858   0.382   2.336 -0.3938  0.1627  0.0524
 1525SOL    HW116037   2.885   0.334   2.257 -2.2002  0.3986 -0.7082
 1525SOL    HW216038   2.926   0.449   2.338  2.2495 -2.5697  1.5153
 1526SOL     OW16039   3.171   3.158   3.165 -0.4796 -0.2300 -0.1497
 1526SOL    HW116040   3.209   3.135   3.080 -0.2074 -1.3927  0.2902
 1526SOL    HW216041   3.090   3.204   3.142  0.1630  0.9103 -0.1088
 1527SOL     OW16042   0.164   1.578   7.212 -0.0644  0.3215  0.4910
 1527SOL    HW116043   0.196   1.530   7.135  0.6066  1.6145 -0.0435
 1527SOL    HW216044   0.071   1.558   7.220 -0.2899  1.5790  1.0845
 1528SOL     OW16045   3.806   4.721   1.116 -0.0310  1.0555  0.1633
 1528SOL    HW116046   3.839   0.082   1.091  0.5628  0.6355 -0.5228
 1528SOL    HW216047   3.727   4.714   1.063  0.3829  1.8143 -0.5628
 1529SOL     OW16048   0.883   3.660   3.343  0.0498  1.1079 -0.1446
 1529SOL    HW116049   0.943   3.674   3.416  0.7852  0.3900 -0.6017
 1529SOL    HW216050   0.935   3.683   3.265  0.0991  1.3891 -0.0275
 1530SOL     OW16051   0.629   2.832   3.728  0.0135 -0.5940 -0.1779
 1530SOL    HW116052   0.691   2.766   3.758  0.2438  0.3944  1.5113
 1530SOL    HW216053   0.667   2.916   3.754 -0.5417 -0.8175  1.3352
 1531SOL     OW16054   4.247   3.201   9.843 -0.4916 -0.2155 -0.5637
 1531SOL    HW116055   4.219   3.254   9.768 -0.6747  0.4931  0.0088
 1531SOL    HW216056   4.338   3.180   9.822 -0.4076 -1.5453  1.1229
 1532SOL     OW16057   0.442   3.516   6.216 -0.1315  0.3903 -0.2824
 1532SOL    HW116058   0.389   3.487   6.290  1.1006  3.1611  1.7047
 1532SOL    HW216059   0.426   3.445   6.153  0.7823 -0.0382 -0.0345
 1533SOL     OW16060   0.868   0.646   3.919 -0.0898 -0.3303 -0.6134
 1533SOL    HW116061   0.870   0.591   3.998  1.3939  2.4975  1.3080
 1533SOL    HW216062   0.941   0.602   3.877  0.3940  0.3752 -0.5058
 1534SOL     OW16063   4.067   2.218   5.929  0.0783  0.3745  0.0892
 1534SOL    HW116064   4.062   2.150   5.996 -2.1258 -0.6054 -1.0434
 1534SOL    HW216065   4.064   2.168   5.847 -0.3655  1.2166 -0.4143
 1535SOL     OW16066   0.395   3.278   5.063 -0.5109  0.4450 -0.4561
 1535SOL    HW116067   0.366   3.305   4.976 -0.1472 -0.7173 -0.9371
 1535SOL    HW216068   0.465   3.342   5.075  0.6658 -0.9499  0.1980
 1536SOL     OW16069   1.240   3.916   0.846  0.1463 -0.2017 -0.1562
 1536SOL    HW116070   1.243   3.927   0.751 -1.2552  1.7644  0.0087
 1536SOL    HW216071   1.280   3.994   0.884  0.1069 -0.2013 -0.1156
 1537SOL     OW16072   2.435   2.128   2.511 -0.7681 -0.8802  0.2290
 1537SOL    HW116073   2.350   2.160   2.539  0.2930  2.1635  0.0214
 1537SOL    HW216074   2.428   2.090   2.423  1.4728 -0.6992 -0.0383
 1538SOL     OW16075   2.904   4.043  15.106 -0.2666 -0.0901  0.3810
 1538SOL    HW116076   2.983   4.039  15.160 -0.4737  1.6293  0.8207
 1538SOL    HW216077   2.852   3.971  15.139  0.7094 -0.3549  1.3368
 1539SOL     OW16078   0.695   4.554   9.382  0.3854 -0.6370 -0.0030
 1539SOL    HW116079   0.654   4.476   9.421 -0.6450  0.8112  1.8217
 1539SOL    HW216080   0.707   4.602   9.464 -1.0537 -0.1738 -0.0662
 1540SOL     OW16081   3.867   2.925   6.224 -0.1492 -0.2156 -0.5755
 1540SOL    HW116082   3.921   2.995   6.186 -2.2156 -0.0739 -3.1850
 1540SOL    HW216083   3.790   2.980   6.235  0.9496  0.8465  1.9137
 1541SOL     OW16084   3.107   1.195   6.205 -0.2719  0.1980  0.0229
 1541SOL    HW116085   3.098   1.220   6.296  1.5717  2.9031 -0.5444
 1541SOL    HW216086   3.048   1.247   6.150 -1.3572  1.5408  2.4871
 1542SOL     OW16087   3.165   0.520   9.753 -0.2563  0.7289  0.9446
 1542SOL    HW116088   3.075   0.487   9.758  0.1924 -0.5768  0.3309
 1542SOL    HW216089   3.217   0.456   9.800 -1.1421 -1.6978 -1.3641
 1543SOL     OW16090   2.684   2.823   1.706  0.4909  0.2681 -0.0844
 1543SOL    HW116091   2.591   2.844   1.698  0.5587  0.0183 -1.4468
 1543SOL    HW216092   2.686   2.837   1.801  1.2871 -0.0208 -0.0622
 1544SOL     OW16093   0.510   2.717   8.408 -0.0460 -0.0269  0.4934
 1544SOL    HW116094   0.573   2.645   8.408  0.6298  0.5789 -1.2852
 1544SOL    HW216095   0.491   2.742   8.318  2.4272 -0.1054 -0.0281
 1545SOL     OW16096   1.136   4.473   0.909  0.2204 -0.3076 -0.1855
 1545SOL    HW116097   1.091   4.508   0.832 -0.7450  0.1376  0.5939
 1545SOL    HW216098   1.213   4.531   0.905  1.7931 -2.3299  0.7934
 1546SOL     OW16099   0.380   4.143   4.475 -0.4761  0.7861 -0.0795
 1546SOL    HW116100   0.300   4.097   4.450  0.0502 -1.5536  2.5968
 1546SOL    HW216101   0.438   4.072   4.501  0.4659  1.6986  0.2981
 1547SOL     OW16102   2.799   3.105  12.267  0.9944 -0.2716 -0.0956
 1547SOL    HW116103   2.814   3.179  12.208  0.8598 -0.7968 -0.7878
 1547SOL    HW216104   2.817   3.028  12.213  0.6153 -0.5690  0.2042
 1548SOL     OW16105   1.286   4.092   2.989  0.0838 -0.1679  0.4288
 1548SOL    HW116106   1.357   4.031   2.969  0.4842  0.7635 -0.9851
 1548SOL    HW216107   1.281   4.088   3.085 -2.7854  0.1549  0.3137
 1549SOL     OW16108   2.914   3.303   7.484  0.6911 -0.4996 -0.2291
 1549SOL    HW116109   2.983   3.347   7.434  0.3779 -0.4892 -0.6448
 1549SOL    HW216110   2.852   3.375   7.483  1.3284  0.0115 -2.4941
 1550SOL     OW16111   1.295   3.358   6.861  0.2794  0.4624  1.1113
 1550SOL    HW116112   1.270   3.357   6.769 -0.1753  3.4522  1.1807
 1550SOL    HW216113   1.290   3.269   6.894  1.0078  0.0906  0.2254
 1551SOL     OW16114   1.835   3.393   4.652 -0.4101  0.2407 -0.1736
 1551SOL    HW116115   1.855   3.369   4.561  1.2075 -0.9424  0.4921
 1551SOL    HW216116   1.886   3.474   4.661 -0.4200  0.1622  0.5861
 1552SOL     OW16117   4.445   2.230  15.782 -0.0257  0.1907 -0.1390
 1552SOL    HW116118   4.465   2.185  15.864  1.9859 -0.1858 -0.8531
 1552SOL    HW216119   4.362   2.275  15.797  0.7451  1.1931  1.1008
 1553SOL     OW16120   0.415   2.298  10.816  0.0713  0.1975  0.2818
 1553SOL    HW116121   0.494   2.262  10.855  1.1064  0.2021 -1.8155
 1553SOL    HW216122   0.364   2.274  10.894  0.1382 -2.4319 -0.4867
 1554SOL     OW16123   2.584   0.524  10.030 -0.6902 -0.5182  0.4786
 1554SOL    HW116124   2.627   0.608  10.040 -0.3393 -0.6170 -0.1742
 1554SOL    HW216125   2.604   0.475  10.110  2.5617  0.0968  0.0118
 1555SOL     OW16126   3.108   2.629   3.554 -0.3843 -0.4585 -0.0019
 1555SOL    HW116127   3.137   2.696   3.616 -1.7849 -1.9067  2.2027
 1555SOL    HW216128   3.191   2.596   3.522  0.0096 -0.0125  0.5462
 1556SOL     OW16129   2.264   4.298   6.882  0.8095 -0.2322 -0.3565
 1556SOL    HW116130   2.201   4.268   6.816 -0.8355  1.0123  0.6610
 1556SOL    HW216131   2.250   4.392   6.879  0.9912 -0.0570  3.5624
 1557SOL     OW16132   1.077   3.652  15.419  0.0930  0.5043 -0.4362
 1557SOL    HW116133   1.056   3.740  15.448 -2.0310 -0.5065  1.0826
 1557SOL    HW216134   1.137   3.620  15.487 -0.1037  1.9134  0.3931
 1558SOL     OW16135   0.492   2.322  12.770  0.3018 -0.2398 -0.8150
 1558SOL    HW116136   0.489   2.244  12.714  0.3875  0.3425 -1.6410
 1558SOL    HW216137   0.437   2.391  12.734  1.4351  0.8771 -0.3989
 1559SOL     OW16138   2.380   1.732   8.970 -0.5058  0.4279 -0.4213
 1559SOL    HW116139   2.389   1.796   9.040  1.4049  1.0466 -1.2250
 1559SOL    HW216140   2.386   1.789   8.893 -3.4629  3.1806  1.3939
 1560SOL     OW16141   4.452   3.222   7.433  0.3309  0.3165  0.5698
 1560SOL    HW116142   4.502   3.186   7.360 -1.3564  1.2933 -1.0691
 1560SOL    HW216143   4.394   3.148   7.452 -0.4570  1.0571  1.0101
 1561SOL     OW16144   4.523   0.813   4.474 -0.0059 -0.2529  0.6752
 1561SOL    HW116145   4.439   0.812   4.429  1.4723 -0.7483 -2.0451
 1561SOL    HW216146   4.505   0.746   4.540 -0.8470  0.4717  1.1962
 1562SOL     OW16147   0.220   0.207  14.532 -0.3900 -0.5291  0.3681
 1562SOL    HW116148   0.232   0.292  14.491 -0.3066  0.0577  1.6223
 1562SOL    HW216149   0.130   0.211  14.565 -0.1217 -1.9136  1.2978
 1563SOL     OW16150   2.124   0.976   1.914  0.0114  0.1774  0.2179
 1563SOL    HW116151   2.209   0.983   1.872 -0.2628 -1.9954 -0.7000
 1563SOL    HW216152   2.063   0.991   1.841  0.2157  3.0252  0.6623
 1564SOL     OW16153   2.399   1.144   4.031 -0.1519  0.7302  0.4277
 1564SOL    HW116154   2.416   1.050   4.029 -0.3674  0.7378 -1.4850
 1564SOL    HW216155   2.329   1.143   4.096 -0.9637  0.1695 -0.4646
 1565SOL     OW16156   1.606   2.243   6.233  0.1280 -0.1600  0.4053
 1565SOL    HW116157   1.601   2.150   6.211 -2.0622 -0.3065  1.4774
 1565SOL    HW216158   1.585   2.237   6.326  0.2222 -2.7274  0.2727
 1566SOL     OW16159   2.159   1.050   3.419 -0.0015 -0.1200 -0.2684
 1566SOL    HW116160   2.206   1.071   3.338  1.0677 -0.2916  0.3075
 1566SOL    HW216161   2.226   1.027   3.483  0.0849 -2.4306 -1.1926
 1567SOL     OW16162   1.805   4.130   2.053  0.1196 -0.3362 -0.0351
 1567SOL    HW116163   1.881   4.073   2.047  0.1335 -0.2324 -0.8424
 1567SOL    HW216164   1.747   4.063   2.088 -0.9011 -0.2107 -1.4924
 1568SOL     OW16165   2.646   0.003   4.801  0.1788 -0.0403  0.6629
 1568SOL    HW116166   2.604   0.086   4.824  0.5524 -0.1018  1.5322
 1568SOL    HW216167   2.704   0.005   4.877 -0.5513 -0.7445  1.2380
 1569SOL     OW16168   3.134   1.263   4.525  0.2072 -0.1994  0.0092
 1569SOL    HW116169   3.109   1.348   4.562  0.6455  0.6823 -1.7395
 1569SOL    HW216170   3.101   1.267   4.436  0.1374  0.8901  0.0872
 1570SOL     OW16171   0.401   1.485   6.208 -0.0273 -0.6185 -0.1434
 1570SOL    HW116172   0.379   1.426   6.281  1.3717 -0.1380  0.6746
 1570SOL    HW216173   0.313   1.503   6.175 -0.7282 -1.5155  1.2163
 1571SOL     OW16174   2.450   0.337   8.243 -0.4319  0.1098 -0.2421
 1571SOL    HW116175   2.443   0.244   8.265  0.3269 -0.5323 -2.6769
 1571SOL    HW216176   2.487   0.378   8.321 -0.8654  0.6015 -0.2928
 1572SOL     OW16177   2.120   4.551   1.160 -0.5743  0.1754  0.2778
 1572SOL    HW116178   2.161   4.513   1.083 -1.7126 -0.5065  0.0185
 1572SOL    HW216179   2.156   4.495   1.229 -2.4813 -0.5491  0.6695
 1573SOL     OW16180   4.370   1.178   1.808 -0.8798 -0.0811 -0.5843
 1573SOL    HW116181   4.298   1.212   1.755 -0.4429  2.0524  0.1531
 1573SOL    HW216182   4.440   1.181   1.742  0.7236  0.5278  1.1443
 1574SOL     OW16183   3.873   4.103   5.381 -0.4045 -0.0992  0.1811
 1574SOL    HW116184   3.872   4.198   5.370  1.4587  0.0401  1.1873
 1574SOL    HW216185   3.820   4.101   5.462  1.5197 -2.7339  1.3939
 1575SOL     OW16186   0.308   2.292   2.002 -0.0414  0.0364  0.0333
 1575SOL    HW116187   0.303   2.264   1.911  2.8311  0.1225 -0.1339
 1575SOL    HW216188   0.255   2.372   2.003 -0.3503 -0.1856  1.8256
 1576SOL     OW16189   4.105   2.588   4.749  0.5268 -0.3255 -0.2380
 1576SOL    HW116190   4.009   2.594   4.750  0.6576  1.5129  1.8234
 1576SOL    HW216191   4.115   2.496   4.771  0.4836  0.5981  3.6841
 1577SOL     OW16192   1.035   4.081   6.673 -0.0096 -0.1291 -0.0608
 1577SOL    HW116193   0.947   4.043   6.678 -0.6764  1.1982 -1.6279
 1577SOL    HW216194   1.078   4.045   6.750  0.7949 -2.4292 -1.5683
 1578SOL     OW16195   0.559   0.330  16.541 -0.0140  0.1829  0.2374
 1578SOL    HW116196   0.503   0.302  16.613  0.0189  0.2566  0.2918
 1578SOL    HW216197   0.525   0.419  16.529  2.2301  0.7184 -2.2187
 1579SOL     OW16198   1.240   1.792   8.406  0.0438 -0.2061  0.2245
 1579SOL    HW116199   1.275   1.712   8.445  1.0717  0.2812  0.3095
 1579SOL    HW216200   1.173   1.759   8.346  0.2362 -2.1499  1.0773
 1580SOL     OW16201   3.835   1.051  13.105  0.0407  0.3447  0.4258
 1580SOL    HW116202   3.894   0.979  13.127  0.6016  0.9823  1.0602
 1580SOL    HW216203   3.908   1.113  13.092  0.8799 -0.9209 -0.8020
 1581SOL     OW16204   3.502   2.912   3.857 -0.6254 -0.1766  0.0948
 1581SOL    HW116205   3.495   2.879   3.946  0.8102  2.7543  1.2889
 1581SOL    HW216206   3.467   3.001   3.868 -0.4509 -0.0527 -0.3548
 1582SOL     OW16207   4.373   3.065  13.171 -0.2573  0.2752  0.4060
 1582SOL    HW116208   4.373   3.106  13.258 -1.0509  1.4295 -0.1425
 1582SOL    HW216209   4.345   2.977  13.195  0.7943 -0.3551 -0.7226
 1583SOL     OW16210   1.744   0.615   9.392  0.8895 -0.5881  0.1489
 1583SOL    HW116211   1.803   0.624   9.317  0.2444 -1.2054 -0.4407
 1583SOL    HW216212   1.801   0.567   9.452  0.1346 -1.5160  0.1396
 1584SOL     OW16213   0.959   2.174   5.945 -0.3637 -0.9331 -0.4355
 1584SOL    HW116214   0.976   2.128   6.027 -0.4296  0.1004  0.1619
 1584SOL    HW216215   0.983   2.262   5.972  1.1852 -2.0663  1.8522
 1585SOL     OW16216   3.040   1.686   3.460 -0.5183 -0.1192  0.3584
 1585SOL    HW116217   2.947   1.674   3.438 -0.8168 -1.0620  2.0852
 1585SOL    HW216218   3.079   1.721   3.380  1.6679 -0.6947  1.1868
 1586SOL     OW16219   3.626   1.228   8.887  0.3371  0.5839  0.0745
 1586SOL    HW116220   3.594   1.178   8.811 -0.3813 -1.8465  1.9645
 1586SOL    HW216221   3.585   1.312   8.869 -0.2494 -0.2929 -2.6363
 1587SOL     OW16222   0.927   3.125   7.445  0.0804 -1.1143 -0.5170
 1587SOL    HW116223   0.916   3.189   7.516  1.5481 -0.1055 -1.2056
 1587SOL    HW216224   0.975   3.172   7.377  0.8384 -1.0456  0.0571
 1588SOL     OW16225   1.703   0.369  12.175 -0.2014  0.3508 -0.1085
 1588SOL    HW116226   1.722   0.299  12.238  1.0042  0.1410 -0.6988
 1588SOL    HW216227   1.671   0.325  12.096  1.4211 -3.1405  1.1783
 1589SOL     OW16228   4.501   3.805   2.474 -0.1965 -0.0183  0.2551
 1589SOL    HW116229   4.531   3.841   2.390  1.7562 -2.9542 -0.2848
 1589SOL    HW216230   4.407   3.807   2.454 -0.0662  2.5461 -0.1322
 1590SOL     OW16231   0.923   3.403   0.195 -0.2111  0.0369 -0.4414
 1590SOL    HW116232   1.009   3.393   0.236 -0.1962 -1.3945 -0.8170
 1590SOL    HW216233   0.938   3.392   0.101  1.1457  0.5383 -0.2776
 1591SOL     OW16234   3.849   3.339   7.439  0.9386  0.1296 -0.3338
 1591SOL    HW116235   3.920   3.298   7.487  0.8857  1.8081  1.1876
 1591SOL    HW216236   3.766   3.305   7.471  1.7668  0.1800  1.8235
 1592SOL     OW16237   4.594   2.220   6.212  0.2607 -0.1440  0.0067
 1592SOL    HW116238   4.646   2.169   6.149 -1.1884  1.1653 -2.2758
 1592SOL    HW216239   4.552   2.157   6.270  0.1110  0.5664  0.6575
 1593SOL     OW16240   4.081   0.617   4.533  0.0329  0.6259 -0.2629
 1593SOL    HW116241   3.998   0.593   4.492 -0.1230 -1.1586  1.1218
 1593SOL    HW216242   4.138   0.569   4.474 -1.8635 -0.7009 -1.0086
 1594SOL     OW16243   3.981   4.181   6.325  0.4714 -0.0275  0.2400
 1594SOL    HW116244   3.956   4.220   6.409  1.3523  0.3572  0.3183
 1594SOL    HW216245   4.046   4.117   6.353  0.2343  0.0154  0.8819
 1595SOL     OW16246   3.309   1.584   3.757  0.1517  0.3257  0.4672
 1595SOL    HW116247   3.338   1.574   3.848 -1.6343 -1.2704  0.8505
 1595SOL    HW216248   3.214   1.597   3.763 -0.0468 -1.3177  0.9429
 1596SOL     OW16249   4.512   3.319   3.881 -0.3803  0.7170 -0.4423
 1596SOL    HW116250   4.443   3.279   3.829 -0.6484  0.0169  0.4375
 1596SOL    HW216251   4.568   3.242   3.893 -0.0868  1.0737  0.5137
 1597SOL     OW16252   3.655   4.248  10.030 -0.1167  0.1998 -0.3016
 1597SOL    HW116253   3.726   4.303   9.997  0.4526  0.3150  1.1104
 1597SOL    HW216254   3.576   4.293  10.000 -1.3609 -0.9805  1.1755
 1598SOL     OW16255   1.978   4.086  16.105  0.3872  0.4978 -0.5360
 1598SOL    HW116256   1.993   4.030  16.029  0.3882  2.1976 -1.7734
 1598SOL    HW216257   1.883   4.090  16.110  0.3372 -2.1131  0.7328
 1599SOL     OW16258   2.166   2.038   4.286  0.6086  0.1704  0.5327
 1599SOL    HW116259   2.168   2.123   4.242 -0.5886  0.5044  1.1392
 1599SOL    HW216260   2.142   1.982   4.211 -1.5953 -0.0042  1.3620
 1600SOL     OW16261   0.044   0.228  11.521  0.8623 -0.1616  0.4681
 1600SOL    HW116262   4.716   0.151  11.499  2.6145 -0.8689 -1.3282
 1600SOL    HW216263   4.707   0.292  11.555  0.9849 -0.5128  1.3436
 1601SOL     OW16264   0.626   0.806  13.865  0.0819 -0.6929  0.1442
 1601SOL    HW116265   0.531   0.795  13.857  0.1165 -0.3886 -0.6159
 1601SOL    HW216266   0.647   0.871  13.799 -0.7748 -1.4817 -0.8981
 1602SOL     OW16267   4.259   4.330   1.381 -0.0087 -0.0843 -0.3633
 1602SOL    HW116268   4.206   4.322   1.460  1.4295 -2.7025  0.3260
 1602SOL    HW216269   4.195   4.300   1.316  0.6919 -0.4715 -0.8805
 1603SOL     OW16270   2.995   0.013   1.923 -0.4771 -0.1660 -0.4600
 1603SOL    HW116271   3.079   4.713   1.885 -0.0505 -2.2082  1.8843
 1603SOL    HW216272   3.019   0.009   2.015 -1.1584 -0.4040 -0.2916
 1604SOL     OW16273   0.606   1.731   1.948  0.1592 -0.1440  0.1750
 1604SOL    HW116274   0.695   1.761   1.967  0.1961 -0.1360 -0.0024
 1604SOL    HW216275   0.583   1.804   1.891  2.2581 -0.0267 -0.5311
 1605SOL     OW16276   1.640   2.772   3.808 -0.7668 -0.0768  0.3549
 1605SOL    HW116277   1.711   2.737   3.754 -0.7984  0.1030  0.1934
 1605SOL    HW216278   1.675   2.763   3.896  0.3538  0.9782  0.0234
 1606SOL     OW16279   1.660   0.923   2.462 -0.2722 -0.0996  0.5637
 1606SOL    HW116280   1.710   0.862   2.408 -0.5758  1.1518 -1.1028
 1606SOL    HW216281   1.576   0.884   2.436 -0.0162 -1.2339  1.4135
 1607SOL     OW16282   4.608   0.263   5.072  0.0037 -0.5689  0.3190
 1607SOL    HW116283   4.702   0.279   5.063 -0.3642  1.0792 -0.5765
 1607SOL    HW216284   4.607   0.201   5.145  0.6054  1.4036  1.9816
 1608SOL     OW16285   0.981   0.877  11.425 -0.5049  0.1267  0.1144
 1608SOL    HW116286   1.058   0.824  11.448 -0.4933  0.0966  0.0062
 1608SOL    HW216287   1.003   0.887  11.333  1.8312 -0.5218  0.5873
 1609SOL     OW16288   3.651   1.771   9.529  0.1055  0.0474  0.7744
 1609SOL    HW116289   3.657   1.787   9.623  0.2192 -1.6280  1.0382
 1609SOL    HW216290   3.707   1.694   9.529 -0.8707 -0.6563  1.7357
 1610SOL     OW16291   1.104   3.787   9.534 -0.3328  0.4227 -0.2910
 1610SOL    HW116292   1.017   3.749   9.547  0.5774 -1.6570 -0.2693
 1610SOL    HW216293   1.138   3.744   9.612 -2.2812 -1.6263 -0.5720
 1611SOL     OW16294   0.892   2.736  15.655  0.4468 -0.1170  0.0229
 1611SOL    HW116295   0.828   2.687  15.707  1.8161  0.7617  2.4975
 1611SOL    HW216296   0.867   2.828  15.660  1.4053  0.1637 -0.4080
 1612SOL     OW16297   2.891   3.071   8.946  0.3729 -0.5389  0.1727
 1612SOL    HW116298   2.824   3.136   8.964 -0.9833 -2.0887  0.7292
 1612SOL    HW216299   2.836   2.994   8.962  3.6648 -2.5215  2.1219
 1613SOL     OW16300   4.505   2.646   8.939 -0.0075 -0.0795 -0.0801
 1613SOL    HW116301   4.517   2.590   9.016 -0.0551 -1.0319 -0.7612
 1613SOL    HW216302   4.460   2.725   8.967 -1.4650 -0.5515 -1.0699
 1614SOL     OW16303   2.530   2.957  13.510  0.4749 -0.4589 -0.3581
 1614SOL    HW116304   2.602   2.894  13.517 -0.6729 -1.5194  1.7898
 1614SOL    HW216305   2.570   3.043  13.528  2.1747 -1.0839 -1.1749
 1615SOL     OW16306   4.452   3.445  10.389 -0.0503 -0.5945 -0.2906
 1615SOL    HW116307   4.481   3.355  10.379  1.8654 -0.4043  3.3938
 1615SOL    HW216308   4.451   3.484  10.302 -0.0060  1.0788  0.4569
 1616SOL     OW16309   2.754   1.614  14.442 -0.5518  0.1098  0.0400
 1616SOL    HW116310   2.743   1.550  14.371 -1.1775 -0.7285  0.8977
 1616SOL    HW216311   2.839   1.649  14.415 -0.8809  1.0362  0.2185
 1617SOL     OW16312   0.641   2.796   5.669 -0.0643 -0.2877 -0.5352
 1617SOL    HW116313   0.586   2.734   5.621  0.0592 -0.3847 -0.5510
 1617SOL    HW216314   0.568   2.847   5.704  1.4821  0.7669  1.1274
 1618SOL     OW16315   4.364   1.013   3.947 -0.6171  0.1940 -0.2528
 1618SOL    HW116316   4.442   0.968   3.915  1.1119  2.3340  0.9909
 1618SOL    HW216317   4.379   1.006   4.041  0.5589 -2.1959 -0.6223
 1619SOL     OW16318   3.157   3.238  15.550 -0.5084  0.7129 -0.0396
 1619SOL    HW116319   3.170   3.147  15.576  2.0896  1.1381  0.1719
 1619SOL    HW216320   3.245   3.268  15.574 -1.3108  0.9405  2.6599
 1620SOL     OW16321   2.594   1.211   8.202 -0.3397 -0.1687 -0.0889
 1620SOL    HW116322   2.553   1.132   8.167  1.5978 -0.1171 -2.4470
 1620SOL    HW216323   2.674   1.181   8.243 -0.3141 -3.2626 -2.4108
 1621SOL     OW16324   0.041   0.752   6.032  0.2611 -0.3099  0.3550
 1621SOL    HW116325   4.680   0.720   6.007  0.3174 -0.6603  0.6022
 1621SOL    HW216326   0.071   0.667   6.066  0.1257  0.4719  2.4432
 1622SOL     OW16327   1.504   3.665   4.790 -0.1001  0.1656  0.6080
 1622SOL    HW116328   1.413   3.688   4.771  1.3847  4.6831 -0.9327
 1622SOL    HW216329   1.510   3.572   4.771 -2.1662 -0.0004  0.7018
 1623SOL     OW16330   0.926   2.577  17.508  0.2167 -0.5679 -0.2408
 1623SOL    HW116331   0.951   2.491  17.474  0.6514 -0.4945 -0.1118
 1623SOL    HW216332   0.953   2.578  17.599  3.1627 -0.0411 -1.1043
 1624SOL     OW16333   1.206   3.010   5.506 -0.0283 -0.1235  0.6426
 1624SOL    HW116334   1.163   2.926   5.494  0.2642 -0.1244 -0.3876
 1624SOL    HW216335   1.245   3.017   5.419 -1.8806  4.4246  0.1435
 1625SOL     OW16336   3.013   0.913   6.102 -0.2694  0.6316 -0.1287
 1625SOL    HW116337   2.995   0.935   6.011  1.3847  1.9327 -0.1203
 1625SOL    HW216338   3.017   0.998   6.145 -1.4892  0.0946  1.0746
 1626SOL     OW16339   2.679   3.344   4.992  0.4106 -0.1820 -0.1012
 1626SOL    HW116340   2.654   3.433   5.016  0.0131  0.0847 -1.4823
 1626SOL    HW216341   2.597   3.317   4.950  0.8642 -2.2236  0.3327
 1627SOL     OW16342   4.267   2.117   0.142 -0.1760  0.5296  0.1235
 1627SOL    HW116343   4.215   2.045   0.177  1.1145 -0.3018  0.3156
 1627SOL    HW216344   4.296   2.164   0.221 -0.9237  0.8729  0.1947
 1628SOL     OW16345   1.031   2.894   8.208 -0.2777  0.1053 -0.0287
 1628SOL    HW116346   1.004   2.936   8.126  0.3665 -0.7285 -0.6746
 1628SOL    HW216347   1.036   2.802   8.181 -0.4361 -0.2505  1.1697
 1629SOL     OW16348   3.908   4.262   4.447  0.2039 -0.8705  0.6248
 1629SOL    HW116349   3.964   4.191   4.415 -0.0542 -0.5321 -0.5659
 1629SOL    HW216350   3.824   4.216   4.443 -1.1913  1.5201  2.4536
 1630SOL     OW16351   3.267   0.737   1.581 -0.4839  0.1110  0.7562
 1630SOL    HW116352   3.172   0.741   1.589 -0.6486  0.0544 -1.0980
 1630SOL    HW216353   3.288   0.645   1.566  3.8236  1.5169 -1.7408
 1631SOL     OW16354   3.100   3.688   3.128  0.1467 -0.2037 -0.3380
 1631SOL    HW116355   3.082   3.748   3.201 -0.0523 -1.0275  0.2920
 1631SOL    HW216356   3.194   3.668   3.132  0.3355  0.8685  0.9221
 1632SOL     OW16357   0.873   1.123   4.909  0.2980 -0.2999 -0.0373
 1632SOL    HW116358   0.803   1.063   4.883 -0.1207  0.3046 -0.3153
 1632SOL    HW216359   0.929   1.123   4.831 -0.9804 -1.3765 -0.9423
 1633SOL     OW16360   4.090   3.826   3.064 -0.3191 -0.5066 -0.4845
 1633SOL    HW116361   4.016   3.789   3.112 -1.7574  0.8324 -1.6786
 1633SOL    HW216362   4.150   3.758   3.093 -1.1409 -1.3715 -0.8018
 1634SOL     OW16363   4.252   1.754   5.624 -0.6930 -0.1362 -0.5466
 1634SOL    HW116364   4.267   1.839   5.583 -1.7450  0.4723  0.3207
 1634SOL    HW216365   4.157   1.749   5.612 -0.5866 -0.2257 -1.2930
 1635SOL     OW16366   0.681   0.616   9.830 -0.6383 -0.0559 -0.2854
 1635SOL    HW116367   0.601   0.636   9.879 -0.0490  0.2400  0.5634
 1635SOL    HW216368   0.740   0.572   9.891  1.7417  1.3570 -1.5634
 1636SOL     OW16369   4.495   1.815   3.105  0.2465  0.1742  0.0820
 1636SOL    HW116370   4.456   1.825   3.019 -0.9210  1.5292  0.7750
 1636SOL    HW216371   4.444   1.745   3.145  2.0023 -0.5655  1.0224
 1637SOL     OW16372   0.261   1.273   7.567 -0.3135 -0.8834  0.4439
 1637SOL    HW116373   0.298   1.290   7.481 -0.6665 -0.2434  0.4176
 1637SOL    HW216374   0.171   1.251   7.545 -0.7101  0.9788  0.1776
 1638SOL     OW16375   0.885   3.803   6.230  0.2017 -0.3047  0.6851
 1638SOL    HW116376   0.836   3.751   6.293 -2.1955 -0.1176 -1.0191
 1638SOL    HW216377   0.841   3.795   6.145 -0.0657 -1.4566  0.9416
 1639SOL     OW16378   0.377   3.981  16.729  0.3898 -0.0340  0.6072
 1639SOL    HW116379   0.418   3.904  16.768 -1.2657 -0.6158  1.1844
 1639SOL    HW216380   0.454   4.037  16.716  0.5887 -0.8145 -1.5179
 1640SOL     OW16381   2.544   3.190   4.008  0.2295 -0.0885 -0.3814
 1640SOL    HW116382   2.628   3.208   3.966 -0.0179  3.5166  0.7511
 1640SOL    HW216383   2.497   3.154   3.933 -1.5572 -2.0655  1.6823
 1641SOL     OW16384   4.013   2.690  11.341 -0.1187  0.3599  0.2418
 1641SOL    HW116385   3.943   2.684  11.276 -0.0966 -1.2223  0.3685
 1641SOL    HW216386   4.040   2.599  11.350 -0.4550  0.3628  1.2328
 1642SOL     OW16387   2.256   2.873  11.731  0.2624 -0.0916  0.4974
 1642SOL    HW116388   2.341   2.916  11.742  0.8866 -1.5774  1.4632
 1642SOL    HW216389   2.285   2.783  11.717 -0.7047 -0.3993  0.4556
 1643SOL     OW16390   2.223   0.588   3.779  0.0345  0.7255  0.1512
 1643SOL    HW116391   2.308   0.593   3.823  0.4604 -1.2306 -0.4134
 1643SOL    HW216392   2.260   0.554   3.697 -1.1513 -0.6881  0.2048
 1644SOL     OW16393   3.059   1.739   0.577 -0.1094  0.0362 -0.2563
 1644SOL    HW116394   3.082   1.807   0.640 -1.0151 -0.8609  1.0341
 1644SOL    HW216395   3.032   1.796   0.505 -2.5962 -0.5898  0.1731
 1645SOL     OW16396   4.109   0.457   9.080  0.0255  0.5256 -0.0012
 1645SOL    HW116397   4.087   0.369   9.110  0.8603  0.9277  1.7810
 1645SOL    HW216398   4.144   0.436   8.993  0.0178 -2.4207  0.7156
 1646SOL     OW16399   0.292   2.651   6.510 -0.1753 -0.1669  0.2249
 1646SOL    HW116400   0.364   2.610   6.462 -0.1566  0.8961 -0.6440
 1646SOL    HW216401   0.319   2.631   6.600  0.1751  1.7319  0.5378
 1647SOL     OW16402   3.741   3.986   8.982  0.4353  0.7026 -0.4328
 1647SOL    HW116403   3.831   3.971   9.009  1.2304  2.3293 -2.1961
 1647SOL    HW216404   3.724   4.071   9.025  1.0538  1.6620 -2.1062
 1648SOL     OW16405   1.815   2.006  12.052 -0.4422  0.4479  0.0951
 1648SOL    HW116406   1.873   2.054  11.993 -0.5603  0.0649 -0.3256
 1648SOL    HW216407   1.738   2.063  12.051  0.5211  1.7346 -0.9682
 1649SOL     OW16408   2.356   3.364  14.575 -0.7813  0.0457 -0.4290
 1649SOL    HW116409   2.365   3.297  14.507 -0.1412 -1.8411  1.5052
 1649SOL    HW216410   2.368   3.447  14.527  1.8584 -0.9151 -1.4594
 1650SOL     OW16411   1.341   1.252   3.370 -0.2946 -0.5291 -0.0902
 1650SOL    HW116412   1.398   1.178   3.351 -1.5330 -1.3767 -0.5190
 1650SOL    HW216413   1.405   1.322   3.358 -0.4468 -0.0106  2.1300
 1651SOL     OW16414   1.563   3.133  17.226  0.4307 -0.0426 -0.1940
 1651SOL    HW116415   1.641   3.093  17.263  0.3136 -0.5598 -0.5115
 1651SOL    HW216416   1.525   3.164  17.308  1.5779  0.5087  0.1273
 1652SOL     OW16417   2.754   1.591   2.065  0.3480 -0.2800  0.5297
 1652SOL    HW116418   2.845   1.566   2.082  0.3792  0.2290  1.1066
 1652SOL    HW216419   2.747   1.614   1.973  3.5573  1.1808  0.6516
 1653SOL     OW16420   3.360   2.829   6.238  0.5092  0.4488  0.3505
 1653SOL    HW116421   3.445   2.787   6.254  0.9068  1.6175  1.2969
 1653SOL    HW216422   3.350   2.869   6.325 -0.2230 -2.7269  1.7300
 1654SOL     OW16423   3.798   4.324   7.804 -0.2089 -0.0407 -0.1822
 1654SOL    HW116424   3.847   4.343   7.885  0.5722  1.1759 -0.9431
 1654SOL    HW216425   3.788   4.411   7.765  0.3739 -0.2686 -0.8245
 1655SOL     OW16426   3.265   3.843   4.047  0.7090 -0.0309 -0.9005
 1655SOL    HW116427   3.239   3.870   3.959 -0.1311 -1.9603 -1.2471
 1655SOL    HW216428   3.238   3.916   4.103  1.9785 -1.2762  1.3354
 1656SOL     OW16429   1.644   1.177  12.940 -0.5914  0.1562 -0.2635
 1656SOL    HW116430   1.679   1.109  12.998 -3.8472 -1.1963  0.1167
 1656SOL    HW216431   1.706   1.176  12.868 -0.5379  0.1299 -0.2168
 1657SOL     OW16432   0.708   0.396   5.482 -0.2818  0.3053 -0.2319
 1657SOL    HW116433   0.781   0.343   5.513  1.1622  1.7363 -1.1437
 1657SOL    HW216434   0.752   0.479   5.463  0.5391  0.1665  1.0921
 1658SOL     OW16435   3.979   1.379   8.671 -0.1956 -0.3657 -0.7708
 1658SOL    HW116436   3.993   1.355   8.580 -0.2654 -0.1666 -0.8344
 1658SOL    HW216437   3.957   1.297   8.716  1.2777  0.2713  1.1366
 1659SOL     OW16438   2.817   3.910   2.789  0.2208 -0.2446  0.1572
 1659SOL    HW116439   2.786   3.959   2.713  2.5588  1.3439  0.2582
 1659SOL    HW216440   2.744   3.849   2.798  0.3332 -0.4917 -0.5937
 1660SOL     OW16441   2.537   0.010   1.232 -0.3174  0.1502  0.4383
 1660SOL    HW116442   2.604   4.671   1.208 -0.9678 -0.7541  1.0351
 1660SOL    HW216443   2.498   4.702   1.312 -0.7798 -0.3023  0.0283
 1661SOL     OW16444   1.007   2.034   2.342 -0.1579  0.4523  0.2163
 1661SOL    HW116445   0.934   2.069   2.393  0.7845  2.4310  0.2190
 1661SOL    HW216446   1.073   2.098   2.369  0.7747 -1.3857  2.2942
 1662SOL     OW16447   4.082   1.469   6.177 -0.5027  0.5986 -0.0956
 1662SOL    HW116448   3.993   1.472   6.213 -0.3544 -1.5129  0.4445
 1662SOL    HW216449   4.089   1.565   6.174  1.3718  0.4495 -0.6733
 1663SOL     OW16450   4.270   4.054   4.531 -0.0498  0.1105  0.0604
 1663SOL    HW116451   4.358   4.092   4.526 -1.4564  3.1019 -1.9997
 1663SOL    HW216452   4.257   4.060   4.625  0.2589 -0.0915  0.1180
 1664SOL     OW16453   0.405   1.942   3.193 -0.0465 -0.4676  0.0599
 1664SOL    HW116454   0.316   1.968   3.216  0.6046  0.3180  1.7380
 1664SOL    HW216455   0.391   1.848   3.200 -0.1562 -0.5247 -0.9313
 1665SOL     OW16456   2.486   2.415   7.003 -0.3026 -0.1013 -0.1384
 1665SOL    HW116457   2.432   2.462   7.067 -0.1951 -0.2851  0.0910
 1665SOL    HW216458   2.444   2.436   6.920  0.1622  3.4578  0.5295
 1666SOL     OW16459   2.855   1.067   3.661  0.2626 -0.1044  0.6464
 1666SOL    HW116460   2.769   1.030   3.640  0.0951  0.5496  0.2060
 1666SOL    HW216461   2.910   1.012   3.604  0.8855  1.2968 -0.0968
 1667SOL     OW16462   2.827   1.353   1.455 -0.5778  0.0462 -0.5440
 1667SOL    HW116463   2.839   1.328   1.546  1.0379 -0.6637 -0.9561
 1667SOL    HW216464   2.863   1.278   1.408 -0.7513 -0.2356 -0.2274
 1668SOL     OW16465   2.822   0.016   9.990  0.0610 -0.0803 -1.0060
 1668SOL    HW116466   2.740   4.694  10.005  0.0120  0.3300  0.0337
 1668SOL    HW216467   2.783   0.103   9.987 -0.6121 -0.2346  2.7409
 1669SOL     OW16468   3.943   0.228   6.542  0.1003  0.0849  0.0809
 1669SOL    HW116469   3.900   0.145   6.562 -2.0873  1.3416  0.5701
 1669SOL    HW216470   4.036   0.208   6.555 -0.4701 -1.8337  1.1887
 1670SOL     OW16471   3.008   0.014   2.431 -0.5595 -0.0567  0.6979
 1670SOL    HW116472   2.969   0.010   2.518 -0.3485  1.2328  0.8516
 1670SOL    HW216473   3.009   4.651   2.396 -2.1120  0.2117 -0.0232
 1671SOL     OW16474   0.778   2.843   1.917  0.5836  0.3304  0.0506
 1671SOL    HW116475   0.799   2.861   1.825  1.7336  0.7418  0.3956
 1671SOL    HW216476   0.732   2.760   1.904 -0.2591  0.6482  1.0046
 1672SOL     OW16477   2.850   2.531   8.114 -0.2330 -0.3882  0.1768
 1672SOL    HW116478   2.840   2.601   8.178  0.3769 -0.8001  0.7175
 1672SOL    HW216479   2.871   2.586   8.038 -4.5690 -1.0353 -1.5008
 1673SOL     OW16480   3.769   3.718   5.721 -0.7762 -0.3548 -0.7503
 1673SOL    HW116481   3.781   3.640   5.667  0.6771 -1.2740  0.8732
 1673SOL    HW216482   3.858   3.730   5.755 -0.6837 -0.1126 -1.0780
 1674SOL     OW16483   4.628   4.090   7.215 -0.1486  0.0055 -0.1687
 1674SOL    HW116484   4.607   4.152   7.145 -0.6728 -0.4139 -0.3906
 1674SOL    HW216485   4.696   4.137   7.263  0.7298 -0.7937 -0.6387
 1675SOL     OW16486   4.126   2.431   6.874  0.0165 -0.1505 -0.1005
 1675SOL    HW116487   4.040   2.428   6.916  0.3086  0.2225  0.5254
 1675SOL    HW216488   4.170   2.472   6.948  2.2571 -1.5622 -0.6461
 1676SOL     OW16489   1.717   4.446   7.647  0.3266  0.2183 -0.0425
 1676SOL    HW116490   1.686   4.374   7.701 -0.9558  0.5057 -0.3943
 1676SOL    HW216491   1.802   4.469   7.685 -0.5618  1.4123  1.2203
 1677SOL     OW16492   4.365   4.506   3.037  0.3683 -0.0514  0.1391
 1677SOL    HW116493   4.338   4.423   2.998  1.1500  0.0682 -0.6381
 1677SOL    HW216494   4.330   4.561   2.967 -1.8536 -1.1063  0.3982
 1678SOL     OW16495   2.032   0.027   8.131 -0.6358 -0.0907  0.0946
 1678SOL    HW116496   2.123   0.019   8.103 -1.6360 -0.9829 -2.9408
 1678SOL    HW216497   2.038   0.046   8.224  0.0582 -1.3332  0.3103
 1679SOL     OW16498   2.133   4.419  14.726 -0.7524  0.4239 -0.6721
 1679SOL    HW116499   2.059   4.430  14.667 -1.2808 -2.0302 -0.4746
 1679SOL    HW216500   2.188   4.495  14.708 -1.6790  0.7580 -2.1109
 1680SOL     OW16501   2.873   2.918   3.255 -0.0936 -0.7409  0.3677
 1680SOL    HW116502   2.941   2.856   3.283 -0.9590 -0.7964  2.3794
 1680SOL    HW216503   2.799   2.859   3.242 -0.0762 -0.9593  1.2193
 1681SOL     OW16504   4.718   0.311  16.079  0.0302 -0.1609 -0.0001
 1681SOL    HW116505   0.086   0.299  16.096 -0.5968 -1.9552  2.2082
 1681SOL    HW216506   4.683   0.222  16.075 -3.0164  1.0524  0.2795
 1682SOL     OW16507   1.711   3.245  14.578  0.4671 -0.2921 -0.5290
 1682SOL    HW116508   1.644   3.223  14.513  1.0188  0.8353 -1.4662
 1682SOL    HW216509   1.728   3.162  14.623 -0.2830  0.3969  1.0585
 1683SOL     OW16510   4.541   3.875   9.199 -0.0983 -0.7375  0.1086
 1683SOL    HW116511   4.624   3.831   9.184 -0.0631 -1.4326  2.2649
 1683SOL    HW216512   4.534   3.859   9.293 -1.8746  1.6142  0.3713
 1684SOL     OW16513   0.701   0.219   1.476  0.0418  0.7749 -0.5780
 1684SOL    HW116514   0.730   0.132   1.448  0.0358  0.6317 -0.1323
 1684SOL    HW216515   0.660   0.260   1.400 -0.3498 -0.8664 -1.2558
 1685SOL     OW16516   2.394   1.445   7.601 -0.5736 -0.3028 -0.7719
 1685SOL    HW116517   2.315   1.471   7.647 -0.9108 -1.2875 -0.8119
 1685SOL    HW216518   2.439   1.530   7.595  2.1027 -1.6896 -0.6614
 1686SOL     OW16519   3.532   2.140  16.016 -0.4131 -0.4118  0.2410
 1686SOL    HW116520   3.557   2.183  15.934  1.1929 -0.7409  0.5489
 1686SOL    HW216521   3.442   2.116  15.995 -0.4891 -0.1625  0.2780
 1687SOL     OW16522   0.905   0.187   6.791  0.6907  0.1112 -0.4653
 1687SOL    HW116523   0.977   0.225   6.740  1.2002  1.0546  0.9672
 1687SOL    HW216524   0.838   0.253   6.774  0.9580  0.7180  0.8427
 1688SOL     OW16525   3.008   4.566   7.753 -0.5434 -0.1106  0.1770
 1688SOL    HW116526   2.964   4.535   7.674  0.0414  0.2201 -0.2797
 1688SOL    HW216527   3.047   4.650   7.730  1.2321 -1.3271 -1.2145
 1689SOL     OW16528   2.444   2.965   4.530  0.1079  0.4537 -0.2656
 1689SOL    HW116529   2.352   2.944   4.543  0.0408  1.3089  0.6683
 1689SOL    HW216530   2.466   2.990   4.620  2.7437  1.0020 -1.0666
 1690SOL     OW16531   4.562   0.956   2.315 -0.0834  0.0074  0.0594
 1690SOL    HW116532   4.597   0.997   2.395 -1.7269 -0.0126  0.7860
 1690SOL    HW216533   4.623   0.989   2.250 -0.0852 -1.7502 -0.8259
 1691SOL     OW16534   0.711   2.590  16.943 -0.0936  0.5949 -0.3499
 1691SOL    HW116535   0.638   2.552  16.993 -0.7656 -0.7191 -2.3048
 1691SOL    HW216536   0.672   2.639  16.870  0.0672  1.4027  0.1132
 1692SOL     OW16537   3.632   3.007   4.631 -0.0052  0.6668 -0.5384
 1692SOL    HW116538   3.575   3.070   4.586 -1.5809 -0.7380 -0.5531
 1692SOL    HW216539   3.683   2.976   4.557  0.5585  1.0742 -0.3179
 1693SOL     OW16540   3.450   2.440   3.967  0.5966 -0.1101  0.9244
 1693SOL    HW116541   3.537   2.453   3.930 -0.4184 -1.0218 -1.7896
 1693SOL    HW216542   3.484   2.385   4.037  1.8487 -3.0373 -1.9933
 1694SOL     OW16543   4.714   2.752   3.705 -0.2156 -0.4426  0.4666
 1694SOL    HW116544   0.070   2.749   3.755 -0.6059 -1.0464  1.0602
 1694SOL    HW216545   0.013   2.818   3.640 -0.9782  0.5571  1.1806
 1695SOL     OW16546   1.741   3.026   3.632  0.1816  0.1660  0.3832
 1695SOL    HW116547   1.795   3.101   3.660 -2.3422  1.3534  2.0685
 1695SOL    HW216548   1.653   3.063   3.643  0.2983 -0.2302  2.5863
 1696SOL     OW16549   2.364   3.163   7.355 -0.1085  0.0805  0.0069
 1696SOL    HW116550   2.454   3.136   7.369 -0.8553 -1.3859  2.0279
 1696SOL    HW216551   2.344   3.200   7.442 -2.5145 -1.7308  0.2445
 1697SOL     OW16552   3.589   0.255   8.031 -0.0202 -0.1383  0.0174
 1697SOL    HW116553   3.549   0.174   8.063  3.1605 -0.9871  1.7478
 1697SOL    HW216554   3.588   0.242   7.936 -1.4143  1.0326 -0.1401
 1698SOL     OW16555   1.892   4.712  14.743  0.3528  0.5670 -0.3617
 1698SOL    HW116556   1.802   0.017  14.731  0.2511  0.2459 -0.4341
 1698SOL    HW216557   1.881   4.643  14.677  1.0627  2.3747 -2.3785
 1699SOL     OW16558   4.497   2.945  14.971 -0.4018 -0.7665 -0.0369
 1699SOL    HW116559   4.519   2.856  14.996 -0.7505 -1.0079 -0.5870
 1699SOL    HW216560   4.486   2.933  14.877 -1.8623 -0.4040  0.0775
 1700SOL     OW16561   4.431   1.302  16.836 -0.1385  0.0629  0.1632
 1700SOL    HW116562   4.392   1.328  16.752  0.5219  0.0467 -0.1537
 1700SOL    HW216563   4.366   1.240  16.867  0.5936  0.4006  2.3614
 1701SOL     OW16564   3.837   1.326  14.322 -0.0723  0.4921 -0.5226
 1701SOL    HW116565   3.918   1.359  14.282 -0.9011  0.2897 -2.3625
 1701SOL    HW216566   3.785   1.289  14.251  1.4278  0.8073 -1.7944
 1702SOL     OW16567   1.416   3.218   5.902  0.0369  0.1905  0.3132
 1702SOL    HW116568   1.342   3.159   5.911 -0.8885  1.0197 -1.8475
 1702SOL    HW216569   1.443   3.226   5.993  3.0611 -1.5347 -0.4280
 1703SOL     OW16570   4.079   1.581   4.882  0.4683  0.1866 -0.0999
 1703SOL    HW116571   4.073   1.625   4.797 -2.1584  0.5218  0.2634
 1703SOL    HW216572   4.035   1.502   4.851 -0.1331  1.1070 -1.6378
 1704SOL     OW16573   4.023   2.145   4.662  0.7189  0.0062  0.4681
 1704SOL    HW116574   4.076   2.218   4.695  2.1873 -1.4387  1.3233
 1704SOL    HW216575   4.091   2.108   4.606 -0.4683 -0.5838 -0.5651
 1705SOL     OW16576   0.843   1.702   5.119  0.5975  0.3493 -0.1033
 1705SOL    HW116577   0.868   1.641   5.049  0.6703 -0.0780  0.2996
 1705SOL    HW216578   0.872   1.786   5.083 -1.5974  0.1227 -2.4958
 1706SOL     OW16579   0.084   2.945   2.377  0.3277  0.5295 -0.3786
 1706SOL    HW116580   0.097   3.039   2.367  1.8719  0.3870  0.2381
 1706SOL    HW216581   0.117   2.940   2.467  0.2822 -0.0442 -0.3965
 1707SOL     OW16582   3.016   3.871  15.322 -0.1389  0.0617  0.2453
 1707SOL    HW116583   2.995   3.933  15.392  1.6896 -1.1960  1.8877
 1707SOL    HW216584   2.928   3.867  15.284 -0.6251 -0.4148  1.4305
 1708SOL     OW16585   0.466   1.271   4.022  0.0176 -0.2327 -0.0795
 1708SOL    HW116586   0.430   1.239   4.104 -0.8906  0.3007 -0.2731
 1708SOL    HW216587   0.559   1.264   4.045 -0.3067 -3.4001  0.3501
 1709SOL     OW16588   3.052   3.902   5.802 -0.4296 -0.3011 -0.1784
 1709SOL    HW116589   3.128   3.843   5.807 -1.9202 -2.3806 -1.5240
 1709SOL    HW216590   2.991   3.851   5.856 -0.3716 -0.6174 -0.4045
 1710SOL     OW16591   3.841   4.173   8.634 -0.4298 -0.1844 -0.2768
 1710SOL    HW116592   3.872   4.250   8.586 -0.6601 -1.0438 -1.8066
 1710SOL    HW216593   3.746   4.185   8.630 -0.5401 -0.9428  0.0188
 1711SOL     OW16594   1.932   0.872  11.077 -0.3202  0.4296 -0.1915
 1711SOL    HW116595   1.979   0.790  11.063  1.3391  0.7072  3.7528
 1711SOL    HW216596   1.945   0.912  10.991 -0.1498  1.0037  0.1046
 1712SOL     OW16597   1.837   4.266  12.596 -0.2587  0.5673  0.5012
 1712SOL    HW116598   1.900   4.285  12.527  0.3190 -3.3884 -0.0507
 1712SOL    HW216599   1.767   4.330  12.581  0.3224  1.5359  1.9816
 1713SOL     OW16600   3.871   0.702   6.957 -0.0431 -0.4431  0.3850
 1713SOL    HW116601   3.903   0.656   7.034  1.6946 -0.2615 -0.2290
 1713SOL    HW216602   3.819   0.633   6.917  1.1957 -0.9422 -0.3680
 1714SOL     OW16603   3.610   3.574   8.554 -0.6264 -0.9119  0.3520
 1714SOL    HW116604   3.541   3.595   8.618 -1.0312 -0.3366 -0.2706
 1714SOL    HW216605   3.621   3.479   8.555 -0.1681 -0.8748 -1.2470
 1715SOL     OW16606   1.265   0.263  10.008 -0.1504  0.2713 -0.2160
 1715SOL    HW116607   1.181   0.224  10.034 -0.2319 -0.0148 -0.9257
 1715SOL    HW216608   1.322   0.241  10.082  0.0037 -0.3121 -0.5083
 1716SOL     OW16609   0.934   4.278   5.115 -0.1115 -0.6283 -0.0454
 1716SOL    HW116610   0.863   4.272   5.051 -1.1631 -2.1502  1.2741
 1716SOL    HW216611   1.010   4.310   5.065  0.3223 -3.0212 -0.9277
 1717SOL     OW16612   4.173   2.170  13.315  0.1918 -0.1984 -0.1172
 1717SOL    HW116613   4.248   2.111  13.321  0.9647  0.7591 -0.4911
 1717SOL    HW216614   4.100   2.108  13.316 -0.1532  0.2329  0.7991
 1718SOL     OW16615   3.420   0.068   5.209 -0.5159  0.0233  0.0783
 1718SOL    HW116616   3.378   0.108   5.133 -0.4713 -1.9223 -0.9642
 1718SOL    HW216617   3.362   0.106   5.275  0.9850  1.1847  0.7409
 1719SOL     OW16618   4.304   3.394   5.840  0.1888  0.2762 -0.2420
 1719SOL    HW116619   4.264   3.308   5.826  1.2832 -0.6407  2.3270
 1719SOL    HW216620   4.222   3.441   5.836  1.6264  2.7903  0.2107
 1720SOL     OW16621   4.126   2.832   8.289  0.0740 -0.0493 -0.1427
 1720SOL    HW116622   4.207   2.821   8.340 -0.2621  1.1910  0.6572
 1720SOL    HW216623   4.075   2.756   8.315 -0.7912 -0.4424 -3.0188
 1721SOL     OW16624   2.077   1.736   5.036  0.0998  0.6055 -0.1764
 1721SOL    HW116625   2.147   1.682   5.072 -0.2126  0.2354 -0.1294
 1721SOL    HW216626   2.092   1.712   4.945 -1.7256 -2.1782  0.2581
 1722SOL     OW16627   0.333   3.244  17.263 -0.2775 -0.5899 -0.5348
 1722SOL    HW116628   0.429   3.248  17.262 -0.3850  1.7898 -1.4224
 1722SOL    HW216629   0.319   3.248  17.168  4.1925 -1.8218 -1.2744
 1723SOL     OW16630   3.243   1.636  11.140  0.0781  0.0332 -0.3560
 1723SOL    HW116631   3.262   1.546  11.112  3.2026  0.7857 -0.5556
 1723SOL    HW216632   3.253   1.649  11.234 -0.3213  0.5083 -0.3756
 1724SOL     OW16633   0.149   0.651   8.525 -0.9081  0.5895 -0.1866
 1724SOL    HW116634   0.160   0.712   8.453 -2.8676 -1.2551 -2.0732
 1724SOL    HW216635   0.064   0.618   8.496 -1.1908  1.0659  0.0949
 1725SOL     OW16636   1.654   1.848   7.940 -0.2726  0.6457 -0.4368
 1725SOL    HW116637   1.698   1.762   7.937  1.6191  1.5826  0.1040
 1725SOL    HW216638   1.622   1.866   7.852 -0.6616  0.5334 -0.3196
 1726SOL     OW16639   1.170   2.234   2.413  0.1857  0.5088 -0.4015
 1726SOL    HW116640   1.210   2.276   2.337  1.8089 -0.0753  0.1300
 1726SOL    HW216641   1.248   2.206   2.462 -0.7768 -0.5044  0.5579
 1727SOL     OW16642   2.972   0.350   7.077  0.4380 -0.0341 -0.3886
 1727SOL    HW116643   2.943   0.401   7.002 -1.8604  0.2557  0.6898
 1727SOL    HW216644   2.899   0.370   7.136 -0.6933 -1.3885 -1.3173
 1728SOL     OW16645   0.501   2.913  10.708 -0.2109  0.7914 -0.3381
 1728SOL    HW116646   0.515   2.839  10.650  0.5124  3.9311 -4.1498
 1728SOL    HW216647   0.472   2.983  10.650  1.5341 -0.1870 -2.3819
 1729SOL     OW16648   1.523   1.103  11.496  0.3092 -0.3931 -0.1562
 1729SOL    HW116649   1.526   1.195  11.471  0.6136 -0.1643  0.7442
 1729SOL    HW216650   1.616   1.078  11.495  0.4306 -0.0667  3.7352
 1730SOL     OW16651   4.225   1.686  17.657  0.0652  0.6615 -0.3695
 1730SOL    HW116652   4.234   1.606  17.605  1.2997  0.5307  0.0428
 1730SOL    HW216653   4.307   1.684   0.003 -0.3854 -2.1530  0.2586
 1731SOL     OW16654   0.417   3.939  10.344 -0.1444 -0.1474 -0.2045
 1731SOL    HW116655   0.346   3.879  10.323  0.9786 -2.3402  2.2844
 1731SOL    HW216656   0.372   3.979  10.419  0.7358 -3.8983  2.3254
 1732SOL     OW16657   2.579   3.912   6.442 -0.1229  0.0922  0.1546
 1732SOL    HW116658   2.668   3.876   6.439  0.1019  0.7214 -0.8688
 1732SOL    HW216659   2.531   3.834   6.470  1.1171 -2.1308 -3.8188
 1733SOL     OW16660   3.630   0.848   9.264  0.2148  0.6920  0.1376
 1733SOL    HW116661   3.644   0.765   9.309  0.0497 -0.3525 -1.7194
 1733SOL    HW216662   3.543   0.873   9.296 -1.4225 -2.4688 -1.8480
 1734SOL     OW16663   0.707   3.628   5.486  0.0791  0.2142  0.3527
 1734SOL    HW116664   0.744   3.560   5.430  0.3864 -0.9839  2.0387
 1734SOL    HW216665   0.614   3.606   5.484  0.5434 -1.7589  0.5911
 1735SOL     OW16666   4.318   4.711  12.624  0.3417 -0.7345 -0.8527
 1735SOL    HW116667   4.368   4.714  12.542  0.7485  0.6466 -0.5553
 1735SOL    HW216668   4.229   4.704  12.589 -0.0904 -0.5526  0.2370
 1736SOL     OW16669   3.981   2.564   7.810  0.1501  0.0291 -0.4620
 1736SOL    HW116670   4.074   2.564   7.787  0.2542  1.6012 -0.0488
 1736SOL    HW216671   3.951   2.643   7.767 -0.2217 -0.1689 -0.5636
 1737SOL     OW16672   0.942   3.392   5.277 -1.1501  0.1490 -0.2721
 1737SOL    HW116673   0.945   3.296   5.286 -3.9978  0.1091  0.5036
 1737SOL    HW216674   0.943   3.408   5.183 -1.6121 -3.4313 -0.8901
 1738SOL     OW16675   4.158   0.253   5.042 -0.3661 -0.0826  0.0537
 1738SOL    HW116676   4.188   0.316   5.108 -0.5108  0.1456 -0.1011
 1738SOL    HW216677   4.076   0.235   5.089 -0.2968 -0.0307  0.1955
 1739SOL     OW16678   3.192   4.181  15.147 -0.1042  0.2803  0.3154
 1739SOL    HW116679   3.126   4.210  15.084 -0.5182  0.4628  0.8262
 1739SOL    HW216680   3.244   4.128  15.087  0.4966 -0.4684  1.5012
 1740SOL     OW16681   4.300   2.255  12.381  0.1510 -0.0139  0.1070
 1740SOL    HW116682   4.205   2.252  12.370  0.4305  0.5396 -2.6693
 1740SOL    HW216683   4.295   2.289  12.470 -1.1464 -0.0168  0.0373
 1741SOL     OW16684   4.303   0.238   0.825 -0.2932  0.4519  0.1073
 1741SOL    HW116685   4.287   0.235   0.920 -0.9354 -0.6006 -0.0307
 1741SOL    HW216686   4.269   0.153   0.796  2.1895 -1.2007  2.1090
 1742SOL     OW16687   2.491   2.151   7.021 -0.4901 -0.0252  0.3089
 1742SOL    HW116688   2.470   2.160   7.114  0.2997 -0.7032  0.5498
 1742SOL    HW216689   2.511   2.243   7.006 -0.2303 -0.1908 -0.3542
 1743SOL     OW16690   0.845   0.876   5.685  0.1218 -0.4400 -0.0849
 1743SOL    HW116691   0.841   0.898   5.778 -0.8931  0.7801 -0.4337
 1743SOL    HW216692   0.757   0.843   5.668 -0.5011  2.2861 -2.1255
 1744SOL     OW16693   1.134   3.857  12.148  0.1119 -0.0020  0.1089
 1744SOL    HW116694   1.123   3.952  12.150  2.0835  0.3042 -2.6437
 1744SOL    HW216695   1.178   3.845  12.063 -1.1697 -1.3920 -0.3649
 1745SOL     OW16696   3.436   3.687   6.086  0.4376  0.1505  0.0849
 1745SOL    HW116697   3.520   3.706   6.128  1.0532 -2.5229  0.0674
 1745SOL    HW216698   3.433   3.591   6.090  0.2816  0.1196 -0.7066
 1746SOL     OW16699   2.737   1.396   5.595 -0.5240  0.1772 -0.2649
 1746SOL    HW116700   2.742   1.473   5.652 -0.8671  0.9455 -1.2809
 1746SOL    HW216701   2.651   1.364   5.623 -0.7360  0.5077 -0.5481
 1747SOL     OW16702   2.207   4.029   4.631  0.3368 -0.2952 -0.0497
 1747SOL    HW116703   2.285   4.073   4.598  0.6003 -0.6402  0.1122
 1747SOL    HW216704   2.233   3.984   4.712  0.6332  1.0063  0.5771
 1748SOL     OW16705   0.347   2.258   3.556  0.2374  0.0667 -0.4504
 1748SOL    HW116706   0.358   2.168   3.588  0.8229 -0.6912 -2.7533
 1748SOL    HW216707   0.397   2.302   3.625  0.5733 -0.0822 -0.6013
 1749SOL     OW16708   4.409   4.282   4.931 -0.2213  0.0030  0.2334
 1749SOL    HW116709   4.405   4.296   4.837 -2.4120  3.2527  0.7983
 1749SOL    HW216710   4.502   4.307   4.936 -0.8282  1.6961  3.1873
 1750SOL     OW16711   1.204   1.761   4.681 -0.3914 -0.0528 -0.0675
 1750SOL    HW116712   1.138   1.719   4.625  1.1433 -1.3370 -0.9003
 1750SOL    HW216713   1.154   1.836   4.714 -0.7862  0.7059 -2.3829
 1751SOL     OW16714   0.839   2.220   2.928  0.0380  0.3255 -0.3360
 1751SOL    HW116715   0.888   2.218   2.845 -0.8883 -0.3519 -0.8655
 1751SOL    HW216716   0.767   2.278   2.905  0.5910  0.2889 -2.1961
 1752SOL     OW16717   1.429   0.906   3.914  0.2639  0.4547  0.3910
 1752SOL    HW116718   1.386   0.949   3.839 -0.0453  1.0957  0.9280
 1752SOL    HW216719   1.434   0.975   3.980  0.1232  0.7311  0.1186
 1753SOL     OW16720   1.357   3.662   4.137  0.0362  0.2863 -0.1139
 1753SOL    HW116721   1.313   3.664   4.052  0.4628  2.8095 -0.2862
 1753SOL    HW216722   1.321   3.583   4.176 -2.0315  1.4063  0.2523
 1754SOL     OW16723   4.637   1.163  16.705  0.3216  0.1335 -0.2925
 1754SOL    HW116724   4.578   1.195  16.773  0.2381  0.2905 -0.4407
 1754SOL    HW216725   4.583   1.158  16.626  0.2247 -2.1401 -0.0793
 1755SOL     OW16726   0.368   4.432   5.093 -0.0763  0.2049  0.4243
 1755SOL    HW116727   0.356   4.525   5.075  3.5513  0.7720  0.9390
 1755SOL    HW216728   0.326   4.419   5.178 -1.4633 -2.1872 -0.5955
 1756SOL     OW16729   0.856   1.072   7.482  0.1215 -0.1141 -0.4923
 1756SOL    HW116730   0.766   1.037   7.480 -0.7744  2.0663  1.9253
 1756SOL    HW216731   0.848   1.113   7.568 -1.0840  0.5887 -0.9426
 1757SOL     OW16732   0.934   1.433   8.127 -0.0026 -0.1955  0.1075
 1757SOL    HW116733   0.947   1.366   8.193  1.3015  0.3816  0.4458
 1757SOL    HW216734   0.884   1.383   8.062 -0.7399 -0.0967  0.6132
 1758SOL     OW16735   2.840   1.149  17.386 -0.6930 -0.0817  0.2769
 1758SOL    HW116736   2.818   1.239  17.360 -1.2767 -0.1753  0.4438
 1758SOL    HW216737   2.836   1.091  17.310 -1.1535 -0.7741  0.8320
 1759SOL     OW16738   2.754   0.911   1.986  0.0655 -0.8368  0.2662
 1759SOL    HW116739   2.691   0.920   1.914 -1.6306 -0.9662  1.7460
 1759SOL    HW216740   2.832   0.945   1.941 -0.5959  0.2191 -0.0800
 1760SOL     OW16741   4.073   3.020   9.930  0.2058 -0.3793 -0.1555
 1760SOL    HW116742   4.097   2.956   9.864  0.9226 -1.7753  1.4495
 1760SOL    HW216743   4.132   3.094   9.916  0.4063 -0.8454 -1.7961
 1761SOL     OW16744   4.604   4.716   9.121 -0.0671 -0.5013  0.0213
 1761SOL    HW116745   4.529   4.656   9.120  0.2642 -0.8760 -3.3553
 1761SOL    HW216746   4.588   0.032   9.205  0.2914 -0.2519 -0.0358
 1762SOL     OW16747   3.634   4.467  12.680  0.5439 -0.1674  0.1671
 1762SOL    HW116748   3.630   4.417  12.761 -1.7184  0.5791  0.4994
 1762SOL    HW216749   3.596   4.408  12.615  0.8419  0.7404 -0.8294
 1763SOL     OW16750   3.050   1.169  15.652 -0.1717  0.2288 -0.2178
 1763SOL    HW116751   3.012   1.142  15.568 -1.0712 -0.9476  0.5743
 1763SOL    HW216752   3.143   1.174  15.632 -0.4225  2.7732 -0.8205
 1764SOL     OW16753   2.749   2.563   6.342  0.1032 -0.2669 -0.2244
 1764SOL    HW116754   2.796   2.480   6.351  0.9670  0.5233  2.3273
 1764SOL    HW216755   2.731   2.561   6.248  0.2788  0.8694 -0.2763
 1765SOL     OW16756   2.013   1.052  14.870  0.2287  0.6296  0.3681
 1765SOL    HW116757   1.931   1.094  14.844  0.9114  1.6033 -0.2074
 1765SOL    HW216758   2.016   1.065  14.965  0.2966  1.3539  0.2638
 1766SOL     OW16759   3.028   1.098  17.577  0.3945 -0.0782  0.5828
 1766SOL    HW116760   3.073   1.177  17.548  0.9657  0.5828  3.2740
 1766SOL    HW216761   2.970   1.090  17.501 -1.0741  3.3091  1.3550
 1767SOL     OW16762   3.721   3.002   1.814 -0.1151  0.0442 -0.1124
 1767SOL    HW116763   3.702   3.074   1.754  1.9559 -0.5877 -1.5046
 1767SOL    HW216764   3.770   2.953   1.748  0.1437 -1.2395  1.0344
 1768SOL     OW16765   2.504   1.290   5.929 -0.0961  0.2847 -0.2188
 1768SOL    HW116766   2.536   1.220   5.872 -1.3000 -1.2251  0.9631
 1768SOL    HW216767   2.494   1.358   5.862 -0.6921  0.2003 -0.2138
 1769SOL     OW16768   0.491   3.020   7.410  0.0647 -0.0780  0.4570
 1769SOL    HW116769   0.447   3.097   7.371 -1.9259 -2.0774 -1.2589
 1769SOL    HW216770   0.435   3.005   7.486  0.6309  1.5393  1.1864
 1770SOL     OW16771   2.858   1.883  16.838  0.3189 -0.0235 -0.4889
 1770SOL    HW116772   2.950   1.866  16.859  0.1050 -1.4441 -0.6888
 1770SOL    HW216773   2.871   1.950  16.771 -1.9431 -0.8000 -1.7426
 1771SOL     OW16774   0.814   2.799   4.828  0.2774 -0.1190  0.1486
 1771SOL    HW116775   0.822   2.872   4.767  0.8858 -2.4027 -2.5005
 1771SOL    HW216776   0.806   2.856   4.905 -0.7927 -0.7315  0.4994
 1772SOL     OW16777   2.897   3.626   4.046 -0.3901  0.5948  0.4366
 1772SOL    HW116778   2.840   3.565   4.093  0.6051 -1.2768 -0.7342
 1772SOL    HW216779   2.873   3.609   3.955  0.3679 -1.3789  0.5975
 1773SOL     OW16780   4.269   0.743   0.250 -0.0941  0.8371  0.3536
 1773SOL    HW116781   4.277   0.742   0.346  0.1987 -0.5557  0.3219
 1773SOL    HW216782   4.318   0.663   0.231  0.6390  1.1990  0.7185
 1774SOL     OW16783   4.556   3.122   8.650 -0.1646  0.1087 -0.8294
 1774SOL    HW116784   4.496   3.120   8.724  0.6902 -1.2708 -0.1638
 1774SOL    HW216785   4.645   3.131   8.685 -0.1974  1.1395 -1.0206
 1775SOL     OW16786   2.312   3.928   4.868  0.2277 -0.8647 -0.1788
 1775SOL    HW116787   2.364   3.853   4.841 -1.6066 -2.1703 -0.0326
 1775SOL    HW216788   2.264   3.899   4.945 -1.8453 -0.3219 -1.2765
 1776SOL     OW16789   1.923   4.004  12.538 -0.4986  0.3211  0.1646
 1776SOL    HW116790   1.921   3.940  12.610 -1.6603  1.3661  1.0749
 1776SOL    HW216791   1.847   4.058  12.559 -1.1578 -0.0891 -1.2049
 1777SOL     OW16792   4.045   2.046   9.147 -0.2329 -0.0635  0.5944
 1777SOL    HW116793   4.079   2.094   9.071 -0.4020  0.8136  1.0698
 1777SOL    HW216794   3.971   2.010   9.099  2.2072 -1.1123 -2.3937
 1778SOL     OW16795   3.477   1.527  12.517  0.4869 -0.2253 -0.7241
 1778SOL    HW116796   3.412   1.516  12.586  0.9154 -0.0359 -0.2939
 1778SOL    HW216797   3.502   1.616  12.539  1.0361 -0.7207  0.6208
 1779SOL     OW16798   2.444   0.398  10.990  0.0808  0.1188 -0.0570
 1779SOL    HW116799   2.357   0.384  11.028  0.2608  1.1514  0.7352
 1779SOL    HW216800   2.491   0.463  11.041 -0.6510 -0.9448  1.9690
 1780SOL     OW16801   2.764   3.506   3.137 -0.0662 -0.0458 -0.1684
 1780SOL    HW116802   2.729   3.593   3.157 -3.6413 -1.3698 -0.8159
 1780SOL    HW216803   2.828   3.487   3.205  0.0527 -0.1071 -0.2965
 1781SOL     OW16804   2.172   1.677   0.695  0.1954  0.3315 -0.4714
 1781SOL    HW116805   2.139   1.587   0.691 -0.5156  0.6158 -0.9228
 1781SOL    HW216806   2.112   1.708   0.628 -2.6491 -5.2923 -0.5560
 1782SOL     OW16807   3.413   2.457   3.056  0.1511  0.1809  0.2314
 1782SOL    HW116808   3.398   2.552   3.053 -1.1844 -0.1078 -2.1273
 1782SOL    HW216809   3.324   2.429   3.077 -1.1436  2.8345 -1.6722
 1783SOL     OW16810   3.971   2.875  13.949 -0.1217  0.3364 -0.0320
 1783SOL    HW116811   3.932   2.866  14.036  1.1738  1.1791  0.6272
 1783SOL    HW216812   4.031   2.945  13.974 -0.1041  0.4163 -0.3027
 1784SOL     OW16813   4.580   3.679   4.316  0.1339  0.1208  0.0468
 1784SOL    HW116814   4.528   3.603   4.344  0.6989  0.5362  2.2758
 1784SOL    HW216815   4.657   3.644   4.271 -1.5192 -2.5577 -0.6921
 1785SOL     OW16816   0.452   0.864  10.797  0.0381  0.5075 -0.1940
 1785SOL    HW116817   0.441   0.959  10.808  0.9409  0.6219 -0.2654
 1785SOL    HW216818   0.384   0.858  10.730  1.8741  1.7123 -2.1683
 1786SOL     OW16819   1.310   4.722   5.537  0.3578 -0.0525 -0.0990
 1786SOL    HW116820   1.308   0.091   5.527  1.6138 -0.2793 -2.5100
 1786SOL    HW216821   1.374   4.706   5.607  1.7829  0.9186 -1.1617
 1787SOL     OW16822   3.133   3.245   4.236 -0.0291 -0.4681  0.3173
 1787SOL    HW116823   3.201   3.261   4.171  1.7488  0.6375  2.4612
 1787SOL    HW216824   3.113   3.154   4.218  0.4763 -0.5549  0.1985
 1788SOL     OW16825   4.578   4.576   5.357 -0.5332  0.5209  0.3978
 1788SOL    HW116826   4.539   4.663   5.365 -0.7349  0.4348  0.3424
 1788SOL    HW216827   4.513   4.520   5.400  1.0776 -1.1079  0.7173
 1789SOL     OW16828   0.197   1.514   0.921  0.7022 -0.0016 -0.4292
 1789SOL    HW116829   0.119   1.479   0.879  1.5920  0.8399 -2.7811
 1789SOL    HW216830   0.249   1.435   0.933  2.9793  1.7458  1.1740
 1790SOL     OW16831   0.670   1.236   8.764 -0.0462  0.5837 -0.5383
 1790SOL    HW116832   0.615   1.157   8.760 -0.8619  1.1650 -0.8202
 1790SOL    HW216833   0.704   1.236   8.854 -0.7035 -1.6224 -0.2723
 1791SOL     OW16834   3.847   1.817  17.170  0.1107 -0.0156 -0.3009
 1791SOL    HW116835   3.835   1.733  17.126 -1.1933 -0.6726  1.3122
 1791SOL    HW216836   3.877   1.796  17.259  0.1140 -3.1925 -1.0578
 1792SOL     OW16837   2.192   1.648   6.575 -0.0977  0.5305 -0.1302
 1792SOL    HW116838   2.200   1.583   6.505 -0.8311  0.5028 -0.1857
 1792SOL    HW216839   2.122   1.608   6.628 -0.7551  2.6451  0.5783
 1793SOL     OW16840   3.514   2.902   0.927  0.2110 -0.1992 -0.0919
 1793SOL    HW116841   3.471   2.930   0.846 -0.5044 -1.2709 -0.0720
 1793SOL    HW216842   3.603   2.895   0.892  1.3387  0.6604  2.6126
 1794SOL     OW16843   4.620   4.625   3.231  0.7299 -0.4196  0.3924
 1794SOL    HW116844   4.618   4.679   3.152 -0.8568 -3.0788 -1.3922
 1794SOL    HW216845   4.547   4.656   3.283  0.9729 -2.9761  2.2546
 1795SOL     OW16846   3.556   2.941   9.293  0.7124 -0.2097 -0.1921
 1795SOL    HW116847   3.475   2.933   9.242 -0.5617  0.8060  1.6801
 1795SOL    HW216848   3.535   3.012   9.353 -1.0136 -0.7518 -0.1619
 1796SOL     OW16849   0.880   3.870  12.273 -0.0748 -0.4293 -0.0729
 1796SOL    HW116850   0.960   3.858  12.223  0.1927 -0.8587  0.4581
 1796SOL    HW216851   0.881   3.805  12.343  2.0646  1.4622  1.6353
 1797SOL     OW16852   1.595   0.841  11.766  0.2837 -0.1723 -0.1789
 1797SOL    HW116853   1.511   0.845  11.719 -0.4045 -0.1801  1.0461
 1797SOL    HW216854   1.653   0.866  11.694  0.6926  1.5327  0.7635
 1798SOL     OW16855   2.272   4.074   9.130 -0.3775  0.0361 -0.3766
 1798SOL    HW116856   2.316   4.081   9.215 -0.6774 -1.2884 -0.1103
 1798SOL    HW216857   2.224   4.156   9.121  1.8214  1.2413 -1.1948
 1799SOL     OW16858   0.374   0.938  13.455  1.1178 -0.3313  0.0994
 1799SOL    HW116859   0.345   0.849  13.475  3.0655 -0.7784  0.9425
 1799SOL    HW216860   0.429   0.963  13.529  0.0124  0.0040  0.8027
 1800SOL     OW16861   4.462   1.121   4.433  0.1533 -0.1903  0.3540
 1800SOL    HW116862   4.496   1.179   4.501 -1.8770  1.8872 -0.3797
 1800SOL    HW216863   4.375   1.096   4.463 -0.1813 -0.4331 -0.7927
 1801SOL     OW16864   3.360   1.909   8.880 -0.4837  0.5521  0.2935
 1801SOL    HW116865   3.380   1.853   8.955  0.5074 -0.2924 -0.5938
 1801SOL    HW216866   3.284   1.956   8.914 -1.9048 -0.9020 -0.9215
 1802SOL     OW16867   2.063   2.232   7.031 -0.1811  0.0214  0.4640
 1802SOL    HW116868   2.005   2.283   6.974  0.5442 -0.6228 -0.8557
 1802SOL    HW216869   2.067   2.150   6.982 -0.6941  0.1165  0.2592
 1803SOL     OW16870   1.303   0.120   8.971  0.0674  0.1078  0.1974
 1803SOL    HW116871   1.338   0.046   9.020  0.6154 -0.9019 -1.6911
 1803SOL    HW216872   1.209   0.117   8.984  0.0569 -1.1812 -0.1785
 1804SOL     OW16873   3.961   3.098   8.557  0.0173 -0.2289  0.3671
 1804SOL    HW116874   3.998   3.009   8.550  2.7889  0.9260  0.1333
 1804SOL    HW216875   4.023   3.143   8.499 -1.6286  2.5670  0.7900
 1805SOL     OW16876   1.730   4.092   7.541  0.2869  0.1447 -0.2257
 1805SOL    HW116877   1.705   4.037   7.614  0.7224  1.6840  1.0848
 1805SOL    HW216878   1.644   4.116   7.505  1.6214 -1.3697 -4.4268
 1806SOL     OW16879   1.765   2.872  13.676 -0.6527 -0.6396  0.4071
 1806SOL    HW116880   1.831   2.862  13.744  0.2062 -1.0256 -0.4778
 1806SOL    HW216881   1.688   2.884  13.731  0.3526 -0.5671  1.8161
 1807SOL     OW16882   2.593   0.546   0.056  0.5186  0.1150  0.2071
 1807SOL    HW116883   2.514   0.537   0.110  0.8286 -0.6597  0.5237
 1807SOL    HW216884   2.587   0.639   0.035  0.7275  0.1770  0.4382
 1808SOL     OW16885   2.217   1.441   6.400 -0.3277 -0.3589  0.2027
 1808SOL    HW116886   2.305   1.462   6.431 -0.4394 -0.3451  0.5133
 1808SOL    HW216887   2.235   1.356   6.360 -1.6738 -1.1293  1.2217
 1809SOL     OW16888   3.927   1.943  11.380 -0.5442  0.7204 -0.3811
 1809SOL    HW116889   3.891   1.927  11.293  4.3657 -0.2518 -2.2675
 1809SOL    HW216890   4.019   1.964  11.364 -0.6737  0.5055 -1.4425
 1810SOL     OW16891   3.022   2.667  10.532 -0.1327 -0.6756  0.0959
 1810SOL    HW116892   2.974   2.745  10.505  2.3340  0.9549  0.5128
 1810SOL    HW216893   3.102   2.683  10.483  0.4709  0.1769  1.3666
 1811SOL     OW16894   3.838   1.577   5.212 -0.2569  0.3570  0.7016
 1811SOL    HW116895   3.834   1.618   5.299 -0.2903 -1.6128  1.6313
 1811SOL    HW216896   3.757   1.527   5.208 -0.7599  1.2760 -0.7689
 1812SOL     OW16897   4.469   0.172   3.064 -0.0363 -0.4412 -0.1156
 1812SOL    HW116898   4.388   0.123   3.081  0.0205 -0.4747  0.0631
 1812SOL    HW216899   4.434   0.232   2.999  0.6946 -1.5954 -1.5634
 1813SOL     OW16900   1.445   1.830   8.243 -0.1593 -0.0095 -0.0853
 1813SOL    HW116901   1.406   1.879   8.170 -0.0682  1.7695  1.0706
 1813SOL    HW216902   1.378   1.830   8.311 -1.0376 -1.0198 -0.9493
 1814SOL     OW16903   0.172   3.208  15.314 -0.4707 -0.5201  0.1421
 1814SOL    HW116904   0.112   3.205  15.240 -0.6797  0.0727  0.2946
 1814SOL    HW216905   0.107   3.178  15.378 -0.8573 -2.0260 -0.9491
 1815SOL     OW16906   2.885   1.839   8.871 -0.1014  0.1150  0.3004
 1815SOL    HW116907   2.859   1.747   8.866  0.2317 -0.1021  2.6361
 1815SOL    HW216908   2.817   1.880   8.817 -0.9507  0.0240  1.3121
 1816SOL     OW16909   4.274   3.279   2.601 -0.1504  0.4508  0.1622
 1816SOL    HW116910   4.276   3.274   2.506  1.0928  1.2601  0.1567
 1816SOL    HW216911   4.249   3.371   2.609  1.6744  0.6198  3.7849
 1817SOL     OW16912   1.434   0.002   4.170 -0.2582 -0.1361  0.6579
 1817SOL    HW116913   1.407   4.664   4.236 -0.3599  1.1166  1.8184
 1817SOL    HW216914   1.521   4.698   4.144  0.3132 -0.2585  2.6943
 1818SOL     OW16915   3.388   4.056   6.968  0.1482  0.1427 -0.2185
 1818SOL    HW116916   3.354   4.062   6.879 -0.5738 -0.7024 -0.0046
 1818SOL    HW216917   3.422   4.144   6.980 -1.0461  0.8416 -2.0359
 1819SOL     OW16918   3.244   3.709   9.154 -0.1428 -0.6751  0.2547
 1819SOL    HW116919   3.246   3.621   9.115 -0.5351 -0.5370 -0.0782
 1819SOL    HW216920   3.170   3.714   9.214 -1.2938  0.3322 -1.2493
 1820SOL     OW16921   3.821   3.737   6.856  0.1001 -0.6809 -0.5071
 1820SOL    HW116922   3.794   3.828   6.872 -0.5123 -0.8935 -0.3102
 1820SOL    HW216923   3.797   3.691   6.936 -0.7637 -0.5424 -0.6757
 1821SOL     OW16924   2.654   0.221   9.990 -0.1924  0.1372 -0.0464
 1821SOL    HW116925   2.667   0.273  10.069  0.1004  0.0446 -0.0325
 1821SOL    HW216926   2.571   0.188  10.024 -1.0947  4.1804  1.6585
 1822SOL     OW16927   2.573   3.665  16.525  0.3134 -0.4190  0.5201
 1822SOL    HW116928   2.641   3.727  16.552  1.5830 -1.3005 -0.6363
 1822SOL    HW216929   2.551   3.623  16.609 -0.7570  0.4303  0.6611
 1823SOL     OW16930   0.517   1.616  10.649 -0.3661 -0.5479  0.1173
 1823SOL    HW116931   0.549   1.579  10.732 -1.0404 -0.4327  0.4300
 1823SOL    HW216932   0.425   1.628  10.671 -0.3045  0.5409 -0.2208
 1824SOL     OW16933   0.492   0.036   9.717 -0.2510  0.1758  0.5433
 1824SOL    HW116934   0.529   0.120   9.743  0.0269 -0.2505  1.5181
 1824SOL    HW216935   0.480   4.713   9.799  1.2498  0.2177  0.7938
 1825SOL     OW16936   3.587   2.728  15.740  0.1285 -0.5167  0.2950
 1825SOL    HW116937   3.508   2.682  15.710 -0.0436 -0.2342  0.3115
 1825SOL    HW216938   3.625   2.661  15.797  1.0183  0.4136  0.7937
 1826SOL     OW16939   1.613   2.804  15.518 -0.2465 -0.1455  0.3116
 1826SOL    HW116940   1.614   2.763  15.605  1.1014  1.0807  0.8744
 1826SOL    HW216941   1.533   2.854  15.531  2.9470  5.1324 -0.4665
 1827SOL     OW16942   2.545   1.455   9.010  0.4736  0.1213  0.0900
 1827SOL    HW116943   2.497   1.377   9.038  0.5541  1.0348  2.7614
 1827SOL    HW216944   2.472   1.516   9.019 -0.9071 -1.5737  0.3645
 1828SOL     OW16945   0.128   1.879  11.248 -0.2416  0.7012 -0.1433
 1828SOL    HW116946   0.098   1.914  11.164  0.0824  1.4664  0.0605
 1828SOL    HW216947   0.186   1.809  11.219 -0.2998  0.5286  0.1642
 1829SOL     OW16948   1.427   0.535   3.679  0.3817 -0.2698  0.6302
 1829SOL    HW116949   1.346   0.491   3.655 -1.3060  2.2885  1.5789
 1829SOL    HW216950   1.429   0.537   3.775 -0.7846 -1.1050  0.6654
 1830SOL     OW16951   3.204   2.768   6.885  0.0125  0.1949 -0.0720
 1830SOL    HW116952   3.290   2.757   6.926  0.9754  1.4407 -1.7637
 1830SOL    HW216953   3.174   2.835   6.946  4.6331 -0.4951  2.9744
 1831SOL     OW16954   3.936   0.389   6.992 -0.3977  0.8014 -0.0685
 1831SOL    HW116955   3.979   0.386   6.907  0.2505 -0.8001  0.3178
 1831SOL    HW216956   3.854   0.341   6.988 -1.2846  2.4897 -2.4140
 1832SOL     OW16957   0.965   1.284  10.584  0.0739 -0.3987  0.2090
 1832SOL    HW116958   0.927   1.205  10.545  1.3583  0.6761 -3.1838
 1832SOL    HW216959   1.025   1.311  10.514  1.2386  0.1630  1.4198
 1833SOL     OW16960   4.260   0.975   6.495 -0.1531  0.4145  0.0605
 1833SOL    HW116961   4.304   1.002   6.576  1.3326 -0.1141 -0.5650
 1833SOL    HW216962   4.208   1.054   6.481  0.6531  0.9944  0.3185
 1834SOL     OW16963   0.585   3.966   4.528  0.2039 -0.8511  0.3621
 1834SOL    HW116964   0.653   4.013   4.575 -1.5775 -0.1117  2.2169
 1834SOL    HW216965   0.593   3.885   4.579  1.4956 -1.7135 -1.2413
 1835SOL     OW16966   1.993   4.255  14.890  0.3170  0.1613 -0.1721
 1835SOL    HW116967   1.950   4.221  14.811  1.5955  2.0364 -1.6769
 1835SOL    HW216968   2.050   4.324  14.855  0.0161  0.0077 -0.9807
 1836SOL     OW16969   2.396   0.112   2.295 -0.2751  0.1763  0.4493
 1836SOL    HW116970   2.456   0.088   2.225  0.1253 -2.1387  1.5949
 1836SOL    HW216971   2.331   0.157   2.242  0.3328  2.6149  1.7555
 1837SOL     OW16972   1.097   2.641   7.793  0.2803 -0.4023 -0.5515
 1837SOL    HW116973   1.095   2.620   7.700 -1.1960 -3.7433  0.2314
 1837SOL    HW216974   1.165   2.583   7.827  0.2241  0.1827  0.5661
 1838SOL     OW16975   3.313   4.305   3.543  0.1314 -0.0955  0.2402
 1838SOL    HW116976   3.351   4.243   3.480 -1.2196 -1.2341  0.5285
 1838SOL    HW216977   3.381   4.306   3.610  0.1705  0.8843  0.1762
 1839SOL     OW16978   1.252   4.462   9.752 -0.1504 -0.4644  0.4106
 1839SOL    HW116979   1.236   4.377   9.792  0.1249 -0.2064  1.0721
 1839SOL    HW216980   1.334   4.489   9.793 -0.2773 -1.6323  1.3991
 1840SOL     OW16981   0.323   0.709  13.782 -0.2894 -0.1395 -0.6890
 1840SOL    HW116982   0.285   0.732  13.697 -1.4432 -0.9455 -0.3991
 1840SOL    HW216983   0.359   0.622  13.766  2.9480  1.0923  0.0736
 1841SOL     OW16984   1.073   3.033   4.096 -0.3077  0.0742 -0.0073
 1841SOL    HW116985   1.052   3.103   4.033  2.7368  0.9485 -0.0629
 1841SOL    HW216986   1.023   3.053   4.175  0.9045 -0.2554  0.8381
 1842SOL     OW16987   4.274   1.394   7.360 -0.5623 -0.1994 -0.0239
 1842SOL    HW116988   4.287   1.327   7.293 -1.4408 -0.6940  0.3046
 1842SOL    HW216989   4.276   1.343   7.441  0.1611 -0.4682 -0.2091
 1843SOL     OW16990   1.750   1.235   3.505  0.0224  0.4804 -0.0994
 1843SOL    HW116991   1.698   1.164   3.541  0.1061 -0.9970 -2.8651
 1843SOL    HW216992   1.780   1.181   3.432 -0.9450  2.1726 -1.7747
 1844SOL     OW16993   4.415   3.480   3.554  0.3039  0.1621  0.4507
 1844SOL    HW116994   4.370   3.540   3.613  2.6226  0.6171  1.7762
 1844SOL    HW216995   4.442   3.409   3.613  2.2793 -1.5738 -2.5126
 1845SOL     OW16996   0.471   1.827   5.672 -0.2992  0.3038  0.5582
 1845SOL    HW116997   0.518   1.825   5.588 -0.6616  0.2178  0.3595
 1845SOL    HW216998   0.430   1.741   5.684 -0.0099 -0.0234 -0.7628
 1846SOL     OW16999   1.793   4.384   3.649  0.0400  0.1306  0.6783
 1846SOL    HW117000   1.763   4.346   3.731 -1.2174  0.7205  0.4923
 1846SOL    HW217001   1.708   4.400   3.608 -0.7240  1.3002  2.7169
 1847SOL     OW17002   1.108   3.460  12.815 -0.0102  0.5415 -0.7632
 1847SOL    HW117003   1.146   3.512  12.886 -0.5738  1.3210 -1.0344
 1847SOL    HW217004   1.048   3.522  12.775 -1.1437 -1.4683 -2.2149
 1848SOL     OW17005   2.674   2.275   4.808  0.5574  0.0917 -0.0923
 1848SOL    HW117006   2.724   2.357   4.808 -1.5868  1.4171  1.2797
 1848SOL    HW217007   2.612   2.285   4.736  0.9504 -0.6531 -0.5254
 1849SOL     OW17008   0.280   3.282   6.088 -0.6055  0.6245 -0.4436
 1849SOL    HW117009   0.332   3.206   6.115 -1.7428 -0.1257 -0.3563
 1849SOL    HW217010   0.251   3.247   6.004  0.8647 -0.4795 -0.4961
 1850SOL     OW17011   3.740   2.092   4.377 -0.4442 -0.2873  0.6673
 1850SOL    HW117012   3.697   2.047   4.305  1.6451  1.7083 -1.8331
 1850SOL    HW217013   3.701   2.179   4.366 -2.5595 -1.3868 -0.5491
 1851SOL     OW17014   4.220   3.442   0.323 -0.3070 -0.4340 -0.3113
 1851SOL    HW117015   4.248   3.414   0.410  0.7129  0.1559 -0.4524
 1851SOL    HW217016   4.204   3.358   0.280 -0.3048  0.7569 -2.6422
 1852SOL     OW17017   4.339   0.894  16.712 -0.3797  0.3626  0.6591
 1852SOL    HW117018   4.332   0.989  16.722 -1.4832  0.4200 -0.7069
 1852SOL    HW217019   4.415   0.876  16.767  1.4156  1.4053 -1.5055
 1853SOL     OW17020   3.684   3.315   2.094 -0.3339 -0.4101  0.3523
 1853SOL    HW117021   3.764   3.362   2.119 -0.6540 -0.5458  1.6280
 1853SOL    HW217022   3.611   3.360   2.137  0.3075 -0.3088  1.3357
 1854SOL     OW17023   2.415   2.707   6.900  1.0071 -0.2566  0.0213
 1854SOL    HW117024   2.403   2.682   6.992  0.9374 -1.1584 -0.2302
 1854SOL    HW217025   2.505   2.678   6.885  0.9736 -0.3264 -0.0488
 1855SOL     OW17026   2.600   4.552   0.265 -0.4936  0.0895 -0.2140
 1855SOL    HW117027   2.508   4.564   0.242 -1.1026 -1.7085  1.3209
 1855SOL    HW217028   2.602   4.458   0.281  1.6407  0.4419  1.6317
 1856SOL     OW17029   2.843   2.073  17.409  0.0070  0.0530  0.1773
 1856SOL    HW117030   2.774   2.014  17.439  1.3831 -0.2844  2.7119
 1856SOL    HW217031   2.861   2.043  17.320  2.0573 -3.3925  1.7800
 1857SOL     OW17032   3.897   2.030   4.015  0.1979 -0.4342  0.4218
 1857SOL    HW117033   3.926   1.991   3.932 -0.3714  2.3433 -1.0798
 1857SOL    HW217034   3.979   2.035   4.064  0.4692 -0.7415 -0.0009
 1858SOL     OW17035   4.654   0.152  14.926 -0.1919  0.0630 -0.1955
 1858SOL    HW117036   4.664   0.247  14.932  0.9696 -0.1470  1.1334
 1858SOL    HW217037   4.680   0.148  14.834  0.9918  0.4181  0.1097
 1859SOL     OW17038   3.819   2.124   6.232  0.2646  0.6681  0.2237
 1859SOL    HW117039   3.906   2.098   6.202 -0.0739  1.2123 -1.2391
 1859SOL    HW217040   3.817   2.113   6.327  0.2089 -2.3085 -0.1331
 1860SOL     OW17041   2.813   0.336   8.269  0.1372  0.2367  0.2002
 1860SOL    HW117042   2.749   0.402   8.294 -0.2047 -0.2895  0.7344
 1860SOL    HW217043   2.895   0.365   8.309  1.0245 -0.8888 -0.8012
 1861SOL     OW17044   3.443   1.627   3.308 -0.4753 -0.0216 -0.3128
 1861SOL    HW117045   3.384   1.692   3.272 -0.3900 -0.3487 -1.0429
 1861SOL    HW217046   3.462   1.571   3.233  0.3759 -0.1444  0.0017
 1862SOL     OW17047   2.510   3.293  17.069 -0.4584 -0.2026  0.3702
 1862SOL    HW117048   2.442   3.330  17.012 -0.7222  0.1537  0.9165
 1862SOL    HW217049   2.587   3.348  17.051 -1.2106  0.8805  0.4697
 1863SOL     OW17050   1.217   4.487  11.971 -0.5285  0.0042  0.5039
 1863SOL    HW117051   1.187   4.522  11.886 -0.9912  1.4365  1.2495
 1863SOL    HW217052   1.296   4.540  11.974 -0.1842 -0.5601  1.2239
 1864SOL     OW17053   0.693   3.117   6.497  0.2238  0.0890 -0.1815
 1864SOL    HW117054   0.671   3.042   6.553  2.7941 -1.0346 -0.7056
 1864SOL    HW217055   0.696   3.064   6.418 -1.9950 -0.3160 -0.0069
 1865SOL     OW17056   3.722   3.903   5.214  0.6631 -0.1981  0.1323
 1865SOL    HW117057   3.764   3.987   5.234 -0.0602 -0.1674  1.5372
 1865SOL    HW217058   3.644   3.905   5.270  1.6722 -0.2727  1.5243
 1866SOL     OW17059   2.354   4.045   8.235  0.8471  0.3273 -0.4311
 1866SOL    HW117060   2.374   4.097   8.157 -1.4895  0.5803 -0.8657
 1866SOL    HW217061   2.437   4.002   8.255  0.5191 -0.0094  0.2149
 1867SOL     OW17062   0.775   2.275   3.363  0.1027  0.2747 -0.2284
 1867SOL    HW117063   0.777   2.361   3.406 -0.6364  0.8063 -1.2554
 1867SOL    HW217064   0.683   2.269   3.340  0.3216  1.6125 -1.4917
 1868SOL     OW17065   4.646   2.975   4.430 -0.1180 -0.3372 -0.0801
 1868SOL    HW117066   4.651   2.889   4.387 -0.5872 -0.4890  0.1720
 1868SOL    HW217067   4.576   2.956   4.493 -0.2418  0.2184 -0.0552
 1869SOL     OW17068   1.091   1.762   3.435 -0.1625  0.4576  0.1533
 1869SOL    HW117069   1.062   1.767   3.344  0.6549 -0.5482 -0.1620
 1869SOL    HW217070   1.073   1.669   3.451 -1.0017  0.4235 -1.0056
 1870SOL     OW17071   2.458   2.827  17.637  0.4314  0.3614 -0.6688
 1870SOL    HW117072   2.426   2.738  17.653 -1.8429  1.0371 -1.6138
 1870SOL    HW217073   2.550   2.804  17.621 -0.0590 -1.0585 -1.4199
 1871SOL     OW17074   0.402   2.461   8.685 -0.1531 -0.0379  0.3727
 1871SOL    HW117075   0.340   2.507   8.628 -0.3130  0.5988  1.0609
 1871SOL    HW217076   0.354   2.452   8.767 -1.4377 -0.0718 -0.3846
 1872SOL     OW17077   2.248   1.576   8.355 -0.6234 -0.1792 -0.1222
 1872SOL    HW117078   2.192   1.608   8.284 -0.0909  0.1068 -0.4157
 1872SOL    HW217079   2.334   1.611   8.331 -0.3937  0.0798  1.0302
 1873SOL     OW17080   2.440   1.978   2.789 -0.1968  0.0128  0.1758
 1873SOL    HW117081   2.525   2.015   2.813 -0.1497  0.3880 -0.5513
 1873SOL    HW217082   2.448   1.971   2.694 -0.1713  1.5140  0.0627
 1874SOL     OW17083   0.179   0.933  15.725 -0.1345 -0.1622 -0.3572
 1874SOL    HW117084   0.146   1.001  15.666  0.4353 -1.7851 -2.5412
 1874SOL    HW217085   0.243   0.908  15.658  2.0463  0.1525  1.6095
 1875SOL     OW17086   3.458   3.400   8.214 -0.1328  0.3862 -0.2766
 1875SOL    HW117087   3.451   3.388   8.309  0.4236  1.9203 -0.0358
 1875SOL    HW217088   3.479   3.312   8.185 -0.5963 -1.0401  3.7328
 1876SOL     OW17089   1.763   4.241   3.119  0.1879  0.2446  0.0249
 1876SOL    HW117090   1.702   4.279   3.183 -0.0915 -0.6081  0.2705
 1876SOL    HW217091   1.731   4.269   3.033 -0.8191 -0.9044  0.0241
 1877SOL     OW17092   0.455   2.981   7.881 -0.2403  0.0474 -0.1608
 1877SOL    HW117093   0.489   3.020   7.961  2.4054 -2.5838  0.0078
 1877SOL    HW217094   0.449   2.887   7.898  1.6915  0.0611  0.5251
 1878SOL     OW17095   3.012   3.746  16.973  0.6168 -0.4021 -0.4929
 1878SOL    HW117096   3.057   3.743  16.889  0.5795 -0.3683 -0.5144
 1878SOL    HW217097   2.934   3.798  16.954  1.2899  0.9503  0.3791
 1879SOL     OW17098   3.737   1.792   2.589 -0.1714 -0.8782  0.3283
 1879SOL    HW117099   3.801   1.858   2.614 -1.2491  0.8268 -1.3810
 1879SOL    HW217100   3.676   1.842   2.534 -0.9050 -2.1603 -0.0411
 1880SOL     OW17101   2.189   1.940   9.145 -0.3004 -0.2175 -0.6790
 1880SOL    HW117102   2.128   2.001   9.103  1.8604  2.7836  0.5608
 1880SOL    HW217103   2.135   1.874   9.188  0.3011 -0.8405 -0.8775
 1881SOL     OW17104   4.426   3.244   5.285 -0.2151  0.5421  0.1066
 1881SOL    HW117105   4.442   3.335   5.308  1.6157  0.1773  0.3419
 1881SOL    HW217106   4.416   3.249   5.190  1.6270  2.5402  0.0241
 1882SOL     OW17107   4.724   1.406   8.506  0.0071 -0.2560 -0.0913
 1882SOL    HW117108   0.074   1.383   8.559  0.6305 -0.9352 -1.2703
 1882SOL    HW217109   4.703   1.332   8.449 -0.0350 -0.3020 -0.0155
 1883SOL     OW17110   1.281   1.507   4.858  0.6125 -0.6983  0.0264
 1883SOL    HW117111   1.368   1.477   4.833 -0.3831 -2.1085 -1.7065
 1883SOL    HW217112   1.277   1.584   4.801 -1.3384  0.3083  1.5256
 1884SOL     OW17113   1.194   2.224   3.778  0.1179  0.3722 -0.7497
 1884SOL    HW117114   1.223   2.290   3.715 -0.2903  2.3967  1.1742
 1884SOL    HW217115   1.278   2.187   3.804  0.7522  0.8607 -2.0931
 1885SOL     OW17116   3.427   1.028   7.372 -0.0431 -0.2121 -0.6995
 1885SOL    HW117117   3.342   0.984   7.363  0.8131 -1.9820 -0.1038
 1885SOL    HW217118   3.482   0.973   7.317  2.9015  0.3902  1.6898
 1886SOL     OW17119   4.606   1.343   5.430  0.1393  0.3291  0.3992
 1886SOL    HW117120   4.580   1.420   5.482 -2.2273  0.0930 -0.4174
 1886SOL    HW217121   4.624   1.277   5.497  1.1190 -0.9905 -1.2023
 1887SOL     OW17122   2.122   2.632   7.823  0.1894  0.0878  0.2277
 1887SOL    HW117123   2.103   2.681   7.743 -0.6286 -0.5597  0.0291
 1887SOL    HW217124   2.217   2.628   7.811  0.2433 -0.6690  0.9347
 1888SOL     OW17125   0.198   3.130   7.277 -0.1743  0.3191  0.2443
 1888SOL    HW117126   0.188   3.204   7.336  3.0643  0.2732  0.8757
 1888SOL    HW217127   0.192   3.058   7.340  1.2116  1.7647  2.0276
 1889SOL     OW17128   3.441   0.113  11.433 -0.4306 -0.2904 -0.0862
 1889SOL    HW117129   3.453   0.123  11.528 -0.4359 -0.4723 -0.0664
 1889SOL    HW217130   3.411   0.022  11.426  0.5059 -0.5535 -0.6237
 1890SOL     OW17131   2.334   2.613   2.463  0.5265 -0.2151 -0.1273
 1890SOL    HW117132   2.297   2.697   2.492 -0.4780 -0.0908 -1.7667
 1890SOL    HW217133   2.345   2.571   2.548 -1.9596  0.2285  0.4187
 1891SOL     OW17134   3.824   0.342   8.131  0.1046  0.0311  0.2660
 1891SOL    HW117135   3.829   0.410   8.063  0.1837 -0.3508 -0.1052
 1891SOL    HW217136   3.736   0.315   8.105  0.3097  0.9432 -1.3448
 1892SOL     OW17137   1.157   2.011   8.572  0.2442  0.2332  0.6568
 1892SOL    HW117138   1.169   1.939   8.511 -2.4497  0.9358 -0.7089
 1892SOL    HW217139   1.232   2.004   8.631 -0.8153  0.2948  2.0309
 1893SOL     OW17140   1.735   1.610   4.132  0.3243  0.7639  0.4936
 1893SOL    HW117141   1.696   1.561   4.060  0.1897 -0.8888  1.7065
 1893SOL    HW217142   1.654   1.635   4.176 -0.9518 -1.5520 -0.5287
 1894SOL     OW17143   0.733   4.660   8.129  0.3167  0.4058  0.1482
 1894SOL    HW117144   0.716   4.579   8.080  0.1669 -0.0400  0.9384
 1894SOL    HW217145   0.671   4.649   8.201 -0.0464  1.9367  0.0608
 1895SOL     OW17146   3.774   2.936   0.750  0.4072  0.0237 -0.5875
 1895SOL    HW117147   3.832   2.994   0.701  0.5014  1.5929  1.3627
 1895SOL    HW217148   3.732   2.867   0.698  1.1849 -1.2193  0.4385
 1896SOL     OW17149   4.356   1.389   2.492  0.3393 -0.4279 -0.3932
 1896SOL    HW117150   4.331   1.480   2.479  3.2903  0.3445 -0.6320
 1896SOL    HW217151   4.452   1.395   2.495  0.2861  0.5274 -0.6630
 1897SOL     OW17152   0.171   2.492   3.982 -0.8500  0.3894 -0.1801
 1897SOL    HW117153   0.195   2.519   3.893  1.6660 -0.2639  0.2980
 1897SOL    HW217154   0.090   2.536   4.005 -0.9472  1.4238 -2.5242
 1898SOL     OW17155   4.346   2.575  17.676 -0.2003 -0.1622  0.4113
 1898SOL    HW117156   4.377   2.505  17.619  0.4352  1.6409 -1.4050
 1898SOL    HW217157   4.423   2.613   0.013  0.1191  0.8804 -1.1624
 1899SOL     OW17158   2.882   1.348   3.756 -0.5729  0.4758  0.4933
 1899SOL    HW117159   2.925   1.346   3.842 -2.5328  0.0807  1.4694
 1899SOL    HW217160   2.898   1.255   3.740  1.5969  0.3793  3.1140
 1900SOL     OW17161   0.692   1.330   9.257  0.1876 -0.0470 -0.4006
 1900SOL    HW117162   0.646   1.268   9.200  0.1404  0.0810 -0.5024
 1900SOL    HW217163   0.785   1.308   9.248  0.9087  2.9815 -0.2958
 1901SOL     OW17164   3.213   1.228  17.430 -0.0400  0.0921 -0.1906
 1901SOL    HW117165   3.229   1.160  17.365 -0.5099 -1.3942  1.2517
 1901SOL    HW217166   3.305   1.247  17.449  0.7570 -2.4673 -1.4734
 1902SOL     OW17167   1.882   4.215   4.119  0.0853  0.4817 -0.3395
 1902SOL    HW117168   1.929   4.153   4.174  0.0754 -0.7585 -1.7395
 1902SOL    HW217169   1.953   4.246   4.063 -0.5096 -0.8869 -1.8542
 1903SOL     OW17170   2.499   3.674  14.509  0.6824  0.3025 -0.3521
 1903SOL    HW117171   2.439   3.612  14.467  1.3785 -0.1231 -0.7259
 1903SOL    HW217172   2.556   3.689  14.434 -0.5930  0.6407 -1.2505
 1904SOL     OW17173   2.874   0.421   0.818 -0.2105 -0.1589 -0.1398
 1904SOL    HW117174   2.903   0.330   0.824 -0.5676 -0.2253  0.5114
 1904SOL    HW217175   2.933   0.461   0.881  1.2413  0.9202 -2.1751
 1905SOL     OW17176   1.176   0.122   1.283 -0.0921 -0.1831  0.2059
 1905SOL    HW117177   1.143   0.042   1.243 -1.0577 -0.0519  0.7409
 1905SOL    HW217178   1.256   0.131   1.232 -0.2315  0.3746  0.0859
 1906SOL     OW17179   0.489   2.193  11.908  0.0076  0.5883 -0.0367
 1906SOL    HW117180   0.469   2.134  11.836 -0.0519 -0.2522  0.6740
 1906SOL    HW217181   0.557   2.250  11.872 -1.2555  1.4043 -1.1309
 1907SOL     OW17182   2.350   0.987  16.145 -0.6677  0.9196  0.2930
 1907SOL    HW117183   2.400   1.069  16.150 -0.3359  0.7320  0.0676
 1907SOL    HW217184   2.319   0.983  16.235 -1.8667  1.3595 -0.1064
 1908SOL     OW17185   3.206   2.795   2.921  0.0972 -0.1107  0.3799
 1908SOL    HW117186   3.237   2.773   2.833 -0.2659 -2.5143  0.8392
 1908SOL    HW217187   3.262   2.872   2.927  1.2080 -1.0579  2.1114
 1909SOL     OW17188   3.167   0.194   0.619  0.5413  0.0764 -0.2238
 1909SOL    HW117189   3.160   0.230   0.531  0.7155 -0.0250 -0.2799
 1909SOL    HW217190   3.072   0.183   0.631  0.5303  0.9397  0.5218
 1910SOL     OW17191   3.106   3.724  12.934  0.0374 -0.0736 -0.5187
 1910SOL    HW117192   3.173   3.748  12.871 -1.2052 -0.6742 -2.0536
 1910SOL    HW217193   3.159   3.659  12.981 -0.9388 -0.4535  0.0437
 1911SOL     OW17194   4.663   3.176  15.434 -0.6085  0.4144 -0.0479
 1911SOL    HW117195   4.584   3.183  15.487  0.3844  0.2903  1.4470
 1911SOL    HW217196   4.620   3.148  15.353  0.6793 -1.2712 -0.1364
 1912SOL     OW17197   2.380   1.837   8.547  0.4856  0.2752 -0.3452
 1912SOL    HW117198   2.474   1.837   8.565  0.1001  3.0804  1.7479
 1912SOL    HW217199   2.378   1.902   8.476 -1.1624 -0.5287 -1.0185
 1913SOL     OW17200   3.814   0.719   7.542  0.0343  0.2759  0.1836
 1913SOL    HW117201   3.886   0.760   7.494  0.7398  0.8131  1.6943
 1913SOL    HW217202   3.832   0.625   7.547 -2.4086 -0.1708  0.9510
 1914SOL     OW17203   0.444   3.539   5.495 -0.2831  0.0330 -0.2138
 1914SOL    HW117204   0.436   3.458   5.544 -2.3967 -0.2263 -0.9631
 1914SOL    HW217205   0.365   3.586   5.522 -1.6352 -1.0104 -2.3309
 1915SOL     OW17206   1.955   4.724   1.032  0.3478  0.5160 -0.5442
 1915SOL    HW117207   1.977   0.015   0.940  0.5606  0.5771 -0.4841
 1915SOL    HW217208   1.992   4.639   1.057  0.7548  0.7732 -0.2755
 1916SOL     OW17209   1.734   1.169   7.915 -0.0062 -0.3067  0.4041
 1916SOL    HW117210   1.726   1.074   7.921 -1.8322 -0.0905  1.4177
 1916SOL    HW217211   1.646   1.185   7.949 -1.0439 -4.4056 -0.3462
 1917SOL     OW17212   0.719   1.942  12.204 -0.3826 -0.3433  0.4009
 1917SOL    HW117213   0.666   1.922  12.127 -0.1696  1.2439 -0.1571
 1917SOL    HW217214   0.661   1.912  12.274  1.1339  2.3566  2.8314
 1918SOL     OW17215   3.117   0.830   4.127  0.4763  0.0403 -0.3832
 1918SOL    HW117216   3.100   0.879   4.208 -0.2911  0.2572 -0.6745
 1918SOL    HW217217   3.118   0.745   4.171 -2.9735  0.1993 -0.0318
 1919SOL     OW17218   1.736   3.430   3.816  0.4822 -0.5867 -1.0036
 1919SOL    HW117219   1.696   3.352   3.775  2.0047 -1.5687 -0.6248
 1919SOL    HW217220   1.778   3.464   3.736  0.5029 -1.3813 -1.3352
 1920SOL     OW17221   3.783   4.361   5.367 -0.3753 -0.5305  0.5042
 1920SOL    HW117222   3.701   4.335   5.325  0.1583 -1.2191 -0.0960
 1920SOL    HW217223   3.753   4.378   5.457  1.0702  0.3783  0.8110
 1921SOL     OW17224   2.328   2.939   8.378  0.1695  0.3240  0.3071
 1921SOL    HW117225   2.242   2.953   8.338 -0.3612  1.0807  1.7149
 1921SOL    HW217226   2.389   2.956   8.306 -1.0062  3.3873  0.0459
 1922SOL     OW17227   3.932   1.851   7.678  0.5688 -0.0213  0.0705
 1922SOL    HW117228   3.874   1.779   7.702 -0.0372 -0.1220 -1.6520
 1922SOL    HW217229   3.978   1.877   7.757 -1.2616 -0.4183  1.2547
 1923SOL     OW17230   0.869   4.701   7.596  0.3732  0.1695  0.3986
 1923SOL    HW117231   0.783   0.004   7.566  0.1707 -0.4257  0.4245
 1923SOL    HW217232   0.933   4.708   7.525  1.3746 -0.0315  1.2679
 1924SOL     OW17233   4.201   0.810   5.781  0.3267 -0.0386  0.3988
 1924SOL    HW117234   4.126   0.763   5.815  1.2091 -2.1402 -0.5484
 1924SOL    HW217235   4.245   0.741   5.731  0.1155 -0.0610  0.2433
 1925SOL     OW17236   0.692   0.245  12.574  0.0436 -0.3065  1.0262
 1925SOL    HW117237   0.724   0.176  12.632 -0.0770 -0.6310  0.7064
 1925SOL    HW217238   0.775   0.272  12.536 -0.4110  1.7420  1.5172
 1926SOL     OW17239   4.015   3.470   3.700  0.2416 -0.1748  0.4309
 1926SOL    HW117240   4.002   3.475   3.605  1.6518  0.7151  0.2765
 1926SOL    HW217241   4.008   3.375   3.711  1.9311 -0.3841 -0.2261
 1927SOL     OW17242   4.542   3.254   2.559  0.0305 -0.1121 -0.0276
 1927SOL    HW117243   4.568   3.346   2.565  2.2352 -0.8650  1.9825
 1927SOL    HW217244   4.453   3.259   2.595 -0.0781 -1.0655 -0.1818
 1928SOL     OW17245   0.566   0.985   7.171 -0.0427 -0.1777 -0.4335
 1928SOL    HW117246   0.627   0.955   7.103 -1.2258 -0.5119 -1.3308
 1928SOL    HW217247   0.551   1.075   7.141  2.0167  1.1054  2.3639
 1929SOL     OW17248   4.003   3.438   7.236 -0.4750 -0.0169 -0.4376
 1929SOL    HW117249   4.046   3.367   7.189 -1.5506  1.0247 -3.0319
 1929SOL    HW217250   3.958   3.399   7.311  0.3891  3.1650  1.7543
 1930SOL     OW17251   2.363   2.118   5.492 -0.2587 -0.9976 -0.5846
 1930SOL    HW117252   2.354   2.203   5.448 -0.4425 -0.4773  0.4648
 1930SOL    HW217253   2.390   2.157   5.575 -1.2197  0.2139 -0.8354
 1931SOL     OW17254   1.138   3.801   3.602  0.2046  0.3358  0.4436
 1931SOL    HW117255   1.082   3.744   3.656 -0.2577 -1.0569 -1.5331
 1931SOL    HW217256   1.212   3.813   3.661 -0.6021  2.3440  1.0714
 1932SOL     OW17257   3.395   3.476   9.742  0.4244 -0.3887 -0.3680
 1932SOL    HW117258   3.489   3.489   9.736  0.5149 -0.8731  0.0699
 1932SOL    HW217259   3.398   3.413   9.813  0.7459 -0.8186 -0.7640
 1933SOL     OW17260   4.488   4.443   7.215  0.0651 -0.4679 -0.4178
 1933SOL    HW117261   4.435   4.431   7.293  0.2358  1.2335 -0.0477
 1933SOL    HW217262   4.544   4.518   7.237 -0.3074  0.1117 -1.4438
 1934SOL     OW17263   3.570   2.747   1.954  0.2474  0.9126  0.1536
 1934SOL    HW117264   3.597   2.837   1.936 -2.8747  1.1791 -3.2559
 1934SOL    HW217265   3.529   2.730   1.869 -1.7068 -0.4468  1.3837
 1935SOL     OW17266   3.495   1.658   5.845 -0.3084 -0.1973  0.1233
 1935SOL    HW117267   3.401   1.658   5.864 -0.6341  2.7381 -1.5265
 1935SOL    HW217268   3.525   1.737   5.890 -0.1662 -0.7879  1.0731
 1936SOL     OW17269   0.389   4.580   3.225  0.3649 -0.0192  0.2921
 1936SOL    HW117270   0.369   4.531   3.145 -1.7488  2.5228 -0.7505
 1936SOL    HW217271   0.381   4.671   3.196  1.6523 -0.2804 -0.9263
 1937SOL     OW17272   0.008   3.315  13.203  0.0639  0.5562  0.4932
 1937SOL    HW117273   0.022   3.224  13.228  2.6446  0.7049 -0.4105
 1937SOL    HW217274   4.691   3.305  13.118 -1.3176 -0.5643  1.3082
 1938SOL     OW17275   1.780   3.227   2.517 -0.2276 -0.2174  0.1409
 1938SOL    HW117276   1.740   3.285   2.453  1.2537  1.7732  1.0128
 1938SOL    HW217277   1.866   3.257   2.487  0.1746 -0.4144  1.0796
 1939SOL     OW17278   0.176   0.358   9.308  0.6823  0.5708  0.5569
 1939SOL    HW117279   0.201   0.377   9.218  2.3040 -1.3628  0.5899
 1939SOL    HW217280   0.087   0.391   9.312  0.4592 -0.3291  2.9272
 1940SOL     OW17281   2.360   4.247   3.815  0.5426  0.6014 -0.3490
 1940SOL    HW117282   2.345   4.277   3.725 -1.2902  2.6818  0.6422
 1940SOL    HW217283   2.453   4.224   3.811  0.8320  1.6915  0.0963
 1941SOL     OW17284   3.758   0.732   1.080  0.5173  0.2738 -0.0793
 1941SOL    HW117285   3.772   0.643   1.114 -1.4446 -0.3706 -0.9469
 1941SOL    HW217286   3.821   0.785   1.128 -0.3870  2.4347 -1.3050
 1942SOL     OW17287   2.784   3.920   3.444 -0.6283  0.1475  0.2531
 1942SOL    HW117288   2.694   3.888   3.442 -1.0029  1.1144  1.4274
 1942SOL    HW217289   2.800   3.937   3.537 -3.1745  0.8790  0.5478
 1943SOL     OW17290   3.674   3.628   8.875  0.2400 -0.0927 -0.8368
 1943SOL    HW117291   3.714   3.620   8.788 -0.0090 -0.9269 -0.8831
 1943SOL    HW217292   3.581   3.626   8.854 -0.1100  1.6234  0.5720
 1944SOL     OW17293   1.280   1.013  10.379  0.6524 -0.1808  0.3837
 1944SOL    HW117294   1.256   0.970  10.297 -0.0279  0.0200  0.4690
 1944SOL    HW217295   1.331   1.087  10.346  0.0839  0.9594  2.0474
 1945SOL     OW17296   1.823   0.143   6.108 -0.3762 -0.4186  0.4834
 1945SOL    HW117297   1.729   0.147   6.121 -0.4513  0.1450 -0.2448
 1945SOL    HW217298   1.839   0.191   6.189 -0.3834  1.3055 -0.5458
 1946SOL     OW17299   2.904   0.184  11.923  0.1867 -0.0164 -0.0967
 1946SOL    HW117300   2.884   0.099  11.886 -3.8336  1.1195 -0.5299
 1946SOL    HW217301   2.818   0.223  11.908  0.5992 -0.7930 -4.3953
 1947SOL     OW17302   3.459   3.682  14.828  1.0223  0.2455  0.0924
 1947SOL    HW117303   3.437   3.768  14.864 -1.0120  0.0972 -0.7899
 1947SOL    HW217304   3.406   3.667  14.750  0.4227  0.7036  0.4128
 1948SOL     OW17305   4.104   3.244  17.174 -0.6311 -0.2644  0.1250
 1948SOL    HW117306   4.100   3.219  17.082  0.2335 -2.6873  0.7437
 1948SOL    HW217307   4.037   3.193  17.219 -0.5023 -0.1657  0.4361
 1949SOL     OW17308   3.705   3.154   7.194 -0.0674 -0.2362  0.3776
 1949SOL    HW117309   3.714   3.192   7.282 -2.1456 -0.7685  0.8196
 1949SOL    HW217310   3.770   3.207   7.148 -1.2336  0.0432 -0.9313
 1950SOL     OW17311   0.294   2.697   5.367 -0.0964 -0.1970 -0.0768
 1950SOL    HW117312   0.208   2.689   5.407 -0.4843  1.1416 -0.6558
 1950SOL    HW217313   0.287   2.783   5.328  0.6771  0.5544  1.4179
 1951SOL     OW17314   4.568   2.454  16.999  0.2553 -0.5131  0.1285
 1951SOL    HW117315   4.508   2.475  16.927 -1.3211 -0.5699  1.4502
 1951SOL    HW217316   4.605   2.373  16.963  0.0460  0.4752 -2.3063
 1952SOL     OW17317   0.588   1.737   7.754 -0.1141 -0.2597  0.2252
 1952SOL    HW117318   0.521   1.677   7.789  1.6268 -1.2720  1.7899
 1952SOL    HW217319   0.528   1.809   7.735 -0.2600 -0.8342 -1.5622
 1953SOL     OW17320   2.601   2.445  13.053  0.9963 -0.2242 -0.1599
 1953SOL    HW117321   2.576   2.516  12.994  2.2164 -1.2587 -1.9325
 1953SOL    HW217322   2.695   2.458  13.039  0.7144  1.9491 -0.0078
 1954SOL     OW17323   0.179   3.901  15.828  0.4037  0.1411 -0.5689
 1954SOL    HW117324   0.230   3.844  15.770 -0.8562  0.2275 -1.7609
 1954SOL    HW217325   0.245   3.950  15.878 -0.4717  0.5436  0.1975
 1955SOL     OW17326   3.271   0.928   1.395 -0.0274 -0.0410  0.2854
 1955SOL    HW117327   3.292   0.857   1.457  1.1091  2.7563  3.1222
 1955SOL    HW217328   3.223   0.887   1.323  2.1302 -0.0979 -1.1422
 1956SOL     OW17329   1.889   1.533  15.515  0.5965  0.4791 -0.2213
 1956SOL    HW117330   1.849   1.465  15.461 -0.6102  1.5077 -0.6417
 1956SOL    HW217331   1.857   1.512  15.603  0.4082 -1.3826 -0.7332
 1957SOL     OW17332   2.626   0.445   0.909  0.7789  0.0745  0.1715
 1957SOL    HW117333   2.639   0.350   0.908 -1.1431 -0.1749 -0.9881
 1957SOL    HW217334   2.711   0.472   0.873  0.9241 -1.3666 -0.5696
 1958SOL     OW17335   3.366   0.435   7.041 -0.0010 -0.1902  0.1927
 1958SOL    HW117336   3.340   0.419   7.132 -0.2197  0.2911  0.2116
 1958SOL    HW217337   3.333   0.524   7.031 -2.7820 -1.1783  0.6504
 1959SOL     OW17338   1.142   0.974   0.364 -0.0358  0.1277 -0.1023
 1959SOL    HW117339   1.188   0.924   0.431 -1.7487 -1.5415 -0.1719
 1959SOL    HW217340   1.058   0.982   0.410  0.6341  0.8218  0.9979
 1960SOL     OW17341   4.504   0.342   8.721  0.1109  0.4650 -0.0986
 1960SOL    HW117342   4.573   0.371   8.780  0.8893 -0.3914 -0.5949
 1960SOL    HW217343   4.478   0.258   8.759  2.7752  0.3512  1.4638
 1961SOL     OW17344   3.362   1.237  12.627 -0.2511 -0.5164 -0.1615
 1961SOL    HW117345   3.454   1.230  12.653  0.2703 -0.6186 -2.0562
 1961SOL    HW217346   3.313   1.176  12.683 -0.2989 -0.1654  0.1754
 1962SOL     OW17347   1.381   0.724   6.593  0.1794 -0.3972  0.4066
 1962SOL    HW117348   1.364   0.672   6.514  2.3898  0.0427 -0.3794
 1962SOL    HW217349   1.299   0.770   6.608  1.2296  1.6555 -0.1481
 1963SOL     OW17350   1.190   2.333   6.978  0.1447 -0.3612  0.7752
 1963SOL    HW117351   1.234   2.279   6.912  0.7216 -1.1451  1.8052
 1963SOL    HW217352   1.197   2.281   7.058 -1.0768 -0.2990  0.9248
 1964SOL     OW17353   1.298   1.330   0.342  0.5675 -0.2140 -0.7726
 1964SOL    HW117354   1.211   1.293   0.352  1.4552 -1.1937  3.0516
 1964SOL    HW217355   1.290   1.389   0.267  0.3893 -2.9919 -2.9224
 1965SOL     OW17356   3.451   0.664   4.229 -0.1458 -0.1595  0.2967
 1965SOL    HW117357   3.455   0.589   4.169  1.4947 -0.0773  0.3073
 1965SOL    HW217358   3.457   0.741   4.172  0.7334 -0.5714 -0.1713
 1966SOL     OW17359   0.960   0.113  17.140  0.0987  0.1670 -0.2563
 1966SOL    HW117360   0.970   0.164  17.059  2.3913 -0.4452 -0.3564
 1966SOL    HW217361   0.970   0.182  17.205  1.6836  1.8444 -2.2477
 1967SOL     OW17362   2.013   1.479   4.675 -0.1218  0.2444 -0.2373
 1967SOL    HW117363   2.012   1.386   4.650 -0.3481  0.4877 -1.1514
 1967SOL    HW217364   1.923   1.505   4.658  0.3040  1.2720 -0.8923
 1968SOL     OW17365   0.012   3.499   2.174 -0.4269 -0.0160 -0.1811
 1968SOL    HW117366   4.668   3.465   2.230 -1.2867 -0.7902 -1.7136
 1968SOL    HW217367   0.091   3.488   2.227 -1.0569 -3.1091  0.1077
 1969SOL     OW17368   0.855   1.490   5.331 -0.1930 -0.3186 -0.2981
 1969SOL    HW117369   0.870   1.520   5.241 -2.4769  0.9728 -0.2575
 1969SOL    HW217370   0.863   1.574   5.376 -0.4146 -0.6114  0.2836
 1970SOL     OW17371   0.109   2.480   4.325 -0.2190  0.2092 -0.5107
 1970SOL    HW117372   0.145   2.422   4.258 -0.0755  0.3226 -0.5327
 1970SOL    HW217373   0.151   2.450   4.405 -2.0155 -1.6318 -0.2755
 1971SOL     OW17374   4.457   3.880   5.175  0.2367 -0.2482 -0.4495
 1971SOL    HW117375   4.468   3.974   5.188  0.8588 -0.3111 -0.5262
 1971SOL    HW217376   4.549   3.858   5.164  0.1473 -0.3057 -1.0808
 1972SOL     OW17377   1.933   0.274  13.930  0.3417 -0.0940  0.9370
 1972SOL    HW117378   1.943   0.179  13.927 -0.3142 -0.1609  0.7937
 1972SOL    HW217379   2.023   0.296  13.906  0.6179 -1.0016  1.1750
 1973SOL     OW17380   2.512   1.701   6.290 -0.0588 -0.0090 -0.6641
 1973SOL    HW117381   2.472   1.636   6.233 -1.9520  0.1675  0.4790
 1973SOL    HW217382   2.487   1.662   6.373 -0.3505  1.1278 -0.2138
 1974SOL     OW17383   4.515   2.676  15.114 -0.1406 -0.3456 -0.1912
 1974SOL    HW117384   4.423   2.666  15.138  0.0618 -0.6638  0.4558
 1974SOL    HW217385   4.543   2.590  15.083 -1.4231 -0.0903 -2.0324
 1975SOL     OW17386   4.476   2.600  15.401 -0.2285  0.5156  0.2318
 1975SOL    HW117387   4.459   2.551  15.481  2.7764 -4.0713 -1.9216
 1975SOL    HW217388   4.397   2.580  15.351 -0.3108 -1.3251  1.0844
 1976SOL     OW17389   0.340   1.511   8.461 -0.2540 -0.5713 -0.3098
 1976SOL    HW117390   0.412   1.495   8.524  0.2431  3.9315  0.2343
 1976SOL    HW217391   0.302   1.593   8.490 -0.9839 -1.0614  0.1077
 1977SOL     OW17392   2.881   4.071   7.121  0.0050 -0.0638  0.1043
 1977SOL    HW117393   2.912   3.996   7.070 -2.4654 -1.1416  0.1627
 1977SOL    HW217394   2.960   4.113   7.154 -1.6755  0.4485  3.5447
 1978SOL     OW17395   4.095   1.496  15.587  0.1168  0.3806 -0.5685
 1978SOL    HW117396   4.013   1.533  15.620  0.9504 -0.5169  2.5320
 1978SOL    HW217397   4.078   1.402  15.591 -1.8785  0.9879  4.6095
 1979SOL     OW17398   0.853   2.606   6.926 -0.4201 -0.1205  0.3473
 1979SOL    HW117399   0.879   2.698   6.927 -1.4826  0.1793  0.7675
 1979SOL    HW217400   0.817   2.607   6.837 -0.7547 -1.0479  0.4736
 1980SOL     OW17401   3.031   1.431  15.329 -0.2885  0.0456  0.0046
 1980SOL    HW117402   3.032   1.520  15.293 -0.8080  0.0283 -0.0599
 1980SOL    HW217403   3.067   1.384  15.254 -1.4864 -0.9351  0.0443
 1981SOL     OW17404   4.358   2.745   6.278  0.1358  0.4759  0.5927
 1981SOL    HW117405   4.366   2.822   6.222  1.4005 -0.6376 -0.7561
 1981SOL    HW217406   4.380   2.677   6.214 -0.1054  1.9662 -1.0618
 1982SOL     OW17407   3.401   4.092   0.026  0.0149 -0.1054 -0.8528
 1982SOL    HW117408   3.469   4.043   0.072 -0.1014  0.2694 -0.2741
 1982SOL    HW217409   3.329   4.029   0.026 -0.0383 -0.0213  1.8133
 1983SOL     OW17410   2.511   1.678   5.295 -0.0316  0.2663 -0.3363
 1983SOL    HW117411   2.474   1.714   5.376 -0.3502 -0.6977 -0.0520
 1983SOL    HW217412   2.428   1.658   5.250 -0.7456  4.9825 -1.1228
 1984SOL     OW17413   4.695   4.600  14.901 -0.1162 -0.3250 -0.3448
 1984SOL    HW117414   4.695   4.693  14.925  0.1991  0.0412 -1.7822
 1984SOL    HW217415   4.693   4.601  14.805  0.4402 -0.9509 -0.3563
 1985SOL     OW17416   4.435   1.271   4.090 -0.0273  0.6746  0.1034
 1985SOL    HW117417   4.432   1.183   4.052  2.3409  0.6676 -0.0902
 1985SOL    HW217418   4.360   1.281   4.148  0.2640 -0.4767  0.6593
 1986SOL     OW17419   4.522   2.534  13.559  0.4270  0.2672  0.6127
 1986SOL    HW117420   4.499   2.463  13.498  2.5134 -1.7729  2.2046
 1986SOL    HW217421   4.526   2.615  13.509  1.1327 -1.4191 -2.0824
 1987SOL     OW17422   3.595   4.037   4.821  0.1571  0.5472  0.8902
 1987SOL    HW117423   3.644   3.971   4.869  0.3391 -1.7354 -2.4435
 1987SOL    HW217424   3.558   4.100   4.884 -0.2653 -0.1866  1.3796
 1988SOL     OW17425   0.556   4.197   7.042 -0.5268 -0.1401  0.0554
 1988SOL    HW117426   0.565   4.263   7.110  0.9858 -0.7209  0.4297
 1988SOL    HW217427   0.478   4.228   6.995  0.7999  2.4620 -0.4580
 1989SOL     OW17428   2.969   2.829   4.222  0.5024 -0.2385  0.2590
 1989SOL    HW117429   3.024   2.862   4.150 -0.7731  0.3134 -0.4603
 1989SOL    HW217430   2.905   2.765   4.191 -2.0284  0.9658  3.0489
 1990SOL     OW17431   3.786   0.773   5.797  0.0053  0.0806  0.0703
 1990SOL    HW117432   3.698   0.740   5.779  0.2769  0.2956 -1.6519
 1990SOL    HW217433   3.784   0.861   5.760 -1.0964  0.1475  0.2830
 1991SOL     OW17434   3.562   4.699  15.192  0.0013 -0.0848  0.3310
 1991SOL    HW117435   3.482   0.015  15.225  0.5638 -0.6209  2.3197
 1991SOL    HW217436   3.590   4.661  15.275  1.8485 -2.7878 -1.5068
 1992SOL     OW17437   2.420   3.708  15.657  0.0747  0.8875  0.0639
 1992SOL    HW117438   2.444   3.649  15.729 -0.4654  0.2949 -0.2417
 1992SOL    HW217439   2.498   3.763  15.661  0.7125 -0.1332  1.7670
 1993SOL     OW17440   0.505   4.495   5.771 -1.1303  0.1877 -0.3340
 1993SOL    HW117441   0.585   4.493   5.720 -1.1824 -1.1398 -0.3648
 1993SOL    HW217442   0.468   4.409   5.754 -1.7418  0.5534 -0.8395
 1994SOL     OW17443   4.554   1.147   9.988 -0.0807 -0.2675 -0.4304
 1994SOL    HW117444   4.650   1.141   9.985 -0.0478  0.3597 -0.6494
 1994SOL    HW217445   4.547   1.173   9.896 -1.5643 -1.3894 -0.6412
 1995SOL     OW17446   1.843   0.782   2.333 -0.3080  0.5158  0.5327
 1995SOL    HW117447   1.852   0.691   2.361 -1.1729  0.6188  1.1301
 1995SOL    HW217448   1.936   0.805   2.323 -0.3950  0.7615  0.2940
 1996SOL     OW17449   2.807   3.650   4.475  0.0438  0.4511 -0.0428
 1996SOL    HW117450   2.827   3.570   4.523  0.9517  0.4290 -0.4520
 1996SOL    HW217451   2.785   3.614   4.389 -0.8025  0.1153  0.3100
 1997SOL     OW17452   2.995   0.399  15.106  0.1102  0.0938 -0.0414
 1997SOL    HW117453   2.917   0.385  15.053 -0.3688 -1.2531  1.0236
 1997SOL    HW217454   3.060   0.446  15.054  1.9961 -0.9857  1.3336
 1998SOL     OW17455   4.601   1.533   5.634 -0.1292 -0.4094  0.3516
 1998SOL    HW117456   4.695   1.546   5.650 -0.0277 -2.9104  1.7190
 1998SOL    HW217457   4.572   1.611   5.682 -1.1580 -0.4618 -0.1847
 1999SOL     OW17458   4.655   3.784   2.696 -0.5910 -0.9548 -0.1369
 1999SOL    HW117459   4.608   3.787   2.613  1.6907 -1.1383 -1.4147
 1999SOL    HW217460   4.597   3.837   2.751 -0.5314 -1.5081  0.4727
 2000SOL     OW17461   4.480   4.186   2.984  0.2071  0.1722  0.5236
 2000SOL    HW117462   4.432   4.110   3.016 -0.4237 -0.6344 -2.4210
 2000SOL    HW217463   4.548   4.190   3.052 -1.2706 -0.1840  2.0279
 2001SOL     OW17464   1.592   0.670   2.724  0.2482  0.2016 -0.4250
 2001SOL    HW117465   1.543   0.611   2.667  2.3946 -1.3085 -0.7103
 2001SOL    HW217466   1.673   0.623   2.744 -1.4556 -1.8034  1.7801
 2002SOL     OW17467   2.423   2.654  12.903  0.7101 -0.0053  0.1764
 2002SOL    HW117468   2.345   2.600  12.895 -0.2170  1.0628  2.0434
 2002SOL    HW217469   2.436   2.653  12.808 -0.8673 -0.1263 -0.0396
 2003SOL     OW17470   2.966   0.817  11.713 -0.7101 -0.6666  0.0318
 2003SOL    HW117471   3.002   0.732  11.686 -2.8797 -0.8223 -2.3576
 2003SOL    HW217472   2.901   0.793  11.779 -1.6736  1.2754 -0.2205
 2004SOL     OW17473   2.581   1.657  12.360 -0.3357  0.3777 -0.4126
 2004SOL    HW117474   2.572   1.659  12.455  0.6780 -1.3383 -0.2757
 2004SOL    HW217475   2.564   1.564  12.342 -3.0014  0.7412  0.2252
 2005SOL     OW17476   3.646   3.211  15.068 -0.1754 -0.1328  0.0962
 2005SOL    HW117477   3.601   3.289  15.102 -0.3909  0.9900 -2.8197
 2005SOL    HW217478   3.598   3.195  14.987 -2.4675  1.6701  1.0767
 2006SOL     OW17479   1.138   4.277   6.946  0.2226  0.3934  0.1584
 2006SOL    HW117480   1.053   4.320   6.959 -0.0988  0.2337 -1.4147
 2006SOL    HW217481   1.110   4.189   6.921  0.5849  0.3019  0.0825
 2007SOL     OW17482   1.951   0.051   8.992 -0.4256 -0.0093  0.4474
 2007SOL    HW117483   1.914   4.692   9.018  0.2698 -0.1126  1.1028
 2007SOL    HW217484   1.909   0.103   9.060 -0.5659 -1.2384  1.2861
 2008SOL     OW17485   0.524   0.208  16.271  0.2058  0.6146  0.1541
 2008SOL    HW117486   0.565   0.246  16.349 -0.6900  2.2539 -0.1662
 2008SOL    HW217487   0.513   0.293  16.228  1.3083 -0.3083 -1.9319
 2009SOL     OW17488   2.454   3.461  13.182 -0.4221  0.5885  0.8064
 2009SOL    HW117489   2.437   3.405  13.107  1.1053 -0.3987  1.2008
 2009SOL    HW217490   2.531   3.509  13.151 -0.4478 -0.2532 -0.5285
 2010SOL     OW17491   0.982   2.475   5.236 -0.2254  0.7425  0.0217
 2010SOL    HW117492   1.043   2.450   5.305 -2.5393 -1.1359  1.4068
 2010SOL    HW217493   0.921   2.528   5.288  1.6626  2.0653  0.8980
 2011SOL     OW17494   4.307   2.372   0.899  0.4431 -0.5252  0.4892
 2011SOL    HW117495   4.229   2.318   0.898 -0.3851  0.6133  2.0323
 2011SOL    HW217496   4.266   2.455   0.873  1.1067 -0.0058  1.0851
 2012SOL     OW17497   1.408   1.008   2.636 -0.4840 -0.1853  0.4063
 2012SOL    HW117498   1.480   1.022   2.697 -0.4206  0.8886  0.0770
 2012SOL    HW217499   1.414   0.914   2.616  3.6254  0.1646 -0.0517
 2013SOL     OW17500   4.547   2.024   7.509 -0.0067  0.1456 -0.5814
 2013SOL    HW117501   4.563   2.095   7.447 -0.7536 -0.3179 -1.3026
 2013SOL    HW217502   4.485   1.973   7.457 -1.1343 -1.0171  1.9198
 2014SOL     OW17503   0.572   0.996  13.640  0.1495 -0.2949 -0.1116
 2014SOL    HW117504   0.644   1.048  13.676 -0.9563  0.5493  0.8776
 2014SOL    HW217505   0.618   0.917  13.610  0.8744  0.7065 -1.6483
 2015SOL     OW17506   3.972   0.063  15.395 -0.8705  0.2161 -0.4394
 2015SOL    HW117507   3.961   4.713  15.337 -1.2940  2.8781 -3.8065
 2015SOL    HW217508   4.062   0.057  15.427 -0.0079  4.0632 -2.2178
 2016SOL     OW17509   3.755   2.036   4.667 -0.1358 -0.2654  0.5981
 2016SOL    HW117510   3.765   2.075   4.580 -2.2225 -0.8771  0.0830
 2016SOL    HW217511   3.767   2.117   4.717 -1.0907  1.7245 -2.3978
 2017SOL     OW17512   2.315   0.363   6.769  0.4978 -0.6330 -0.0502
 2017SOL    HW117513   2.247   0.299   6.790  0.1238  0.2372  1.3703
 2017SOL    HW217514   2.382   0.346   6.835  2.6303  2.6137 -1.3353
 2018SOL     OW17515   1.187   0.678   9.394 -0.1839 -0.4826  0.3991
 2018SOL    HW117516   1.189   0.639   9.306  0.2070  0.8628 -0.1790
 2018SOL    HW217517   1.279   0.692   9.417 -0.4027  0.1930  0.8691
 2019SOL     OW17518   4.585   2.842   6.396 -0.0715  0.5381 -0.7621
 2019SOL    HW117519   4.575   2.800   6.481  2.2491 -1.4838 -1.4971
 2019SOL    HW217520   4.518   2.797   6.345 -1.0433  2.1250 -0.8906
 2020SOL     OW17521   1.243   0.083   7.389  0.1777 -0.0994 -0.2113
 2020SOL    HW117522   1.282   0.146   7.328 -3.4646  0.3124 -2.1247
 2020SOL    HW217523   1.312   0.019   7.406 -0.5948 -0.5083  1.3769
 2021SOL     OW17524   0.107   0.095   8.689  0.0763  0.0490  0.3387
 2021SOL    HW117525   0.034   0.127   8.636 -0.8561 -0.1534  1.4801
 2021SOL    HW217526   0.068   0.010   8.711 -1.3253  1.3171  2.7734
 2022SOL     OW17527   1.355   0.910   7.813  0.4609 -0.3988 -0.0681
 2022SOL    HW117528   1.299   0.985   7.835  1.5437 -0.0616  1.5368
 2022SOL    HW217529   1.292   0.840   7.798  0.0569 -0.2017  0.7174
 2023SOL     OW17530   0.806   0.837   6.375 -0.3811 -0.2318  0.3845
 2023SOL    HW117531   0.758   0.756   6.359 -1.4902 -0.1956  3.5163
 2023SOL    HW217532   0.875   0.832   6.308 -0.8858 -0.2584 -0.1366
 2024SOL     OW17533   2.981   0.021   4.431 -0.4182 -0.5579 -0.0223
 2024SOL    HW117534   2.893   0.014   4.468  0.3909  0.9394  2.1687
 2024SOL    HW217535   3.014   4.658   4.446  1.2549 -0.0734 -0.7985
 2025SOL     OW17536   0.155   3.439   9.644  0.2512  0.0657  0.2234
 2025SOL    HW117537   0.230   3.494   9.668  1.2811 -0.9383 -0.6952
 2025SOL    HW217538   0.190   3.353   9.667 -1.6917 -0.9851 -0.7964
 2026SOL     OW17539   0.047   2.530  15.587  0.6533  0.4487  0.0558
 2026SOL    HW117540   4.708   2.599  15.605  0.5511  0.3215  0.1810
 2026SOL    HW217541   0.008   2.453  15.627  0.7950 -1.0367 -2.6579
 2027SOL     OW17542   0.265   2.517   3.688 -0.3428 -0.7832  0.3452
 2027SOL    HW117543   0.253   2.500   3.594 -0.7794 -0.1533  0.2840
 2027SOL    HW217544   0.335   2.453   3.697 -1.2878 -1.9814 -0.8328
 2028SOL     OW17545   0.775   1.473   4.416 -0.0144 -0.0638  0.0801
 2028SOL    HW117546   0.776   1.504   4.326 -0.8165 -3.1847 -1.0210
 2028SOL    HW217547   0.688   1.505   4.441  1.0084  0.6720  2.6468
 2029SOL     OW17548   0.458   3.247   9.114  0.0160  0.2944  0.3804
 2029SOL    HW117549   0.390   3.183   9.092 -1.1605  1.5589  0.3485
 2029SOL    HW217550   0.521   3.178   9.134 -1.4283 -1.2873 -0.5024
 2030SOL     OW17551   0.956   0.383   7.972 -0.2696 -0.2629  0.2325
 2030SOL    HW117552   0.940   0.442   7.899  2.1593 -0.9360 -0.8510
 2030SOL    HW217553   0.901   0.305   7.959  0.7059 -0.8243 -0.5220
 2031SOL     OW17554   3.574   4.715   0.942 -0.3971  0.5523  0.0981
 2031SOL    HW117555   3.541   4.625   0.938  1.3088 -0.1930  2.3765
 2031SOL    HW217556   3.612   0.010   0.857 -0.7603  0.5507 -0.0630
 2032SOL     OW17557   4.306   0.586   5.644 -0.1279 -0.0223 -0.0503
 2032SOL    HW117558   4.392   0.550   5.625  0.0585 -0.2120  1.2101
 2032SOL    HW217559   4.242   0.523   5.611  2.4173 -2.9804  0.7668
 2033SOL     OW17560   4.307   4.027   2.668  0.4322  0.4058 -0.0242
 2033SOL    HW117561   4.288   4.020   2.574  0.1462  1.0662 -0.0162
 2033SOL    HW217562   4.224   4.059   2.704  0.0506 -2.2528  1.4422
 2034SOL     OW17563   1.426   1.412   0.560  0.2363  0.0830  0.3600
 2034SOL    HW117564   1.366   1.482   0.587  0.4449  0.2324  0.4347
 2034SOL    HW217565   1.390   1.379   0.478 -0.5437 -2.1859  1.6049
 2035SOL     OW17566   3.537   2.971  15.153 -0.1881 -0.2954 -0.5357
 2035SOL    HW117567   3.598   2.929  15.093 -3.1683 -2.5039 -2.0276
 2035SOL    HW217568   3.527   3.061  15.121  1.0453  0.7897  2.1721
 2036SOL     OW17569   0.324   2.590   5.089 -0.0872  0.0116  0.2092
 2036SOL    HW117570   0.409   2.632   5.079  0.6521 -2.1372 -2.2925
 2036SOL    HW217571   0.304   2.617   5.179  0.3694  1.0891 -0.0121
 2037SOL     OW17572   4.439   1.643   9.974  0.0113 -0.4900 -0.3815
 2037SOL    HW117573   4.438   1.729   9.933  1.0214  0.3065  1.2799
 2037SOL    HW217574   4.485   1.655  10.057  0.7427 -1.6219 -0.6251
 2038SOL     OW17575   2.558   3.142   8.958 -0.3183 -0.9391 -0.0806
 2038SOL    HW117576   2.535   3.055   8.925 -0.9748 -0.8689  0.1846
 2038SOL    HW217577   2.573   3.117   9.049  0.0721  0.6547  0.2903
 2039SOL     OW17578   3.146   2.814   2.301  0.3877  0.0374  0.0718
 2039SOL    HW117579   3.202   2.846   2.230 -0.7788  3.5389  0.6870
 2039SOL    HW217580   3.095   2.747   2.256 -0.1641  0.5015  0.0045
 2040SOL     OW17581   3.216   0.298   9.900 -0.1483 -0.1679  0.5911
 2040SOL    HW117582   3.289   0.255   9.854 -1.0209 -1.5547  0.5131
 2040SOL    HW217583   3.175   0.224   9.945 -2.6192  1.7114  1.4148
 2041SOL     OW17584   1.241   4.570   6.594  0.8599 -0.0007 -0.5436
 2041SOL    HW117585   1.268   4.658   6.621  3.9674 -0.5403 -1.8490
 2041SOL    HW217586   1.284   4.516   6.660 -1.9007  2.1594  3.0625
 2042SOL     OW17587   0.622   0.635   2.267 -0.1300 -1.0076 -0.2031
 2042SOL    HW117588   0.551   0.575   2.246  1.8619 -3.4211 -0.0939
 2042SOL    HW217589   0.590   0.724   2.278  0.4674 -0.7860 -0.2338
 2043SOL     OW17590   3.524   1.481  15.060 -0.3791  0.6165  0.1879
 2043SOL    HW117591   3.454   1.546  15.065  0.7282  1.9102 -0.9738
 2043SOL    HW217592   3.543   1.479  14.967 -1.2824 -1.0589  0.0495
 2044SOL     OW17593   2.745   1.087   8.926 -0.2052  0.7229  0.2428
 2044SOL    HW117594   2.790   1.041   8.997 -0.2163  0.6241  0.1864
 2044SOL    HW217595   2.654   1.057   8.938  0.5345 -1.1125  1.2708
 2045SOL     OW17596   1.794   1.339  15.360  0.3855 -0.7818  0.1471
 2045SOL    HW117597   1.699   1.331  15.370  0.0974 -0.3117 -2.0905
 2045SOL    HW217598   1.823   1.253  15.329 -0.0628 -1.2876  1.1310
 2046SOL     OW17599   0.902   3.018   9.822 -0.3291 -0.4495 -0.1199
 2046SOL    HW117600   0.901   2.923   9.810 -2.3473 -0.2851 -1.1778
 2046SOL    HW217601   0.959   3.026   9.899  2.6880  1.3396 -2.5638
 2047SOL     OW17602   2.719   4.513  14.492 -0.1846 -0.6958  0.1897
 2047SOL    HW117603   2.746   4.576  14.559  0.7661 -0.3622 -0.5172
 2047SOL    HW217604   2.650   4.567  14.452  1.0916  1.4989  0.9258
 2048SOL     OW17605   4.466   0.299   9.231  0.2342 -0.2659 -0.1722
 2048SOL    HW117606   4.459   0.215   9.277  4.1594 -0.6285 -0.2100
 2048SOL    HW217607   4.383   0.338   9.256  1.0646  1.2834  0.1832
 2049SOL     OW17608   4.412   2.275   5.451  0.3422  0.0420 -0.2671
 2049SOL    HW117609   4.344   2.300   5.388  0.2770 -0.0847 -0.2471
 2049SOL    HW217610   4.436   2.360   5.486  1.6510 -0.4975  0.1248
 2050SOL     OW17611   1.220   1.275  13.193 -0.0736 -0.0902  0.0581
 2050SOL    HW117612   1.260   1.250  13.277 -1.2985 -2.1705  0.0304
 2050SOL    HW217613   1.147   1.216  13.179 -0.9969 -0.0711  4.7368
 2051SOL     OW17614   2.150   3.910   5.082 -0.2296  0.8222  0.5241
 2051SOL    HW117615   2.108   3.849   5.142 -1.7281  0.4139 -0.9511
 2051SOL    HW217616   2.084   3.933   5.017  0.6045  3.1624  0.5046
 2052SOL     OW17617   1.262   1.730  11.245 -0.1173 -0.4505  0.0279
 2052SOL    HW117618   1.186   1.712  11.190 -0.6564 -0.8512  0.8964
 2052SOL    HW217619   1.229   1.702  11.330 -2.0927 -0.9109 -0.8948
 2053SOL     OW17620   1.991   3.018  17.321  0.1656 -0.5809  0.0429
 2053SOL    HW117621   1.896   3.015  17.316  0.0998  1.6166 -0.1433
 2053SOL    HW217622   1.999   2.959  17.246  0.0620 -0.8878  0.2722
 2054SOL     OW17623   1.734   3.462   6.136 -0.2315  0.4537 -0.1034
 2054SOL    HW117624   1.653   3.513   6.143  0.2135  1.1057  0.2896
 2054SOL    HW217625   1.725   3.401   6.210  0.8686  1.5453  0.9235
 2055SOL     OW17626   4.075   0.125   7.139  0.8509  0.1050 -0.7676
 2055SOL    HW117627   4.103   0.166   7.057  0.3758  1.5088 -0.2193
 2055SOL    HW217628   4.158   0.126   7.187  0.7243  1.3452 -0.5837
 2056SOL     OW17629   0.819   0.949  12.286  0.1150 -0.4845 -0.6409
 2056SOL    HW117630   0.800   0.938  12.379  0.0995  0.6506 -0.5168
 2056SOL    HW217631   0.839   0.856  12.270 -1.9497 -0.9561 -0.4848
 2057SOL     OW17632   4.676   0.287   9.569  0.4288  0.7250 -0.2247
 2057SOL    HW117633   4.657   0.296   9.662  0.8007 -0.4039 -0.0385
 2057SOL    HW217634   0.045   0.271   9.563  0.6251  0.7203  3.0506
 2058SOL     OW17635   2.026   1.379   7.086 -0.7402 -0.6894 -0.0753
 2058SOL    HW117636   1.979   1.379   7.003 -0.3315 -1.8031 -0.3128
 2058SOL    HW217637   1.970   1.425   7.148  0.0791  2.4911 -1.7080
 2059SOL     OW17638   1.016   1.688  11.107  0.4011  0.5203  0.1825
 2059SOL    HW117639   1.011   1.709  11.013 -1.2778 -0.7170 -0.0046
 2059SOL    HW217640   0.974   1.602  11.112 -1.0242  1.1614 -0.5206
 2060SOL     OW17641   0.235   1.652  10.688 -0.1786 -0.3042  0.4007
 2060SOL    HW117642   0.212   1.559  10.691 -0.6114 -0.2298 -0.5120
 2060SOL    HW217643   0.153   1.685  10.650  0.8141  1.5416 -0.1628
 2061SOL     OW17644   3.834   2.258   8.879 -0.2519  0.1300 -0.3310
 2061SOL    HW117645   3.744   2.227   8.869  0.0139 -0.3401 -1.2627
 2061SOL    HW217646   3.860   2.226   8.965 -1.2660  1.3416  0.4330
 2062SOL     OW17647   0.192   0.006  11.140 -0.2460  0.0673 -0.4391
 2062SOL    HW117648   0.185   0.054  11.223  1.9187  0.7038 -0.6124
 2062SOL    HW217649   0.136   4.661  11.171  1.5836 -0.8228  0.8036
 2063SOL     OW17650   2.655   2.662   6.062  0.2106  0.0912  0.2469
 2063SOL    HW117651   2.717   2.736   6.064  1.6443 -1.0807 -0.6253
 2063SOL    HW217652   2.676   2.620   5.979 -1.5199  0.5815 -0.4254
 2064SOL     OW17653   3.197   1.728   7.059 -0.6165 -0.7137 -0.8120
 2064SOL    HW117654   3.200   1.632   7.054  2.7295 -0.6252 -0.4425
 2064SOL    HW217655   3.247   1.746   7.138 -1.8103 -0.0159 -0.2204
 2065SOL     OW17656   4.552   3.668   7.865  0.6106  0.3191 -0.5135
 2065SOL    HW117657   4.569   3.748   7.915 -0.4397 -0.6464  1.3584
 2065SOL    HW217658   4.504   3.701   7.789  0.3383  0.2153 -0.3873
 2066SOL     OW17659   1.496   4.556   9.844 -0.2196  0.4843 -0.5482
 2066SOL    HW117660   1.507   4.651   9.848  2.4600  0.1475  0.2127
 2066SOL    HW217661   1.586   4.522   9.840 -0.2919  0.4050 -1.4643
 2067SOL     OW17662   2.570   1.932   6.688 -0.2503 -0.1063 -0.3195
 2067SOL    HW117663   2.513   1.874   6.638 -2.2933  0.5549  1.2363
 2067SOL    HW217664   2.626   1.980   6.627  0.2178 -1.4498 -0.9420
 2068SOL     OW17665   1.810   3.107   4.988 -0.3192 -0.7056  0.2725
 2068SOL    HW117666   1.878   3.111   4.921  0.1172  2.3954  0.8747
 2068SOL    HW217667   1.752   3.032   4.972 -1.2018 -0.1170  0.6631
 2069SOL     OW17668   2.508   4.063  10.006 -0.3057  0.0671 -0.4609
 2069SOL    HW117669   2.438   4.128   9.996 -2.7770 -2.2767  1.6669
 2069SOL    HW217670   2.576   4.118   9.968  0.2109  0.5095  1.1148
 2070SOL     OW17671   1.891   0.872  15.881 -0.0989 -0.0041  0.2011
 2070SOL    HW117672   1.984   0.863  15.900  0.1748  1.2352 -0.5316
 2070SOL    HW217673   1.863   0.787  15.914 -0.6124 -0.5353 -1.5663
 2071SOL     OW17674   2.123   3.050   4.251 -0.4050 -1.2959 -0.0893
 2071SOL    HW117675   2.127   3.054   4.156 -1.8002 -3.8961 -0.2483
 2071SOL    HW217676   2.205   3.097   4.265 -0.4502 -1.4183  0.6135
 2072SOL     OW17677   3.372   2.846  16.715 -0.0619 -0.0507  0.1389
 2072SOL    HW117678   3.395   2.909  16.646 -0.5492 -0.9365 -0.8272
 2072SOL    HW217679   3.455   2.799  16.713 -0.0020  0.0953 -0.8016
 2073SOL     OW17680   2.405   0.816  11.750 -0.4100 -0.2372  0.1648
 2073SOL    HW117681   2.375   0.780  11.833 -1.7247  1.4064  0.3843
 2073SOL    HW217682   2.332   0.795  11.692  1.6398  1.3607 -3.0426
 2074SOL     OW17683   3.044   0.726   5.352 -0.3272  0.0430 -0.3162
 2074SOL    HW117684   3.075   0.719   5.262 -0.7018  0.7828 -0.5066
 2074SOL    HW217685   3.016   0.637   5.370  0.7752 -0.4935 -1.2836
 2075SOL     OW17686   3.413   1.844   0.429  0.7517  0.1308  0.1628
 2075SOL    HW117687   3.381   1.819   0.516  1.6862 -0.9579  0.1993
 2075SOL    HW217688   3.346   1.901   0.391  1.6290  0.2117 -1.2538
 2076SOL     OW17689   1.743   2.132   4.374  0.3966  0.1420 -0.2395
 2076SOL    HW117690   1.826   2.172   4.400 -0.3328  1.8472 -0.5554
 2076SOL    HW217691   1.689   2.201   4.336 -1.3227 -2.3647 -2.4335
 2077SOL     OW17692   4.371   2.360   6.144  0.4019  0.0745  0.1192
 2077SOL    HW117693   4.372   2.368   6.239  1.4271  1.2465  0.0058
 2077SOL    HW217694   4.447   2.309   6.118 -0.3891 -0.2711 -1.5698
 2078SOL     OW17695   3.550   2.349   6.689  0.1394 -0.0421  0.6758
 2078SOL    HW117696   3.526   2.299   6.766  0.9092 -0.1590  0.8380
 2078SOL    HW217697   3.556   2.439   6.723 -1.8989  0.5048 -0.3998
 2079SOL     OW17698   3.549   2.006   3.005  0.5163  0.1503 -0.0964
 2079SOL    HW117699   3.567   2.090   2.963  1.2018  0.6315  1.1566
 2079SOL    HW217700   3.517   1.954   2.932 -0.5745 -0.6127  0.9116
 2080SOL     OW17701   4.334   0.145  16.889 -0.0306  0.0978 -0.4125
 2080SOL    HW117702   4.357   0.179  16.976  1.3558 -0.3021 -0.6348
 2080SOL    HW217703   4.238   0.145  16.880 -0.1519 -1.1787  0.8554
 2081SOL     OW17704   0.405   3.888   6.427 -0.0219 -0.3448 -0.2441
 2081SOL    HW117705   0.433   3.820   6.488 -3.4621 -1.2538  0.2888
 2081SOL    HW217706   0.481   3.946   6.436  0.4039 -0.6627 -1.7664
 2082SOL     OW17707   3.367   4.592  11.482 -0.1415 -0.4489  0.0757
 2082SOL    HW117708   3.273   4.589  11.497 -0.2784 -0.6293 -0.7892
 2082SOL    HW217709   3.395   4.514  11.530  2.0933 -1.0815 -2.2466
 2083SOL     OW17710   0.645   0.349   0.673 -0.6230  0.5563  0.0655
 2083SOL    HW117711   0.638   0.409   0.598 -1.4319 -0.1539 -0.4353
 2083SOL    HW217712   0.555   0.322   0.688 -0.3639 -0.8190 -0.8250
 2084SOL     OW17713   1.271   1.554   7.114  0.1164  0.1423  0.1474
 2084SOL    HW117714   1.213   1.484   7.144 -0.8810  1.1107  0.4875
 2084SOL    HW217715   1.354   1.525   7.150  0.0291 -0.1499  0.1130
 2085SOL     OW17716   1.487   4.463   8.246 -0.2792  0.3261  0.2108
 2085SOL    HW117717   1.413   4.493   8.299  0.6882 -0.3791  1.9393
 2085SOL    HW217718   1.448   4.377   8.230 -0.1653  0.8550 -3.0208
 2086SOL     OW17719   0.770   2.313   9.978 -0.2282 -0.3237 -0.2900
 2086SOL    HW117720   0.691   2.351  10.017 -0.6437 -0.9451 -0.5222
 2086SOL    HW217721   0.771   2.221  10.006  0.0610  0.0440  0.8781
 2087SOL     OW17722   1.873   1.013   7.123 -0.6648 -0.0807  0.6230
 2087SOL    HW117723   1.941   1.054   7.070 -2.2589  0.3996 -1.0668
 2087SOL    HW217724   1.922   0.970   7.194  3.4020  0.4291 -1.8744
 2088SOL     OW17725   4.300   3.568   8.625 -0.1502  0.3482  0.7726
 2088SOL    HW117726   4.248   3.613   8.692 -2.1200  0.5329 -0.8781
 2088SOL    HW217727   4.368   3.545   8.689 -0.9355  0.7018  1.7426
 2089SOL     OW17728   0.152   2.507   1.751  0.1943 -0.2975 -0.0459
 2089SOL    HW117729   0.230   2.468   1.712 -0.5737 -1.8698  0.0125
 2089SOL    HW217730   0.166   2.601   1.740  0.6179 -0.4541 -0.8749
 2090SOL     OW17731   0.521   3.557   4.828 -0.0289 -0.1506 -0.2642
 2090SOL    HW117732   0.563   3.570   4.913  2.4808  1.5178 -1.7547
 2090SOL    HW217733   0.448   3.619   4.830  0.0073 -0.1090 -0.2342
 2091SOL     OW17734   1.693   2.205   4.843 -0.6094  0.9815 -0.1171
 2091SOL    HW117735   1.735   2.163   4.918 -0.3724  0.7593 -0.3740
 2091SOL    HW217736   1.604   2.210   4.878 -0.3694 -1.1732  0.8068
 2092SOL     OW17737   1.849   4.518   5.887  0.2214  0.1934 -0.4458
 2092SOL    HW117738   1.909   4.453   5.851  1.9982  1.8979 -0.5256
 2092SOL    HW217739   1.773   4.461   5.899  1.6665 -0.9774  3.0271
 2093SOL     OW17740   2.183   1.547   2.500  0.3793  0.0594  0.3233
 2093SOL    HW117741   2.096   1.533   2.537 -0.7354  1.9317 -1.5981
 2093SOL    HW217742   2.220   1.571   2.585 -2.0239  0.1472  1.3388
 2094SOL     OW17743   3.208   4.143   6.186 -0.3247  0.1769 -0.2876
 2094SOL    HW117744   3.114   4.133   6.170 -0.8139 -0.8773  3.2901
 2094SOL    HW217745   3.234   4.207   6.253 -0.6275 -0.1177  0.1087
 2095SOL     OW17746   1.459   3.813   5.101 -0.0061  0.2329 -0.2450
 2095SOL    HW117747   1.519   3.786   5.170 -1.0538  3.3532  1.9034
 2095SOL    HW217748   1.504   3.882   5.051  0.6492  1.3501  1.9089
 2096SOL     OW17749   4.483   2.541   7.864 -0.0836 -0.5529  0.6563
 2096SOL    HW117750   4.498   2.475   7.797 -0.1482 -2.2441  2.3271
 2096SOL    HW217751   4.571   2.554   7.901  0.2897  0.8188 -0.7083
 2097SOL     OW17752   1.594   1.934  12.575 -0.1144 -0.5402  0.5591
 2097SOL    HW117753   1.503   1.911  12.594 -0.0699 -1.5292 -0.3960
 2097SOL    HW217754   1.640   1.866  12.624  4.3727 -0.8247 -4.1002
 2098SOL     OW17755   4.519   3.211   1.832 -0.6036  0.0005 -0.1778
 2098SOL    HW117756   4.606   3.203   1.793 -0.5227  0.9871 -0.2083
 2098SOL    HW217757   4.481   3.282   1.781  0.1388  0.7657  0.3337
 2099SOL     OW17758   0.689   3.943  16.547 -0.3419  0.4356  0.3096
 2099SOL    HW117759   0.649   3.994  16.618 -2.6169 -0.4239 -0.3476
 2099SOL    HW217760   0.713   4.014  16.488 -0.7508 -0.9224 -1.4685
 2100SOL     OW17761   3.356   2.437   7.027 -0.0989 -0.0597 -0.5340
 2100SOL    HW117762   3.425   2.455   6.964 -0.5211 -1.0678 -1.2890
 2100SOL    HW217763   3.343   2.344   7.005  2.6996  0.1023 -2.9040
 2101SOL     OW17764   0.110   2.824   4.006 -0.2885  0.0694  0.0124
 2101SOL    HW117765   0.151   2.837   4.092 -1.5199  0.7893  0.4857
 2101SOL    HW217766   0.184   2.844   3.949  0.5045  1.1662  1.4220
 2102SOL     OW17767   1.617   3.049   2.878  0.1411  0.5836 -0.1194
 2102SOL    HW117768   1.593   2.984   2.812 -0.4885  0.5701  0.1219
 2102SOL    HW217769   1.542   3.039   2.937  0.6882 -2.0053  0.1575
 2103SOL     OW17770   0.984   0.454   6.974 -0.6282  0.0088 -0.4680
 2103SOL    HW117771   1.011   0.461   7.065  0.8451 -1.2620 -0.8101
 2103SOL    HW217772   0.919   0.524   6.981 -0.8751 -0.1456 -1.2173
 2104SOL     OW17773   1.956   4.102   8.578 -0.6220  0.2486  0.0886
 2104SOL    HW117774   1.994   4.187   8.557 -1.5202  0.4421 -0.8141
 2104SOL    HW217775   2.016   4.038   8.539  0.3504  1.7204 -0.8294
 2105SOL     OW17776   2.846   2.566   3.511 -0.1694  0.2814 -0.1271
 2105SOL    HW117777   2.928   2.609   3.536  0.5355  0.0459 -2.0891
 2105SOL    HW217778   2.873   2.476   3.496 -1.7471 -0.3396  0.7516
 2106SOL     OW17779   2.975   2.333   5.347  0.0032  0.4109 -0.3847
 2106SOL    HW117780   2.890   2.295   5.370 -0.8202  2.2697 -0.3393
 2106SOL    HW217781   2.982   2.393   5.421 -0.2304  0.8219 -0.6969
 2107SOL     OW17782   1.570   1.458   6.814 -0.0366 -0.0735 -0.0074
 2107SOL    HW117783   1.594   1.492   6.900  1.7053 -0.2912 -0.4092
 2107SOL    HW217784   1.516   1.381   6.835  0.8792  0.0104  2.6298
 2108SOL     OW17785   1.457   3.256   5.628  0.4477  0.1607 -0.0629
 2108SOL    HW117786   1.442   3.256   5.722  1.7194 -0.0863  0.1393
 2108SOL    HW217787   1.480   3.169   5.597  1.1334  0.4814 -0.4625
 2109SOL     OW17788   2.595   1.787   3.980  0.1356 -0.1491  0.1632
 2109SOL    HW117789   2.623   1.722   3.916 -0.0028  1.0940 -1.1778
 2109SOL    HW217790   2.637   1.752   4.058  0.4433  0.3312  0.2177
 2110SOL     OW17791   1.966   2.029  17.348 -0.4537  0.1588  0.2558
 2110SOL    HW117792   1.937   2.013  17.258  0.1854  0.6172 -0.0250
 2110SOL    HW217793   2.043   1.973  17.344 -1.8488 -1.7031 -0.5030
 2111SOL     OW17794   0.111   4.722   4.901  0.0703 -0.0096 -0.0556
 2111SOL    HW117795   0.095   4.670   4.823 -1.1659  1.8873 -1.0460
 2111SOL    HW217796   0.046   0.065   4.889 -0.7898 -0.5407  1.5828
 2112SOL     OW17797   4.602   1.227   9.019 -0.1704 -0.0903 -0.3939
 2112SOL    HW117798   4.660   1.299   8.994  0.4450  0.2920  2.0930
 2112SOL    HW217799   4.517   1.249   8.982 -0.2768  0.8602  0.4122
 2113SOL     OW17800   0.423   3.867   8.164  0.0141  0.4660 -0.0852
 2113SOL    HW117801   0.487   3.823   8.221  1.7214  2.7867 -0.1991
 2113SOL    HW217802   0.431   3.809   8.088  0.9990 -0.3020  0.5965
 2114SOL     OW17803   2.698   0.510   2.560  0.3384  0.0447 -0.3116
 2114SOL    HW117804   2.750   0.487   2.484  0.4515  0.3076 -0.3140
 2114SOL    HW217805   2.710   0.429   2.610  0.2435 -2.3044 -4.1697
 2115SOL     OW17806   2.363   1.412   0.617 -0.4853 -0.4896  0.3036
 2115SOL    HW117807   2.300   1.451   0.557  0.3037 -0.1024 -0.2745
 2115SOL    HW217808   2.314   1.332   0.634 -0.2402 -1.2018 -2.4159
 2116SOL     OW17809   1.060   4.206   4.707 -0.7034  0.0599 -0.4355
 2116SOL    HW117810   1.115   4.131   4.682 -2.7418 -0.3980 -3.4547
 2116SOL    HW217811   1.038   4.244   4.622  0.3559  1.9086  0.1228
 2117SOL     OW17812   4.123   0.418   0.199 -0.2644  0.0472 -0.2574
 2117SOL    HW117813   4.130   0.323   0.200 -1.5743 -0.0310  0.4855
 2117SOL    HW217814   4.212   0.452   0.187 -0.0237 -1.0194 -1.5489
 2118SOL     OW17815   3.074   2.342   7.271 -0.1792  0.3226  0.6531
 2118SOL    HW117816   3.165   2.356   7.297  0.0603  0.8852 -0.4896
 2118SOL    HW217817   3.056   2.257   7.311 -2.1915  1.2173  1.6413
 2119SOL     OW17818   1.331   0.708  10.356 -0.1955  0.3541  0.5210
 2119SOL    HW117819   1.295   0.622  10.375  1.8276 -0.5672  0.1337
 2119SOL    HW217820   1.356   0.735  10.445 -0.4179 -2.9259  1.5727
 2120SOL     OW17821   2.672   0.178   2.441  0.2452  0.5959 -0.2095
 2120SOL    HW117822   2.742   0.219   2.491  0.3373  0.5745 -0.3199
 2120SOL    HW217823   2.687   0.210   2.352  1.3441  1.6255  0.3475
 2121SOL     OW17824   0.128   4.281   9.620 -0.1134  0.5954 -0.0776
 2121SOL    HW117825   0.223   4.274   9.616 -0.0931 -0.5241  2.4198
 2121SOL    HW217826   0.107   4.318   9.534  0.8835 -0.0050 -0.5771
 2122SOL     OW17827   1.747   1.551   8.566 -0.3450 -0.5581 -0.0940
 2122SOL    HW117828   1.785   1.488   8.627 -1.9273 -0.8754  0.5587
 2122SOL    HW217829   1.772   1.637   8.599 -1.5884 -0.4441  0.5402
 2123SOL     OW17830   4.652   0.421  14.882 -0.6701 -0.0107  0.0962
 2123SOL    HW117831   4.619   0.455  14.799  0.3792  0.3722 -0.1530
 2123SOL    HW217832   4.610   0.481  14.945 -0.7064  0.4920 -0.4053
 2124SOL     OW17833   1.700   4.357   6.470 -0.5657  0.5295  0.1003
 2124SOL    HW117834   1.733   4.285   6.524 -0.0449 -0.5395 -1.6420
 2124SOL    HW217835   1.673   4.316   6.388  0.0913 -0.4770  0.3816
 2125SOL     OW17836   0.605   2.073   2.726 -0.1986 -0.0955 -0.2916
 2125SOL    HW117837   0.671   2.142   2.734  0.9557 -1.2504  0.0847
 2125SOL    HW217838   0.535   2.122   2.770  0.8781  0.4342  0.8492
 2126SOL     OW17839   2.141   2.129   6.401 -0.0148  0.7934  0.3921
 2126SOL    HW117840   2.177   2.042   6.420  0.9161  1.0095 -0.4153
 2126SOL    HW217841   2.080   2.098   6.335  1.3437 -1.4157  0.1770
 2127SOL     OW17842   1.504   3.637   3.775  0.1697 -0.1137  0.5957
 2127SOL    HW117843   1.561   3.581   3.828 -0.2966  0.7831  2.0640
 2127SOL    HW217844   1.505   3.591   3.691 -1.0782  2.4502 -0.8305
 2128SOL     OW17845   0.475   3.200  16.973 -0.0632 -0.2764 -0.1025
 2128SOL    HW117846   0.559   3.219  16.932 -0.1985 -0.4976 -0.4795
 2128SOL    HW217847   0.487   3.106  16.990  1.0039 -0.2605 -0.8144
 2129SOL     OW17848   2.170   1.778   6.258 -0.5143  0.5814  0.0841
 2129SOL    HW117849   2.088   1.787   6.307 -0.9055  3.1665 -1.0710
 2129SOL    HW217850   2.143   1.782   6.166  1.6914  2.2705 -0.4988
 2130SOL     OW17851   1.279   2.052   5.777 -0.0287  0.6589 -0.0261
 2130SOL    HW117852   1.364   2.084   5.807  0.5011 -0.2465 -0.5643
 2130SOL    HW217853   1.236   2.028   5.859 -0.9335  0.1362 -0.6503
 2131SOL     OW17854   2.172   2.737   1.986  0.1029  0.0502  0.0974
 2131SOL    HW117855   2.102   2.672   2.000  0.2187 -0.2795 -0.8737
 2131SOL    HW217856   2.248   2.684   2.011 -0.4806  0.3505  2.5488
 2132SOL     OW17857   0.681   1.985  10.393 -0.2215 -0.3701  0.3771
 2132SOL    HW117858   0.771   2.017  10.388 -0.1069 -0.5273  1.3811
 2132SOL    HW217859   0.690   1.929  10.471  0.4838 -1.3484 -0.4192
 2133SOL     OW17860   2.245   3.198   1.786  0.0872 -0.2504 -1.1342
 2133SOL    HW117861   2.279   3.279   1.823 -3.0196 -0.9460  3.3276
 2133SOL    HW217862   2.161   3.232   1.757 -1.0804 -1.3527  0.9207
 2134SOL     OW17863   3.884   3.989   4.613 -0.6970 -0.4070 -0.5240
 2134SOL    HW117864   3.931   4.031   4.541  0.5313 -2.5762 -1.0079
 2134SOL    HW217865   3.889   4.060   4.677 -0.2942  0.9873 -2.1015
 2135SOL     OW17866   1.880   2.654   2.017  0.5820  0.3939 -0.4733
 2135SOL    HW117867   1.898   2.652   2.111  1.6204  0.5652 -0.6654
 2135SOL    HW217868   1.816   2.725   2.018 -0.9560 -1.0109  0.5517
 2136SOL     OW17869   0.096   1.473  16.062  0.3317 -0.5153 -0.1118
 2136SOL    HW117870   0.152   1.549  16.042 -0.5526  0.5329  1.4014
 2136SOL    HW217871   0.113   1.410  15.992  0.6760 -0.6589  0.1038
 2137SOL     OW17872   1.506   3.663   7.216 -0.1243  0.1042 -0.6322
 2137SOL    HW117873   1.576   3.725   7.195  1.5986 -0.9686  1.9187
 2137SOL    HW217874   1.522   3.604   7.143 -1.2150  1.2232 -1.7780
 2138SOL     OW17875   0.582   1.926  17.038  0.3324  0.4525  0.1938
 2138SOL    HW117876   0.658   1.971  17.000  1.1857 -0.7704  0.4591
 2138SOL    HW217877   0.566   1.849  16.983  2.3073 -0.1286  0.4392
 2139SOL     OW17878   0.874   2.842   6.029  0.1180  0.0769 -0.0758
 2139SOL    HW117879   0.963   2.861   6.060 -0.5667 -2.1022  3.3001
 2139SOL    HW217880   0.885   2.873   5.940 -0.0090 -2.0511 -0.8353
 2140SOL     OW17881   1.692   0.226   1.940  0.1121  0.3186 -0.0249
 2140SOL    HW117882   1.768   0.169   1.931  0.1911  0.2077  1.2692
 2140SOL    HW217883   1.696   0.268   1.854  1.5482 -0.8147 -0.5075
 2141SOL     OW17884   1.612   2.450   7.823 -0.3082 -0.1197  0.1671
 2141SOL    HW117885   1.622   2.472   7.731 -0.5806 -0.1620  0.1270
 2141SOL    HW217886   1.639   2.529   7.870 -2.3245 -0.2988  1.6679
 2142SOL     OW17887   3.685   3.707  13.483 -0.2628  0.1277 -0.4929
 2142SOL    HW117888   3.630   3.686  13.408 -3.9990 -2.5073  2.9495
 2142SOL    HW217889   3.762   3.651  13.474  0.2521  0.6347  0.6771
 2143SOL     OW17890   4.290   2.236   2.544  0.1307 -0.4612  0.5732
 2143SOL    HW117891   4.244   2.274   2.619 -2.2209 -2.7622  0.2965
 2143SOL    HW217892   4.363   2.202   2.596  0.7418  0.3428  0.2448
 2144SOL     OW17893   0.465   4.329   7.838 -0.3102 -0.3782  0.1465
 2144SOL    HW117894   0.406   4.253   7.836 -0.3762 -0.3109 -0.4850
 2144SOL    HW217895   0.420   4.392   7.781 -0.5672 -1.2358 -0.6059
 2145SOL     OW17896   1.963   2.800  13.867 -0.3778 -0.6070 -0.7867
 2145SOL    HW117897   1.896   2.793  13.935 -0.7618  1.9286 -0.9153
 2145SOL    HW217898   2.040   2.748  13.887 -0.7698 -1.0256 -0.3639
 2146SOL     OW17899   2.584   1.142   3.616 -0.4234 -0.1590  0.0677
 2146SOL    HW117900   2.541   1.201   3.678  2.4841 -0.3133  2.1992
 2146SOL    HW217901   2.659   1.191   3.583 -0.1282 -0.7571 -0.1560
 2147SOL     OW17902   2.924   4.617   1.272 -0.4217  0.1507 -0.4482
 2147SOL    HW117903   2.952   4.585   1.187  0.2061  2.3424 -1.0576
 2147SOL    HW217904   2.892   4.533   1.307  0.0750 -0.0575 -0.4962
 2148SOL     OW17905   3.939   3.554   6.225  0.6037 -0.1980 -0.4367
 2148SOL    HW117906   3.863   3.577   6.278 -0.9777  1.0134 -3.2829
 2148SOL    HW217907   3.903   3.569   6.138 -1.1849 -0.7832  0.2117
 2149SOL     OW17908   1.351   1.582  11.702  0.3690  0.1143 -0.6012
 2149SOL    HW117909   1.440   1.547  11.706  0.8678  1.2182 -2.1607
 2149SOL    HW217910   1.372   1.675  11.688 -2.9656  0.4955 -2.9582
 2150SOL     OW17911   2.331   2.209  11.539  0.4228 -0.1447  0.2577
 2150SOL    HW117912   2.400   2.178  11.480 -0.2702  0.0956 -0.6875
 2150SOL    HW217913   2.347   2.301  11.559 -0.4039  0.4825 -1.9750
 2151SOL     OW17914   2.074   3.418  14.705 -0.1069  0.0348  0.0170
 2151SOL    HW117915   2.165   3.430  14.679 -0.4217  0.3028 -0.9443
 2151SOL    HW217916   2.065   3.323  14.691 -0.5096  0.0158  0.4003
 2152SOL     OW17917   4.040   0.987  14.209 -0.2477 -0.9117 -0.2634
 2152SOL    HW117918   4.122   0.980  14.258 -0.3048 -0.8155 -0.1552
 2152SOL    HW217919   4.004   1.074  14.226 -0.8370 -0.9819 -1.1679
 2153SOL     OW17920   0.263   0.165   7.576 -0.0970  0.3588 -0.4037
 2153SOL    HW117921   0.210   0.233   7.616 -0.3396  0.4447 -0.8718
 2153SOL    HW217922   0.341   0.216   7.551  0.5267 -1.3023 -1.8289
 2154SOL     OW17923   0.090   1.602   4.407 -0.1009  0.3516 -0.3264
 2154SOL    HW117924   0.128   1.570   4.325  0.4902 -0.3819  0.2314
 2154SOL    HW217925   0.078   1.695   4.387  1.4789  0.6268 -0.0255
 2155SOL     OW17926   0.402   4.335   6.160  0.0019 -0.2941 -0.3360
 2155SOL    HW117927   0.491   4.337   6.195 -0.9539  1.2160  1.9974
 2155SOL    HW217928   0.383   4.242   6.165  0.2957 -0.4492 -2.0908
 2156SOL     OW17929   1.359   4.614   4.682  0.3497  0.6629  0.3599
 2156SOL    HW117930   1.307   4.693   4.666 -1.1037 -0.0900  1.3390
 2156SOL    HW217931   1.363   4.622   4.778 -0.8288  1.1149  0.3715
 2157SOL     OW17932   2.264   2.901  10.156  0.2195  0.1530 -0.2328
 2157SOL    HW117933   2.351   2.925  10.189  0.6266 -4.3718  1.9732
 2157SOL    HW217934   2.230   2.844  10.225  0.5673  2.2724  1.6785
 2158SOL     OW17935   4.012   4.528   2.419 -0.2150  0.2361  0.3733
 2158SOL    HW117936   4.069   4.547   2.345  1.3810 -1.0482  1.2760
 2158SOL    HW217937   3.937   4.484   2.378  0.0948 -0.4237  0.5270
 2159SOL     OW17938   0.271   1.118  14.601  0.5077 -0.4456 -0.1265
 2159SOL    HW117939   0.316   1.038  14.575 -1.2196 -1.5440  0.3130
 2159SOL    HW217940   0.348   1.154  14.645  1.3656  0.9351 -2.7668
 2160SOL     OW17941   4.552   0.541  15.094  0.1262  0.5934 -0.0153
 2160SOL    HW117942   4.568   0.457  15.136 -1.9801  0.9881  1.5813
 2160SOL    HW217943   4.486   0.578  15.154  2.6799 -0.4982  3.4385
 2161SOL     OW17944   4.571   1.859  16.040 -0.1995  0.4767 -0.2523
 2161SOL    HW117945   4.550   1.923  16.108  1.1128 -1.8162  2.3397
 2161SOL    HW217946   4.484   1.820  16.026  1.1075 -2.6583  0.3828
 2162SOL     OW17947   1.116   3.904   8.463 -0.3670 -0.2428 -0.2864
 2162SOL    HW117948   1.031   3.949   8.467 -0.0643  0.0604  2.6519
 2162SOL    HW217949   1.097   3.818   8.499 -0.2241  0.7873  2.2414
 2163SOL     OW17950   1.112   4.683  16.617 -0.4259 -0.5422  0.0506
 2163SOL    HW117951   1.046   4.717  16.677 -0.7661 -0.1479 -0.5409
 2163SOL    HW217952   1.144   0.037  16.574  0.4415 -0.8471  0.1313
 2164SOL     OW17953   1.167   3.638   0.496 -0.0350 -0.4483 -0.0362
 2164SOL    HW117954   1.212   3.718   0.520  1.6028 -1.1176 -0.8293
 2164SOL    HW217955   1.216   3.604   0.421  1.0406  2.1355 -0.5016
 2165SOL     OW17956   3.706   2.913  15.600  0.2243  0.2812 -0.3767
 2165SOL    HW117957   3.626   2.962  15.618 -0.8974 -1.6794  0.0476
 2165SOL    HW217958   3.686   2.845  15.665 -1.0115 -0.8805 -1.9651
 2166SOL     OW17959   3.815   1.723   6.790 -0.0347  0.1511 -0.0954
 2166SOL    HW117960   3.762   1.731   6.710 -1.0357 -1.5124  0.4228
 2166SOL    HW217961   3.831   1.629   6.790  0.0332  0.1603 -2.5055
 2167SOL     OW17962   4.335   4.377   3.474  0.0017  0.2594  0.8454
 2167SOL    HW117963   4.268   4.432   3.433 -0.4227 -0.1960  0.9435
 2167SOL    HW217964   4.294   4.291   3.473  2.6666 -1.0364  1.4155
 2168SOL     OW17965   2.883   3.076   5.163 -0.0177  0.3778 -0.0051
 2168SOL    HW117966   2.908   3.138   5.095  1.2421 -0.9920 -0.7929
 2168SOL    HW217967   2.808   3.036   5.119 -1.1424 -0.4371  2.6268
 2169SOL     OW17968   4.696   4.530   3.851  0.5388  0.1176  0.0648
 2169SOL    HW117969   4.704   4.522   3.756  1.2476 -1.2447  0.2430
 2169SOL    HW217970   0.010   4.615   3.870  1.5577 -0.4238  0.4054
 2170SOL     OW17971   4.243   2.674   5.830  0.1275  0.0695 -0.1982
 2170SOL    HW117972   4.237   2.670   5.925  1.3646 -2.0445 -0.2099
 2170SOL    HW217973   4.337   2.658   5.818  0.3784  0.8127  0.7937
 2171SOL     OW17974   4.386   4.252  17.216  0.5885 -0.6020 -0.1590
 2171SOL    HW117975   4.403   4.339  17.180  0.0971 -0.0242  0.9850
 2171SOL    HW217976   4.459   4.228  17.274 -1.3759 -2.4649  1.5534
 2172SOL     OW17977   2.443   2.536  17.667  0.3499  0.0398 -0.2857
 2172SOL    HW117978   2.422   2.564   0.052 -2.6491  0.3624 -1.0798
 2172SOL    HW217979   2.356   2.502  17.647  0.0018  1.2724 -0.8585
 2173SOL     OW17980   1.989   4.540   7.119  0.3807 -0.4428  0.4176
 2173SOL    HW117981   1.995   4.449   7.091  0.9896  0.0217 -0.9980
 2173SOL    HW217982   1.951   4.533   7.206 -0.5769 -1.0441 -0.0478
 2174SOL     OW17983   1.678   2.220   8.174  0.2556  0.2364 -0.2813
 2174SOL    HW117984   1.691   2.310   8.143  4.2098  0.2728  1.4791
 2174SOL    HW217985   1.609   2.219   8.240  0.2442  1.0722 -0.2742
 2175SOL     OW17986   2.009   2.937  11.658 -0.1828  0.2238 -0.5226
 2175SOL    HW117987   2.099   2.920  11.683 -0.6529 -2.7279 -0.8432
 2175SOL    HW217988   2.008   2.886  11.577 -0.0927 -0.9693  0.2344
 2176SOL     OW17989   1.114   1.670  13.170  0.6610 -0.2641  0.4856
 2176SOL    HW117990   1.139   1.760  13.191  2.6559 -0.5997 -0.4239
 2176SOL    HW217991   1.053   1.652  13.241 -0.2532  2.5185  0.3877
 2177SOL     OW17992   2.591   3.924  11.535 -0.1829  0.3215 -0.2414
 2177SOL    HW117993   2.554   3.942  11.448 -0.4523  2.2198  0.2819
 2177SOL    HW217994   2.562   3.833  11.536  0.9999 -0.0588 -0.2694
 2178SOL     OW17995   1.122   1.260   8.598  0.5511 -0.3336 -0.5641
 2178SOL    HW117996   1.031   1.234   8.612  0.3344  0.4885 -0.4291
 2178SOL    HW217997   1.145   1.299   8.682 -1.5615  0.9110 -0.5483
 2179SOL     OW17998   2.491   1.029   8.971 -0.6912 -0.0547 -0.0038
 2179SOL    HW117999   2.441   1.078   8.906 -0.9765 -2.1561 -1.3245
 2179SOL    HW218000   2.435   1.032   9.049  0.1637  0.4595  0.6039
 2180SOL     OW18001   2.295   3.217  12.761 -0.2131 -0.0646  0.5553
 2180SOL    HW118002   2.368   3.172  12.719 -2.0066 -0.4373 -2.1516
 2180SOL    HW218003   2.239   3.229  12.685 -0.2454 -0.8450  0.4620
 2181SOL     OW18004   3.037   2.214   7.937  0.3553 -0.3988  0.4406
 2181SOL    HW118005   2.945   2.232   7.956  0.5065  0.3395  0.4915
 2181SOL    HW218006   3.038   2.211   7.842  0.2113 -1.5414  0.4750
 2182SOL     OW18007   1.765   0.284  11.505  0.0399 -0.2197  0.2945
 2182SOL    HW118008   1.744   0.191  11.496 -0.2365 -0.1568  0.2903
 2182SOL    HW218009   1.722   0.294  11.590 -0.7765 -0.2335 -0.1260
 2183SOL     OW18010   1.092   3.124  10.259  0.2334 -0.5514 -0.0475
 2183SOL    HW118011   1.031   3.086  10.195 -0.5288 -0.3437  0.5544
 2183SOL    HW218012   1.089   3.216  10.234 -1.4775 -0.1137  1.8085
 2184SOL     OW18013   0.657   0.828   9.366  0.1510 -0.4731 -0.0358
 2184SOL    HW118014   0.597   0.837   9.440 -0.5719  1.3376 -0.8417
 2184SOL    HW218015   0.715   0.762   9.404  1.5264  1.1241  0.6142
 2185SOL     OW18016   3.898   1.749  11.575 -0.7467 -1.2433  0.5479
 2185SOL    HW118017   3.826   1.689  11.557 -1.5563  0.1787 -0.9460
 2185SOL    HW218018   3.921   1.787  11.490 -1.7150 -2.3976 -0.2162
 2186SOL     OW18019   2.088   3.445   2.804  0.2099  0.2037  0.3479
 2186SOL    HW118020   2.150   3.498   2.853 -0.2334  1.6880 -0.6977
 2186SOL    HW218021   2.011   3.502   2.801  1.4840  1.8767 -0.8030
 2187SOL     OW18022   2.199   3.587   5.401  0.6993  0.3860 -0.0986
 2187SOL    HW118023   2.152   3.554   5.477  0.9703  0.0806 -0.0644
 2187SOL    HW218024   2.282   3.552   5.433  0.1560 -1.8495 -1.1508
 2188SOL     OW18025   4.187   4.072   0.798 -0.3736 -0.3290 -0.1098
 2188SOL    HW118026   4.189   4.022   0.879  0.0353 -1.1728 -0.6450
 2188SOL    HW218027   4.099   4.108   0.805 -0.0507  1.0635 -3.0129
 2189SOL     OW18028   1.389   2.590   1.101  0.6777  0.3739  0.0159
 2189SOL    HW118029   1.478   2.570   1.132  0.6071 -0.1415 -0.1233
 2189SOL    HW218030   1.403   2.645   1.024  1.2741 -0.6349 -0.5980
 2190SOL     OW18031   0.366   2.817   5.732 -0.0980 -0.0248 -0.4098
 2190SOL    HW118032   0.350   2.817   5.826 -2.5723  1.1755 -0.8383
 2190SOL    HW218033   0.364   2.723   5.714 -3.5776 -0.2309  1.1118
 2191SOL     OW18034   3.515   1.456   7.842 -0.2820 -0.1998 -0.1685
 2191SOL    HW118035   3.430   1.411   7.836 -0.6644  0.6169 -0.9104
 2191SOL    HW218036   3.495   1.530   7.898 -2.9521 -0.3575 -0.8743
 2192SOL     OW18037   2.958   1.266  16.267 -0.1948  0.5274 -0.6602
 2192SOL    HW118038   3.041   1.293  16.308 -0.5670  2.2398 -1.0379
 2192SOL    HW218039   2.964   1.295  16.176 -1.3037  1.2990 -0.4833
 2193SOL     OW18040   4.511   3.102   6.354  0.4966  0.0726 -0.6736
 2193SOL    HW118041   4.560   3.150   6.288  0.6181 -0.1280 -0.7300
 2193SOL    HW218042   4.572   3.030   6.370  0.3091 -0.4503 -2.3487
 2194SOL     OW18043   1.066   1.103  12.881 -0.0607  0.2183 -0.6069
 2194SOL    HW118044   1.159   1.091  12.864 -0.1777 -2.7649  0.8574
 2194SOL    HW218045   1.058   1.091  12.976 -0.4267 -1.4112 -0.8359
 2195SOL     OW18046   1.390   1.229   7.918  0.3365 -0.0990 -0.1041
 2195SOL    HW118047   1.396   1.174   7.996 -2.3864 -1.6740 -1.0060
 2195SOL    HW218048   1.307   1.209   7.875  0.9110 -1.3389 -0.6290
 2196SOL     OW18049   1.337   2.863   8.260 -1.0091 -0.1990  0.0491
 2196SOL    HW118050   1.376   2.946   8.234  0.0418  0.1367  2.6293
 2196SOL    HW218051   1.245   2.885   8.253 -0.3038  2.2739 -1.3684
 2197SOL     OW18052   0.473   4.019  12.962  0.4786 -0.1475 -0.8324
 2197SOL    HW118053   0.455   4.054  12.874  0.1205 -0.9289 -1.0661
 2197SOL    HW218054   0.518   3.936  12.953  1.2304  0.1878 -0.1383
 2198SOL     OW18055   1.978   2.724   6.168 -0.9151 -0.2124  0.1500
 2198SOL    HW118056   1.888   2.750   6.146 -0.1835  1.9253 -0.3541
 2198SOL    HW218057   2.010   2.731   6.078  0.5092 -0.1057  0.6716
 2199SOL     OW18058   0.869   2.687   3.753  0.2999  0.3619  0.5240
 2199SOL    HW118059   0.895   2.726   3.836 -0.0484  1.3133  0.1964
 2199SOL    HW218060   0.919   2.606   3.760  0.1272  0.0925 -1.1315
 2200SOL     OW18061   4.076   3.774   5.907 -0.2306 -0.0828  0.6630
 2200SOL    HW118062   4.153   3.741   5.954 -0.4751  0.2722  1.3004
 2200SOL    HW218063   4.092   3.868   5.906  0.6226 -0.2225  0.5877
 2201SOL     OW18064   2.469   2.279   7.910 -0.6525  0.7513 -0.2466
 2201SOL    HW118065   2.419   2.297   7.989 -0.6814  0.5185 -0.2112
 2201SOL    HW218066   2.555   2.317   7.928 -0.8450  0.0361  2.2376
 2202SOL     OW18067   2.474   0.269   6.465 -0.3523  0.0872 -0.3875
 2202SOL    HW118068   2.418   0.322   6.407 -0.3509 -0.8177 -1.2017
 2202SOL    HW218069   2.417   0.270   6.542  0.3470 -0.7522  0.1294
 2203SOL     OW18070   4.269   2.832  13.370  0.3458  0.6470 -0.6086
 2203SOL    HW118071   4.224   2.815  13.452  0.9953 -0.0405 -0.3864
 2203SOL    HW218072   4.197   2.870  13.321  0.1919  0.1601 -0.7679
 2204SOL     OW18073   2.065   1.256   6.217 -0.0278 -0.1941 -0.0513
 2204SOL    HW118074   2.057   1.345   6.181  0.3610  0.2118  0.8757
 2204SOL    HW218075   2.077   1.212   6.133  0.3591 -0.1669 -0.0108
 2205SOL     OW18076   4.652   3.248   4.434 -0.1614  0.1278  0.2239
 2205SOL    HW118077   4.647   3.153   4.437 -0.4776  0.1557  0.5447
 2205SOL    HW218078   4.565   3.269   4.401 -0.4674 -1.6928 -0.0997
 2206SOL     OW18079   1.128   1.396  10.414 -0.2816 -0.0500 -0.2895
 2206SOL    HW118080   1.099   1.448  10.339  2.6506  1.7125 -0.2057
 2206SOL    HW218081   1.214   1.371  10.382 -0.2565  0.8830 -0.9524
 2207SOL     OW18082   4.341   3.207   3.675 -0.0715  0.0243 -0.2138
 2207SOL    HW118083   4.327   3.205   3.580  0.2630  1.0112 -0.2842
 2207SOL    HW218084   4.357   3.114   3.692  1.4880  0.6706  1.9214
 2208SOL     OW18085   1.990   1.004   9.034 -0.0350  0.8389 -0.1411
 2208SOL    HW118086   1.966   0.960   8.953  0.6739  0.0066  0.1062
 2208SOL    HW218087   2.034   0.935   9.083  0.1032  0.7334 -0.4161
 2209SOL     OW18088   1.543   2.124   7.151 -0.4893 -0.2855  0.5764
 2209SOL    HW118089   1.492   2.043   7.155 -0.9511  0.0011  0.5770
 2209SOL    HW218090   1.631   2.087   7.145 -0.8123 -0.8150 -0.9295
 2210SOL     OW18091   4.146   0.117   3.751  0.2381  0.5324  0.1470
 2210SOL    HW118092   4.166   0.031   3.786  0.6503  0.5986  0.0781
 2210SOL    HW218093   4.145   0.097   3.657 -0.3097  1.3507 -0.0237
 2211SOL     OW18094   4.187   2.792   7.534 -0.3637 -0.0072 -0.0244
 2211SOL    HW118095   4.101   2.802   7.574  0.6329  0.5858  1.9705
 2211SOL    HW218096   4.237   2.771   7.613 -1.5888  1.0817  1.0349
 2212SOL     OW18097   4.488   3.602   1.990 -0.1823  0.1626 -0.3086
 2212SOL    HW118098   4.564   3.626   1.938  0.4517 -2.3378 -0.5376
 2212SOL    HW218099   4.523   3.533   2.046  1.1136  1.4610  0.5106
 2213SOL     OW18100   3.164   4.539   6.775  0.7045 -0.0632  0.3977
 2213SOL    HW118101   3.229   4.475   6.803  2.3442  0.4869 -2.0909
 2213SOL    HW218102   3.147   4.598   6.848  0.2037 -0.2743  0.4527
 2214SOL     OW18103   1.975   3.948   7.402 -0.4507  0.8612 -0.8029
 2214SOL    HW118104   1.992   3.921   7.311  0.7787 -1.1277  0.0351
 2214SOL    HW218105   1.883   3.975   7.401 -0.3164  1.3661  0.3199
 2215SOL     OW18106   2.962   3.699  15.895  0.0840 -0.2955  0.1010
 2215SOL    HW118107   3.007   3.717  15.977  1.4440 -2.2327 -0.2131
 2215SOL    HW218108   2.939   3.607  15.906  2.3763 -0.7193  1.2881
 2216SOL     OW18109   1.687   2.379  12.821 -0.6164 -0.0189  0.1478
 2216SOL    HW118110   1.700   2.299  12.770 -0.9504 -0.4176  0.7035
 2216SOL    HW218111   1.594   2.393  12.804 -0.8373 -1.1231  0.4786
 2217SOL     OW18112   4.074   0.073  13.037  0.1111 -0.1566 -0.7604
 2217SOL    HW118113   4.140   0.030  13.092  0.4661  2.4573  0.8687
 2217SOL    HW218114   4.098   0.166  13.032  0.4487 -0.2908 -1.5675
 2218SOL     OW18115   0.113   1.398   8.871 -0.6964  0.6391  0.6572
 2218SOL    HW118116   0.153   1.311   8.870 -1.2743  0.3717  0.7872
 2218SOL    HW218117   0.191   1.451   8.860  0.4387 -1.2574 -0.3871
 2219SOL     OW18118   0.209   3.162  14.930 -0.1811  0.4982  0.2391
 2219SOL    HW118119   0.293   3.171  14.885 -0.9781 -0.2310 -1.4000
 2219SOL    HW218120   0.153   3.122  14.863 -1.1395  1.8269  0.2438
 2220SOL     OW18121   4.041   2.678  15.317  0.1781 -0.4143  0.1380
 2220SOL    HW118122   3.990   2.745  15.363  1.3389 -0.5021  1.5871
 2220SOL    HW218123   4.090   2.642  15.392 -1.6101 -0.5459  1.2476
 2221SOL     OW18124   0.658   1.850   2.306  0.0264  0.0505  0.7373
 2221SOL    HW118125   0.601   1.892   2.241  1.1710 -1.4232 -1.2424
 2221SOL    HW218126   0.743   1.877   2.271 -1.0673 -0.0176 -2.0284
 2222SOL     OW18127   0.637   4.272  14.182  0.2624 -0.0729 -0.1507
 2222SOL    HW118128   0.545   4.276  14.207  0.9002  3.4180  1.5919
 2222SOL    HW218129   0.640   4.348  14.123 -1.9212  0.4676  0.4480
 2223SOL     OW18130   0.114   4.664   2.150  0.0258 -0.0532 -0.5371
 2223SOL    HW118131   0.114   4.569   2.142 -0.8272 -0.0643 -0.4094
 2223SOL    HW218132   0.116   4.670   2.245  0.5406  1.5413 -0.6484
 2224SOL     OW18133   3.527   0.303  14.198 -0.0211  0.2857  0.8876
 2224SOL    HW118134   3.601   0.358  14.223 -0.1624  0.5908  0.6302
 2224SOL    HW218135   3.457   0.360  14.167  1.5264  0.3746 -2.3626
 2225SOL     OW18136   3.804   3.262   8.880 -0.2512  0.1096  0.0917
 2225SOL    HW118137   3.787   3.320   8.806 -0.3662  1.0914  0.8785
 2225SOL    HW218138   3.806   3.173   8.845  3.5047 -0.5398  1.9387
 2226SOL     OW18139   0.310   0.899   6.542  0.5600 -0.3153 -0.1147
 2226SOL    HW118140   0.388   0.946   6.512  2.2024 -2.4537  0.8287
 2226SOL    HW218141   0.334   0.811   6.513  1.3257 -1.3705  3.7217
 2227SOL     OW18142   2.743   3.623  10.800 -0.4062 -0.1273 -0.0943
 2227SOL    HW118143   2.701   3.549  10.756  1.3249 -0.6963 -0.7975
 2227SOL    HW218144   2.775   3.675  10.726  0.7025 -1.5230 -0.5999
 2228SOL     OW18145   2.167   0.674   2.760 -0.1211  0.0089 -0.4018
 2228SOL    HW118146   2.163   0.769   2.766 -0.1310 -0.0988  1.4757
 2228SOL    HW218147   2.209   0.649   2.843  0.0186 -0.6595 -0.6719
 2229SOL     OW18148   4.157   0.531   0.951 -0.0877  0.5431  0.2769
 2229SOL    HW118149   4.158   0.616   0.995 -0.0569  0.3726  0.6050
 2229SOL    HW218150   4.213   0.486   1.013  1.1371 -0.2777 -1.4276
 2230SOL     OW18151   2.288   3.956   1.811 -0.2656 -0.7595  0.1661
 2230SOL    HW118152   2.320   3.914   1.731  0.7081  1.9052 -0.8632
 2230SOL    HW218153   2.259   4.041   1.778  1.2596 -0.5860 -0.7730
 2231SOL     OW18154   4.528   1.990  14.679 -0.6409  0.0307 -0.0847
 2231SOL    HW118155   4.595   1.977  14.746  0.0278  2.6013 -0.2810
 2231SOL    HW218156   4.585   2.017  14.608  0.3013 -2.9426 -0.4867
 2232SOL     OW18157   0.698   0.462   9.275  0.1644  0.1228 -1.0990
 2232SOL    HW118158   0.688   0.403   9.200 -0.2816 -0.8782 -0.2672
 2232SOL    HW218159   0.606   0.485   9.288  0.2537  0.9375 -1.9313
 2233SOL     OW18160   1.487   1.263   2.489  0.2128 -0.1886  0.1369
 2233SOL    HW118161   1.502   1.180   2.535 -1.0167 -0.4387  0.0823
 2233SOL    HW218162   1.454   1.242   2.402 -0.6826 -0.3137  0.5041
 2234SOL     OW18163   0.998   1.022   8.099  0.2075 -0.4291  0.7918
 2234SOL    HW118164   0.964   0.961   8.165 -0.6151  0.0594  0.8166
 2234SOL    HW218165   1.034   1.095   8.150 -1.4654  1.5297 -0.8321
 2235SOL     OW18166   4.067   4.407   3.062 -0.0830  0.1796  0.4963
 2235SOL    HW118167   4.117   4.383   2.983  3.4469  2.5093  2.0376
 2235SOL    HW218168   4.002   4.465   3.023  0.0548 -0.6668 -0.9885
 2236SOL     OW18169   1.380   0.580   9.745  0.1129 -0.3054 -0.0886
 2236SOL    HW118170   1.427   0.629   9.678 -0.2427 -1.3995 -1.1415
 2236SOL    HW218171   1.462   0.559   9.790  1.0366  0.8499 -1.2290
 2237SOL     OW18172   2.887   3.464   8.829  0.0222  0.6489  0.2407
 2237SOL    HW118173   2.940   3.543   8.843 -1.3990  1.8318 -0.9775
 2237SOL    HW218174   2.912   3.464   8.736  0.4748  1.7526  0.3670
 2238SOL     OW18175   3.866   2.083   1.403 -0.7272 -0.1060 -0.5146
 2238SOL    HW118176   3.949   2.070   1.449 -1.7126  1.5984  1.7370
 2238SOL    HW218177   3.817   2.032   1.468 -2.2195  0.0081 -1.5509
 2239SOL     OW18178   3.522   1.706   5.560 -0.3495 -0.1914 -0.1375
 2239SOL    HW118179   3.480   1.664   5.636 -0.2027 -0.0442  0.0256
 2239SOL    HW218180   3.453   1.704   5.493  0.5786 -2.4351 -1.0138
 2240SOL     OW18181   0.290   1.251   3.539  0.7491  0.0358  0.1821
 2240SOL    HW118182   0.345   1.187   3.583 -0.5963  0.4324  2.4155
 2240SOL    HW218183   0.285   1.320   3.604 -0.5367  0.1700 -0.0534
 2241SOL     OW18184   3.623   0.287  11.377 -0.3739 -0.4065  0.7202
 2241SOL    HW118185   3.590   0.372  11.407  0.5992  1.0188 -2.2157
 2241SOL    HW218186   3.548   0.229  11.389  0.4962 -1.9712 -1.4800
 2242SOL     OW18187   1.326   4.480  10.567  0.0805 -0.2540 -0.3313
 2242SOL    HW118188   1.398   4.523  10.612 -0.0989  0.3890 -0.6562
 2242SOL    HW218189   1.251   4.530  10.601 -0.6533 -0.8333 -1.0844
 2243SOL     OW18190   3.648   3.088  15.886  0.3616 -0.6905 -0.0870
 2243SOL    HW118191   3.618   3.166  15.931 -0.7398 -1.1274 -0.0720
 2243SOL    HW218192   3.574   3.074  15.827  0.0891  2.7736 -0.5316
 2244SOL     OW18193   1.406   0.900   6.186 -0.1792 -0.0648  0.0154
 2244SOL    HW118194   1.416   0.839   6.114 -0.9307  1.0715 -1.0560
 2244SOL    HW218195   1.484   0.887   6.240  2.7440  1.3749 -3.8755
 2245SOL     OW18196   2.052   3.536   7.776  0.0321 -0.9713  1.3048
 2245SOL    HW118197   2.004   3.569   7.699  0.1645  2.1693  2.5903
 2245SOL    HW218198   2.050   3.441   7.762 -0.0758 -0.7417 -0.3375
 2246SOL     OW18199   2.993   1.224  15.922  0.0064  0.0077  0.2676
 2246SOL    HW118200   3.079   1.258  15.947  0.2631 -1.0421  0.8323
 2246SOL    HW218201   3.010   1.201  15.831  0.2538  1.5816 -0.0709
 2247SOL     OW18202   4.176   4.458   7.769 -0.4659  0.2504  0.0875
 2247SOL    HW118203   4.147   4.536   7.816 -0.5977  0.0454  0.3459
 2247SOL    HW218204   4.241   4.425   7.831  0.0502 -1.0795 -1.1688
 2248SOL     OW18205   4.062   3.971   6.949  0.2698 -0.2059 -0.1403
 2248SOL    HW118206   4.069   3.996   7.041  0.1757 -0.5043 -0.0513
 2248SOL    HW218207   3.967   3.977   6.941  0.3233  1.1266  0.2094
 2249SOL     OW18208   1.733   1.748   0.587 -0.1277 -0.0922  0.3049
 2249SOL    HW118209   1.685   1.706   0.516  2.5051 -3.0499  0.2791
 2249SOL    HW218210   1.765   1.669   0.630  0.6347 -0.6243 -1.2369
 2250SOL     OW18211   0.389   4.359   4.772 -0.5124 -0.1435 -0.1904
 2250SOL    HW118212   0.397   4.454   4.765 -0.4661 -0.0671  0.9520
 2250SOL    HW218213   0.475   4.335   4.737  0.4633  0.4094  1.8640
 2251SOL     OW18214   4.307   4.030   8.030 -0.3055  0.5624  0.4076
 2251SOL    HW118215   4.365   3.987   8.093 -0.1347  1.4720  0.8746
 2251SOL    HW218216   4.244   3.960   8.017  1.2315 -0.8374  0.5837
 2252SOL     OW18217   0.957   2.849   8.714 -0.2558 -0.2744  0.1294
 2252SOL    HW118218   0.985   2.886   8.630  0.2924  1.4044  1.0669
 2252SOL    HW218219   0.997   2.908   8.778  0.1165  1.0712 -1.3454
 2253SOL     OW18220   0.161   2.986   4.547 -0.2277 -0.2725  0.5742
 2253SOL    HW118221   0.107   2.995   4.468  1.5547 -1.6825 -0.8196
 2253SOL    HW218222   0.109   3.039   4.607  0.5778 -0.6604  1.6084
 2254SOL     OW18223   4.571   1.826   5.072  0.4097 -0.5163  0.7701
 2254SOL    HW118224   4.579   1.761   5.002  1.0659 -0.4946  0.8192
 2254SOL    HW218225   4.511   1.894   5.040 -1.6834 -1.5522  2.5048
 2255SOL     OW18226   0.565   1.429   8.608  0.0049 -0.0880 -0.2858
 2255SOL    HW118227   0.626   1.373   8.656 -1.2033 -1.1684 -0.0198
 2255SOL    HW218228   0.594   1.514   8.639  1.8475 -0.4322 -1.0527
 2256SOL     OW18229   3.126   3.101   8.090  0.2220  0.1045 -0.4855
 2256SOL    HW118230   3.220   3.097   8.075 -0.2485 -2.0041 -2.8180
 2256SOL    HW218231   3.097   3.190   8.108 -0.9874 -0.3818 -0.0344
 2257SOL     OW18232   4.663   1.989  11.617  0.2351  0.1204  0.1961
 2257SOL    HW118233   4.700   1.999  11.704  1.8326 -3.1510 -0.1084
 2257SOL    HW218234   4.592   1.928  11.637  1.9995 -1.5529  1.3057
 2258SOL     OW18235   2.903   4.188  12.417 -1.0220  0.1272 -0.2345
 2258SOL    HW118236   2.975   4.152  12.468  0.1143 -0.2428 -2.0765
 2258SOL    HW218237   2.830   4.142  12.459  0.8098 -1.4900  1.1556
 2259SOL     OW18238   0.728   4.650   9.626 -0.6573 -0.2670 -0.4664
 2259SOL    HW118239   0.640   4.681   9.647 -0.0893  0.3451  1.0360
 2259SOL    HW218240   0.749   4.597   9.703 -2.6775 -0.0472  0.2432
 2260SOL     OW18241   2.348   4.605   6.670 -0.6732 -0.0344 -0.1485
 2260SOL    HW118242   2.274   4.617   6.729 -0.6071  0.0535 -0.0832
 2260SOL    HW218243   2.417   4.605   6.736 -0.4183  1.7743 -0.3969
 2261SOL     OW18244   3.494   3.414   3.018 -0.0317 -0.0626 -0.3686
 2261SOL    HW118245   3.526   3.499   2.988  0.1179  0.6555  1.7918
 2261SOL    HW218246   3.493   3.351   2.946  0.0165  1.7295 -1.9435
 2262SOL     OW18247   3.254   2.464   5.583 -0.2527  0.6854 -0.4391
 2262SOL    HW118248   3.295   2.381   5.557 -1.2640 -0.5667  1.8996
 2262SOL    HW218249   3.195   2.427   5.649  1.8689  0.9940  1.6437
 2263SOL     OW18250   0.785   3.067  12.956  0.2280 -0.5043  0.1776
 2263SOL    HW118251   0.725   2.992  12.952  2.5356 -2.3566  0.4778
 2263SOL    HW218252   0.816   3.066  13.047 -0.5846 -0.5381  0.4565
 2264SOL     OW18253   2.035   1.359   3.169 -0.1708  0.4352  0.4049
 2264SOL    HW118254   2.064   1.304   3.097 -0.1117  0.2253  0.5918
 2264SOL    HW218255   2.097   1.432   3.161 -1.3468  1.3049 -0.7030
 2265SOL     OW18256   2.328   2.040  10.708  0.2009 -0.2775 -0.4063
 2265SOL    HW118257   2.241   2.074  10.684 -1.1205 -1.4586  2.7238
 2265SOL    HW218258   2.364   2.124  10.737  0.7285 -0.5432 -0.2955
 2266SOL     OW18259   4.274   2.702   3.689 -0.1956  0.2265 -0.0999
 2266SOL    HW118260   4.184   2.696   3.657  0.5608 -2.9338 -1.7439
 2266SOL    HW218261   4.276   2.779   3.744  2.5952  0.7417 -0.9260
 2267SOL     OW18262   2.581   1.040   4.361 -0.0603 -0.2913  0.0079
 2267SOL    HW118263   2.587   1.106   4.292  0.5137 -1.3888 -0.9881
 2267SOL    HW218264   2.537   1.087   4.432 -0.0169 -1.3250  0.7170
 2268SOL     OW18265   1.435   3.763  16.355  0.4341 -0.0372  0.3903
 2268SOL    HW118266   1.427   3.806  16.270  1.3782 -2.5436 -0.9830
 2268SOL    HW218267   1.356   3.710  16.362  0.2391  0.1919 -0.0824
 2269SOL     OW18268   3.914   0.575   7.191 -0.1577  0.0094 -0.3055
 2269SOL    HW118269   3.819   0.561   7.195  0.2373 -2.7685 -0.4924
 2269SOL    HW218270   3.937   0.491   7.151 -0.7513  0.3868 -1.4305
 2270SOL     OW18271   2.025   0.437   2.127 -0.4675  0.1209 -0.7896
 2270SOL    HW118272   2.064   0.480   2.051 -0.3150 -0.3380 -0.9700
 2270SOL    HW218273   2.006   0.506   2.190 -1.6631 -1.2025  0.2890
 2271SOL     OW18274   0.949   3.133  11.011  0.0361 -0.5907  0.2361
 2271SOL    HW118275   1.021   3.162  10.955 -1.0410 -1.8431 -1.8241
 2271SOL    HW218276   0.997   3.108  11.090  0.8638 -0.0593 -0.0959
 2272SOL     OW18277   3.915   2.331  14.586 -0.4029  0.0837  0.0776
 2272SOL    HW118278   3.921   2.426  14.577 -0.0098  0.0083 -0.4428
 2272SOL    HW218279   3.883   2.315  14.497 -1.8787 -1.0485  0.8064
 2273SOL     OW18280   2.861   0.268   2.681 -1.4244 -0.0460 -0.5418
 2273SOL    HW118281   2.910   0.247   2.760 -1.3068  2.8724  0.1465
 2273SOL    HW218282   2.897   0.350   2.645  0.3271 -0.6186 -0.1019
 2274SOL     OW18283   0.289   2.946   6.667  0.5103 -0.0402 -0.1081
 2274SOL    HW118284   0.380   2.963   6.693  0.2759 -1.3051  1.5550
 2274SOL    HW218285   0.303   2.864   6.620 -2.2510 -0.0889 -0.8338
 2275SOL     OW18286   3.492   2.570   0.671 -0.3108 -0.4885  0.1621
 2275SOL    HW118287   3.415   2.613   0.709 -0.1175  0.9394 -1.0657
 2275SOL    HW218288   3.525   2.501   0.728  2.1468  1.5123  1.1641
 2276SOL     OW18289   2.003   0.315   3.616  0.1492  0.2113  0.2425
 2276SOL    HW118290   1.995   0.331   3.710  0.8991 -0.0034  0.3479
 2276SOL    HW218291   2.098   0.307   3.606 -0.4687 -3.7626 -2.4708
 2277SOL     OW18292   3.087   2.874   7.939  0.3808 -0.6187  0.0758
 2277SOL    HW118293   3.175   2.841   7.919  0.2445 -2.4629  2.4743
 2277SOL    HW218294   3.101   2.956   7.986  0.6094 -0.9041  0.5076
 2278SOL     OW18295   4.630   3.748   6.869  0.5483 -0.1955  0.0608
 2278SOL    HW118296   4.650   3.769   6.960  1.3398 -0.3859 -0.0723
 2278SOL    HW218297   4.537   3.727   6.879  0.8016 -2.3366 -2.1335
 2279SOL     OW18298   3.073   2.838  17.247  0.1466 -0.3958  0.9228
 2279SOL    HW118299   3.130   2.762  17.238 -2.5854 -2.4495  1.0839
 2279SOL    HW218300   3.004   2.794  17.295  0.0755  0.7866  1.9252
 2280SOL     OW18301   3.136   2.896   3.634  0.3680 -0.3819  0.2099
 2280SOL    HW118302   3.109   2.941   3.554 -0.5661 -1.7792 -0.2671
 2280SOL    HW218303   3.182   2.966   3.679  1.9344 -0.9183 -0.5553
 2281SOL     OW18304   2.231   3.681   4.353 -0.0830 -0.2453  0.1227
 2281SOL    HW118305   2.151   3.629   4.347  0.4753 -0.8490 -2.0865
 2281SOL    HW218306   2.267   3.673   4.442 -4.3124  0.4440  1.9176
 2282SOL     OW18307   1.469   0.295  17.542  0.2426 -0.5719 -0.0902
 2282SOL    HW118308   1.502   0.209  17.565  0.1867 -0.4257  0.5479
 2282SOL    HW218309   1.451   0.288  17.448 -1.4503  0.4291  0.1463
 2283SOL     OW18310   1.759   2.417   2.978 -0.6174  0.6136  0.0450
 2283SOL    HW118311   1.677   2.440   2.934 -0.8156  1.0836  0.6698
 2283SOL    HW218312   1.800   2.371   2.904  0.5817  0.2742  0.9176
 2284SOL     OW18313   4.262   1.038   7.349  0.5451  0.0266  1.0224
 2284SOL    HW118314   4.189   1.084   7.308  0.4044 -0.8223  0.3047
 2284SOL    HW218315   4.227   1.021   7.437 -2.2787 -0.1872 -0.1262
 2285SOL     OW18316   0.385   1.865   4.026 -0.2394  0.4399 -0.5005
 2285SOL    HW118317   0.474   1.846   3.998 -0.2437 -0.4269  0.0676
 2285SOL    HW218318   0.356   1.933   3.965 -0.1593  0.9474  0.0167
 2286SOL     OW18319   1.133   0.735   7.997  0.3269  0.0944 -0.0584
 2286SOL    HW118320   1.176   0.720   8.081  0.4919  2.3472  0.2436
 2286SOL    HW218321   1.048   0.771   8.023 -0.0313  0.7199 -2.0695
 2287SOL     OW18322   1.432   3.093   6.471  0.1719  0.6572 -0.1698
 2287SOL    HW118323   1.386   3.176   6.464 -0.7314  0.2189  0.4819
 2287SOL    HW218324   1.362   3.032   6.445 -0.0418  0.7546  0.1852
 2288SOL     OW18325   2.240   0.241   3.780 -0.1363 -0.0925 -0.3676
 2288SOL    HW118326   2.206   0.298   3.849  0.7859 -1.1022  0.9219
 2288SOL    HW218327   2.324   0.223   3.822 -0.1050  0.0932 -0.3535
 2289SOL     OW18328   2.001   4.311   4.835  0.8723  0.3700 -0.1330
 2289SOL    HW118329   2.075   4.293   4.894  0.7027 -0.9025 -0.3120
 2289SOL    HW218330   2.030   4.284   4.748 -1.1672 -0.2019 -0.6419
 2290SOL     OW18331   1.822   3.041  10.943  0.0791 -0.7358  0.1799
 2290SOL    HW118332   1.736   3.040  10.902  0.0257  0.8166  0.2690
 2290SOL    HW218333   1.828   3.136  10.950 -0.5070 -0.6568 -0.3968
 2291SOL     OW18334   0.659   4.576   3.994  0.3303  0.3177 -0.3306
 2291SOL    HW118335   0.688   4.566   4.085  0.2909  0.1496 -0.3374
 2291SOL    HW218336   0.746   4.585   3.953  0.1342  2.1687 -0.3493
 2292SOL     OW18337   4.625   3.845  11.180  0.1571 -0.8505 -0.1450
 2292SOL    HW118338   4.679   3.868  11.255  1.0064  1.3086 -1.4203
 2292SOL    HW218339   4.650   3.915  11.119 -1.6951 -0.3579 -0.3457
 2293SOL     OW18340   4.263   3.501   2.147  0.0019 -0.1448  0.2088
 2293SOL    HW118341   4.322   3.575   2.155  0.7503 -0.3823 -3.3166
 2293SOL    HW218342   4.201   3.524   2.077 -1.8634 -0.5100  1.7366
 2294SOL     OW18343   2.513   1.175   5.187  0.2428 -0.3575  0.0053
 2294SOL    HW118344   2.513   1.263   5.150 -0.4858 -0.6179 -0.6111
 2294SOL    HW218345   2.587   1.198   5.243 -0.4139 -1.8899  1.5054
 2295SOL     OW18346   4.387   3.454   6.643  0.1839 -0.1320 -0.2725
 2295SOL    HW118347   4.344   3.426   6.724 -0.2489 -1.4476 -0.9535
 2295SOL    HW218348   4.337   3.533   6.618 -1.0770 -0.0498  2.4334
 2296SOL     OW18349   2.879   0.740   2.751  0.7870  0.0517  0.4965
 2296SOL    HW118350   2.884   0.786   2.667  3.6890 -0.6480  0.2863
 2296SOL    HW218351   2.888   0.649   2.721 -1.4158  0.4126 -1.2556
 2297SOL     OW18352   0.089   2.203   3.483 -0.1081  0.5170 -0.2840
 2297SOL    HW118353   0.182   2.212   3.500 -0.2371  1.1105  0.1356
 2297SOL    HW218354   0.059   2.290   3.455 -1.4496  0.1027 -0.1451
 2298SOL     OW18355   2.482   3.991  12.469 -0.3922  0.4889  0.3702
 2298SOL    HW118356   2.406   3.939  12.495  1.0912 -2.1541 -0.5807
 2298SOL    HW218357   2.457   4.006  12.378  1.4413  4.3421  0.5173
 2299SOL     OW18358   2.111   3.001   7.545  0.2910  0.1209  0.0415
 2299SOL    HW118359   2.135   2.912   7.520 -2.0853 -1.8931  4.9471
 2299SOL    HW218360   2.032   2.985   7.596  0.1813 -1.1842 -0.5459
 2300SOL     OW18361   4.042   0.199   9.101  0.4590  0.1121 -0.0602
 2300SOL    HW118362   4.006   0.210   9.013  0.5350 -0.8796 -0.2170
 2300SOL    HW218363   4.070   0.107   9.101  1.3131  0.3703  1.2730
 2301SOL     OW18364   4.155   1.187   6.332  0.4720 -0.0580  0.0829
 2301SOL    HW118365   4.122   1.139   6.256  0.4321 -0.2048  0.1940
 2301SOL    HW218366   4.072   1.224   6.360  0.2976  0.1064 -0.6575
 2302SOL     OW18367   1.355   4.076   7.189 -0.4896  0.0776 -0.2455
 2302SOL    HW118368   1.305   4.157   7.186 -0.0586  0.2107 -3.3938
 2302SOL    HW218369   1.414   4.094   7.262 -0.3970 -0.3632 -0.2110
 2303SOL     OW18370   4.031   2.812  10.726  0.1937 -0.2463  0.0220
 2303SOL    HW118371   4.125   2.792  10.728 -0.0774 -1.7732 -2.5474
 2303SOL    HW218372   4.023   2.845  10.815 -0.2166  0.2464 -0.1967
 2304SOL     OW18373   3.289   2.704   3.174 -0.7460 -0.2580 -0.2221
 2304SOL    HW118374   3.253   2.726   3.088  0.4788  1.2280 -0.3532
 2304SOL    HW218375   3.347   2.780   3.182  0.1924 -0.8135 -1.7864
 2305SOL     OW18376   1.255   3.089  15.813 -0.0287 -0.3034 -0.5598
 2305SOL    HW118377   1.266   3.001  15.777  0.5434 -0.8693  0.9877
 2305SOL    HW218378   1.255   3.142  15.733 -1.5926 -0.2703 -0.5342
 2306SOL     OW18379   2.362   1.806   4.305 -0.9911 -0.0466 -0.6979
 2306SOL    HW118380   2.363   1.895   4.269 -0.8679  1.6271  3.5077
 2306SOL    HW218381   2.429   1.805   4.373 -0.1618 -2.3997 -1.5462
 2307SOL     OW18382   2.650   4.662   7.109  0.2786 -0.1622 -0.0661
 2307SOL    HW118383   2.666   4.593   7.174 -0.9749 -0.4899 -0.0914
 2307SOL    HW218384   2.564   4.690   7.140 -0.5044 -2.2478 -0.3558
 2308SOL     OW18385   0.601   2.151  10.173  0.3606  0.1082 -0.1341
 2308SOL    HW118386   0.620   2.130  10.264 -2.1194 -1.0696  0.0868
 2308SOL    HW218387   0.506   2.166  10.172  0.5886  1.6192  0.4896
 2309SOL     OW18388   2.264   0.111   5.422 -0.0276 -0.1169  0.0338
 2309SOL    HW118389   2.308   0.050   5.481 -1.2848  0.1777  1.2815
 2309SOL    HW218390   2.200   0.144   5.485  0.9549 -0.4210  1.1991
 2310SOL     OW18391   0.740   3.904   9.158 -0.4046 -0.1564  0.5099
 2310SOL    HW118392   0.814   3.849   9.183  0.9550  1.7973  0.7413
 2310SOL    HW218393   0.718   3.951   9.238 -3.2949 -0.2089 -0.2397
 2311SOL     OW18394   0.180   0.426   5.584 -0.0364  0.3286  0.4474
 2311SOL    HW118395   0.257   0.465   5.542 -0.0539 -0.9066 -0.7179
 2311SOL    HW218396   0.205   0.333   5.593 -0.8151 -0.0490 -1.4882
 2312SOL     OW18397   2.250   1.681  17.598  0.0104 -0.6226 -0.0040
 2312SOL    HW118398   2.312   1.638  17.540 -0.4754  0.1698 -1.1060
 2312SOL    HW218399   2.170   1.690  17.547 -0.9112 -0.1669  1.4945
 2313SOL     OW18400   4.694   3.905  10.565 -0.7098 -0.0749  0.0985
 2313SOL    HW118401   4.631   3.963  10.524 -1.3330  0.1609  1.4004
 2313SOL    HW218402   0.042   3.963  10.583  0.2394 -1.1892 -0.2215
 2314SOL     OW18403   1.073   4.470   2.743 -0.4488 -0.4407 -0.2345
 2314SOL    HW118404   1.133   4.404   2.776 -1.1462 -1.1963 -0.4950
 2314SOL    HW218405   1.093   4.538   2.808 -1.1179 -0.9253  0.4686
 2315SOL     OW18406   3.346   2.098   6.029 -0.6500  0.7617  0.5204
 2315SOL    HW118407   3.439   2.086   6.013 -0.5815 -0.0575  1.5034
 2315SOL    HW218408   3.349   2.091   6.124 -1.6991  1.7153  0.6172
 2316SOL     OW18409   0.623   2.386   8.826  0.2228 -0.7367 -0.2108
 2316SOL    HW118410   0.543   2.361   8.780  0.0533  0.4359 -0.5714
 2316SOL    HW218411   0.604   2.480   8.826  0.0768 -0.7773  1.7025
 2317SOL     OW18412   3.863   0.572   8.377 -0.1045 -0.0670  0.8661
 2317SOL    HW118413   3.816   0.655   8.367  1.1615  0.3623 -1.6037
 2317SOL    HW218414   3.790   0.510   8.387 -0.5849  0.2397 -0.7645
 2318SOL     OW18415   0.932   3.752  11.489  0.6782  0.2698  0.0252
 2318SOL    HW118416   0.844   3.717  11.474 -0.3277  2.6503  0.3687
 2318SOL    HW218417   0.958   3.708  11.570  0.2120 -1.2979 -0.6782
 2319SOL     OW18418   0.912   0.230   0.622  0.0026 -0.4405  0.1966
 2319SOL    HW118419   0.829   0.272   0.600 -0.7809 -1.9842  0.1898
 2319SOL    HW218420   0.908   0.148   0.571  2.0970 -0.3269 -0.1326
 2320SOL     OW18421   0.411   0.819  13.183  0.1158  0.5035  0.0935
 2320SOL    HW118422   0.405   0.898  13.236  0.5522  0.9649 -0.5526
 2320SOL    HW218423   0.327   0.814  13.137 -0.6118 -0.7671  1.5586
 2321SOL     OW18424   2.020   0.819   1.310 -0.5477  0.2600 -0.2719
 2321SOL    HW118425   1.961   0.875   1.259  0.9230  1.0557 -1.1370
 2321SOL    HW218426   1.983   0.828   1.397 -1.3782  0.6853 -0.6613
 2322SOL     OW18427   4.377   3.954  17.521  0.7475 -0.3889 -0.1694
 2322SOL    HW118428   4.390   3.922  17.610 -2.4200 -0.5584  0.2346
 2322SOL    HW218429   4.325   4.032  17.537  0.3623 -1.1826  2.3823
 2323SOL     OW18430   3.591   2.666   4.591 -0.2865 -0.1299  0.0913
 2323SOL    HW118431   3.585   2.742   4.533 -0.6432  0.2424  0.6195
 2323SOL    HW218432   3.503   2.635   4.610  0.4738 -0.0833  3.6981
 2324SOL     OW18433   2.560   4.580   4.453 -0.8316  0.4734 -0.2596
 2324SOL    HW118434   2.496   4.587   4.523  1.5349  0.0711  1.9679
 2324SOL    HW218435   2.510   4.611   4.377 -0.6509  0.4970 -0.3705
 2325SOL     OW18436   2.752   2.481   4.337  0.5008  0.0190 -0.5381
 2325SOL    HW118437   2.715   2.398   4.369 -1.0977  0.9801  0.0930
 2325SOL    HW218438   2.759   2.467   4.243 -2.0833  2.6433 -1.1143
 2326SOL     OW18439   4.121   4.073   9.244  0.0630  0.3655  0.0518
 2326SOL    HW118440   4.049   4.019   9.212  0.3942  0.4746 -0.8819
 2326SOL    HW218441   4.086   4.159   9.267  0.1639  0.8391 -1.5137
 2327SOL     OW18442   4.366   4.424   7.471 -0.3387 -0.3627  0.0335
 2327SOL    HW118443   4.437   4.478   7.507  0.0124 -0.7422 -0.0960
 2327SOL    HW218444   4.294   4.473   7.512 -0.6652  1.6113 -2.8904
 2328SOL     OW18445   3.586   2.308   4.378  0.1069 -0.2586  0.0883
 2328SOL    HW118446   3.570   2.367   4.303  2.4899  0.9600  0.5392
 2328SOL    HW218447   3.653   2.363   4.418  0.4562 -1.2438  0.8462
 2329SOL     OW18448   4.165   2.072   2.864  0.4457 -0.3593  0.4310
 2329SOL    HW118449   4.148   2.165   2.845 -0.0751 -0.7241 -0.8881
 2329SOL    HW218450   4.259   2.069   2.843  0.0247 -0.2150 -1.4935
 2330SOL     OW18451   1.161   3.657  13.514 -0.2517  0.0449  0.0156
 2330SOL    HW118452   1.168   3.562  13.502 -1.1634 -0.0191 -0.0016
 2330SOL    HW218453   1.079   3.665  13.562 -1.1774  0.8559 -1.7158
 2331SOL     OW18454   4.276   2.075   4.534  0.7927  0.3662  0.3234
 2331SOL    HW118455   4.325   2.103   4.457 -0.5518  2.4188  0.2262
 2331SOL    HW218456   4.332   2.100   4.608  0.5090  1.2256  0.2375
 2332SOL     OW18457   3.945   0.182   3.486  0.2787 -0.3136 -0.2343
 2332SOL    HW118458   3.945   0.186   3.390  2.8927 -0.5572 -0.2470
 2332SOL    HW218459   3.992   0.264   3.504 -0.7739  0.0946  0.7497
 2333SOL     OW18460   3.137   0.595   0.679 -0.5191 -0.6491  0.4667
 2333SOL    HW118461   3.145   0.572   0.586  3.4261 -1.2644  0.9474
 2333SOL    HW218462   3.161   0.510   0.716  0.6970  0.3889  2.0847
 2334SOL     OW18463   0.352   0.293   3.449 -0.1778 -0.3434  0.2990
 2334SOL    HW118464   0.324   0.202   3.456  3.4626 -1.2940  2.4802
 2334SOL    HW218465   0.264   0.331   3.446  0.3019  0.7943  0.6431
 2335SOL     OW18466   0.248   2.980  13.653  0.4307 -0.3794 -0.3497
 2335SOL    HW118467   0.335   2.954  13.683  0.2731 -0.2076  0.2495
 2335SOL    HW218468   0.195   2.901  13.659  0.9781 -0.6438  0.9217
 2336SOL     OW18469   3.490   0.531   5.956 -0.5458  0.0932  0.4016
 2336SOL    HW118470   3.546   0.511   6.030 -0.1873 -2.5742 -0.5919
 2336SOL    HW218471   3.531   0.606   5.914 -2.2138  2.2617  2.6814
 2337SOL     OW18472   3.233   0.102   3.958  0.5338  0.6569  0.4570
 2337SOL    HW118473   3.215   0.010   3.937 -1.2200  0.5066  2.6656
 2337SOL    HW218474   3.162   0.120   4.019 -1.7495  0.2391 -2.0975
 2338SOL     OW18475   2.760   0.031   0.552  0.4380  0.5197 -0.1288
 2338SOL    HW118476   2.670   0.055   0.528  0.4972 -1.2371 -1.9920
 2338SOL    HW218477   2.789   0.022   0.462  1.4197 -0.0719  0.2596
 2339SOL     OW18478   4.445   0.687   9.240  0.6394 -0.1171 -0.2697
 2339SOL    HW118479   4.355   0.707   9.216  0.6961  0.0293 -0.3635
 2339SOL    HW218480   4.492   0.735   9.171  1.4242 -2.3170 -1.2892
 2340SOL     OW18481   0.240   2.289  15.428  0.3251  0.4723  0.1306
 2340SOL    HW118482   0.187   2.322  15.356  0.9665 -0.0573 -0.5862
 2340SOL    HW218483   0.166   2.275  15.487 -0.7532  0.7175 -1.1690
 2341SOL     OW18484   3.598   2.384   4.834 -0.2262  0.8558  0.1593
 2341SOL    HW118485   3.664   2.315   4.825 -0.6870  0.6117 -1.3410
 2341SOL    HW218486   3.638   2.444   4.898 -0.1596 -0.5229  1.4029
 2342SOL     OW18487   1.826   1.151   4.450  0.5589 -0.0085  0.6555
 2342SOL    HW118488   1.840   1.066   4.410  0.8463 -0.1303  1.0111
 2342SOL    HW218489   1.897   1.193   4.402  1.7440 -1.3075  1.2843
 2343SOL     OW18490   0.610   1.517   9.039  0.2961  0.8097 -0.3774
 2343SOL    HW118491   0.689   1.480   8.998  0.7492  2.5202 -1.0791
 2343SOL    HW218492   0.590   1.467   9.118  2.3104 -1.1962 -1.1182
 2344SOL     OW18493   0.002   2.794   8.868  0.3638  1.0240 -0.7899
 2344SOL    HW118494   4.645   2.747   8.882  0.6936  0.2037 -1.5950
 2344SOL    HW218495   0.023   2.795   8.961 -0.9635  0.6342 -0.4829
 2345SOL     OW18496   4.556   0.838   3.881 -0.2149 -0.0021 -0.0794
 2345SOL    HW118497   4.608   0.796   3.950 -0.0137  1.3098  0.5700
 2345SOL    HW218498   4.581   0.792   3.800 -2.2590 -0.5490 -0.3986
 2346SOL     OW18499   3.497   1.457   2.845  0.3078  0.0859 -0.0731
 2346SOL    HW118500   3.504   1.469   2.750 -0.3688  4.3798  0.3998
 2346SOL    HW218501   3.521   1.547   2.865  0.5713  0.1373 -0.6122
 2347SOL     OW18502   2.405   2.755   1.639 -0.3000 -0.3672  0.5341
 2347SOL    HW118503   2.403   2.673   1.689  1.2195 -1.3367 -0.9921
 2347SOL    HW218504   2.321   2.795   1.660 -0.3428 -1.2848  2.1067
 2348SOL     OW18505   1.482   3.079  17.677  0.2389 -0.7353  0.4369
 2348SOL    HW118506   1.549   3.024   0.014  0.4971  0.2741  1.3538
 2348SOL    HW218507   1.483   3.033  17.593 -1.0975 -0.4341  0.2591
 2349SOL     OW18508   4.091   4.020   5.258 -0.4204  0.1568 -0.2008
 2349SOL    HW118509   4.003   4.051   5.281 -1.1165 -0.6407 -1.7465
 2349SOL    HW218510   4.105   4.068   5.177 -0.2568  0.5747  0.0788
 2350SOL     OW18511   1.379   3.006  10.383 -0.7752  0.3380  0.2556
 2350SOL    HW118512   1.457   3.006  10.328 -1.7135  1.7616 -1.0606
 2350SOL    HW218513   1.328   2.941  10.334 -0.8331  0.2242  0.4660
 2351SOL     OW18514   3.143   4.479   4.499 -0.5230  0.6665 -0.2283
 2351SOL    HW118515   3.134   4.384   4.494  2.2904  0.3694  0.2254
 2351SOL    HW218516   3.068   4.506   4.552 -1.6113 -0.7215 -1.0505
 2352SOL     OW18517   1.270   3.075   2.183  0.5377  0.3752  0.2529
 2352SOL    HW118518   1.293   3.077   2.090 -0.5929 -0.5039 -0.0458
 2352SOL    HW218519   1.267   3.168   2.206  1.7853  0.2056  1.0762
 2353SOL     OW18520   3.140   0.533   6.863  0.2830  0.0600 -0.0847
 2353SOL    HW118521   3.148   0.539   6.767  1.2534 -1.4339 -0.1087
 2353SOL    HW218522   3.048   0.506   6.869 -0.2613  2.0893  0.5709
 2354SOL     OW18523   2.474   3.437   5.893 -0.1295  0.3725  0.7312
 2354SOL    HW118524   2.422   3.372   5.941 -0.3110 -1.2487 -1.6525
 2354SOL    HW218525   2.412   3.506   5.918 -0.1978  0.2550  0.8879
 2355SOL     OW18526   4.233   3.103   3.381 -0.5712 -1.3819  0.0202
 2355SOL    HW118527   4.224   3.013   3.411 -2.0137 -0.8820  1.0842
 2355SOL    HW218528   4.272   3.086   3.295  1.2242 -2.4128  1.0479
 2356SOL     OW18529   1.701   2.273  14.843  0.5543 -0.5451  0.1969
 2356SOL    HW118530   1.709   2.195  14.787 -0.6822 -0.5543  0.0325
 2356SOL    HW218531   1.739   2.238  14.923 -2.1360 -2.5396  0.6167
 2357SOL     OW18532   3.649   1.126   3.276  0.4883  0.4447 -0.0942
 2357SOL    HW118533   3.647   1.120   3.180 -1.0150 -1.0502  0.0292
 2357SOL    HW218534   3.565   1.088   3.302  0.1158  3.5784  3.1453
 2358SOL     OW18535   4.108   2.986  14.431 -0.1791  0.2587 -0.8888
 2358SOL    HW118536   4.198   2.998  14.400  0.1582 -0.2984 -0.1248
 2358SOL    HW218537   4.124   2.994  14.525  3.9465  1.6923 -1.7323
 2359SOL     OW18538   0.268   0.873  15.265  0.1602 -0.5633 -0.2174
 2359SOL    HW118539   0.188   0.820  15.266 -0.0409 -0.2766 -1.2509
 2359SOL    HW218540   0.236   0.948  15.215  2.0461  0.8878  0.7720
 2360SOL     OW18541   0.039   4.463   9.248 -0.7216  0.3938 -0.1262
 2360SOL    HW118542   4.701   4.499   9.310 -1.8841 -1.2442 -0.3627
 2360SOL    HW218543   4.719   4.385   9.217  0.2607 -0.7632  1.3603
 2361SOL     OW18544   4.294   1.396   9.289 -0.1261 -0.0117 -0.2151
 2361SOL    HW118545   4.292   1.324   9.353 -0.1384 -0.8545 -1.1732
 2361SOL    HW218546   4.221   1.376   9.230 -1.1419 -0.8291  1.2915
 2362SOL     OW18547   2.829   0.746  16.981  0.3722  0.1231  0.3302
 2362SOL    HW118548   2.855   0.745  16.889  0.6485  1.3948  0.3862
 2362SOL    HW218549   2.764   0.676  16.985 -0.1924  0.5249 -1.9644
 2363SOL     OW18550   0.186   1.124   2.886  0.0555  0.1690  0.3178
 2363SOL    HW118551   0.203   1.192   2.951  2.3924 -0.4747  0.3931
 2363SOL    HW218552   0.272   1.082   2.881  0.7942  1.8447 -1.0143
 2364SOL     OW18553   3.372   3.048   1.916  0.1143 -0.0848 -0.1133
 2364SOL    HW118554   3.361   3.030   1.823  1.5077  2.8934 -0.8427
 2364SOL    HW218555   3.295   3.103   1.934  0.2034  0.0558 -0.1607
 2365SOL     OW18556   1.967   0.029   3.949  0.3079  0.1872  0.4550
 2365SOL    HW118557   2.036   4.695   3.977  2.2029  2.3581  0.4537
 2365SOL    HW218558   1.953   4.717   3.862 -1.2414 -0.1808  0.8637
 2366SOL     OW18559   3.575   2.147  13.766  0.5677 -0.3101 -0.0150
 2366SOL    HW118560   3.557   2.128  13.674 -2.6183 -1.0722  0.7612
 2366SOL    HW218561   3.580   2.242  13.753  1.1113 -0.5626 -1.6171
 2367SOL     OW18562   2.668   0.469   8.792  0.0862  0.4244 -0.0235
 2367SOL    HW118563   2.652   0.561   8.771 -0.6935 -0.1445 -1.9444
 2367SOL    HW218564   2.760   0.462   8.769  0.0080  1.8965 -0.8099
 2368SOL     OW18565   1.996   0.696   3.692  0.0351 -0.7640 -0.5943
 2368SOL    HW118566   1.975   0.636   3.620 -1.1757  0.9783 -1.6760
 2368SOL    HW218567   2.089   0.671   3.699 -0.0295  0.0199  3.3813
 2369SOL     OW18568   2.532   4.554  10.184 -0.8806 -0.4455  0.0530
 2369SOL    HW118569   2.507   4.645  10.170 -0.7796 -0.4232  0.0259
 2369SOL    HW218570   2.582   4.532  10.105  0.2041 -0.1444  0.6604
 2370SOL     OW18571   4.436   2.897   9.001 -0.3976  0.4541 -0.3389
 2370SOL    HW118572   4.484   2.935   9.074  0.5155  0.8046 -1.1106
 2370SOL    HW218573   4.426   2.972   8.942 -1.1538 -1.0217 -2.0733
 2371SOL     OW18574   2.907   3.546  13.382  0.1792 -0.7438  0.0977
 2371SOL    HW118575   2.864   3.613  13.329  1.4019  0.1492  0.2240
 2371SOL    HW218576   2.874   3.462  13.350  0.0138 -0.7864  0.3737
 2372SOL     OW18577   0.114   0.390   3.445 -0.3128  0.1609 -0.2133
 2372SOL    HW118578   0.046   0.391   3.512  0.3270 -1.7091  0.4638
 2372SOL    HW218579   0.074   0.445   3.378  0.2037 -0.1020 -0.7452
 2373SOL     OW18580   1.269   0.286   7.205  0.5427 -0.3148 -0.3475
 2373SOL    HW118581   1.362   0.309   7.216  0.5743 -0.9546  0.7127
 2373SOL    HW218582   1.230   0.370   7.227  2.3509  0.0364  1.6155
 2374SOL     OW18583   1.544   2.902   6.659  0.1332 -0.3852  0.9055
 2374SOL    HW118584   1.473   2.840   6.638 -1.2437  0.8018  2.0844
 2374SOL    HW218585   1.518   2.971   6.598  2.1076 -0.1401  0.3695
 2375SOL     OW18586   3.894   2.126   7.212  0.1745 -0.1876  0.1827
 2375SOL    HW118587   3.899   2.045   7.161  2.5716  1.7499 -2.6097
 2375SOL    HW218588   3.914   2.092   7.299 -0.3578  0.0826  0.4115
 2376SOL     OW18589   0.451   0.472   7.358  0.1944  0.2283  0.7932
 2376SOL    HW118590   0.371   0.443   7.314  1.5368 -2.1296 -0.0831
 2376SOL    HW218591   0.454   0.413   7.433  1.6402  0.5235  0.9560
 2377SOL     OW18592   0.134   1.004  13.266  0.5938 -0.3067 -0.0078
 2377SOL    HW118593   0.182   0.991  13.348 -0.1957  0.2612  0.5475
 2377SOL    HW218594   0.141   0.919  13.224  0.4914 -0.9709  1.3232
 2378SOL     OW18595   0.481   1.032   2.541 -0.5213 -0.3787 -0.3135
 2378SOL    HW118596   0.478   1.071   2.453 -1.3696 -0.9746 -0.5572
 2378SOL    HW218597   0.575   1.016   2.546 -0.4467 -0.4487 -1.9247
 2379SOL     OW18598   1.303   3.738   9.356  0.3862 -0.0851  0.3671
 2379SOL    HW118599   1.231   3.730   9.419  1.5477  0.5965  1.7672
 2379SOL    HW218600   1.315   3.827   9.322 -1.7969  0.1490  0.1643
 2380SOL     OW18601   3.042   0.832   3.093  0.7411 -0.0647 -0.5052
 2380SOL    HW118602   3.060   0.888   3.168  0.3489  2.4481 -2.2753
 2380SOL    HW218603   3.127   0.816   3.051 -0.2001 -2.3780 -1.5132
 2381SOL     OW18604   0.002   1.833  16.464  0.0107 -0.0592  0.7202
 2381SOL    HW118605   4.660   1.888  16.425  0.1466  0.3882  1.1106
 2381SOL    HW218606   4.708   1.754  16.414  0.8598 -0.2358  0.6640
 2382SOL     OW18607   0.567   3.349   6.415 -0.0604 -0.2179  0.4461
 2382SOL    HW118608   0.595   3.266   6.454  2.7825  0.4600 -0.0931
 2382SOL    HW218609   0.486   3.348   6.465  0.6943  0.3024  1.6871
 2383SOL     OW18610   1.977   0.005  13.990 -0.5204  0.3476 -0.2522
 2383SOL    HW118611   2.001   4.644  13.956  0.3892  0.1593  0.8581
 2383SOL    HW218612   1.912   4.692  14.049 -1.0811  0.4432 -0.8040
 2384SOL     OW18613   1.857   2.629   6.484 -0.1920  0.2027 -0.1428
 2384SOL    HW118614   1.855   2.627   6.580 -0.7088  0.4153 -0.1546
 2384SOL    HW218615   1.945   2.592   6.471 -1.2295 -2.7402  1.2597
 2385SOL     OW18616   0.761   2.069   3.976 -0.5177 -0.5015 -0.4928
 2385SOL    HW118617   0.805   2.150   3.954  0.7310 -0.9940  0.2220
 2385SOL    HW218618   0.817   2.005   3.931  1.7992  2.7040 -2.1114
 2386SOL     OW18619   0.416   2.979  12.351  0.3766 -0.0415 -0.3512
 2386SOL    HW118620   0.421   2.932  12.434  2.1130 -1.8501 -1.4619
 2386SOL    HW218621   0.466   2.916  12.298  3.1808  1.4916  0.5177
 2387SOL     OW18622   4.069   1.521   1.878 -0.2265  0.6455 -0.4318
 2387SOL    HW118623   4.163   1.509   1.893  0.1495  0.8274 -2.6723
 2387SOL    HW218624   4.062   1.584   1.950 -0.4114 -0.5268  0.5703
 2388SOL     OW18625   0.418   3.445   4.104  0.0119 -0.1064 -1.0319
 2388SOL    HW118626   0.510   3.430   4.127 -0.1586 -2.6719 -2.0025
 2388SOL    HW218627   0.405   3.536   4.129 -1.6203 -0.4426 -0.6425
 2389SOL     OW18628   0.515   2.464  17.560  0.0060 -0.3621 -0.2097
 2389SOL    HW118629   0.567   2.524  17.613 -0.6160  0.1744 -0.2081
 2389SOL    HW218630   0.449   2.450  17.628 -0.4691 -0.4913 -0.6990
 2390SOL     OW18631   2.829   0.667   7.059 -0.5478 -0.3241  0.2347
 2390SOL    HW118632   2.805   0.700   6.971 -2.1515  1.8920  1.4866
 2390SOL    HW218633   2.746   0.637   7.096 -1.5434  1.0545 -0.8563
 2391SOL     OW18634   0.829   4.382  16.932 -0.1965  0.0376  0.4596
 2391SOL    HW118635   0.740   4.385  16.898 -0.3607 -0.4596  0.8520
 2391SOL    HW218636   0.872   4.346  16.855  0.8144 -0.0406  1.0579
 2392SOL     OW18637   1.113   3.174  13.660  0.1577 -0.2238 -0.1251
 2392SOL    HW118638   1.073   3.198  13.743  0.9946 -0.9077  0.4677
 2392SOL    HW218639   1.038   3.162  13.602  0.6879  0.9339 -1.0440
 2393SOL     OW18640   4.682   3.389  17.309 -0.2514  0.5161  0.3303
 2393SOL    HW118641   4.629   3.309  17.320 -0.5568  0.4971 -1.3578
 2393SOL    HW218642   4.613   3.456  17.307  0.6852  1.4337 -0.8245
 2394SOL     OW18643   4.201   2.898   2.397  0.6773  0.4721  0.4525
 2394SOL    HW118644   4.138   2.953   2.350  0.4571 -0.1306  0.0464
 2394SOL    HW218645   4.284   2.912   2.353  0.4476  0.8772  0.1454
 2395SOL     OW18646   1.608   0.277  10.055  0.3750 -0.2512  0.0530
 2395SOL    HW118647   1.574   0.214  10.118 -0.6481  2.2423  2.0134
 2395SOL    HW218648   1.702   0.283  10.070  0.5392  2.1341 -1.9822
 2396SOL     OW18649   2.214   0.797   0.914 -0.5665  0.5359 -0.0367
 2396SOL    HW118650   2.221   0.815   0.820 -0.8374  1.5621  0.1341
 2396SOL    HW218651   2.302   0.820   0.944 -1.2919  1.1386  1.6295
 2397SOL     OW18652   2.521   0.183   3.581  0.2263  0.3341 -0.1107
 2397SOL    HW118653   2.608   0.210   3.609 -0.5809  1.9466  0.8855
 2397SOL    HW218654   2.471   0.163   3.660  0.4353  0.4538  0.0543
 2398SOL     OW18655   0.758   2.034   6.489 -0.2423 -0.1654  0.4705
 2398SOL    HW118656   0.771   2.104   6.553  1.7104 -0.0870 -0.0100
 2398SOL    HW218657   0.836   1.980   6.503  0.6277  1.8876  3.6594
 2399SOL     OW18658   3.001   4.433  16.988 -0.1935 -0.5271  0.0035
 2399SOL    HW118659   2.942   4.450  17.063 -1.5577  0.2013 -1.2287
 2399SOL    HW218660   3.066   4.503  16.981  0.7931 -1.4045  0.3557
 2400SOL     OW18661   0.046   1.855   9.068 -0.2083  0.1902 -0.7523
 2400SOL    HW118662   0.069   1.902   9.148  1.1348 -3.0590  0.7895
 2400SOL    HW218663   0.041   1.768   9.108  1.9572  0.2156 -0.4340
 2401SOL     OW18664   2.389   4.698   9.273  0.2601  0.2635 -0.1126
 2401SOL    HW118665   2.295   4.684   9.270  0.4008 -0.7422  0.1960
 2401SOL    HW218666   2.404   0.003   9.184  3.4860 -3.3312 -0.8099
 2402SOL     OW18667   0.148   1.202  10.262 -0.4428 -0.4388  0.3881
 2402SOL    HW118668   0.208   1.274  10.246  0.8660 -1.6884 -0.3889
 2402SOL    HW218669   0.129   1.160  10.178 -1.7735  1.1210 -0.0869
 2403SOL     OW18670   2.392   3.363   2.017 -0.1424  0.0431  0.5960
 2403SOL    HW118671   2.484   3.383   2.005 -0.3157 -0.1725 -1.0915
 2403SOL    HW218672   2.356   3.448   2.043  2.0055  0.7637  1.1937
 2404SOL     OW18673   4.686   2.022   6.014  0.5864  0.2391  0.7472
 2404SOL    HW118674   4.665   1.928   6.016  3.1068 -0.3838 -2.0902
 2404SOL    HW218675   0.023   2.021   6.086  0.4876 -1.3088  0.8211
 2405SOL     OW18676   4.392   1.387   5.812  0.7655 -0.2338 -0.7496
 2405SOL    HW118677   4.473   1.410   5.767 -0.0904 -0.7302 -2.5805
 2405SOL    HW218678   4.336   1.352   5.742  0.7861 -0.3567 -0.7040
 2406SOL     OW18679   0.217   4.466   5.344  0.0852  0.5538 -0.2289
 2406SOL    HW118680   0.202   4.392   5.403  0.2043  0.1299 -0.7323
 2406SOL    HW218681   0.242   4.535   5.406  1.1684 -1.8484  1.9918
 2407SOL     OW18682   1.217   2.154   5.149 -0.0890 -0.1210 -0.1374
 2407SOL    HW118683   1.173   2.215   5.090 -0.1230  2.0036  2.0820
 2407SOL    HW218684   1.244   2.093   5.081  1.9927  0.9633 -0.2786
 2408SOL     OW18685   0.443   1.053   2.815  0.8798  0.6012  0.3687
 2408SOL    HW118686   0.507   0.988   2.846 -0.5399 -0.5137  0.9520
 2408SOL    HW218687   0.458   1.046   2.720  0.5913  0.6570  0.3203
 2409SOL     OW18688   2.839   3.092   8.042  0.1292 -0.1093  0.2712
 2409SOL    HW118689   2.925   3.077   8.002 -0.0354 -1.7910  0.5228
 2409SOL    HW218690   2.844   3.018   8.103 -2.1469 -1.7889 -1.5992
 2410SOL     OW18691   2.517   3.510   4.459 -0.2610  0.2003  0.4282
 2410SOL    HW118692   2.592   3.542   4.409  0.2452 -0.5564  0.7068
 2410SOL    HW218693   2.523   3.420   4.427  1.3542  0.8811 -1.1873
 2411SOL     OW18694   4.639   0.011   6.830 -0.5572  0.1631 -0.1605
 2411SOL    HW118695   4.719   0.049   6.794 -1.6308  3.7152  1.1755
 2411SOL    HW218696   4.634   0.027   6.924 -1.4695 -0.5927 -0.0832
 2412SOL     OW18697   1.784   0.715  10.277  0.2220  0.6406  0.2023
 2412SOL    HW118698   1.867   0.760  10.293  1.0719 -0.1176 -2.1300
 2412SOL    HW218699   1.807   0.631  10.236  1.5569  0.9144  0.3886
 2413SOL     OW18700   0.824   0.179   9.639 -0.3835 -0.1874 -0.1923
 2413SOL    HW118701   0.756   0.197   9.575 -0.2017  0.1806 -0.2796
 2413SOL    HW218702   0.812   0.084   9.645  0.6856 -0.3605 -0.7797
 2414SOL     OW18703   1.499   3.075   1.927  0.0839  0.1978 -0.8113
 2414SOL    HW118704   1.489   3.168   1.908  1.0625  0.6053  0.6916
 2414SOL    HW218705   1.437   3.053   1.857  0.0503 -3.8209  0.4801
 2415SOL     OW18706   2.611   2.786   4.422  0.3531  0.2478  0.1680
 2415SOL    HW118707   2.611   2.704   4.470  0.2566  0.7395  1.0086
 2415SOL    HW218708   2.555   2.845   4.473 -1.3850 -1.3315  0.0799
 2416SOL     OW18709   3.065   0.486   3.009 -0.4117  0.1750 -0.2625
 2416SOL    HW118710   3.071   0.520   2.919  0.7414 -1.4637 -0.7960
 2416SOL    HW218711   3.030   0.400   2.984 -0.2566 -0.2187  0.8965
 2417SOL     OW18712   1.393   3.625   3.111 -0.5321 -0.6474 -0.1318
 2417SOL    HW118713   1.335   3.559   3.148 -1.0459  0.2032  0.6087
 2417SOL    HW218714   1.414   3.591   3.024 -0.4507  1.3889 -0.9274
 2418SOL     OW18715   0.656   3.230   6.969  0.0683 -0.1432  0.0264
 2418SOL    HW118716   0.722   3.221   6.899 -0.3063 -0.1806 -0.3216
 2418SOL    HW218717   0.710   3.203   7.043  0.5704  0.2571 -0.1865
 2419SOL     OW18718   1.694   3.267   8.423  0.2909  0.1185  0.2628
 2419SOL    HW118719   1.788   3.264   8.443  0.7029  2.4487 -1.2484
 2419SOL    HW218720   1.683   3.349   8.374 -1.3136  1.0409  2.1691
 2420SOL     OW18721   2.576   4.665   3.763 -0.7533  0.0558 -0.4319
 2420SOL    HW118722   2.516   4.607   3.716  0.9522  0.0314 -2.5994
 2420SOL    HW218723   2.630   4.690   3.688 -1.3468 -0.8208 -1.1436
 2421SOL     OW18724   4.126   0.070   5.438 -0.0738  0.0951 -0.2516
 2421SOL    HW118725   4.045   0.059   5.488  0.9081  0.0373  1.3489
 2421SOL    HW218726   4.122   4.724   5.376 -0.0622 -0.7754  0.7531
 2422SOL     OW18727   1.512   0.558   6.206 -0.1025 -0.1932  0.1636
 2422SOL    HW118728   1.466   0.511   6.137 -2.5381  2.6096 -0.1569
 2422SOL    HW218729   1.576   0.609   6.157  0.1380 -0.5921  0.0715
 2423SOL     OW18730   0.995   0.400   2.274  0.1334  0.0051  0.5758
 2423SOL    HW118731   1.035   0.406   2.187  1.5741  1.1583  1.3308
 2423SOL    HW218732   0.984   0.494   2.289  0.1853 -0.0361  0.8656
 2424SOL     OW18733   4.271   0.442  13.701  0.3078 -0.7844 -0.0437
 2424SOL    HW118734   4.239   0.411  13.616  1.0598 -0.7397 -0.3516
 2424SOL    HW218735   4.209   0.508  13.733 -0.2463 -1.2572 -0.1525
 2425SOL     OW18736   2.017   3.126   4.528 -0.0607  0.0027  0.0731
 2425SOL    HW118737   2.039   3.122   4.435  3.1060  1.7073  0.7439
 2425SOL    HW218738   1.928   3.093   4.534 -0.0777  0.1191  0.5005
 2426SOL     OW18739   3.966   3.466   2.569  0.3037 -0.2134  0.1171
 2426SOL    HW118740   3.975   3.513   2.486 -0.3440 -0.1681  0.0683
 2426SOL    HW218741   4.055   3.482   2.601 -0.0682  2.1859  0.0001
 2427SOL     OW18742   1.783   3.861   3.391 -0.1066 -0.2621 -0.0575
 2427SOL    HW118743   1.864   3.882   3.436 -0.0993  3.1263 -1.6388
 2427SOL    HW218744   1.779   3.766   3.379 -0.6506 -0.0850 -1.3120
 2428SOL     OW18745   1.411   4.330   9.373 -0.3537  0.1209 -0.3948
 2428SOL    HW118746   1.383   4.404   9.426 -1.0997 -1.2013  1.0635
 2428SOL    HW218747   1.342   4.267   9.392 -0.0565 -0.1560 -0.2270
 2429SOL     OW18748   1.010   1.459   5.818  0.3718  0.1476 -0.1321
 2429SOL    HW118749   1.064   1.535   5.797  0.4455 -0.4047 -1.9628
 2429SOL    HW218750   0.988   1.435   5.728 -2.2226  1.3894  0.1754
 2430SOL     OW18751   2.698   3.497   6.334  0.1765  0.0740 -0.0619
 2430SOL    HW118752   2.783   3.515   6.373 -0.5253  1.9876  0.5799
 2430SOL    HW218753   2.703   3.402   6.328  0.7102 -0.0257  2.0785
 2431SOL     OW18754   3.770   3.480   4.706  0.0838 -0.0332 -0.3617
 2431SOL    HW118755   3.709   3.553   4.701 -0.2024 -0.1479  1.5487
 2431SOL    HW218756   3.708   3.415   4.673 -0.3748  1.0618 -1.6538
 2432SOL     OW18757   1.751   0.656  17.441 -0.6652 -0.2204  0.3497
 2432SOL    HW118758   1.831   0.604  17.440 -0.3382  0.2880 -0.1766
 2432SOL    HW218759   1.728   0.644  17.533 -0.9289  0.3610  0.3617
 2433SOL     OW18760   1.046   0.878  10.436 -0.0240  0.3633 -0.2256
 2433SOL    HW118761   1.060   0.841  10.523 -0.5652  2.3058  0.6856
 2433SOL    HW218762   1.130   0.912  10.405  0.8419 -3.6554 -2.2521
 2434SOL     OW18763   2.320   2.655  10.644  0.1586 -0.3657  0.0389
 2434SOL    HW118764   2.272   2.736  10.659 -0.5576 -0.9731  1.0912
 2434SOL    HW218765   2.398   2.685  10.599  1.4927 -0.8016  2.0318
 2435SOL     OW18766   4.402   0.535  11.570  0.3975  0.3058 -0.2528
 2435SOL    HW118767   4.482   0.586  11.559  0.2978  0.5647  0.2167
 2435SOL    HW218768   4.387   0.502  11.481  0.9246  1.2656 -0.6973
 2436SOL     OW18769   3.734   4.222   3.209  0.1859 -0.0575 -0.2201
 2436SOL    HW118770   3.713   4.229   3.116  2.1998  2.0890 -0.5133
 2436SOL    HW218771   3.754   4.130   3.229  1.1625  0.7047  2.3323
 2437SOL     OW18772   4.462   1.617  12.703  0.1560 -0.2726 -0.2824
 2437SOL    HW118773   4.479   1.641  12.794  0.2235  1.7693 -0.8404
 2437SOL    HW218774   4.477   1.522  12.705 -2.6032 -0.6725  0.3666
 2438SOL     OW18775   0.578   4.376   1.197  0.0667 -0.4043 -0.5052
 2438SOL    HW118776   0.604   4.461   1.161 -1.5047  1.2505  2.3072
 2438SOL    HW218777   0.488   4.396   1.223 -0.5057  2.1926 -4.4309
 2439SOL     OW18778   0.006   1.609   8.160  0.2672 -0.3012 -0.3145
 2439SOL    HW118779   0.072   1.667   8.122  0.3976 -0.3727 -0.1969
 2439SOL    HW218780   4.721   1.661   8.239  2.0663 -2.0592  1.0653
 2440SOL     OW18781   3.779   1.703  14.302 -0.4865  0.1440  0.4471
 2440SOL    HW118782   3.795   1.664  14.388  0.2174  0.4750  0.4657
 2440SOL    HW218783   3.838   1.641  14.260 -2.9856 -0.3303 -2.3762
 2441SOL     OW18784   4.689   0.387   5.894  0.1062  0.1020 -0.3356
 2441SOL    HW118785   4.646   0.398   5.808  1.1502  1.4489 -0.6852
 2441SOL    HW218786   4.677   0.292   5.894  1.0403  0.0019  1.0595
 2442SOL     OW18787   3.441   0.338  13.539  0.2652  0.5279 -0.3204
 2442SOL    HW118788   3.470   0.252  13.509  0.1216  0.3877 -0.0616
 2442SOL    HW218789   3.499   0.349  13.615 -0.2686  0.0946  0.1528
 2443SOL     OW18790   4.355   3.722   6.869 -0.5977  0.0524 -0.2637
 2443SOL    HW118791   4.305   3.772   6.805  0.5265  1.2826 -0.1884
 2443SOL    HW218792   4.293   3.660   6.908  0.1151  0.0518  0.8741
 2444SOL     OW18793   1.011   4.588   4.909  0.4993 -0.0349  0.2604
 2444SOL    HW118794   0.993   4.556   4.821 -2.1866  0.3115  0.6927
 2444SOL    HW218795   1.058   4.510   4.938 -0.2353 -0.2301  0.9337
 2445SOL     OW18796   4.650   1.305  15.137 -0.2036  0.1784 -0.1435
 2445SOL    HW118797   4.638   1.338  15.048  0.2046  0.3974 -0.1167
 2445SOL    HW218798   0.010   1.342  15.161 -0.2896  0.3934 -0.1713
 2446SOL     OW18799   1.306   2.122   2.165 -0.6432 -0.2063 -0.0254
 2446SOL    HW118800   1.305   2.214   2.192  0.0455  0.4508 -2.2457
 2446SOL    HW218801   1.372   2.079   2.219 -0.6727 -0.7685 -0.4329
 2447SOL     OW18802   1.623   3.994   8.208  0.1055 -0.3544 -0.0067
 2447SOL    HW118803   1.641   4.020   8.298  1.0261  0.1329 -0.3235
 2447SOL    HW218804   1.707   3.957   8.180  0.6174 -0.1668  1.2871
 2448SOL     OW18805   4.676   4.625   7.958  0.4455 -0.2991  0.5479
 2448SOL    HW118806   4.657   4.713   7.925  0.5614 -0.1185  0.9705
 2448SOL    HW218807   4.592   4.592   7.990 -0.0651  0.2413 -0.2391
 2449SOL     OW18808   2.115   1.458   3.899 -0.2397 -0.5425 -0.5603
 2449SOL    HW118809   2.175   1.528   3.923 -0.3559 -0.1586 -1.3911
 2449SOL    HW218810   2.128   1.467   3.805  0.7832  0.9219 -0.2788
 2450SOL     OW18811   2.181   1.490   1.856  0.2744 -0.3908  0.0535
 2450SOL    HW118812   2.154   1.581   1.844  1.7587 -0.2450 -2.0958
 2450SOL    HW218813   2.098   1.446   1.875 -0.0160 -0.3568 -1.1134
 2451SOL     OW18814   1.043   3.418   1.925 -0.3032  0.1068  0.4822
 2451SOL    HW118815   1.084   3.433   2.010 -1.9917 -2.0951  1.6589
 2451SOL    HW218816   1.041   3.507   1.889  1.6515 -0.2034 -0.4168
 2452SOL     OW18817   4.468   0.607   8.880 -0.3519  0.0059  0.0906
 2452SOL    HW118818   4.557   0.595   8.848 -0.0025  1.0071  0.6799
 2452SOL    HW218819   4.410   0.538   8.849 -0.7444  0.3295  0.0968
 2453SOL     OW18820   1.063   4.226   3.731 -0.0329  0.0678  0.2298
 2453SOL    HW118821   1.096   4.203   3.644 -0.3217 -2.5644  0.8240
 2453SOL    HW218822   1.116   4.302   3.756  1.0127 -0.3458 -0.6953
 2454SOL     OW18823   3.881   2.048   7.496 -0.0005  0.3413 -0.0091
 2454SOL    HW118824   3.863   2.100   7.575  1.0469 -1.2783  1.3027
 2454SOL    HW218825   3.849   1.961   7.519 -0.6107  1.1577  2.2521
 2455SOL     OW18826   2.828   0.174   7.817  0.2255  0.4296 -0.0656
 2455SOL    HW118827   2.738   0.142   7.813  0.4192 -0.2600  1.0380
 2455SOL    HW218828   2.821   0.239   7.886 -1.8569  1.1134 -0.9125
 2456SOL     OW18829   0.840   3.038   3.751  0.2649  0.2801 -0.0336
 2456SOL    HW118830   0.929   3.002   3.753  0.5925  1.1290  0.6946
 2456SOL    HW218831   0.847   3.097   3.826  0.6409  2.3713 -1.7214
 2457SOL     OW18832   1.076   0.524   4.741  0.5161  0.1447 -0.4198
 2457SOL    HW118833   1.114   0.475   4.668 -0.5167 -0.9171 -0.2560
 2457SOL    HW218834   1.151   0.579   4.762 -0.0878  1.0229 -0.5668
 2458SOL     OW18835   3.939   1.902   7.084 -0.1382 -0.4260  0.2005
 2458SOL    HW118836   3.890   1.833   7.128  0.8455 -1.4844 -0.3559
 2458SOL    HW218837   4.032   1.876   7.088 -0.3222 -0.7630  2.4501
 2459SOL     OW18838   4.389   1.631   2.691 -0.5482 -0.3044  0.0888
 2459SOL    HW118839   4.458   1.583   2.737  1.5579  1.8860 -0.7461
 2459SOL    HW218840   4.314   1.584   2.726 -0.2923  0.3345  1.4943
 2460SOL     OW18841   2.849   0.607   5.054 -0.1291  0.6638  0.1397
 2460SOL    HW118842   2.916   0.628   4.989  0.7683  0.1432  0.8954
 2460SOL    HW218843   2.886   0.526   5.087  1.0645  0.8722 -0.6982
 2461SOL     OW18844   3.579   0.413   0.700 -0.2444 -0.4435 -0.4685
 2461SOL    HW118845   3.602   0.431   0.791  1.0527  1.6774 -1.2040
 2461SOL    HW218846   3.501   0.361   0.718 -0.4281  1.0583  3.1297
 2462SOL     OW18847   1.466   4.264   2.389  0.0010  0.5388 -0.4871
 2462SOL    HW118848   1.446   4.172   2.373  0.3396  0.7514 -2.1833
 2462SOL    HW218849   1.382   4.310   2.375 -0.0864  0.5551  0.0922
 2463SOL     OW18850   0.075   2.968   3.574  0.3058 -0.0623  0.3368
 2463SOL    HW118851   0.152   3.016   3.605  0.1695  1.0831 -1.0893
 2463SOL    HW218852   0.047   3.022   3.501 -0.5320 -0.8054  0.1037
 2464SOL     OW18853   2.835   1.078   6.844 -0.4974  0.2257  0.1286
 2464SOL    HW118854   2.829   1.029   6.762 -0.5467  0.8952 -0.2680
 2464SOL    HW218855   2.803   1.165   6.818 -0.0931 -0.0143 -1.1493
 2465SOL     OW18856   2.849   4.701  13.778 -0.2059 -0.6461  0.4667
 2465SOL    HW118857   2.909   4.677  13.707  0.2227 -0.6512  0.8257
 2465SOL    HW218858   2.826   0.064  13.751  0.0210 -0.1254  1.9515
 2466SOL     OW18859   2.914   2.335   5.834 -0.3773  0.6922  0.6104
 2466SOL    HW118860   2.973   2.312   5.763 -0.2819 -0.6423  1.1214
 2466SOL    HW218861   2.879   2.249   5.856  1.5449  0.1772  1.6318
 2467SOL     OW18862   3.323   3.594  10.396 -0.4214  0.0458  0.1973
 2467SOL    HW118863   3.327   3.550  10.312  0.7147  1.5818 -0.5576
 2467SOL    HW218864   3.411   3.632  10.400 -1.3927  2.2955 -0.0234
 2468SOL     OW18865   2.315   3.030   6.268  0.4420 -0.0268  0.7167
 2468SOL    HW118866   2.358   2.944   6.270  1.8374  0.6496 -0.0267
 2468SOL    HW218867   2.272   3.042   6.353 -0.7812 -1.2569  0.2670
 2469SOL     OW18868   4.188   3.337  10.286 -0.6088  0.3998  0.6261
 2469SOL    HW118869   4.131   3.287  10.344  2.9792 -3.7469  0.5432
 2469SOL    HW218870   4.271   3.336  10.333 -0.1931  0.2770 -0.1094
 2470SOL     OW18871   2.707   3.561   4.245 -0.2020  0.1012  0.2540
 2470SOL    HW118872   2.631   3.612   4.215 -2.4154 -2.1435  2.0379
 2470SOL    HW218873   2.677   3.471   4.230 -0.5183  0.2781 -0.1839
 2471SOL     OW18874   0.531   2.321  15.518 -0.5884 -0.0770  0.3064
 2471SOL    HW118875   0.511   2.273  15.598 -0.8069  0.3246  0.4890
 2471SOL    HW218876   0.447   2.324  15.472 -0.6763  2.1889  0.6343
 2472SOL     OW18877   2.525   2.989   3.481  0.0792 -0.0923  0.4020
 2472SOL    HW118878   2.579   2.912   3.460  2.4222  1.2145  1.5604
 2472SOL    HW218879   2.480   3.004   3.398  1.2556  1.3846  0.0399
 2473SOL     OW18880   3.813   1.478  13.849 -0.0964 -0.6733  0.0691
 2473SOL    HW118881   3.886   1.448  13.795 -0.6541  0.8217 -1.5253
 2473SOL    HW218882   3.729   1.468  13.804 -0.3701  2.1500 -0.0542
 2474SOL     OW18883   2.230   4.665   2.369  0.8966  0.1354  0.5335
 2474SOL    HW118884   2.309   4.712   2.343  1.1197  0.4038  1.7284
 2474SOL    HW218885   2.263   4.596   2.427 -1.9753 -1.0119  0.8177
 2475SOL     OW18886   4.354   1.229   5.341  0.7196  0.3205  0.2657
 2475SOL    HW118887   4.441   1.266   5.352  0.3797  0.8261  1.3291
 2475SOL    HW218888   4.332   1.241   5.248 -1.9082 -1.2085  0.6691
 2476SOL     OW18889   1.327   0.254   5.482  0.1252  0.0863 -0.2020
 2476SOL    HW118890   1.282   0.327   5.440 -1.4792 -1.2327 -0.7928
 2476SOL    HW218891   1.399   0.229   5.425  1.3038  0.2333  1.2317
 2477SOL     OW18892   0.119   2.410  15.064 -0.3139 -0.3870  0.0388
 2477SOL    HW118893   0.105   2.451  15.150  0.7888 -1.5738  0.7777
 2477SOL    HW218894   0.027   2.410  15.036 -0.3321  2.5905  0.1231
 2478SOL     OW18895   2.071   2.098   5.361 -0.3108 -0.7624 -0.4947
 2478SOL    HW118896   2.149   2.051   5.390  1.2263  0.4799 -2.5829
 2478SOL    HW218897   2.027   2.021   5.325  0.2298 -1.3255  0.0413
 2479SOL     OW18898   4.610   3.111   7.716  0.0564 -0.3164  0.3248
 2479SOL    HW118899   4.553   3.179   7.753 -2.1870 -0.3171 -3.0962
 2479SOL    HW218900   4.598   3.131   7.623  0.3257  0.6478  0.4917
 2480SOL     OW18901   3.631   3.181  16.972  0.0799  0.2718  0.0945
 2480SOL    HW118902   3.544   3.207  17.001  0.1623 -1.4764  1.8496
 2480SOL    HW218903   3.613   3.154  16.882  0.8985 -0.1005  0.0433
 2481SOL     OW18904   1.715   0.669  15.689 -0.0510 -0.3319  0.0709
 2481SOL    HW118905   1.765   0.749  15.671 -0.0613  0.0058  1.5790
 2481SOL    HW218906   1.748   0.646  15.775 -1.6503  0.0955  0.7973
 2482SOL     OW18907   3.070   4.323  11.485 -0.3502 -0.0748 -0.4511
 2482SOL    HW118908   3.006   4.268  11.530  0.7971 -0.1618  1.0627
 2482SOL    HW218909   3.066   4.280  11.399  0.4088  0.1634 -0.6088
 2483SOL     OW18910   3.281   0.860   8.405  0.2201  0.2025  0.1533
 2483SOL    HW118911   3.288   0.871   8.500 -0.0610  1.6730  0.0090
 2483SOL    HW218912   3.366   0.828   8.377 -0.1357 -2.4118  2.0899
 2484SOL     OW18913   3.415   4.566  12.153 -0.1425  0.0311 -0.2919
 2484SOL    HW118914   3.322   4.584  12.171 -0.2449 -0.0820 -0.7139
 2484SOL    HW218915   3.452   4.608  12.231 -0.1217 -1.4600  0.5057
 2485SOL     OW18916   2.387   2.284   1.459  0.2666 -0.4726  0.0674
 2485SOL    HW118917   2.465   2.229   1.460 -0.4349 -1.4487  0.4417
 2485SOL    HW218918   2.427   2.371   1.451 -1.9403  0.4324 -1.0887
 2486SOL     OW18919   0.517   1.770   9.054 -0.0557 -0.4004  0.2214
 2486SOL    HW118920   0.564   1.686   9.057 -0.8567 -0.8781 -0.6125
 2486SOL    HW218921   0.433   1.729   9.032  0.1270  0.4313 -2.0211
 2487SOL     OW18922   3.579   1.494   4.911 -0.0978 -0.2963  0.3168
 2487SOL    HW118923   3.620   1.473   4.827  0.6220 -0.5101  0.7146
 2487SOL    HW218924   3.500   1.539   4.881 -2.1724 -3.0683  1.6712
 2488SOL     OW18925   0.488   4.455   7.489  0.2058  0.2687 -0.2663
 2488SOL    HW118926   0.490   4.511   7.567 -0.3695 -0.1790  0.0745
 2488SOL    HW218927   0.419   4.397   7.520 -0.5462  0.9839 -0.5899
 2489SOL     OW18928   0.445   1.544   5.189 -0.6027 -0.0700  0.0045
 2489SOL    HW118929   0.449   1.630   5.148  1.7328  0.7979  2.1440
 2489SOL    HW218930   0.494   1.555   5.270  1.2489 -0.5069 -1.0500
 2490SOL     OW18931   1.663   2.590   7.473 -0.5533  0.5145  0.1338
 2490SOL    HW118932   1.736   2.534   7.447 -1.9505 -0.8924 -0.7453
 2490SOL    HW218933   1.587   2.536   7.493  1.0143 -2.4600 -2.0696
 2491SOL     OW18934   1.440   2.236   8.648 -0.1735 -0.0023 -0.5005
 2491SOL    HW118935   1.442   2.140   8.653  0.9464  0.0989  0.9886
 2491SOL    HW218936   1.369   2.247   8.712 -1.4964 -1.8219 -1.6552
 2492SOL     OW18937   4.455   1.677  14.880 -0.0477  0.0478 -0.0379
 2492SOL    HW118938   4.509   1.694  14.957 -1.1723 -2.0604  1.2171
 2492SOL    HW218939   4.516   1.651  14.810 -1.3922  0.0022 -1.1853
 2493SOL     OW18940   0.994   1.333   8.380 -0.1593 -0.3062  0.6108
 2493SOL    HW118941   0.971   1.424   8.400  1.3014 -0.0730  1.2019
 2493SOL    HW218942   1.036   1.305   8.461  1.4604  1.2167  0.3079
 2494SOL     OW18943   4.569   3.512   6.456  0.2688 -0.1545 -0.3611
 2494SOL    HW118944   4.514   3.511   6.533  0.1888  0.7955 -0.4048
 2494SOL    HW218945   4.627   3.436   6.463 -0.1886 -0.5036 -0.4114
 2495SOL     OW18946   0.135   1.997   6.223 -0.5762  0.2751 -0.0853
 2495SOL    HW118947   0.102   2.020   6.310 -0.7421 -1.4893  0.3091
 2495SOL    HW218948   0.179   1.913   6.237 -0.7904  0.2810  0.6346
 2496SOL     OW18949   2.539   3.640   7.891  0.1323 -0.0264 -0.0695
 2496SOL    HW118950   2.600   3.681   7.830  0.7443  0.2885  0.7349
 2496SOL    HW218951   2.474   3.642   7.822  1.8537 -0.3422 -1.6938
 2497SOL     OW18952   2.368   1.159   6.463  0.1053  0.3132 -0.5357
 2497SOL    HW118953   2.462   1.162   6.480 -0.0024 -1.6203  0.4632
 2497SOL    HW218954   2.368   1.178   6.369  2.9153 -2.0696 -1.0067
 2498SOL     OW18955   1.252   0.020  11.764  0.4727  0.4773  0.2845
 2498SOL    HW118956   1.164   0.034  11.799  0.0881 -2.6432  0.5897
 2498SOL    HW218957   1.311   0.011  11.839 -0.9213 -3.2119  0.9041
 2499SOL     OW18958   4.628   4.431   1.445 -0.2085 -0.1214 -0.4427
 2499SOL    HW118959   4.554   4.442   1.505 -0.3590 -1.1242 -0.4441
 2499SOL    HW218960   4.650   4.343   1.476 -1.0137  0.4503  1.7799
 2500SOL     OW18961   0.101   3.746   9.188 -0.1958  0.0969 -0.4126
 2500SOL    HW118962   0.093   3.688   9.263  1.5374  1.9326  1.2194
 2500SOL    HW218963   0.068   3.689   9.119 -1.0648 -1.7628  1.5339
 2501SOL     OW18964   1.137   2.065   4.444  0.0683  0.2489  0.5957
 2501SOL    HW118965   1.065   2.016   4.484 -0.2219 -0.3002 -0.6037
 2501SOL    HW218966   1.169   2.122   4.514 -1.2174  3.1924 -1.2105
 2502SOL     OW18967   0.110   1.247   2.658 -0.5420  0.3036 -0.1651
 2502SOL    HW118968   0.194   1.280   2.627 -2.0251  2.8448 -1.5985
 2502SOL    HW218969   0.139   1.211   2.741  0.4351 -0.0172 -0.6419
 2503SOL     OW18970   4.147   3.199   2.019  0.0347  0.1086  0.6914
 2503SOL    HW118971   4.150   3.224   1.926 -0.5467 -2.6184 -0.0638
 2503SOL    HW218972   4.132   3.104   2.014  2.4235 -0.2728  1.0812
 2504SOL     OW18973   0.923   1.668   6.225  0.3777  0.1785 -0.2742
 2504SOL    HW118974   0.840   1.622   6.216  0.9288 -1.0179  0.7517
 2504SOL    HW218975   0.988   1.598   6.231 -1.6450 -1.6829  0.2050
 2505SOL     OW18976   4.148   3.790   8.025  0.5214  0.4948 -0.2923
 2505SOL    HW118977   4.135   3.732   7.950 -0.4383 -0.0672  0.3069
 2505SOL    HW218978   4.150   3.735   8.104  1.8745 -1.7014 -1.8789
 2506SOL     OW18979   2.314   1.045  10.598 -0.2636  0.1820 -0.0366
 2506SOL    HW118980   2.394   1.086  10.631  0.8802 -0.4822 -1.9791
 2506SOL    HW218981   2.251   1.110  10.628  0.3007 -0.5406  2.7339
 2507SOL     OW18982   2.606   1.716  13.508  0.2440 -0.2504 -0.1510
 2507SOL    HW118983   2.582   1.634  13.553  0.4141  0.0806  0.5469
 2507SOL    HW218984   2.690   1.725  13.554  0.7017  0.2378 -1.0790
 2508SOL     OW18985   0.504   2.958  10.970 -0.1584 -0.3045  0.0813
 2508SOL    HW118986   0.593   2.925  10.960  0.3551  0.8109  0.9061
 2508SOL    HW218987   0.489   2.972  10.876 -0.3833  0.3335  0.2116
 2509SOL     OW18988   1.941   1.098   3.830 -0.5118 -0.7867 -0.2148
 2509SOL    HW118989   1.952   1.170   3.892 -0.5576  0.2709 -1.4542
 2509SOL    HW218990   1.951   1.140   3.745  0.2986 -0.0148  0.2725
 2510SOL     OW18991   4.455   0.090   3.680 -0.3777 -0.0247 -0.5081
 2510SOL    HW118992   4.375   0.090   3.627 -2.5531  2.4374  2.7295
 2510SOL    HW218993   4.489   0.001   3.674  1.0089  0.4850 -0.1358
 2511SOL     OW18994   0.819   0.610   9.069 -0.3099 -0.1228  0.1414
 2511SOL    HW118995   0.775   0.565   9.141  0.8568 -1.6882 -0.1224
 2511SOL    HW218996   0.818   0.542   9.002  2.5504  0.7529 -0.7748
 2512SOL     OW18997   1.589   3.037   8.214  0.1405 -0.2954  0.0422
 2512SOL    HW118998   1.586   3.080   8.299  0.1569 -0.2183  0.0039
 2512SOL    HW218999   1.609   2.949   8.244 -1.2038 -1.3682 -2.1653
 2513SOL     OW19000   1.126   2.519   6.616 -0.2097 -0.3247  0.1005
 2513SOL    HW119001   1.110   2.466   6.538  1.6530 -1.0301  0.1971
 2513SOL    HW219002   1.035   2.519   6.644 -0.3466 -1.8562 -0.3557
 2514SOL     OW19003   4.116   0.249  11.861 -0.0267 -0.1959 -0.2836
 2514SOL    HW119004   4.180   0.309  11.897  1.9868 -2.2278 -0.4560
 2514SOL    HW219005   4.133   0.260  11.768  3.3616 -1.3166  0.2070
 2515SOL     OW19006   3.393   2.538  17.477  0.1416 -0.4317 -0.1298
 2515SOL    HW119007   3.414   2.546  17.570 -3.8042 -0.2455  0.7346
 2515SOL    HW219008   3.347   2.620  17.463  0.5946 -0.2774 -0.7351
 2516SOL     OW19009   1.806   3.173  12.401  0.6381 -0.1370  0.3732
 2516SOL    HW119010   1.830   3.150  12.491 -0.1687 -1.8642  0.1566
 2516SOL    HW219011   1.832   3.096  12.351 -0.7732  0.3150 -1.0532
 2517SOL     OW19012   3.449   2.057   3.953  0.2526 -0.5525 -0.1153
 2517SOL    HW119013   3.358   2.085   3.942  0.7118  0.2327 -1.9301
 2517SOL    HW219014   3.478   2.042   3.863  1.4183  1.9183 -0.1589
 2518SOL     OW19015   0.213   2.010   7.495  0.0849 -0.4764  0.1136
 2518SOL    HW119016   0.246   1.996   7.407 -1.2284 -0.1848 -0.4290
 2518SOL    HW219017   0.127   1.968   7.491 -0.6623  1.0766 -0.2601
 2519SOL     OW19018   0.646   1.458   7.903  0.2782  0.3164  0.1615
 2519SOL    HW119019   0.649   1.434   7.996  1.4660  2.8606  0.7634
 2519SOL    HW219020   0.575   1.399   7.878  0.7286  0.3946 -1.2960
 2520SOL     OW19021   0.827   3.779   9.583  0.2378 -0.3504  0.2226
 2520SOL    HW119022   0.752   3.723   9.603  1.0840 -1.2437  0.9052
 2520SOL    HW219023   0.783   3.850   9.537 -1.8931 -2.7349 -1.4027
 2521SOL     OW19024   4.666   2.447   6.304  0.0788  0.2789  0.2262
 2521SOL    HW119025   4.620   2.363   6.299  1.3297 -0.3700 -0.3772
 2521SOL    HW219026   4.686   2.441   6.398  0.3007 -3.4656 -0.0749
 2522SOL     OW19027   1.991   2.814   4.315 -0.2565  0.5209 -0.1082
 2522SOL    HW119028   2.062   2.868   4.282  0.8933 -0.8724  0.1144
 2522SOL    HW219029   2.035   2.749   4.370 -3.4200  1.6815  3.7699
 2523SOL     OW19030   0.696   1.704   3.096 -0.0324 -0.5559 -0.2578
 2523SOL    HW119031   0.653   1.786   3.073  0.6306 -0.3848 -0.8757
 2523SOL    HW219032   0.706   1.668   3.008 -0.1390  1.3984 -1.0625
 2524SOL     OW19033   1.359   2.874   4.888  0.2341  0.6843 -0.4157
 2524SOL    HW119034   1.323   2.785   4.880  0.8144  0.3160  1.0804
 2524SOL    HW219035   1.452   2.854   4.882 -0.1080 -0.1823 -2.8723
 2525SOL     OW19036   1.331   2.032   3.333 -0.2008  0.5008 -0.4842
 2525SOL    HW119037   1.272   2.051   3.259  0.9773  1.2070 -1.2336
 2525SOL    HW219038   1.269   2.026   3.406  2.5088  1.0966  1.8367
 2526SOL     OW19039   2.843   4.303  14.225 -0.2990 -0.3606  0.3572
 2526SOL    HW119040   2.857   4.224  14.174 -0.1547 -2.2810  3.3775
 2526SOL    HW219041   2.935   4.327  14.229  0.2136 -2.2776 -0.1068
 2527SOL     OW19042   0.090   4.224   8.271  0.1822  0.3113 -0.6746
 2527SOL    HW119043   0.128   4.299   8.316  0.3975  0.1714 -0.6191
 2527SOL    HW219044   0.043   4.268   8.201 -0.9045 -0.8645 -0.6702
 2528SOL     OW19045   1.565   0.855   8.743 -0.0348 -0.2320 -0.4830
 2528SOL    HW119046   1.585   0.802   8.666 -1.3419  0.5697 -1.3684
 2528SOL    HW219047   1.575   0.946   8.714  1.5358 -0.2733 -0.0567
 2529SOL     OW19048   1.913   1.817   8.373  0.0432  0.3146  0.3539
 2529SOL    HW119049   1.934   1.843   8.463  2.9929  0.1431 -0.2946
 2529SOL    HW219050   1.825   1.854   8.364 -0.2865 -0.6510 -0.3660
 2530SOL     OW19051   2.785   0.730   8.940 -0.1357  0.0896 -0.6469
 2530SOL    HW119052   2.821   0.748   9.027 -0.0793  0.7836 -0.8156
 2530SOL    HW219053   2.835   0.657   8.904 -0.6772 -0.3049 -0.5909
 2531SOL     OW19054   3.866   2.713   4.215 -0.0188  0.1447 -0.3472
 2531SOL    HW119055   3.852   2.750   4.128  4.0187  0.2487 -0.9312
 2531SOL    HW219056   3.947   2.665   4.197 -0.0358  1.0007 -2.6525
 2532SOL     OW19057   4.288   0.767   4.329  0.1006 -0.2369  0.2121
 2532SOL    HW119058   4.271   0.675   4.349 -0.4192 -0.2344 -0.2208
 2532SOL    HW219059   4.230   0.783   4.255  1.7076  2.4904 -0.4394
 2533SOL     OW19060   4.439   2.069   2.862 -0.0361  0.3983 -0.0547
 2533SOL    HW119061   4.438   2.102   2.952 -2.7811  1.1877 -0.3641
 2533SOL    HW219062   4.526   2.098   2.835  0.4100 -0.7151  0.2176
 2534SOL     OW19063   4.534   3.212   5.926 -0.4835 -0.2373 -0.7821
 2534SOL    HW119064   4.462   3.270   5.901 -1.0483 -0.3484  0.5656
 2534SOL    HW219065   4.528   3.147   5.857 -1.3660  1.8004 -2.6504
 2535SOL     OW19066   3.259   4.014  10.959  0.0683 -0.4636  0.6341
 2535SOL    HW119067   3.354   4.010  10.945 -0.0620  1.9081 -1.0151
 2535SOL    HW219068   3.230   3.924  10.941  2.0040 -0.8056 -0.7611
 2536SOL     OW19069   0.076   0.924   2.141  0.1589 -0.4756 -0.4345
 2536SOL    HW119070   0.109   0.840   2.173  0.3322 -0.3529 -0.2893
 2536SOL    HW219071   0.107   0.980   2.212  0.8136 -2.0161  0.4945
 2537SOL     OW19072   4.603   2.710   6.618 -0.5099  0.6664 -0.1240
 2537SOL    HW119073   4.530   2.693   6.677  1.5807 -2.6027  1.5235
 2537SOL    HW219074   4.630   2.619   6.602 -2.0600 -0.0571  1.5092
 2538SOL     OW19075   3.217   0.162   8.809  0.2060  0.0798  0.2771
 2538SOL    HW119076   3.178   0.076   8.825  0.2124  0.1067  0.4333
 2538SOL    HW219077   3.308   0.146   8.836  1.1828  0.2204 -2.8628
 2539SOL     OW19078   0.439   1.435   2.167  0.1333 -0.8184 -0.1910
 2539SOL    HW119079   0.350   1.455   2.197  0.7368 -0.3255  1.2860
 2539SOL    HW219080   0.494   1.478   2.233 -2.7209  1.2580  0.8280
 2540SOL     OW19081   4.499   2.489   4.988 -0.0536  0.1347  0.3376
 2540SOL    HW119082   4.593   2.476   4.980  0.0019 -1.3597  3.3191
 2540SOL    HW219083   4.463   2.499   4.900  0.2560  1.6592  0.3884
 2541SOL     OW19084   1.744   0.444   2.089 -0.1196  0.3251  0.2595
 2541SOL    HW119085   1.839   0.427   2.092 -0.2882 -1.0110 -1.8234
 2541SOL    HW219086   1.725   0.378   2.022 -2.1321  2.1663 -0.9726
 2542SOL     OW19087   0.299   2.836   4.230 -0.2893  0.5077 -0.4238
 2542SOL    HW119088   0.327   2.786   4.307  1.3617  0.6235 -0.9507
 2542SOL    HW219089   0.297   2.927   4.260  1.9228  0.9543 -1.5862
 2543SOL     OW19090   4.253   4.688  11.595  0.1233  0.2414 -0.0978
 2543SOL    HW119091   4.223   4.632  11.524  0.2557 -2.4884  2.0118
 2543SOL    HW219092   4.278   0.036  11.539  1.4084  0.0611  0.2427
 2544SOL     OW19093   3.756   0.278   0.300  0.7856  0.1388  0.0928
 2544SOL    HW119094   3.793   0.366   0.291  0.4223  0.3221  0.4097
 2544SOL    HW219095   3.674   0.281   0.252  0.0947  1.3511  1.3581
 2545SOL     OW19096   0.539   1.841  12.371 -0.1384 -0.3127 -0.3402
 2545SOL    HW119097   0.461   1.836  12.316  0.2781 -0.4187 -0.9174
 2545SOL    HW219098   0.551   1.749  12.393  0.1994  0.3136  2.1797
 2546SOL     OW19099   3.282   1.429   7.655 -0.1046  0.4040  0.3020
 2546SOL    HW119100   3.353   1.379   7.614 -1.5540 -0.5340 -1.0410
 2546SOL    HW219101   3.222   1.358   7.680  1.1692 -0.6313  0.4421
 2547SOL     OW19102   4.348   1.157  17.192  0.9343  0.4553  0.6271
 2547SOL    HW119103   4.388   1.243  17.181 -1.8783  1.4880 -1.4146
 2547SOL    HW219104   4.350   1.143  17.287  1.6099  1.5573  0.7710
 2548SOL     OW19105   1.708   2.848  11.686  0.8325 -0.4132 -0.4163
 2548SOL    HW119106   1.679   2.933  11.653  1.6996 -0.1004 -0.3720
 2548SOL    HW219107   1.795   2.842  11.646  0.9456 -0.6674 -0.1332
 2549SOL     OW19108   4.224   2.277   3.667 -0.2624 -0.1324  0.2837
 2549SOL    HW119109   4.237   2.186   3.642 -0.0472 -1.0271  3.6883
 2549SOL    HW219110   4.315   2.308   3.668 -0.0619 -0.6057 -1.6492
 2550SOL     OW19111   0.607   2.773  10.458  0.0836  0.5357  0.1213
 2550SOL    HW119112   0.630   2.700  10.400  1.2822  1.8115 -1.0066
 2550SOL    HW219113   0.687   2.823  10.471 -0.5216  1.5533 -0.0453
 2551SOL     OW19114   3.589   4.080   1.808 -0.5461 -0.3529  0.1399
 2551SOL    HW119115   3.526   4.025   1.856 -1.9288 -0.8206 -2.2283
 2551SOL    HW219116   3.537   4.098   1.730 -1.0587 -1.6373  0.1822
 2552SOL     OW19117   3.027   0.701   1.854  0.3538  0.0688  0.0515
 2552SOL    HW119118   3.076   0.770   1.810  0.0502 -0.9131 -1.8548
 2552SOL    HW219119   3.071   0.691   1.939 -0.5226 -1.2999  0.3440
 2553SOL     OW19120   3.209   0.491   5.962 -0.4849 -0.3908  0.3642
 2553SOL    HW119121   3.187   0.560   6.025  1.6016 -0.1909  0.8757
 2553SOL    HW219122   3.301   0.504   5.941 -0.3693 -0.7118  0.6698
 2554SOL     OW19123   3.018   0.510   7.649  0.2847  0.4311 -0.1806
 2554SOL    HW119124   2.928   0.531   7.626  0.7928  0.3387 -2.2990
 2554SOL    HW219125   3.022   0.562   7.729 -1.4515  1.6654 -0.9000
 2555SOL     OW19126   0.874   0.113   5.284 -0.4434  0.1270 -0.0305
 2555SOL    HW119127   0.939   0.158   5.230 -1.2937  0.9050 -0.4076
 2555SOL    HW219128   0.931   0.061   5.341 -1.8700 -1.4013 -0.0119
 2556SOL     OW19129   3.530   2.466   8.764  0.0654  0.5083 -0.1354
 2556SOL    HW119130   3.445   2.506   8.781  1.0734  2.5252  0.1672
 2556SOL    HW219131   3.533   2.418   8.847  2.8721 -1.0136 -1.1352
 2557SOL     OW19132   3.579   3.390   7.562  0.2192  0.3002 -0.2709
 2557SOL    HW119133   3.494   3.390   7.606  1.3442  1.3561  1.9177
 2557SOL    HW219134   3.626   3.457   7.612  0.4814  0.2442 -0.4409
 2558SOL     OW19135   1.587   1.205   3.924  0.0541 -0.0320  0.8606
 2558SOL    HW119136   1.628   1.127   3.961 -0.8201 -0.5213  0.7990
 2558SOL    HW219137   1.558   1.154   3.848 -1.9889  1.1957  0.8300
 2559SOL     OW19138   1.501   4.064   5.566  0.5848 -0.3236  0.5018
 2559SOL    HW119139   1.590   4.082   5.596  1.3401  2.0495 -3.0732
 2559SOL    HW219140   1.461   4.073   5.652  1.7797  0.3229  1.0029
 2560SOL     OW19141   2.043   3.601   3.274 -0.0160 -0.5284 -0.2128
 2560SOL    HW119142   2.112   3.570   3.216 -0.0248  1.8954 -1.5391
 2560SOL    HW219143   2.084   3.640   3.351 -1.2986  2.2227 -0.9118
 2561SOL     OW19144   0.916   2.536  13.402 -0.1196  0.2833 -0.4803
 2561SOL    HW119145   0.896   2.566  13.490  3.8894  0.3016  0.4376
 2561SOL    HW219146   0.989   2.475  13.401  1.0383  1.6321  2.2515
 2562SOL     OW19147   1.754   1.274  14.756 -0.3894 -0.2459 -0.3500
 2562SOL    HW119148   1.702   1.337  14.706  1.7190 -0.2999 -2.5800
 2562SOL    HW219149   1.819   1.335  14.790 -0.1252 -1.5166  1.4480
 2563SOL     OW19150   0.203   4.644   9.520  0.4271 -0.0469 -0.0987
 2563SOL    HW119151   0.259   4.601   9.585 -0.2130 -0.7882 -0.0350
 2563SOL    HW219152   0.258   4.635   9.442 -1.5211  0.2747 -1.5106
 2564SOL     OW19153   0.416   1.238   8.464 -0.1966 -0.2438 -0.5037
 2564SOL    HW119154   0.449   1.322   8.496 -1.7906 -0.0065  0.5833
 2564SOL    HW219155   0.499   1.209   8.427 -0.8103 -1.8596 -0.5921
 2565SOL     OW19156   3.718   1.206   0.290  0.0548 -0.0336  0.6924
 2565SOL    HW119157   3.731   1.130   0.232 -2.4593  0.4552 -0.5128
 2565SOL    HW219158   3.696   1.148   0.363  0.5483 -1.5996 -0.3946
 2566SOL     OW19159   1.002   4.634   8.370  0.2135 -0.2202 -0.4141
 2566SOL    HW119160   1.009   4.539   8.362 -0.7423 -0.3842  0.7040
 2566SOL    HW219161   1.030   4.657   8.282  0.5811 -0.5753 -0.3896
 2567SOL     OW19162   1.909   0.859   8.822  0.1806  1.0710  0.2051
 2567SOL    HW119163   1.881   0.884   8.734 -0.9531  0.5598  0.4256
 2567SOL    HW219164   1.853   0.782   8.832  0.1469  1.2261  1.1860
 2568SOL     OW19165   3.500   3.475   0.336  0.1803 -0.5097 -0.3493
 2568SOL    HW119166   3.433   3.408   0.348  0.3248 -0.3907  1.0799
 2568SOL    HW219167   3.455   3.552   0.370  1.1675 -0.5151  0.9521
 2569SOL     OW19168   1.498   0.561   7.460  0.1579 -0.0524  0.1230
 2569SOL    HW119169   1.574   0.579   7.515  1.1578  2.1727 -1.9932
 2569SOL    HW219170   1.430   0.616   7.497 -1.6548 -1.6804 -0.7507
 2570SOL     OW19171   2.343   1.946  14.359  0.5268 -0.3519 -0.3057
 2570SOL    HW119172   2.397   1.970  14.284 -0.0101  1.8288  0.0082
 2570SOL    HW219173   2.372   1.855  14.361 -0.2565 -0.5905 -0.1339
 2571SOL     OW19174   2.621   1.278   7.168  0.0719  0.6055  0.1566
 2571SOL    HW119175   2.568   1.249   7.094  1.9668  2.1857 -1.7882
 2571SOL    HW219176   2.565   1.246   7.239 -0.3600  0.3949 -0.2811
 2572SOL     OW19177   1.316   3.072   2.990 -0.6546  0.4802  0.4279
 2572SOL    HW119178   1.274   2.993   2.956  0.6650 -0.4940  1.0622
 2572SOL    HW219179   1.261   3.141   2.953 -0.2717  1.3794  1.5271
 2573SOL     OW19180   4.444   3.909   2.868 -0.1116  0.3241 -0.1991
 2573SOL    HW119181   4.420   3.945   2.953  1.8863 -0.5543  0.7346
 2573SOL    HW219182   4.389   3.961   2.809 -0.8791  0.9327  1.0598
 2574SOL     OW19183   2.042   1.848  14.292 -0.3165 -0.0428 -0.1065
 2574SOL    HW119184   2.005   1.909  14.228  0.6827  0.5108 -0.1714
 2574SOL    HW219185   2.136   1.869  14.289  0.2862 -3.0039 -1.4500
 2575SOL     OW19186   0.727   0.928   2.612  0.4275 -0.2919  0.4397
 2575SOL    HW119187   0.818   0.913   2.638  0.2007 -0.5033  1.1050
 2575SOL    HW219188   0.673   0.886   2.679 -3.8695  2.3372 -1.3785
 2576SOL     OW19189   2.027   0.321   3.937  0.0007 -0.0728  0.2194
 2576SOL    HW119190   1.981   0.237   3.929  0.3329 -0.1756 -0.6654
 2576SOL    HW219191   1.957   0.381   3.911  0.6583  0.3973 -0.4632
 2577SOL     OW19192   1.967   4.012   1.002 -0.2826  0.3597 -0.1871
 2577SOL    HW119193   2.015   4.068   1.063  0.6167 -0.1385 -0.4329
 2577SOL    HW219194   1.960   3.932   1.054  1.9369  0.1708 -0.1864
 2578SOL     OW19195   1.367   2.336   6.612  0.1846 -0.0207  0.7862
 2578SOL    HW119196   1.285   2.385   6.620  0.5278  0.5850  0.6011
 2578SOL    HW219197   1.398   2.335   6.702  0.6144 -2.4796  0.6112
 2579SOL     OW19198   1.557   0.271   2.379 -0.1818  0.1698 -0.4894
 2579SOL    HW119199   1.491   0.202   2.376  0.8501 -0.8640  0.7228
 2579SOL    HW219200   1.527   0.326   2.306 -0.8732 -0.6152 -0.7965
 2580SOL     OW19201   3.784   2.820   9.193  0.4067  0.3827  0.4913
 2580SOL    HW119202   3.715   2.868   9.240  0.8491  1.8434 -0.3903
 2580SOL    HW219203   3.831   2.780   9.266 -1.3522 -1.7983  0.4453
 2581SOL     OW19204   3.748   4.035   7.895 -0.0480 -0.3952  0.1381
 2581SOL    HW119205   3.829   4.043   7.944  0.5033  1.3992 -1.0877
 2581SOL    HW219206   3.729   4.125   7.869  0.1429 -0.5972 -0.6911
 2582SOL     OW19207   2.304   0.308   1.701  0.0262 -0.1497  1.1284
 2582SOL    HW119208   2.364   0.383   1.709  1.2092 -0.8402 -1.2410
 2582SOL    HW219209   2.228   0.348   1.742  1.2123  1.7598  1.5031
 2583SOL     OW19210   2.008   0.188   5.548  0.1949  0.6384  0.1323
 2583SOL    HW119211   1.932   0.215   5.599 -1.0781 -1.7665 -0.4687
 2583SOL    HW219212   1.969   0.180   5.461 -0.9898  2.6839  0.4967
 2584SOL     OW19213   0.886   2.210   7.972  0.0451 -0.2059  0.4223
 2584SOL    HW119214   0.939   2.185   8.048 -0.0517  0.1550  0.6075
 2584SOL    HW219215   0.803   2.226   8.016  0.5273  1.8900  0.5860
 2585SOL     OW19216   3.268   4.026   6.724  0.1400  0.6906 -0.1210
 2585SOL    HW119217   3.322   3.949   6.703 -0.3243 -0.1836  1.8980
 2585SOL    HW219218   3.275   4.060   6.635 -0.9846  2.4719  0.4885
 2586SOL     OW19219   2.904   2.940   3.790 -0.1965  0.3261 -0.4086
 2586SOL    HW119220   2.895   2.869   3.854 -0.4514  1.9216  1.3256
 2586SOL    HW219221   2.968   2.903   3.729  1.2707  0.5585  0.9643
 2587SOL     OW19222   0.979   2.591  10.519  0.8500 -0.1925  1.0598
 2587SOL    HW119223   0.908   2.597  10.583 -0.2701 -3.1162  0.0892
 2587SOL    HW219224   0.977   2.500  10.490  0.6308  0.0221  0.3899
 2588SOL     OW19225   1.431   2.759   8.561 -0.4956 -0.2207  0.2595
 2588SOL    HW119226   1.513   2.766   8.610  0.8399 -0.4697 -1.9394
 2588SOL    HW219227   1.396   2.684   8.607 -1.0318  0.2706  0.6426
 2589SOL     OW19228   3.745   0.158  12.211 -0.1938  0.2242 -0.1154
 2589SOL    HW119229   3.807   0.103  12.164 -1.4157 -0.5551 -0.8065
 2589SOL    HW219230   3.800   0.183  12.285  0.3402 -0.6780 -0.2132
 2590SOL     OW19231   4.685   1.013   2.562 -0.2996 -0.2504 -0.5454
 2590SOL    HW119232   4.685   1.106   2.585 -0.9480 -0.6247  1.0121
 2590SOL    HW219233   0.051   0.986   2.563  1.0185  4.1666 -0.6159
 2591SOL     OW19234   2.176   4.353   2.252  0.1538  0.0088  0.2308
 2591SOL    HW119235   2.161   4.389   2.340 -0.1951 -1.0237  0.5970
 2591SOL    HW219236   2.105   4.401   2.210 -0.4244 -0.9391  0.1173
 2592SOL     OW19237   4.152   0.968   7.601 -0.4846  0.4300 -0.0111
 2592SOL    HW119238   4.169   0.957   7.695 -3.7626 -2.1503  0.2702
 2592SOL    HW219239   4.081   1.029   7.620  0.6992  2.0700 -0.9206
 2593SOL     OW19240   3.813   3.054  15.232 -0.4559  0.4331  0.4428
 2593SOL    HW119241   3.749   3.103  15.180 -1.8712 -0.7575  1.0670
 2593SOL    HW219242   3.806   2.976  15.178  0.0465  1.2421 -0.7999
 2594SOL     OW19243   2.407   3.777   9.118  0.1928 -0.5244 -0.1581
 2594SOL    HW119244   2.341   3.837   9.085  1.6706  0.1829 -1.8179
 2594SOL    HW219245   2.368   3.754   9.202  0.4318 -0.6267 -0.0729
 2595SOL     OW19246   3.741   2.303   7.005 -0.1493 -0.4303  0.2572
 2595SOL    HW119247   3.693   2.261   6.934  0.8887 -1.2717  0.0515
 2595SOL    HW219248   3.792   2.231   7.042  0.0330 -0.4326  0.0054
 2596SOL     OW19249   3.384   3.679   3.206 -0.2570 -0.1181  0.1502
 2596SOL    HW119250   3.401   3.773   3.200 -1.2860  0.1575  1.4365
 2596SOL    HW219251   3.475   3.651   3.215  0.1310  1.6236  1.6158
 2597SOL     OW19252   2.764   2.432   1.649 -0.5690 -0.1278  0.1120
 2597SOL    HW119253   2.736   2.343   1.628  0.7693 -0.7267  0.9228
 2597SOL    HW219254   2.709   2.442   1.727 -0.9694  0.9583 -0.3072
 2598SOL     OW19255   3.100   4.125   3.565  0.6626  0.4501  0.0199
 2598SOL    HW119256   3.159   4.200   3.563 -1.1151  1.8409  0.7695
 2598SOL    HW219257   3.067   4.113   3.476  3.3704 -0.3078 -0.8968
 2599SOL     OW19258   4.358   1.094   4.817 -0.8101  0.1659 -0.1650
 2599SOL    HW119259   4.288   1.094   4.752 -2.2502  0.3522  1.4053
 2599SOL    HW219260   4.378   1.187   4.808  0.8629 -0.1708  0.0337
 2600SOL     OW19261   4.333   3.368   6.900  0.2307  0.5271  0.5075
 2600SOL    HW119262   4.335   3.273   6.890 -1.0119  0.5897 -0.2903
 2600SOL    HW219263   4.326   3.376   6.995  0.1448 -0.9411  0.6267
 2601SOL     OW19264   1.874   4.030   5.363 -0.1629  0.5146 -0.1063
 2601SOL    HW119265   1.830   3.978   5.295  1.7131  0.0585 -0.9945
 2601SOL    HW219266   1.964   4.013   5.334  0.5745  2.3657  1.1525
 2602SOL     OW19267   3.118   1.319  17.098  0.2801  0.4080  0.1412
 2602SOL    HW119268   3.150   1.401  17.060  1.2875  0.4327  1.0583
 2602SOL    HW219269   3.065   1.345  17.173  0.0114 -1.3120  0.5390
 2603SOL     OW19270   4.199   3.068   5.270 -0.1477  0.2057  0.2616
 2603SOL    HW119271   4.267   3.002   5.284 -0.1331 -0.2539 -1.8968
 2603SOL    HW219272   4.248   3.146   5.296 -0.9166  0.0305  2.2411
 2604SOL     OW19273   4.509   0.307  15.227 -0.1741  0.1923  0.3498
 2604SOL    HW119274   4.522   0.299  15.322 -1.1033  1.4915  0.5893
 2604SOL    HW219275   4.559   0.230  15.201  0.7738  1.8026 -2.4755
 2605SOL     OW19276   0.390   1.299   0.976 -0.4199  0.1132 -0.2580
 2605SOL    HW119277   0.396   1.208   1.005 -0.0437 -0.6931 -2.8534
 2605SOL    HW219278   0.482   1.315   1.001 -0.2919  0.2935 -0.8475
 2606SOL     OW19279   2.196   1.921   2.892  0.4072 -0.3327 -0.3547
 2606SOL    HW119280   2.282   1.947   2.860 -0.1501  1.1479 -0.6032
 2606SOL    HW219281   2.156   1.913   2.806 -2.7026 -0.4296  1.1131
 2607SOL     OW19282   4.037   3.206   4.788 -0.1911 -0.4589 -0.0295
 2607SOL    HW119283   4.065   3.117   4.812  1.6061  0.6971  2.1512
 2607SOL    HW219284   4.109   3.255   4.827 -0.0618 -1.4767  1.0186
 2608SOL     OW19285   3.662   0.393   5.676 -0.5758 -0.1069 -0.2245
 2608SOL    HW119286   3.735   0.455   5.673 -0.8963  0.2432 -0.6407
 2608SOL    HW219287   3.695   0.337   5.747  2.9903  0.3772 -1.5090
 2609SOL     OW19288   4.168   0.720   9.180 -0.6169 -0.1670  0.2046
 2609SOL    HW119289   4.118   0.639   9.175  0.4979 -0.8675  0.6311
 2609SOL    HW219290   4.106   0.782   9.141  0.2481 -0.7284 -2.0792
 2610SOL     OW19291   3.861   1.016   5.660  0.2247 -0.3551 -0.3759
 2610SOL    HW119292   3.948   1.048   5.685  0.8429 -1.5360 -1.0097
 2610SOL    HW219293   3.880   1.027   5.567 -1.8946  0.2898 -0.7318
 2611SOL     OW19294   3.187   2.371   8.201 -0.4874 -0.2616  0.3284
 2611SOL    HW119295   3.209   2.285   8.236 -0.2361 -0.7744 -1.0752
 2611SOL    HW219296   3.104   2.377   8.249 -1.3926 -0.8475 -1.1605
 2612SOL     OW19297   3.439   3.953   3.154  0.2989 -0.1584  0.0810
 2612SOL    HW119298   3.531   3.936   3.130  0.0819  0.2960 -1.0745
 2612SOL    HW219299   3.395   3.947   3.069 -0.3133  0.7105  0.3369
 2613SOL     OW19300   2.570   3.919   5.453  0.1169 -0.0446 -0.0888
 2613SOL    HW119301   2.548   3.947   5.364  1.3631 -1.6644 -0.9036
 2613SOL    HW219302   2.655   3.962   5.466  0.4118 -0.5047 -0.5182
 2614SOL     OW19303   1.534   2.338   9.071 -0.3364  0.3448  0.2417
 2614SOL    HW119304   1.455   2.284   9.075 -0.2626  0.0151 -2.3583
 2614SOL    HW219305   1.571   2.353   9.158 -0.3192 -0.8502  0.4412
 2615SOL     OW19306   2.031   3.092   3.396 -0.1387  0.3582  0.5583
 2615SOL    HW119307   1.971   3.019   3.412 -0.4924  0.5306  0.0533
 2615SOL    HW219308   1.986   3.161   3.445 -3.2058 -0.6785 -0.8034
 2616SOL     OW19309   3.347   2.685   7.119  0.3585  0.5873  0.1286
 2616SOL    HW119310   3.322   2.674   7.211 -1.9962 -1.0439 -0.6888
 2616SOL    HW219311   3.349   2.593   7.091  1.6281  0.0576  1.9462
 2617SOL     OW19312   1.771   2.415   6.081 -0.7400  0.4528 -0.8845
 2617SOL    HW119313   1.794   2.432   6.172  0.8177  1.6611 -1.5131
 2617SOL    HW219314   1.721   2.334   6.098 -0.5032  0.0089 -2.3126
 2618SOL     OW19315   2.633   1.935  17.481 -1.0741 -0.1908  0.4607
 2618SOL    HW119316   2.583   1.900  17.555  1.7974  0.4427  2.6692
 2618SOL    HW219317   2.574   2.004  17.449 -1.9436 -1.5438 -0.8898
 2619SOL     OW19318   1.278   0.056   6.776 -0.0627  0.0817  0.1215
 2619SOL    HW119319   1.239   0.129   6.823 -0.8688  0.8447 -1.7469
 2619SOL    HW219320   1.325   0.007   6.844 -1.8264  1.3760  2.2536
 2620SOL     OW19321   3.266   1.205   9.953  0.4648  0.2947  0.2025
 2620SOL    HW119322   3.188   1.167   9.995  0.5946  0.1290  0.2935
 2620SOL    HW219323   3.335   1.154   9.996  0.5333 -0.8761 -1.2968
 2621SOL     OW19324   2.007   1.680  14.725 -0.6774 -0.5764 -0.0087
 2621SOL    HW119325   1.947   1.741  14.684  1.3269  0.6228 -1.1646
 2621SOL    HW219326   2.060   1.655  14.649 -0.4564 -3.2068  0.9941
 2622SOL     OW19327   0.616   0.108   3.343  0.1342  0.2658 -0.5230
 2622SOL    HW119328   0.697   0.058   3.343  0.1257  0.2590  0.2164
 2622SOL    HW219329   0.578   0.084   3.258  0.5922  1.2128 -0.9911
 2623SOL     OW19330   4.209   0.716   1.567  0.2790  0.2036  0.0712
 2623SOL    HW119331   4.153   0.790   1.591  0.5930  0.0509  1.2660
 2623SOL    HW219332   4.170   0.683   1.486 -0.3989 -0.6477  0.7491
 2624SOL     OW19333   3.211   2.661   9.011  0.0633  0.0656  0.2138
 2624SOL    HW119334   3.204   2.621   9.098  1.1606  1.6843  1.0488
 2624SOL    HW219335   3.124   2.691   8.988  0.5764  0.1344 -1.5997
 2625SOL     OW19336   2.816   0.371   6.079  0.3394 -0.2441 -0.5580
 2625SOL    HW119337   2.909   0.348   6.082  0.2404 -0.8533 -1.8591
 2625SOL    HW219338   2.811   0.459   6.042 -1.5282  0.0425  0.3790
 2626SOL     OW19339   4.589   0.851   7.055 -0.2827  0.0334  0.0021
 2626SOL    HW119340   4.676   0.846   7.094 -0.9791 -2.8367  1.2112
 2626SOL    HW219341   4.603   0.855   6.961 -0.6404 -0.9992 -0.0960
 2627SOL     OW19342   2.598   0.086   1.729  0.1705 -0.4375  0.2325
 2627SOL    HW119343   2.596   0.009   1.673 -0.3471  0.6376 -1.2223
 2627SOL    HW219344   2.615   0.036   1.809  1.5741 -0.8724 -0.3495
 2628SOL     OW19345   2.071   3.561   8.549  0.6140 -0.5521 -0.3914
 2628SOL    HW119346   2.154   3.549   8.504  1.0754  1.2259  0.0018
 2628SOL    HW219347   2.077   3.507   8.628  0.3389  1.5567  1.0621
 2629SOL     OW19348   3.976   0.941   0.526  0.5965 -0.0396 -0.2141
 2629SOL    HW119349   3.967   0.849   0.550  0.1139 -0.2605 -1.2484
 2629SOL    HW219350   4.007   0.927   0.437 -0.3382  1.4631 -0.7760
 2630SOL     OW19351   3.825   2.275  16.338 -0.3666  0.5144 -0.8598
 2630SOL    HW119352   3.736   2.290  16.305 -0.6929  0.6916  0.0952
 2630SOL    HW219353   3.815   2.268  16.433  0.4740  1.3376 -0.7121
 2631SOL     OW19354   2.999   1.257   9.079 -0.6482  0.1084  0.3067
 2631SOL    HW119355   3.054   1.185   9.108  0.8631  1.6249  1.1724
 2631SOL    HW219356   2.943   1.278   9.154 -3.5212  0.2566 -1.8683
 2632SOL     OW19357   2.610   4.200  12.830 -0.1402 -0.2285  0.5381
 2632SOL    HW119358   2.682   4.208  12.892  1.1602  0.1627 -0.9967
 2632SOL    HW219359   2.577   4.116  12.861  0.1928 -0.7350 -0.4762
 2633SOL     OW19360   0.904   0.148  12.972 -0.1456  0.4511 -0.3317
 2633SOL    HW119361   0.990   0.108  12.981 -0.6336  0.0601  2.8267
 2633SOL    HW219362   0.932   0.239  12.985  0.9880 -0.2698  2.2407
 2634SOL     OW19363   0.209   1.225   3.823  0.1301  0.0175 -0.2606
 2634SOL    HW119364   0.280   1.161   3.821  0.0365  0.0112 -3.7038
 2634SOL    HW219365   0.217   1.250   3.915  2.9920  0.7248 -0.6940
 2635SOL     OW19366   1.665   0.888   2.110 -0.2833 -0.0620 -0.0809
 2635SOL    HW119367   1.721   0.812   2.094 -0.6194 -0.0296 -1.4310
 2635SOL    HW219368   1.575   0.860   2.092 -0.2918  1.4737 -2.3554
 2636SOL     OW19369   4.507   0.765   2.879  0.4718  0.0715  0.2602
 2636SOL    HW119370   4.507   0.803   2.967  1.2812 -0.7122  0.5933
 2636SOL    HW219371   4.600   0.778   2.859  0.6297 -1.1958  0.2132
 2637SOL     OW19372   4.302   4.486   9.651  0.1522  0.0588  0.0588
 2637SOL    HW119373   4.212   4.499   9.680  0.0783 -0.4566  0.0575
 2637SOL    HW219374   4.353   4.506   9.729  0.2944  0.3294 -0.1016
 2638SOL     OW19375   0.887   1.584   1.797  0.1313 -0.1779  0.2439
 2638SOL    HW119376   0.804   1.545   1.824 -0.2055  0.8860  0.7215
 2638SOL    HW219377   0.865   1.672   1.766  2.3362  0.0719 -0.5962
 2639SOL     OW19378   3.382   2.886   2.453 -0.0256 -0.4181  0.1462
 2639SOL    HW119379   3.316   2.826   2.418  0.1625  0.3664 -1.5580
 2639SOL    HW219380   3.463   2.834   2.452  0.5782  0.4146  4.8911
 2640SOL     OW19381   3.042   1.627   3.724  0.0349 -0.0225 -0.0726
 2640SOL    HW119382   2.980   1.554   3.732  2.4967 -1.9000  2.0561
 2640SOL    HW219383   3.054   1.629   3.629 -2.3913 -1.0230 -0.3873
 2641SOL     OW19384   0.850   1.962   3.012 -0.3435 -0.8693  0.2344
 2641SOL    HW119385   0.838   2.056   2.999 -0.8812 -0.6502  2.3189
 2641SOL    HW219386   0.759   1.934   3.006 -0.5921 -0.0929  0.3769
 2642SOL     OW19387   1.827   2.323   7.583  0.1144  0.1890 -0.0157
 2642SOL    HW119388   1.753   2.267   7.560 -1.0576  1.4443  0.7083
 2642SOL    HW219389   1.847   2.357   7.496 -2.3409 -0.0061 -0.6451
 2643SOL     OW19390   3.543   0.770   3.501 -0.3404  0.4366 -0.6521
 2643SOL    HW119391   3.550   0.708   3.429 -3.4873 -0.3338 -0.2879
 2643SOL    HW219392   3.637   0.788   3.496 -0.2419  0.7529  2.2329
 2644SOL     OW19393   1.780   0.304  15.234  0.2395 -0.2460  0.1060
 2644SOL    HW119394   1.831   0.239  15.282 -0.2699 -1.0555 -0.4489
 2644SOL    HW219395   1.761   0.251  15.156  0.9324  0.4662 -0.5479
 2645SOL     OW19396   4.438   1.504  16.165 -0.2538 -0.3089  0.7683
 2645SOL    HW119397   4.364   1.448  16.189  0.3186 -1.2692  0.3034
 2645SOL    HW219398   4.414   1.570  16.230  5.4170  3.4668 -1.0067
 2646SOL     OW19399   1.410   1.407   2.857  0.2960 -0.0595 -0.2694
 2646SOL    HW119400   1.498   1.440   2.875 -0.5632  1.8693  0.3856
 2646SOL    HW219401   1.418   1.332   2.798  1.9031 -0.4525  0.4353
 2647SOL     OW19402   4.493   1.580  13.013 -0.0437  0.1340 -1.0676
 2647SOL    HW119403   4.461   1.492  13.032 -1.2850  0.9110  0.3766
 2647SOL    HW219404   4.580   1.558  12.980  0.9027  2.9665 -0.5105
 2648SOL     OW19405   1.219   0.319   3.581 -0.7517  0.4126 -0.2847
 2648SOL    HW119406   1.160   0.318   3.656  1.3691 -0.9809  1.3856
 2648SOL    HW219407   1.263   0.237   3.607  0.8778  1.5468  0.5631
 2649SOL     OW19408   0.359   0.333  11.798  0.2468  0.3098 -0.2694
 2649SOL    HW119409   0.416   0.335  11.721  1.0535  0.4257  0.3354
 2649SOL    HW219410   0.409   0.289  11.867  0.0513  1.8888  0.9073
 2650SOL     OW19411   0.822   3.857  12.811  0.3222 -0.3180  0.4004
 2650SOL    HW119412   0.769   3.829  12.885 -0.5410  1.2379  0.3717
 2650SOL    HW219413   0.904   3.816  12.839 -1.3037 -1.9764  2.6518
 2651SOL     OW19414   3.147   0.740   1.233  0.0506 -0.2552  0.4605
 2651SOL    HW119415   3.188   0.739   1.147  0.4554 -2.1466  0.6652
 2651SOL    HW219416   3.189   0.664   1.273  2.2025  1.2525  1.0375
 2652SOL     OW19417   2.012   4.725   2.157  0.0502  0.4310  0.6705
 2652SOL    HW119418   2.089   4.721   2.213  1.2104  2.6083 -0.7524
 2652SOL    HW219419   1.960   0.069   2.197 -0.2601  0.9609 -0.6325
 2653SOL     OW19420   4.599   2.454   4.530  0.6876 -0.0526 -0.5972
 2653SOL    HW119421   4.636   2.479   4.446 -0.4034 -0.6815 -1.2701
 2653SOL    HW219422   4.679   2.432   4.578  0.4843 -0.3779 -0.4021
 2654SOL     OW19423   2.543   0.247  15.084 -0.5687 -0.3900 -0.2327
 2654SOL    HW119424   2.520   0.304  15.157  0.5849  0.1632 -0.2952
 2654SOL    HW219425   2.487   0.295  15.022 -1.6668 -3.0664 -1.3000
 2655SOL     OW19426   2.067   3.097   5.582  0.0501 -0.4197  0.4186
 2655SOL    HW119427   2.116   3.153   5.522 -0.4142  0.7276  1.1169
 2655SOL    HW219428   1.981   3.139   5.573 -0.7482 -1.8502  1.4664
 2656SOL     OW19429   4.333   3.573  12.817 -0.2592  0.6225 -0.6232
 2656SOL    HW119430   4.370   3.555  12.904 -1.4439 -1.1890 -0.5151
 2656SOL    HW219431   4.403   3.622  12.772  0.1980  1.6450  1.1935
 2657SOL     OW19432   0.392   4.168  14.650 -0.0045 -0.4275  0.3284
 2657SOL    HW119433   0.315   4.224  14.656  1.0581  1.0019  0.8056
 2657SOL    HW219434   0.445   4.209  14.719 -1.6993  0.8180  0.8874
 2658SOL     OW19435   0.980   1.156   7.734  0.2447 -0.0369  0.1909
 2658SOL    HW119436   1.011   1.247   7.729  2.7606 -1.0026 -1.9064
 2658SOL    HW219437   0.890   1.181   7.756 -0.0026 -1.7306  1.0701
 2659SOL     OW19438   2.843   3.200   2.763  0.5814 -0.2243  0.1566
 2659SOL    HW119439   2.808   3.122   2.720 -0.1197  0.2094 -0.0570
 2659SOL    HW219440   2.843   3.265   2.693 -0.0942 -0.4594 -0.0585
 2660SOL     OW19441   4.485   4.380   3.922  0.1022 -0.0903 -0.1063
 2660SOL    HW119442   4.541   4.302   3.918 -1.0935 -0.8601 -1.9215
 2660SOL    HW219443   4.557   4.444   3.914 -0.6238  0.7387 -0.0218
 2661SOL     OW19444   3.695   4.293   6.729 -0.0344 -0.5026  0.4503
 2661SOL    HW119445   3.782   4.308   6.691 -0.1922  1.7141  1.0039
 2661SOL    HW219446   3.691   4.356   6.801  2.2679 -0.2914  0.3941
 2662SOL     OW19447   4.654   3.214   1.501 -0.1131 -0.3069 -0.3178
 2662SOL    HW119448   4.616   3.285   1.553  0.6454  0.5244 -0.9097
 2662SOL    HW219449   4.633   3.241   1.412 -0.4661 -0.6348 -0.3319
 2663SOL     OW19450   1.039   4.623  13.586  0.3490 -0.0468 -0.3172
 2663SOL    HW119451   1.039   4.699  13.645 -2.8613 -0.5238  0.3094
 2663SOL    HW219452   1.130   4.594  13.580 -0.1884 -1.7584 -0.2486
 2664SOL     OW19453   3.343   2.317   2.197 -0.6785  0.1673 -0.0802
 2664SOL    HW119454   3.427   2.292   2.159 -0.3084 -0.9448  1.4577
 2664SOL    HW219455   3.308   2.369   2.124 -2.5082 -2.4351 -1.0804
 2665SOL     OW19456   0.155   0.801   8.293  0.2160 -0.2338  0.0264
 2665SOL    HW119457   0.236   0.785   8.246 -0.2790  0.2525 -0.9978
 2665SOL    HW219458   0.091   0.794   8.222 -1.5973 -1.0102  1.7065
 2666SOL     OW19459   1.566   1.415  14.073  0.4701 -0.1970  0.0062
 2666SOL    HW119460   1.606   1.339  14.113  1.2405 -0.1233 -0.6257
 2666SOL    HW219461   1.637   1.466  14.034 -1.1775  0.8850 -1.6370
 2667SOL     OW19462   1.298   4.525   4.300 -0.3369 -0.0915 -0.3507
 2667SOL    HW119463   1.309   4.509   4.394  0.2710  0.8366 -0.2634
 2667SOL    HW219464   1.233   4.457   4.281 -0.4564 -0.0297 -0.1586
 2668SOL     OW19465   1.302   3.793   2.689 -0.1449  0.3648  0.1074
 2668SOL    HW119466   1.337   3.705   2.706  1.9551  0.8895 -1.5001
 2668SOL    HW219467   1.382   3.846   2.685  1.5288 -2.1897 -0.7548
 2669SOL     OW19468   4.475   0.842  13.333  0.9737 -1.0347  0.1909
 2669SOL    HW119469   4.415   0.846  13.407  1.3896 -0.1758  0.4779
 2669SOL    HW219470   4.510   0.931  13.327  0.9742 -0.9871  1.0166
 2670SOL     OW19471   2.869   2.965  11.961  0.2038 -0.0417 -0.6165
 2670SOL    HW119472   2.784   3.002  11.983  1.0998  1.8638 -0.3297
 2670SOL    HW219473   2.871   2.891  12.022  0.0536  2.4346  2.4082
 2671SOL     OW19474   0.417   1.704   7.503  0.0794  0.3263 -0.3201
 2671SOL    HW119475   0.458   1.790   7.500  2.6495 -0.9390 -1.4766
 2671SOL    HW219476   0.415   1.686   7.409  1.6024  0.8452 -0.4482
 2672SOL     OW19477   0.913   1.248   2.554 -0.1889  0.5930 -0.6080
 2672SOL    HW119478   0.925   1.184   2.623  1.5179 -0.5135 -1.9121
 2672SOL    HW219479   0.992   1.302   2.558  0.1772  0.1334 -1.5819
 2673SOL     OW19480   2.050   0.887  16.194  0.0188  0.2271 -0.3842
 2673SOL    HW119481   2.091   0.853  16.114  0.7454  0.4606 -0.1090
 2673SOL    HW219482   2.124   0.933  16.232 -1.1145  0.8655  1.0529
 2674SOL     OW19483   1.365   2.301   2.824  0.6356 -0.2625  0.6917
 2674SOL    HW119484   1.374   2.331   2.915  0.7235  0.5743  0.4034
 2674SOL    HW219485   1.302   2.230   2.833 -0.5102  0.6819  0.1429
 2675SOL     OW19486   2.562   2.949  12.401  0.3482  0.0058  1.0176
 2675SOL    HW119487   2.581   2.869  12.351 -1.3213 -0.4130  1.0293
 2675SOL    HW219488   2.635   3.005  12.378 -0.8781  1.7612  1.3517
 2676SOL     OW19489   3.735   4.644   0.299  0.0214  0.3079 -0.0523
 2676SOL    HW119490   3.648   4.685   0.301 -0.5714 -0.9479 -0.2512
 2676SOL    HW219491   3.788   4.717   0.331 -0.9887  1.3674 -0.7641
 2677SOL     OW19492   1.253   3.301   8.283 -0.5180 -0.2725  0.6319
 2677SOL    HW119493   1.281   3.366   8.219  2.9878 -1.7043  0.7190
 2677SOL    HW219494   1.218   3.235   8.224 -1.3650  0.3883  0.4006
 2678SOL     OW19495   0.203   4.077   8.666  0.1701 -0.4693 -0.1982
 2678SOL    HW119496   0.223   4.166   8.639 -2.2191  0.1460  0.0698
 2678SOL    HW219497   0.289   4.035   8.655  0.6596  0.4011  0.3808
 2679SOL     OW19498   2.041   0.172   8.386  0.1118  0.4725 -0.0519
 2679SOL    HW119499   2.127   0.174   8.430  0.4987  0.4249 -0.8033
 2679SOL    HW219500   1.998   0.105   8.438  0.1978  0.1160 -0.4463
 2680SOL     OW19501   3.446   2.876  15.965 -0.0987 -0.4449  0.1880
 2680SOL    HW119502   3.511   2.835  15.908  0.9172  1.3367  0.0668
 2680SOL    HW219503   3.418   2.951  15.913 -2.4306 -2.0832 -0.9521
 2681SOL     OW19504   3.144   3.465   9.287 -0.1459  0.3492 -0.4891
 2681SOL    HW119505   3.223   3.440   9.239  0.5235  0.5087  0.5276
 2681SOL    HW219506   3.183   3.528   9.348 -3.1741  1.0117  0.7647
 2682SOL     OW19507   3.625   1.888   7.695  0.5455 -0.0230 -0.2379
 2682SOL    HW119508   3.687   1.942   7.745  0.3598 -0.0004 -0.0318
 2682SOL    HW219509   3.542   1.933   7.706  0.9467  0.7731 -0.4521
 2683SOL     OW19510   1.114   3.257  16.855  0.1659 -0.8358 -0.3263
 2683SOL    HW119511   1.188   3.216  16.901 -1.0837  0.9629  3.2732
 2683SOL    HW219512   1.083   3.315  16.924  1.4703 -0.9219  0.3447
 2684SOL     OW19513   2.768   2.034   6.542 -0.1703  0.0368  0.2398
 2684SOL    HW119514   2.853   2.073   6.521 -1.7372  2.4891 -1.4477
 2684SOL    HW219515   2.797   1.950   6.507 -0.3449 -0.4848  1.3403
 2685SOL     OW19516   0.596   4.046   6.542 -0.4325 -0.4551  0.1932
 2685SOL    HW119517   0.616   4.133   6.508  0.5770 -0.4354  0.8635
 2685SOL    HW219518   0.671   4.019   6.595 -1.1656 -0.5822  1.1711
 2686SOL     OW19519   4.258   2.031   3.604 -0.2104 -0.2868 -0.1524
 2686SOL    HW119520   4.290   2.010   3.517 -1.0627  0.2459 -0.6017
 2686SOL    HW219521   4.296   1.956   3.649  0.3323  0.7305  1.0835
 2687SOL     OW19522   4.574   4.120  17.389 -0.2497  0.1763  0.3912
 2687SOL    HW119523   4.514   4.066  17.439 -0.2967  0.4087  0.5871
 2687SOL    HW219524   4.652   4.122  17.445  1.7860  2.8022 -2.4877
 2688SOL     OW19525   1.094   0.413   0.903  0.8978  0.0413 -0.5897
 2688SOL    HW119526   1.118   0.331   0.946 -2.5935  0.4275  2.1167
 2688SOL    HW219527   1.183   0.434   0.875  0.7105 -0.4286 -1.5520
 2689SOL     OW19528   2.951   3.904   8.462 -0.8444  0.2874  1.2489
 2689SOL    HW119529   2.891   3.863   8.400  0.6834 -0.5228  0.3096
 2689SOL    HW219530   2.976   3.976   8.404  1.3137  0.8681  2.9055
 2690SOL     OW19531   2.955   3.001   6.454  0.4951 -0.2469 -0.6102
 2690SOL    HW119532   2.982   2.927   6.508 -1.0855 -1.0397 -0.9121
 2690SOL    HW219533   2.943   2.962   6.367  0.1109 -1.9749  0.2170
 2691SOL     OW19534   3.352   4.351   0.042  0.0251 -0.6746 -0.1750
 2691SOL    HW119535   3.350   4.266  17.703  0.1331 -0.8097  0.0831
 2691SOL    HW219536   3.427   4.339   0.100 -0.3508 -0.3383  0.3824
 2692SOL     OW19537   3.597   2.582   5.057 -0.1954  0.0176 -0.2119
 2692SOL    HW119538   3.533   2.647   5.088 -0.5027 -0.5405  0.3480
 2692SOL    HW219539   3.656   2.561   5.130 -0.3657  2.6228  0.6733
 2693SOL     OW19540   1.224   0.781   0.160  0.2281  0.1393 -0.1340
 2693SOL    HW119541   1.217   0.875   0.144  0.7004  0.3043  0.6787
 2693SOL    HW219542   1.134   0.762   0.186  0.2163 -0.4675 -0.6241
 2694SOL     OW19543   3.070   3.842   7.654  0.1113 -0.2965 -0.9699
 2694SOL    HW119544   3.111   3.923   7.623  0.7543 -0.0203  0.6406
 2694SOL    HW219545   3.153   3.794   7.652 -0.1858 -0.8046 -1.0236
 2695SOL     OW19546   1.418   2.982  15.522 -0.2865 -0.0296  0.3235
 2695SOL    HW119547   1.412   2.989  15.427 -1.2161 -0.3626  0.3571
 2695SOL    HW219548   1.325   2.965  15.539  0.1773 -0.1014  2.8621
 2696SOL     OW19549   4.176   1.742   4.248  0.5040  0.1711  0.3187
 2696SOL    HW119550   4.186   1.757   4.342  0.1494  0.6933  0.2718
 2696SOL    HW219551   4.216   1.818   4.205 -0.1158  1.6224  2.2945
 2697SOL     OW19552   0.441   1.675  11.695 -0.1791 -0.2673  0.6691
 2697SOL    HW119553   0.443   1.708  11.605 -0.6652 -1.1388  0.3400
 2697SOL    HW219554   0.522   1.624  11.699  0.3755  0.4814 -1.2317
 2698SOL     OW19555   4.705   2.193   5.080  0.3794 -0.1087  0.2854
 2698SOL    HW119556   0.004   2.267   5.136  0.8014  0.0984 -0.1773
 2698SOL    HW219557   4.621   2.168   5.120  1.0448 -2.6537  0.0549
 2699SOL     OW19558   1.964   0.841   7.831  0.0274  0.9552 -0.2510
 2699SOL    HW119559   2.000   0.904   7.769  3.7783 -0.8353  0.1514
 2699SOL    HW219560   1.992   0.872   7.917 -3.0270 -0.9185  1.4292
 2700SOL     OW19561   2.893   0.397   2.045 -0.3995 -0.4893 -0.3655
 2700SOL    HW119562   2.944   0.465   2.001 -0.8440 -1.2351 -2.0266
 2700SOL    HW219563   2.866   0.335   1.977 -0.7133 -1.7704  0.9343
 2701SOL     OW19564   1.772   2.715   2.943 -0.8575 -0.2032  0.2555
 2701SOL    HW119565   1.773   2.658   3.020  0.7620 -1.2879 -0.5675
 2701SOL    HW219566   1.704   2.774   2.975 -1.4959  0.4693 -2.3638
 2702SOL     OW19567   3.305   4.288   2.841  0.5062 -0.0529 -0.6007
 2702SOL    HW119568   3.246   4.234   2.894  2.0302 -0.7312  0.3814
 2702SOL    HW219569   3.253   4.313   2.765 -2.2816 -1.1685  0.9369
 2703SOL     OW19570   3.553   4.102  13.365 -0.4562 -0.7063  0.0672
 2703SOL    HW119571   3.514   4.155  13.435 -2.0810  1.2490 -2.3526
 2703SOL    HW219572   3.593   4.036  13.422 -2.0389 -0.3418  1.5922
 2704SOL     OW19573   0.672   3.727  14.965  0.2016 -0.3566  0.9690
 2704SOL    HW119574   0.598   3.783  14.991 -0.0624  1.3714 -3.5395
 2704SOL    HW219575   0.726   3.790  14.917  1.8861 -0.3016  2.9423
 2705SOL     OW19576   2.959   1.468  17.340 -0.1769  0.3989  0.1042
 2705SOL    HW119577   3.050   1.461  17.369  0.2369  3.4875 -0.3847
 2705SOL    HW219578   2.948   1.563  17.329 -1.3840  0.3706  1.1320
 2706SOL     OW19579   4.044   4.065   7.427 -0.2802 -0.1004  0.4445
 2706SOL    HW119580   4.037   4.093   7.518 -1.0801  2.6967 -0.4595
 2706SOL    HW219581   4.009   4.146   7.388  1.9705  0.7828  0.2769
 2707SOL     OW19582   4.631   0.600   9.848  0.4807  0.1243 -0.3260
 2707SOL    HW119583   4.648   0.621   9.756  1.3714  0.7195 -0.0226
 2707SOL    HW219584   4.667   0.512   9.854  0.8157  0.2571 -0.4070
 2708SOL     OW19585   4.064   0.973  16.168  0.1085  0.1012 -0.6465
 2708SOL    HW119586   4.082   1.047  16.110  0.7422 -0.5083 -1.2306
 2708SOL    HW219587   4.112   0.906  16.119  0.2068 -0.1050 -0.2693
 2709SOL     OW19588   3.975   3.835   3.920 -0.3740 -0.3652 -0.5480
 2709SOL    HW119589   3.983   3.755   3.971  0.0248 -1.0848 -1.7649
 2709SOL    HW219590   3.881   3.852   3.931 -0.0610  0.4142  0.9758
 2710SOL     OW19591   3.748   0.129   2.778 -0.4881  0.0869 -0.1942
 2710SOL    HW119592   3.695   0.162   2.851  1.2474 -0.9840  1.5265
 2710SOL    HW219593   3.701   0.052   2.743 -2.5875  0.3449  2.0401
 2711SOL     OW19594   2.447   1.053  10.211  0.5147  0.2686  0.2250
 2711SOL    HW119595   2.481   1.143  10.207 -0.5827  0.7788  2.4161
 2711SOL    HW219596   2.522   1.016  10.164  0.4225 -1.1633  1.1982
 2712SOL     OW19597   3.925   3.088  17.291  0.3105 -0.7282  0.3184
 2712SOL    HW119598   3.878   3.039  17.224 -2.1414  0.6011  1.0651
 2712SOL    HW219599   3.990   3.021  17.308  1.1265 -0.0490 -0.1226
 2713SOL     OW19600   4.143   3.303   5.522 -0.0791  0.0801 -0.4216
 2713SOL    HW119601   4.105   3.388   5.546  0.8025  0.2113  0.5005
 2713SOL    HW219602   4.226   3.333   5.487  0.6426  2.1531  2.9577
 2714SOL     OW19603   0.873   0.181   9.269 -0.2053 -0.0160  0.5923
 2714SOL    HW119604   0.853   0.088   9.257 -2.0409  0.3828  0.4904
 2714SOL    HW219605   0.792   0.223   9.298 -0.3363 -1.8187  2.7862
 2715SOL     OW19606   0.647   3.104  16.324  0.2806  0.1753  0.3669
 2715SOL    HW119607   0.704   3.048  16.271  0.6070  1.9537 -1.1511
 2715SOL    HW219608   0.709   3.171  16.353 -0.4286  0.3717  1.4344
 2716SOL     OW19609   0.237   3.771   7.168 -0.0235  0.4063 -0.3971
 2716SOL    HW119610   0.304   3.828   7.206 -1.3653  0.6062  1.6563
 2716SOL    HW219611   0.228   3.699   7.230  0.4139  1.1706  0.5554
 2717SOL     OW19612   4.103   0.722  16.356 -0.2654  0.1472  0.4107
 2717SOL    HW119613   4.075   0.739  16.266  0.6719 -0.0364  0.0843
 2717SOL    HW219614   4.050   0.642  16.367  0.2621 -0.3416 -0.6062
 2718SOL     OW19615   3.610   1.904   6.893 -0.0268 -0.2465  0.0754
 2718SOL    HW119616   3.684   1.862   6.849 -0.6028 -0.1357 -1.0013
 2718SOL    HW219617   3.537   1.844   6.880  0.2591 -0.5845  0.0356
 2719SOL     OW19618   3.160   0.703  12.013 -0.0611  0.0501  0.3303
 2719SOL    HW119619   3.069   0.732  12.017  0.5080  1.8622  0.1952
 2719SOL    HW219620   3.200   0.790  12.024  0.4535 -0.3692  1.7572
 2720SOL     OW19621   2.397   4.391   6.512 -0.3843 -0.6153 -0.4109
 2720SOL    HW119622   2.368   4.465   6.565 -1.5744  0.0479 -1.9726
 2720SOL    HW219623   2.435   4.334   6.578  2.3237  0.8634 -0.6837
 2721SOL     OW19624   2.688   1.688  17.332  0.0708 -0.5226  0.1749
 2721SOL    HW119625   2.767   1.702  17.279  0.8026 -0.7829  1.1866
 2721SOL    HW219626   2.681   1.772  17.378  2.1560  0.3913 -1.1597
 2722SOL     OW19627   1.762   4.000  16.923  0.0311  0.0298  0.2788
 2722SOL    HW119628   1.719   3.919  16.950 -0.9595  0.7747  0.9379
 2722SOL    HW219629   1.852   3.974  16.904  0.0276  0.4159 -0.2586
 2723SOL     OW19630   3.800   1.753   6.101 -0.2486 -0.0061 -0.5373
 2723SOL    HW119631   3.755   1.798   6.029  0.2244 -0.4960 -1.1364
 2723SOL    HW219632   3.890   1.778   6.084  0.1851 -0.3962  1.2562
 2724SOL     OW19633   3.818   3.452   5.636  0.5101  0.5430  0.6970
 2724SOL    HW119634   3.831   3.431   5.543  0.8803  0.0432  0.8608
 2724SOL    HW219635   3.732   3.412   5.649 -0.3656  1.8522 -1.0785
 2725SOL     OW19636   1.593   3.378   4.167  0.4801 -0.2887  0.2145
 2725SOL    HW119637   1.573   3.289   4.136  0.9794 -0.3651  0.1093
 2725SOL    HW219638   1.666   3.392   4.107  0.5431  2.2161  0.8827
 2726SOL     OW19639   3.210   0.393   1.585 -0.2774  0.4201  0.4962
 2726SOL    HW119640   3.255   0.387   1.669 -1.1113 -1.7690  0.8080
 2726SOL    HW219641   3.234   0.316   1.534  0.5652 -0.7338  2.6703
 2727SOL     OW19642   0.883   1.132   5.610  0.3697 -0.0467  0.0156
 2727SOL    HW119643   0.883   1.041   5.640  0.6878 -0.3554 -0.9448
 2727SOL    HW219644   0.861   1.131   5.517  1.8434  1.8936 -0.3609
 2728SOL     OW19645   2.684   3.345   5.278  0.1269 -0.4540 -0.1183
 2728SOL    HW119646   2.707   3.350   5.185  0.7137 -0.5392  0.0237
 2728SOL    HW219647   2.753   3.386   5.330 -0.4977  0.5550 -0.0778
 2729SOL     OW19648   3.482   0.006   0.303  0.7411 -0.3348  0.3192
 2729SOL    HW119649   3.428   4.715   0.380  0.9602  2.7571  1.1237
 2729SOL    HW219650   3.471   0.100   0.290  1.0800 -0.3633 -0.1912
 2730SOL     OW19651   1.724   1.488   7.532 -0.6041 -0.3983  0.2917
 2730SOL    HW119652   1.779   1.424   7.577 -0.4678  0.1164  0.8562
 2730SOL    HW219653   1.640   1.467   7.572 -0.0594 -0.0988  1.5954
 2731SOL     OW19654   4.581   0.080   9.377 -0.0064  0.2493 -0.2338
 2731SOL    HW119655   4.627   0.004   9.411 -0.1506  1.3541  2.4075
 2731SOL    HW219656   4.608   0.142   9.445 -1.8789  0.8556 -0.0431
 2732SOL     OW19657   3.505   0.409  11.878  0.6170  0.8967  0.4849
 2732SOL    HW119658   3.539   0.462  11.951  0.3107 -1.2294  2.1660
 2732SOL    HW219659   3.427   0.464  11.869  0.4543  0.9231  2.0954
 2733SOL     OW19660   1.554   0.684   9.566  0.4278 -0.6826  0.2448
 2733SOL    HW119661   1.606   0.711   9.641 -0.2581 -2.0911  1.2296
 2733SOL    HW219662   1.624   0.657   9.506 -0.6039 -1.4803 -0.6165
 2734SOL     OW19663   0.949   4.574   3.942 -0.0326 -0.2756 -0.0149
 2734SOL    HW119664   0.955   4.490   3.987  3.0107  0.7982  1.5807
 2734SOL    HW219665   1.031   4.618   3.963  0.4786 -1.1264 -0.2633
 2735SOL     OW19666   2.344   2.971   0.522  0.2719 -0.1339 -0.1224
 2735SOL    HW119667   2.313   2.886   0.490 -0.6828  0.3871 -0.5796
 2735SOL    HW219668   2.426   2.987   0.476 -0.5525  0.5123 -1.3837
 2736SOL     OW19669   3.792   1.010   2.130  0.1214  0.4921 -0.0868
 2736SOL    HW119670   3.876   1.013   2.086  0.1954 -1.2399 -0.0507
 2736SOL    HW219671   3.793   0.917   2.154 -0.3743  0.7833  1.0540
 2737SOL     OW19672   1.573   3.252   3.709 -0.8774  0.0120 -0.2481
 2737SOL    HW119673   1.485   3.286   3.691 -1.4484 -0.3381  1.9698
 2737SOL    HW219674   1.565   3.234   3.802  0.0067 -1.1273 -0.3931
 2738SOL     OW19675   4.699   2.897   6.101  0.0424  0.1915  0.3104
 2738SOL    HW119676   0.031   2.828   6.133  0.3346 -0.0225 -0.6582
 2738SOL    HW219677   4.713   2.967   6.164  1.8111 -0.2314  0.3737
 2739SOL     OW19678   0.552   3.257  15.336  0.3736  0.3678 -0.1906
 2739SOL    HW119679   0.601   3.262  15.418  2.2958 -0.2683 -1.3122
 2739SOL    HW219680   0.512   3.170  15.338  1.3870 -0.1025 -0.3335
 2740SOL     OW19681   0.149   0.858   7.945 -0.8426 -0.2485  0.0665
 2740SOL    HW119682   0.239   0.885   7.964 -1.6391  2.4335 -0.0116
 2740SOL    HW219683   0.120   0.926   7.884  0.5125  0.8212  0.6377
 2741SOL     OW19684   2.898   2.546   5.544  0.3897  0.0634  0.0769
 2741SOL    HW119685   2.864   2.518   5.629 -0.2758  0.5409 -0.0303
 2741SOL    HW219686   2.954   2.621   5.566  1.4816 -1.0509  1.0262
 2742SOL     OW19687   3.424   2.830   4.864 -0.4033  0.4555 -0.3506
 2742SOL    HW119688   3.513   2.859   4.884  0.3645 -1.7090 -0.5880
 2742SOL    HW219689   3.394   2.802   4.951  3.6186  2.9494  1.8680
 2743SOL     OW19690   3.727   0.451   1.487  0.2827  0.2384  0.2344
 2743SOL    HW119691   3.701   0.530   1.441  0.1325 -0.0342 -0.1421
 2743SOL    HW219692   3.695   0.470   1.575 -1.2126 -0.8018 -0.0875
 2744SOL     OW19693   3.009   0.164   3.426 -0.1611 -0.2108  0.1734
 2744SOL    HW119694   3.020   0.098   3.358  2.1059  0.6609 -0.2869
 2744SOL    HW219695   2.980   0.237   3.371  1.2866  0.7229  0.6625
 2745SOL     OW19696   3.847   3.018  17.035 -0.2785 -0.0316  0.5031
 2745SOL    HW119697   3.765   3.066  17.045 -0.1602  0.4845 -1.0324
 2745SOL    HW219698   3.883   3.083  16.975  0.7281  0.7202  1.8972
 2746SOL     OW19699   0.586   4.710   9.142  0.0289  0.4005 -0.2701
 2746SOL    HW119700   0.643   4.676   9.211  0.1786  1.0212 -0.0853
 2746SOL    HW219701   0.597   4.651   9.068  0.0775 -1.1060  0.9466
 2747SOL     OW19702   2.110   2.712  13.437  0.0667 -0.2407 -0.1201
 2747SOL    HW119703   2.039   2.774  13.448  0.5952  0.3763 -0.1510
 2747SOL    HW219704   2.139   2.691  13.526  1.0054  2.0355  0.1239
 2748SOL     OW19705   1.059   3.996   9.298  0.3861 -0.0251 -0.5639
 2748SOL    HW119706   1.029   3.913   9.262 -0.4628  0.1744 -0.3122
 2748SOL    HW219707   1.093   3.960   9.380 -1.2777  0.4579  0.3432
 2749SOL     OW19708   4.198   4.400   7.146  0.8405 -0.4676  0.5118
 2749SOL    HW119709   4.285   4.383   7.108  1.3378  0.4680  1.2427
 2749SOL    HW219710   4.162   4.311   7.142 -0.1685 -0.0980  1.5634
 2750SOL     OW19711   2.509   1.293   3.834 -0.4011 -0.4965  0.5049
 2750SOL    HW119712   2.459   1.232   3.889 -1.0459  0.7074  1.2589
 2750SOL    HW219713   2.568   1.333   3.897  0.8546 -4.9185  2.1648
 2751SOL     OW19714   2.720   0.623  13.402 -0.2720  0.0413  0.2381
 2751SOL    HW119715   2.739   0.595  13.491 -2.4565  0.0214  0.7053
 2751SOL    HW219716   2.810   0.638  13.373 -0.1491 -0.1198  0.5326
 2752SOL     OW19717   3.050   3.551  10.518 -0.3194  0.3817 -0.1860
 2752SOL    HW119718   3.140   3.551  10.484  0.9245  1.9653  3.1476
 2752SOL    HW219719   3.067   3.557  10.612  1.4515 -0.0792 -0.4719
 2753SOL     OW19720   2.569   2.300   4.563  0.8263  0.1063  0.2695
 2753SOL    HW119721   2.502   2.275   4.500  0.0922 -0.7972  1.4142
 2753SOL    HW219722   2.641   2.265   4.510  1.0974  0.5904  0.3199
 2754SOL     OW19723   4.465   2.754   5.079 -0.5005 -0.6938 -0.0871
 2754SOL    HW119724   4.496   2.667   5.053  0.4511  0.8768 -4.2380
 2754SOL    HW219725   4.430   2.791   4.998 -1.3927 -0.7043  0.2842
 2755SOL     OW19726   3.408   3.111   5.418 -0.1363 -0.4373  0.3659
 2755SOL    HW119727   3.490   3.157   5.435 -0.3336 -0.5632  1.6179
 2755SOL    HW219728   3.365   3.178   5.364  2.4924  0.0082 -1.1944
 2756SOL     OW19729   3.048   1.064   3.989 -0.5687 -0.1258  0.2044
 2756SOL    HW119730   3.084   0.984   4.028 -2.6762 -1.0005  0.3817
 2756SOL    HW219731   3.124   1.098   3.942 -0.9168  1.0624  0.5045
 2757SOL     OW19732   1.923   2.703   2.724 -0.0149  0.4554  0.3673
 2757SOL    HW119733   1.843   2.696   2.671  1.7640 -0.3211 -2.2026
 2757SOL    HW219734   1.884   2.714   2.810 -1.4560 -0.8161 -0.1225
 2758SOL     OW19735   2.866   0.679   0.711  0.2006 -0.1541 -0.2968
 2758SOL    HW119736   2.864   0.589   0.743  0.6885  0.5433  1.7229
 2758SOL    HW219737   2.949   0.678   0.662  0.8617 -3.6803  0.9113
 2759SOL     OW19738   2.592   2.910  16.976 -0.6946 -0.0702  0.4953
 2759SOL    HW119739   2.521   2.958  16.933  2.3120  1.9823 -2.0730
 2759SOL    HW219740   2.567   2.826  16.938  0.6379 -0.5250  0.6353
 2760SOL     OW19741   3.678   2.008   3.778 -0.8367 -0.3294  0.0663
 2760SOL    HW119742   3.765   2.049   3.775 -0.2772 -1.3180  2.6417
 2760SOL    HW219743   3.687   1.921   3.816  2.9080  0.8726  2.0057
 2761SOL     OW19744   2.521   0.748   8.943 -0.4956 -0.1530 -0.1492
 2761SOL    HW119745   2.616   0.757   8.949 -0.0853 -3.3881 -2.0487
 2761SOL    HW219746   2.492   0.840   8.941  2.1416  0.6412 -2.7688
 2762SOL     OW19747   3.565   1.803  17.211 -0.1472  0.3608 -0.4450
 2762SOL    HW119748   3.654   1.836  17.194 -0.4064  1.8551  1.0841
 2762SOL    HW219749   3.562   1.786  17.305  0.9631  2.0510 -0.0933
 2763SOL     OW19750   1.228   3.990   5.585 -0.1816  0.4210  0.1784
 2763SOL    HW119751   1.270   4.019   5.504 -0.5057 -0.0194 -0.1508
 2763SOL    HW219752   1.305   3.960   5.632 -0.8547  0.2888  1.2156
 2764SOL     OW19753   4.039   0.671  12.304 -0.0234 -0.2986  0.2047
 2764SOL    HW119754   4.016   0.764  12.296 -1.0535 -0.7098 -1.5648
 2764SOL    HW219755   4.111   0.663  12.242 -0.4564  0.9806 -0.4846
 2765SOL     OW19756   4.313   2.176   7.745 -0.1425 -0.6082  0.1872
 2765SOL    HW119757   4.406   2.179   7.721 -0.4848 -1.2996 -1.2456
 2765SOL    HW219758   4.296   2.249   7.805 -0.9849  0.5094 -1.3950
 2766SOL     OW19759   1.168   2.624  10.914  0.0330 -0.1769  0.7171
 2766SOL    HW119760   1.171   2.719  10.915 -2.0723 -0.1056  0.1835
 2766SOL    HW219761   1.258   2.597  10.935  0.3040  0.1621 -0.0012
 2767SOL     OW19762   2.158   0.940  11.247  0.4903 -0.0453 -0.6489
 2767SOL    HW119763   2.081   0.887  11.223  0.4921 -0.1864 -0.3453
 2767SOL    HW219764   2.159   1.009  11.181  0.4258 -0.8259 -1.4818
 2768SOL     OW19765   2.510   1.768   4.936 -0.1948  0.0767 -0.1160
 2768SOL    HW119766   2.516   1.845   4.880  1.2414  1.1967  1.5893
 2768SOL    HW219767   2.461   1.707   4.882  1.3429  0.0155 -1.4431
 2769SOL     OW19768   4.350   1.154   0.439  0.2726  0.0588 -0.0704
 2769SOL    HW119769   4.420   1.191   0.385  0.2191 -1.3821 -1.1465
 2769SOL    HW219770   4.267   1.184   0.403  0.3840 -1.1095 -1.3288
 2770SOL     OW19771   0.223   1.154   5.602  0.3504 -0.0429 -0.4169
 2770SOL    HW119772   0.214   1.195   5.688  2.4647 -2.6058  1.0251
 2770SOL    HW219773   0.302   1.200   5.573 -0.5535  0.1785 -2.5135
 2771SOL     OW19774   3.235   0.481   7.482  0.1247 -0.2559 -0.0744
 2771SOL    HW119775   3.153   0.501   7.528  0.9283  0.3890  1.0697
 2771SOL    HW219776   3.212   0.519   7.397 -2.5825 -1.6490  0.0151
 2772SOL     OW19777   4.700   2.219   4.030  0.0104  0.4362 -0.1637
 2772SOL    HW119778   4.718   2.302   3.985 -0.5214 -0.6873 -2.4275
 2772SOL    HW219779   0.055   2.172   4.011 -1.2560 -1.9111  0.2948
 2773SOL     OW19780   0.758   1.015   9.164  0.3452 -0.0386 -0.0081
 2773SOL    HW119781   0.680   0.971   9.197 -0.1026  2.4758  2.2209
 2773SOL    HW219782   0.816   0.993   9.236 -0.3115  1.0705  0.8527
 2774SOL     OW19783   3.336   1.548   0.739  0.1292 -0.3157  0.2678
 2774SOL    HW119784   3.257   1.567   0.789  0.8085 -0.2508  1.3197
 2774SOL    HW219785   3.390   1.627   0.735  0.0386 -0.1035  3.8610
 2775SOL     OW19786   4.185   2.570  15.510 -0.9545  0.4424  0.5754
 2775SOL    HW119787   4.237   2.495  15.480 -1.5597  0.0624  0.4771
 2775SOL    HW219788   4.112   2.525  15.553 -0.6543 -2.2048 -1.6917
 2776SOL     OW19789   3.324   3.269  11.857 -0.1443  0.2230 -0.1685
 2776SOL    HW119790   3.304   3.266  11.951 -2.8343 -0.0220 -0.7585
 2776SOL    HW219791   3.299   3.183  11.824  1.0128  0.3127 -1.2834
 2777SOL     OW19792   3.982   3.282   8.206 -0.1128  0.3612 -0.0092
 2777SOL    HW119793   4.015   3.197   8.176 -0.3153 -0.1967  1.3517
 2777SOL    HW219794   3.949   3.320   8.125  0.7047 -0.3405 -0.6807
 2778SOL     OW19795   2.471   2.815  10.466 -0.0903 -0.7965 -0.3596
 2778SOL    HW119796   2.534   2.851  10.403 -2.2648  2.2311 -0.8101
 2778SOL    HW219797   2.388   2.805  10.420 -0.3626 -0.0130 -0.0454
 2779SOL     OW19798   1.940   0.713   8.360 -0.2028 -0.0726  0.1686
 2779SOL    HW119799   2.029   0.742   8.339 -0.0747 -1.1559 -0.7915
 2779SOL    HW219800   1.947   0.618   8.367  0.5777 -0.2177 -2.6106
 2780SOL     OW19801   2.999   1.082   1.883 -0.4430 -0.0876  0.1616
 2780SOL    HW119802   3.071   1.028   1.848  0.2228  2.0268 -1.7305
 2780SOL    HW219803   3.033   1.171   1.887  1.0144 -0.5722 -1.4330
 2781SOL     OW19804   4.202   0.209   2.106 -0.0741 -0.0926 -0.3929
 2781SOL    HW119805   4.196   0.171   2.018 -0.8570  0.1328 -0.4290
 2781SOL    HW219806   4.286   0.174   2.137 -1.7006 -0.2991  3.7470
 2782SOL     OW19807   3.303   3.277   2.102 -0.0453  0.0680 -0.0468
 2782SOL    HW119808   3.321   3.205   2.162 -3.6152 -0.1645  0.7027
 2782SOL    HW219809   3.380   3.331   2.120  1.3890 -2.0757  0.3016
 2783SOL     OW19810   1.015   4.433   6.602 -0.2032  0.1220  0.1701
 2783SOL    HW119811   1.074   4.361   6.580 -0.8695 -0.0912 -0.8971
 2783SOL    HW219812   1.086   4.497   6.606 -2.3921  2.6814 -2.4885
 2784SOL     OW19813   1.798   2.165   6.692 -0.1753  0.0735 -0.4890
 2784SOL    HW119814   1.817   2.084   6.646 -0.7267 -0.8282  0.8888
 2784SOL    HW219815   1.875   2.219   6.670 -0.8315  1.1850 -0.0649
 2785SOL     OW19816   2.630   2.742   3.455  0.2745  0.0889  0.2427
 2785SOL    HW119817   2.714   2.723   3.497  0.0321 -0.0066  0.6737
 2785SOL    HW219818   2.641   2.704   3.368  1.5664  0.2517  0.3343
 2786SOL     OW19819   0.717   2.893   2.903 -0.1931  0.1119 -0.7450
 2786SOL    HW119820   0.698   2.823   2.966 -2.6037  0.7630 -0.7353
 2786SOL    HW219821   0.637   2.944   2.914  0.0059  0.3624 -0.4612
 2787SOL     OW19822   3.114   4.574  11.591 -0.8351  0.4862 -0.2198
 2787SOL    HW119823   3.100   4.562  11.685 -1.5957 -1.2512 -0.5531
 2787SOL    HW219824   3.082   4.489  11.561 -0.1856 -0.0960  0.6998
 2788SOL     OW19825   3.210   0.563  16.859  0.5398 -0.2390  0.5398
 2788SOL    HW119826   3.157   0.507  16.916 -0.2962  0.1172  0.1078
 2788SOL    HW219827   3.183   0.514  16.782  2.0769  2.1445 -1.4776
 2789SOL     OW19828   1.858   3.478   3.596  0.5650  0.0393  0.4802
 2789SOL    HW119829   1.909   3.559   3.603  2.9396 -1.3636 -0.4706
 2789SOL    HW219830   1.793   3.494   3.528  0.2904  2.7501  1.4024
 2790SOL     OW19831   3.393   2.539   4.807 -0.0769  0.5434  0.7657
 2790SOL    HW119832   3.463   2.484   4.842  1.4839  1.0058 -1.6642
 2790SOL    HW219833   3.416   2.627   4.837  0.0618  1.0507 -0.8449
 2791SOL     OW19834   0.469   0.525   8.450  0.7036  0.2034  0.2012
 2791SOL    HW119835   0.440   0.447   8.403 -1.0410 -0.3086  2.1364
 2791SOL    HW219836   0.415   0.520   8.528  0.9569  2.8975  0.5596
 2792SOL     OW19837   0.527   1.397  14.983  0.4632  0.2610 -0.3659
 2792SOL    HW119838   0.581   1.348  15.046  1.7290  1.5650 -0.4291
 2792SOL    HW219839   0.439   1.366  15.004  0.5489  0.4438  0.2397
 2793SOL     OW19840   1.855   0.432  16.115  0.2018  0.2102 -0.0235
 2793SOL    HW119841   1.868   0.338  16.125  0.0298  0.0984 -0.8758
 2793SOL    HW219842   1.844   0.470  16.202  0.4773 -2.0512  1.0006
 2794SOL     OW19843   1.688   0.136   7.881 -0.1565  0.3599 -0.5098
 2794SOL    HW119844   1.781   0.122   7.898 -0.3366 -0.3008 -0.1025
 2794SOL    HW219845   1.691   0.227   7.851 -1.3124  1.1595  1.7952
 2795SOL     OW19846   0.223   3.761   6.896  0.2932  0.4535  0.1720
 2795SOL    HW119847   0.227   3.785   6.988  2.1364  0.7435  0.0211
 2795SOL    HW219848   0.239   3.667   6.905  1.9396  0.8140  0.9396
 2796SOL     OW19849   2.688   4.134   8.700 -0.3146 -0.0650 -0.3676
 2796SOL    HW119850   2.647   4.124   8.786 -1.3757  1.6915 -0.6692
 2796SOL    HW219851   2.611   4.136   8.643  0.5019 -2.2206 -1.5611
 2797SOL     OW19852   4.303   3.348   4.733  0.4343  0.0167 -0.3918
 2797SOL    HW119853   4.362   3.276   4.713  1.8842  1.0902 -0.0112
 2797SOL    HW219854   4.285   3.375   4.643  0.6533 -0.1816 -0.4919
 2798SOL     OW19855   0.076   0.963   3.764  0.3326  0.4744  0.4266
 2798SOL    HW119856   0.099   0.918   3.845  0.5749 -1.2295 -0.5997
 2798SOL    HW219857   0.080   1.053   3.797  1.1954  0.9085 -0.8860
 2799SOL     OW19858   0.145   4.380  14.992  0.0119 -0.6941 -0.2014
 2799SOL    HW119859   0.070   4.440  14.996  0.9335  0.4875 -0.7199
 2799SOL    HW219860   0.182   4.393  15.079 -1.4063 -0.2363  0.3295
 2800SOL     OW19861   4.431   3.050   9.329 -0.5680  0.4664  0.2320
 2800SOL    HW119862   4.378   3.127   9.350 -3.3080 -2.0646  2.4659
 2800SOL    HW219863   4.361   2.999   9.289  0.1882  1.3423 -2.2260
 2801SOL     OW19864   1.866   2.252   2.753  0.0263  0.6748  0.0964
 2801SOL    HW119865   1.903   2.182   2.808  0.4924 -0.0981 -1.1925
 2801SOL    HW219866   1.795   2.201   2.714  1.1596 -0.6283 -0.2774
 2802SOL     OW19867   1.779   0.193  10.270 -0.7911 -0.0907 -0.3530
 2802SOL    HW119868   1.822   0.107  10.276  0.4768  0.6867  2.1487
 2802SOL    HW219869   1.793   0.239  10.353  0.7109  0.9712 -1.1865
 2803SOL     OW19870   3.198   3.835  10.433 -0.5064  0.1446 -0.3853
 2803SOL    HW119871   3.242   3.754  10.408  3.3246  2.1981 -0.2339
 2803SOL    HW219872   3.232   3.849  10.522 -1.5028 -2.6573  0.4306
 2804SOL     OW19873   0.479   0.153   2.338 -0.2945  0.1763  0.3869
 2804SOL    HW119874   0.391   0.169   2.371 -0.5400 -0.4038  0.0196
 2804SOL    HW219875   0.479   0.057   2.340  2.5692  0.2190  1.8294
 2805SOL     OW19876   1.510   1.295   5.882  0.1714  0.4531 -0.2360
 2805SOL    HW119877   1.515   1.255   5.969 -0.8491  0.7878 -0.0300
 2805SOL    HW219878   1.519   1.219   5.824 -2.9151  0.8139 -1.1771
 2806SOL     OW19879   3.962   2.101  16.764  0.0114  0.0551 -0.7573
 2806SOL    HW119880   4.026   2.044  16.721 -0.8965  0.4698 -2.6257
 2806SOL    HW219881   3.943   2.045  16.839  0.8292  1.3761  0.4337
 2807SOL     OW19882   0.403   2.031   5.304  0.0116  0.2278 -0.2340
 2807SOL    HW119883   0.419   2.068   5.217  2.4231  0.0777  0.1487
 2807SOL    HW219884   0.320   1.985   5.289  0.2956 -0.4842  0.3522
 2808SOL     OW19885   1.378   1.275   6.877  0.4157 -0.3504  0.4703
 2808SOL    HW119886   1.392   1.181   6.879 -0.3217 -0.4754 -0.0255
 2808SOL    HW219887   1.318   1.270   6.802  2.2775  1.0111 -1.0974
 2809SOL     OW19888   0.768   1.164   2.932 -0.0586  0.2388  0.5115
 2809SOL    HW119889   0.740   1.254   2.943  0.6546  0.6575 -1.0647
 2809SOL    HW219890   0.855   1.176   2.893  0.2911  0.9730  1.5159
 2810SOL     OW19891   1.376   2.155   9.215 -0.1120 -0.2081 -0.0016
 2810SOL    HW119892   1.280   2.162   9.222 -0.2340 -1.2332 -0.5404
 2810SOL    HW219893   1.403   2.072   9.253 -1.8129 -0.6304  0.3046
 2811SOL     OW19894   4.294   1.129  16.076 -0.3658  0.2336  0.2154
 2811SOL    HW119895   4.324   1.120  15.986 -2.7700  2.1556 -0.7829
 2811SOL    HW219896   4.274   1.221  16.093 -1.8361 -0.1790  0.7622
 2812SOL     OW19897   1.214   0.432   5.203  0.1916  0.3983  0.4386
 2812SOL    HW119898   1.197   0.471   5.289 -1.1819  0.8750 -0.0512
 2812SOL    HW219899   1.257   0.500   5.151  1.3846 -0.8082 -0.1430
 2813SOL     OW19900   0.890   0.612   7.378 -0.1758  0.0294 -0.2621
 2813SOL    HW119901   0.859   0.692   7.421  1.0879  0.8019 -0.7662
 2813SOL    HW219902   0.977   0.607   7.417 -0.9324 -1.1365  1.2924
 2814SOL     OW19903   1.994   3.969   1.588 -0.1871 -0.2175 -0.8207
 2814SOL    HW119904   2.015   3.879   1.563  2.4729 -0.2191  1.4434
 2814SOL    HW219905   2.057   4.021   1.538 -1.1163  2.3017  0.5929
 2815SOL     OW19906   0.081   0.602   3.791 -0.1585 -0.0715  0.3991
 2815SOL    HW119907   0.092   0.514   3.827 -1.8856 -1.2686 -2.0220
 2815SOL    HW219908   0.017   0.600   3.720 -1.2388  2.4813  1.3170
 2816SOL     OW19909   1.770   0.098   9.404  0.2985  0.5379  0.0378
 2816SOL    HW119910   1.698   0.127   9.460  0.3162  4.0920 -1.7741
 2816SOL    HW219911   1.803   0.022   9.452 -1.4803 -0.8482 -0.9561
 2817SOL     OW19912   2.161   4.394   4.392 -0.5944 -0.6103 -0.1723
 2817SOL    HW119913   2.165   4.368   4.484  0.3277 -0.1125 -0.0730
 2817SOL    HW219914   2.136   4.486   4.391  1.6813  0.0107  1.1919
 2818SOL     OW19915   1.699   0.318   8.398 -0.5089  0.0700 -0.3112
 2818SOL    HW119916   1.630   0.353   8.340 -3.1382 -1.0567  2.1590
 2818SOL    HW219917   1.674   0.226   8.393 -1.7773  0.2911  2.2951
 2819SOL     OW19918   4.464   2.916   7.839 -0.4003  0.8306  0.2783
 2819SOL    HW119919   4.427   2.960   7.915 -0.6324  1.1116  0.0044
 2819SOL    HW219920   4.523   2.984   7.806 -0.2044  0.3983 -0.2718
 2820SOL     OW19921   3.540   1.402  11.077  0.1199  0.1737 -0.4643
 2820SOL    HW119922   3.550   1.436  11.166 -2.4573 -0.5685  0.1266
 2820SOL    HW219923   3.444   1.406  11.078  0.1775  1.5106 -0.3688
 2821SOL     OW19924   3.628   2.604   2.196 -0.3226 -0.2480 -0.4079
 2821SOL    HW119925   3.623   2.628   2.104  1.2465 -1.2414 -0.7642
 2821SOL    HW219926   3.544   2.565   2.221 -0.7775 -0.1550 -1.7786
 2822SOL     OW19927   0.096   1.784  12.098 -0.8246  0.2818 -0.3254
 2822SOL    HW119928   0.150   1.719  12.053 -0.3441 -0.6847  1.6447
 2822SOL    HW219929   0.027   1.728  12.134  0.8512 -1.9166 -0.5317
 2823SOL     OW19930   1.641   1.823  10.417 -0.0161 -0.1259  0.2641
 2823SOL    HW119931   1.675   1.810  10.328  2.0074  2.7888  0.5929
 2823SOL    HW219932   1.660   1.916  10.430  2.5625 -0.8771  1.7323
 2824SOL     OW19933   1.164   4.553  10.167  0.0168 -0.2218  0.2340
 2824SOL    HW119934   1.155   4.576  10.075  1.7362  1.1655  0.4015
 2824SOL    HW219935   1.078   4.523  10.195 -0.8405  1.6167 -0.4139
 2825SOL     OW19936   3.147   3.295  17.539  0.7262  0.1333  0.5189
 2825SOL    HW119937   3.138   3.342  17.456 -0.6774 -0.6941  0.2226
 2825SOL    HW219938   3.192   3.217  17.507 -0.2029 -0.3364  0.3690
 2826SOL     OW19939   1.054   4.357  11.644  0.0497  0.3158 -0.0211
 2826SOL    HW119940   0.982   4.382  11.587  1.2350  4.2869  0.1830
 2826SOL    HW219941   1.112   4.432  11.630  1.7037 -1.0963 -0.8163
 2827SOL     OW19942   3.298   4.627   5.552  0.3344 -0.1194 -0.2956
 2827SOL    HW119943   3.235   4.684   5.596  0.9986  0.0918  0.3658
 2827SOL    HW219944   3.287   4.539   5.589  2.1696 -1.1687 -2.2551
 2828SOL     OW19945   2.829   3.336  13.173 -0.3758 -0.7132 -0.6212
 2828SOL    HW119946   2.798   3.359  13.085 -2.0619  0.1566  0.2024
 2828SOL    HW219947   2.754   3.291  13.212 -0.1547 -0.5297  0.0160
 2829SOL     OW19948   1.987   4.182   3.217  0.8320  0.1314  0.2503
 2829SOL    HW119949   1.909   4.211   3.170  0.5235  0.5516  1.0169
 2829SOL    HW219950   2.031   4.264   3.193  1.3589  0.2312  1.5605
 2830SOL     OW19951   3.133   1.717   2.334 -0.6417 -0.7636  0.4304
 2830SOL    HW119952   3.225   1.736   2.315 -0.7576  1.0219  1.6042
 2830SOL    HW219953   3.147   1.638   2.385 -1.0275  0.0171  1.7635
 2831SOL     OW19954   4.676   1.920   0.273  0.2586  0.4978  0.0943
 2831SOL    HW119955   0.025   1.974   0.246  0.4538 -0.5814 -1.5134
 2831SOL    HW219956   4.621   1.980   0.222 -0.7674  0.3896  1.0762
 2832SOL     OW19957   0.299   1.740   5.394  0.3816 -0.0604 -0.2359
 2832SOL    HW119958   0.291   1.652   5.432 -3.4260  1.0715  1.6553
 2832SOL    HW219959   0.210   1.749   5.361 -0.0070 -1.5542  0.4139
 2833SOL     OW19960   2.726   2.231   5.380 -0.0770  0.3923  0.2425
 2833SOL    HW119961   2.675   2.237   5.299 -0.1618  0.5992  0.3095
 2833SOL    HW219962   2.724   2.139   5.406  0.5570  0.3579  0.1740
 2834SOL     OW19963   1.750   3.761   4.869  0.2319  0.3056  0.3643
 2834SOL    HW119964   1.764   3.696   4.938 -0.4598 -0.6770 -0.4436
 2834SOL    HW219965   1.660   3.745   4.841  0.7414 -0.7841 -0.6236
 2835SOL     OW19966   3.293   1.383   5.649  0.4164  0.4073 -0.1709
 2835SOL    HW119967   3.349   1.324   5.598 -0.8311 -1.5379  0.6798
 2835SOL    HW219968   3.208   1.378   5.605 -0.8575  0.8872  2.1906
 2836SOL     OW19969   2.838   1.416   8.622  0.1175  0.1023  0.1920
 2836SOL    HW119970   2.901   1.413   8.551 -1.2124  0.6029 -1.0135
 2836SOL    HW219971   2.850   1.333   8.667  2.7295 -0.8294 -2.2108
 2837SOL     OW19972   1.430   2.753   5.998 -0.1273 -0.3444  0.6515
 2837SOL    HW119973   1.412   2.659   6.003 -0.9031 -0.2202  0.2634
 2837SOL    HW219974   1.475   2.751   5.913 -0.6155 -0.6776  0.3950
 2838SOL     OW19975   0.055   4.652   1.399 -0.1533 -0.1790 -0.5413
 2838SOL    HW119976   4.704   4.699   1.367 -0.9092 -0.2348  1.1658
 2838SOL    HW219977   0.021   4.563   1.399  0.2975 -0.3602  1.6150
 2839SOL     OW19978   4.720   0.620   9.590  0.2879 -0.2222  0.3718
 2839SOL    HW119979   4.676   0.552   9.539  2.3068 -0.6482 -0.8248
 2839SOL    HW219980   0.006   0.690   9.526  0.1110  2.0560  2.8473
 2840SOL     OW19981   1.470   1.470   5.251  0.3802  0.1123 -0.7535
 2840SOL    HW119982   1.527   1.411   5.201 -1.5677 -1.4081 -1.2097
 2840SOL    HW219983   1.390   1.418   5.258 -0.3835  1.9648  4.1479
 2841SOL     OW19984   3.507   3.134   8.609  0.5223 -0.2055  0.4613
 2841SOL    HW119985   3.590   3.176   8.632 -0.3343  1.3866  0.6305
 2841SOL    HW219986   3.491   3.083   8.688  1.8691  0.6109  1.2656
 2842SOL     OW19987   0.657   1.938  11.610 -0.6758 -0.4419  0.5095
 2842SOL    HW119988   0.688   1.906  11.525  1.4510 -1.0043  1.5186
 2842SOL    HW219989   0.566   1.908  11.603 -0.7315  0.2336 -1.8784
 2843SOL     OW19990   1.971   4.144   4.627  0.1996  0.1175 -0.1226
 2843SOL    HW119991   2.060   4.108   4.631  0.2540  0.2276 -0.3462
 2843SOL    HW219992   1.927   4.065   4.595  0.0195  1.1748 -2.5217
 2844SOL     OW19993   0.412   1.600   2.669  0.0128 -0.5378  0.3901
 2844SOL    HW119994   0.347   1.616   2.601  1.0389  0.4894 -0.3533
 2844SOL    HW219995   0.460   1.678   2.638  0.2468 -0.7794  0.1437
 2845SOL     OW19996   4.112   4.052   5.946 -0.0270  0.7150 -0.5047
 2845SOL    HW119997   4.152   4.108   5.879  0.5386 -0.4266 -1.1058
 2845SOL    HW219998   4.141   4.100   6.024  0.1386 -0.9421  0.4308
 2846SOL     OW19999   2.678   0.200   2.145 -0.0827 -0.3058  0.4751
 2846SOL    HW120000   2.747   0.134   2.139 -3.1576 -3.5221  0.6251
 2846SOL    HW220001   2.611   0.136   2.121 -0.0415  0.5142 -1.9018
 2847SOL     OW20002   3.983   0.538  13.339 -0.2205  0.4954  0.8685
 2847SOL    HW120003   3.945   0.507  13.256 -2.0809  1.5496  1.3351
 2847SOL    HW220004   4.076   0.515  13.332  0.3934  2.2952  3.1012
 2848SOL     OW20005   1.709   0.154  15.023  0.4632  0.2129 -0.0626
 2848SOL    HW120006   1.614   0.171  15.024  0.5235  0.7436 -2.6385
 2848SOL    HW220007   1.718   0.189  14.934 -2.2101  0.3448 -0.2883
 2849SOL     OW20008   3.372   0.577  10.673  0.2767  0.5404  0.2045
 2849SOL    HW120009   3.389   0.672  10.672  0.3299  0.5371  0.8685
 2849SOL    HW220010   3.292   0.577  10.621 -0.7353  1.0776  1.7720
 2850SOL     OW20011   4.563   0.091   1.686 -0.0013  0.6170 -0.0838
 2850SOL    HW120012   4.533   0.065   1.598  2.2018 -1.1371 -0.2937
 2850SOL    HW220013   4.568   0.005   1.726  0.6362  0.7191  0.0537
 2851SOL     OW20014   1.882   0.720   4.034  0.0629  0.1996  0.1831
 2851SOL    HW120015   1.891   0.664   4.111  0.1314 -0.6368 -0.4319
 2851SOL    HW220016   1.945   0.668   3.983 -0.4047  1.2091 -1.4436
 2852SOL     OW20017   3.653   2.454   8.027  0.9429  0.1657 -0.3156
 2852SOL    HW120018   3.587   2.456   8.097  0.9357 -0.0234 -0.3165
 2852SOL    HW220019   3.605   2.397   7.967  1.6054 -0.5489 -0.1684
 2853SOL     OW20020   4.011   2.435   3.760 -0.1314 -0.5283  0.2866
 2853SOL    HW120021   3.998   2.495   3.687  2.8965 -0.7722 -0.4364
 2853SOL    HW220022   4.092   2.391   3.735  0.0584  0.1364 -0.2728
 2854SOL     OW20023   0.853   2.886   2.651 -0.1035 -0.5790  0.6649
 2854SOL    HW120024   0.803   2.912   2.728 -1.7441 -1.1521 -0.2019
 2854SOL    HW220025   0.781   2.851   2.599 -0.3261  1.2997 -0.2915
 2855SOL     OW20026   1.583   1.445  10.697  0.7958 -0.0661 -0.9879
 2855SOL    HW120027   1.605   1.485  10.613  1.8292 -0.4452 -0.9009
 2855SOL    HW220028   1.551   1.358  10.674 -0.1983 -0.0159  0.2119
 2856SOL     OW20029   2.837   4.614   5.454 -0.8335  0.5099  0.0046
 2856SOL    HW120030   2.760   4.670   5.440  0.4134  2.1398 -0.3217
 2856SOL    HW220031   2.886   4.651   5.527  0.2323 -1.0333  0.0787
 2857SOL     OW20032   2.436   0.619   1.386 -0.1393  0.0620  0.0074
 2857SOL    HW120033   2.441   0.526   1.365  1.0574  0.5661 -1.9272
 2857SOL    HW220034   2.350   0.648   1.354  0.6526  3.2503  0.7428
 2858SOL     OW20035   1.332   1.485   8.150  0.4381  0.4007  0.5467
 2858SOL    HW120036   1.406   1.452   8.201  1.7721  1.7255 -0.5402
 2858SOL    HW220037   1.378   1.550   8.097  0.7623  0.2717  0.6677
 2859SOL     OW20038   3.537   1.968   5.673  0.3604  0.3929 -0.5819
 2859SOL    HW120039   3.449   1.983   5.708  0.7553 -0.3421  0.7218
 2859SOL    HW220040   3.525   1.888   5.622 -0.0894  0.2354 -0.2209
 2860SOL     OW20041   0.392   1.704   7.179 -0.3068  0.2052 -0.1280
 2860SOL    HW120042   0.381   1.777   7.117  1.6182  1.4212  0.9733
 2860SOL    HW220043   0.299   1.685   7.195 -0.8433  1.2973 -1.8948
 2861SOL     OW20044   2.827   1.571   0.354 -0.3955  0.5618  0.3639
 2861SOL    HW120045   2.917   1.594   0.379 -0.1542 -0.0040  0.0050
 2861SOL    HW220046   2.837   1.515   0.278  2.8842  2.2587 -0.4515
 2862SOL     OW20047   0.283   1.630   1.998  0.1856 -0.0754 -0.4507
 2862SOL    HW120048   0.276   1.614   1.903  1.7374  1.7537 -0.8788
 2862SOL    HW220049   0.357   1.572   2.019  0.1519  0.1382  0.2374
 2863SOL     OW20050   3.360   0.732  17.419  0.5394 -0.0014 -0.4595
 2863SOL    HW120051   3.422   0.794  17.458  0.2078 -0.4779  0.8471
 2863SOL    HW220052   3.299   0.784  17.367 -1.1458 -0.8575  0.6681
 2864SOL     OW20053   4.120   3.437  10.026  0.5258 -0.3462  0.0934
 2864SOL    HW120054   4.186   3.377   9.991  0.7845 -0.4604  0.7636
 2864SOL    HW220055   4.137   3.419  10.119  1.4768  0.5213  0.0956
 2865SOL     OW20056   1.760   3.846  17.272  0.1401 -0.2801  0.2407
 2865SOL    HW120057   1.698   3.917  17.291 -0.2785 -0.3224 -0.9481
 2865SOL    HW220058   1.730   3.815  17.186 -0.9322  0.6242  0.2897
 2866SOL     OW20059   1.077   0.357  14.848 -0.0162 -0.2145  0.3507
 2866SOL    HW120060   1.012   0.426  14.861 -0.4120 -0.1860 -1.8361
 2866SOL    HW220061   1.104   0.333  14.937 -0.7381  0.2651  0.7049
 2867SOL     OW20062   0.122   0.762   9.962 -0.4679  0.0533 -0.3628
 2867SOL    HW120063   0.040   0.719   9.938 -1.0958  0.9370  0.1861
 2867SOL    HW220064   0.184   0.691   9.948 -0.9691 -0.5029  0.2037
 2868SOL     OW20065   2.781   2.654  14.609 -0.2640  0.4344 -0.0404
 2868SOL    HW120066   2.773   2.574  14.662  2.0190 -0.4467 -1.0398
 2868SOL    HW220067   2.793   2.622  14.520 -1.2243  0.3066 -0.1262
 2869SOL     OW20068   1.659   1.981   3.098  0.1744  0.6505  0.1793
 2869SOL    HW120069   1.565   1.970   3.083  0.0635  1.5910  0.1916
 2869SOL    HW220070   1.683   1.925   3.171 -0.9457 -0.2803 -0.1709
 2870SOL     OW20071   4.256   3.873   4.970 -0.2466  0.2892 -0.1905
 2870SOL    HW120072   4.236   3.785   4.938 -0.5243  0.6786 -1.0771
 2870SOL    HW220073   4.306   3.863   5.051 -0.9039  0.5489  0.2510
 2871SOL     OW20074   0.503   2.266   4.550 -0.5406  0.1071  0.2267
 2871SOL    HW120075   0.448   2.238   4.623 -1.7252 -2.8731 -1.7855
 2871SOL    HW220076   0.481   2.359   4.560  0.4259  0.5261 -1.4844
 2872SOL     OW20077   4.011   0.721   5.986 -0.3299  0.7396  0.2468
 2872SOL    HW120078   3.991   0.639   6.032 -0.7371  0.4223 -0.4801
 2872SOL    HW220079   3.928   0.721   5.937  0.3025  2.3438 -0.8168
 2873SOL     OW20080   2.405   1.804   0.633 -0.3018 -0.4370 -0.3726
 2873SOL    HW120081   2.446   1.750   0.565  0.3874  0.5900 -0.7768
 2873SOL    HW220082   2.334   1.747   0.660 -0.1226 -0.1253  0.7692
 2874SOL     OW20083   4.185   3.097  12.730 -0.1710 -0.3952  0.0361
 2874SOL    HW120084   4.274   3.067  12.713 -1.2150 -2.2097 -2.2332
 2874SOL    HW220085   4.199   3.148  12.810 -0.7190 -0.1635 -0.0111
 2875SOL     OW20086   3.760   2.396   5.985 -0.3385  0.0259  0.2241
 2875SOL    HW120087   3.760   2.361   5.896 -1.9960  0.5910 -0.0014
 2875SOL    HW220088   3.832   2.458   5.987  0.3152 -0.6754 -1.8045
 2876SOL     OW20089   1.756   0.581   8.963  0.3772 -0.1970  0.4436
 2876SOL    HW120090   1.667   0.572   8.928  0.6561 -0.0189 -0.3148
 2876SOL    HW220091   1.812   0.544   8.895 -0.1248 -1.4310  0.7034
 2877SOL     OW20092   4.382   1.158   6.668  0.1192  0.1099  0.3706
 2877SOL    HW120093   4.415   1.224   6.608 -0.1944 -1.6462 -1.7391
 2877SOL    HW220094   4.303   1.203   6.696 -0.0814  0.7503 -1.2001
 2878SOL     OW20095   4.036   2.159   9.812  0.4797 -0.3411 -0.2228
 2878SOL    HW120096   4.048   2.254   9.814 -3.1534  0.0713  0.6368
 2878SOL    HW220097   4.003   2.153   9.722 -2.6201  0.2347  0.9098
 2879SOL     OW20098   1.075   2.984   7.695  0.0291 -0.3207 -0.1228
 2879SOL    HW120099   1.065   2.895   7.660 -2.7998  0.7757 -2.0662
 2879SOL    HW220100   1.080   3.042   7.619 -1.4373  0.4266  0.3578
 2880SOL     OW20101   3.824   1.664  14.585 -0.3594 -0.1187 -0.6871
 2880SOL    HW120102   3.907   1.710  14.600 -1.3443  0.5506  2.6370
 2880SOL    HW220103   3.757   1.713  14.634  1.4460  1.9951 -0.3287
 2881SOL     OW20104   4.574   3.320   2.295 -0.1487  0.0852 -0.1605
 2881SOL    HW120105   4.560   3.274   2.378  0.2087  0.0499 -0.1181
 2881SOL    HW220106   4.531   3.264   2.231  0.6932  0.1817 -0.8205
 2882SOL     OW20107   3.741   0.558  12.627  0.4158 -0.0848  0.6411
 2882SOL    HW120108   3.699   0.488  12.576 -1.3549  1.1512  0.4089
 2882SOL    HW220109   3.737   0.522  12.715 -0.4996 -0.9223  0.2569
 2883SOL     OW20110   4.007   1.844  13.996 -0.0423 -0.0475  0.2219
 2883SOL    HW120111   4.073   1.789  13.954  0.1057  0.3437 -0.0607
 2883SOL    HW220112   3.934   1.785  14.013 -0.9471  1.0974  0.3339
 2884SOL     OW20113   0.345   4.638   9.231 -0.1503  0.1997 -0.5431
 2884SOL    HW120114   0.420   4.692   9.207  0.8845 -0.2382  1.7118
 2884SOL    HW220115   0.290   4.637   9.152 -0.8727 -3.6648 -0.0159
 2885SOL     OW20116   3.943   0.465   2.966 -0.1787 -0.1309 -0.3177
 2885SOL    HW120117   3.986   0.550   2.957 -0.2600 -0.3332 -2.6398
 2885SOL    HW220118   4.019   0.410   2.987  2.0521  3.2937  0.6519
 2886SOL     OW20119   3.641   4.591   7.169 -0.0290 -0.5046 -0.2973
 2886SOL    HW120120   3.661   4.520   7.231  3.3019 -0.6293 -1.4796
 2886SOL    HW220121   3.684   4.667   7.208 -2.9270  1.7741 -1.6354
 2887SOL     OW20122   0.669   4.216   0.193 -0.1320  0.5363  0.2573
 2887SOL    HW120123   0.755   4.258   0.194  0.2912 -0.3130 -0.3331
 2887SOL    HW220124   0.651   4.176   0.278  2.0070  0.8122  0.8190
 2888SOL     OW20125   3.523   3.508  10.981  0.3383  0.0369 -0.4140
 2888SOL    HW120126   3.479   3.552  11.054  1.6494  1.4780 -0.4721
 2888SOL    HW220127   3.536   3.420  11.014  0.8223 -0.2159 -1.2703
 2889SOL     OW20128   2.865   1.047   1.471 -0.0994  0.0456  0.0568
 2889SOL    HW120129   2.947   1.084   1.506  0.9336 -1.5972 -0.6308
 2889SOL    HW220130   2.884   0.954   1.466  0.9847  0.1895  1.4741
 2890SOL     OW20131   2.967   2.261   4.640 -0.0675 -0.7540 -0.2341
 2890SOL    HW120132   2.965   2.240   4.733  0.4291 -1.6945 -0.4448
 2890SOL    HW220133   3.045   2.313   4.620 -1.0940  1.3288  1.1286
 2891SOL     OW20134   0.293   2.996   0.345 -0.0305 -0.1203 -0.0432
 2891SOL    HW120135   0.281   3.023   0.436  1.2369  0.0560  0.0661
 2891SOL    HW220136   0.214   3.039   0.310  0.6007  0.8212 -0.3117
 2892SOL     OW20137   1.028   0.634   5.643 -0.2899  0.2055  0.2566
 2892SOL    HW120138   0.982   0.601   5.566 -1.1445 -0.8196  1.2076
 2892SOL    HW220139   0.987   0.719   5.656 -2.7228 -0.8881 -0.2964
 2893SOL     OW20140   1.213   3.910   7.831  0.8390  0.2625 -0.1014
 2893SOL    HW120141   1.207   3.976   7.761 -1.6104 -0.5822 -0.7250
 2893SOL    HW220142   1.288   3.951   7.872  0.0074  0.9238  0.7642
 2894SOL     OW20143   0.406   1.431   8.194 -0.1049 -0.0407 -0.2209
 2894SOL    HW120144   0.379   1.442   8.285  0.4773 -0.7391  0.0294
 2894SOL    HW220145   0.425   1.521   8.166  0.9850 -0.7163 -1.6254
 2895SOL     OW20146   4.685   1.893  16.729 -0.2753 -0.0683  0.9282
 2895SOL    HW120147   4.666   1.972  16.678  1.0806 -0.5419 -0.3171
 2895SOL    HW220148   4.715   1.842  16.653  0.2471  0.6310  0.6565
 2896SOL     OW20149   3.874   4.513  11.526 -0.1642 -0.9492 -1.0455
 2896SOL    HW120150   3.950   4.473  11.567 -0.4549 -1.7399 -1.2855
 2896SOL    HW220151   3.922   4.585  11.485  0.5136  0.2579  1.8437
 2897SOL     OW20152   1.573   3.162   4.021  0.3655 -0.0558 -0.0603
 2897SOL    HW120153   1.510   3.101   4.060  1.4097 -0.1824  1.4431
 2897SOL    HW220154   1.653   3.111   4.011  0.7913  0.3893  1.0320
 2898SOL     OW20155   2.060   3.451   1.438 -0.3324  0.2285 -0.6633
 2898SOL    HW120156   2.070   3.360   1.409 -2.6406 -0.4067  0.5686
 2898SOL    HW220157   2.154   3.470   1.435 -0.4383  0.7707 -0.5714
 2899SOL     OW20158   1.159   0.328  12.661 -0.1750 -0.3646 -0.9508
 2899SOL    HW120159   1.231   0.321  12.598  2.0556 -0.0629  1.5321
 2899SOL    HW220160   1.192   0.287  12.741  0.9749  2.3750  0.0130
 2900SOL     OW20161   2.125   0.777   9.112  0.4330 -0.2162  0.0577
 2900SOL    HW120162   2.054   0.715   9.126 -0.3715  0.7337  0.1509
 2900SOL    HW220163   2.183   0.780   9.188  2.1414  1.7601 -1.3209
 2901SOL     OW20164   4.100   0.007  12.329  0.8151  0.0280  0.0838
 2901SOL    HW120165   4.129   4.685  12.251 -1.9127  1.9063 -2.0827
 2901SOL    HW220166   4.021   4.680  12.342  0.8440 -0.6239 -2.2417
 2902SOL     OW20167   2.009   2.710   4.628  0.4835  0.2009 -0.6627
 2902SOL    HW120168   2.093   2.665   4.641  0.5179  0.5364  0.2706
 2902SOL    HW220169   1.968   2.641   4.576  1.7133 -0.8591 -0.2327
 2903SOL     OW20170   1.567   4.036   3.485  0.1273 -0.1975 -0.6601
 2903SOL    HW120171   1.637   3.982   3.451  0.3619  0.1394 -0.7090
 2903SOL    HW220172   1.497   3.971   3.490  0.4566 -0.4189  1.2545
 2904SOL     OW20173   0.615   1.848  16.018 -0.0085 -0.1902  0.4070
 2904SOL    HW120174   0.586   1.789  15.948  2.5215 -1.3720  0.3569
 2904SOL    HW220175   0.565   1.926  15.995 -0.1832  0.0476  1.5915
 2905SOL     OW20176   1.567   0.082   6.952 -0.1126 -0.9336 -0.2538
 2905SOL    HW120177   1.496   0.030   6.990 -1.7269  2.2763  1.1603
 2905SOL    HW220178   1.584   0.121   7.038 -2.3533  0.5202 -0.4526
 2906SOL     OW20179   4.154   4.424   5.204  0.0997 -0.0633  0.6645
 2906SOL    HW120180   4.066   4.462   5.205  0.8104  1.5855  1.1579
 2906SOL    HW220181   4.205   4.500   5.178  1.6862 -1.6646 -0.8559
 2907SOL     OW20182   1.792   3.941   4.519  0.3805 -0.1254 -0.1861
 2907SOL    HW120183   1.834   3.948   4.434  0.3999 -0.3580 -0.1949
 2907SOL    HW220184   1.759   3.851   4.521 -0.0867  0.1201  3.3203
 2908SOL     OW20185   3.850   2.139   3.286 -0.8295  0.6565 -0.0459
 2908SOL    HW120186   3.772   2.191   3.268  0.1782  1.6627 -1.4867
 2908SOL    HW220187   3.921   2.160   3.225  1.9263  1.8043  3.4990
 2909SOL     OW20188   4.018   3.199   7.569  0.2315 -0.0316  0.4427
 2909SOL    HW120189   4.029   3.174   7.661  1.0281  1.3732  0.7223
 2909SOL    HW220190   4.103   3.169   7.537  0.5504 -1.5320  2.6229
 2910SOL     OW20191   3.886   2.135   6.563  0.2016  0.4043  0.6342
 2910SOL    HW120192   3.791   2.124   6.568  0.1571  1.9966  3.3994
 2910SOL    HW220193   3.910   2.097   6.648  1.1589  0.0852  0.2153
 2911SOL     OW20194   2.501   2.528   1.466  0.7793  0.5605 -0.2982
 2911SOL    HW120195   2.445   2.604   1.481  2.6989  1.6913  1.1118
 2911SOL    HW220196   2.585   2.569   1.484  1.2723  0.2772 -1.9315
 2912SOL     OW20197   4.097   4.184  13.073  0.2014  0.0200 -0.4804
 2912SOL    HW120198   4.011   4.208  13.108  0.6853  2.4609 -1.0088
 2912SOL    HW220199   4.131   4.141  13.152  0.0476 -0.5650 -0.7284
 2913SOL     OW20200   2.977   1.093   8.574 -0.2212 -0.2297  0.3103
 2913SOL    HW120201   3.060   1.112   8.529  0.9897  0.5992  2.9026
 2913SOL    HW220202   2.980   1.152   8.649  0.5985 -2.7812  2.2744
 2914SOL     OW20203   0.589   1.163   1.411 -0.3049 -0.0201  0.1766
 2914SOL    HW120204   0.593   1.135   1.320  2.1515 -0.4085  0.3893
 2914SOL    HW220205   0.497   1.180   1.429  0.4850  1.5919  2.7129
 2915SOL     OW20206   4.487   2.144  16.020 -0.0603 -0.2910 -0.4739
 2915SOL    HW120207   4.443   2.170  16.101  0.6423 -1.8464  0.4088
 2915SOL    HW220208   4.575   2.168  16.046 -1.1879  2.3379  0.8761
 2916SOL     OW20209   4.035   1.282   5.856 -0.2393 -0.0575 -0.2091
 2916SOL    HW120210   4.105   1.221   5.833  2.4366  3.8526 -2.4966
 2916SOL    HW220211   4.006   1.302   5.768  0.8079  0.5864 -0.4131
 2917SOL     OW20212   3.027   1.301   0.890 -0.4295  0.3625  0.0803
 2917SOL    HW120213   2.968   1.366   0.850  0.0702  1.0732  0.4897
 2917SOL    HW220214   3.034   1.317   0.984 -0.2820  0.0918  0.1162
 2918SOL     OW20215   0.636   1.790  11.136  0.6675  0.1318 -0.1898
 2918SOL    HW120216   0.662   1.835  11.055 -0.6729 -0.1642 -0.7775
 2918SOL    HW220217   0.630   1.700  11.106 -1.2843 -0.0185  0.6311
 2919SOL     OW20218   4.716   1.092   5.919 -0.1096 -0.5028 -0.2991
 2919SOL    HW120219   4.709   1.023   5.985  0.1341 -0.5487 -0.3216
 2919SOL    HW220220   4.639   1.148   5.928  1.5229  1.5023  1.1447
 2920SOL     OW20221   3.595   0.281   3.814  0.1491  0.7971  0.1765
 2920SOL    HW120222   3.646   0.209   3.777 -0.6170  0.9976 -1.2781
 2920SOL    HW220223   3.505   0.278   3.783  0.6143 -1.9055 -0.8909
 2921SOL     OW20224   2.420   2.946   7.680  0.1264  0.4202 -0.1792
 2921SOL    HW120225   2.397   2.970   7.770  0.5633 -0.1767  0.0903
 2921SOL    HW220226   2.355   3.006   7.643 -1.0402 -1.6255 -1.4334
 2922SOL     OW20227   2.899   4.116   3.738 -0.0718  0.1857  0.2567
 2922SOL    HW120228   2.971   4.128   3.676  1.0875  1.4101  1.8406
 2922SOL    HW220229   2.942   4.112   3.823 -0.0246 -1.2506  0.1642
 2923SOL     OW20230   0.952   0.494  10.877  1.0594 -0.1301  0.0767
 2923SOL    HW120231   0.972   0.502  10.783 -0.2829 -1.4475 -0.3222
 2923SOL    HW220232   1.041   0.501  10.911  0.2864 -0.0608  2.0431
 2924SOL     OW20233   1.975   1.374  12.903 -0.4537  0.3463 -0.5133
 2924SOL    HW120234   2.060   1.342  12.872 -0.9072 -1.3496  0.0524
 2924SOL    HW220235   1.979   1.352  12.996  0.6116  1.9808 -0.1768
 2925SOL     OW20236   0.366   0.460   5.235 -0.0371 -0.0416 -0.2156
 2925SOL    HW120237   0.381   0.366   5.228  2.2749  0.2981  0.3533
 2925SOL    HW220238   0.291   0.471   5.176  0.9190  0.0086 -1.4167
 2926SOL     OW20239   2.646   2.888   1.965  0.9287  0.1809 -0.5053
 2926SOL    HW120240   2.591   2.959   1.932  0.1897  0.0885  0.5225
 2926SOL    HW220241   2.717   2.931   2.014  1.6222 -0.3220 -1.0637
 2927SOL     OW20242   4.248   1.823   6.059 -0.1098  0.2069  0.1217
 2927SOL    HW120243   4.338   1.809   6.088  0.0110  2.7018  0.9723
 2927SOL    HW220244   4.224   1.752   5.999 -0.9663  1.0406 -0.5250
 2928SOL     OW20245   3.211   2.162   5.349 -0.2299 -0.4727 -0.0904
 2928SOL    HW120246   3.155   2.239   5.340  1.0598  0.6041  1.0942
 2928SOL    HW220247   3.301   2.189   5.363  0.0338 -1.0075 -0.7473
 2929SOL     OW20248   3.188   2.023   3.353 -0.0714 -0.1349  0.0366
 2929SOL    HW120249   3.266   2.061   3.313 -0.4039  0.5109  0.0075
 2929SOL    HW220250   3.186   2.064   3.439  1.2119  1.7318 -0.8387
 2930SOL     OW20251   4.639   0.545   6.357  0.0493 -0.1626  0.5212
 2930SOL    HW120252   4.575   0.542   6.286  0.7042 -1.1136 -0.0352
 2930SOL    HW220253   4.716   0.575   6.310  0.5084 -2.7732 -0.4013
 2931SOL     OW20254   3.955   2.682  13.766 -0.3822  0.6181 -0.3239
 2931SOL    HW120255   3.964   2.747  13.836  0.5592  1.1371 -0.9286
 2931SOL    HW220256   3.905   2.616  13.815 -1.4057  1.5487 -0.1217
 2932SOL     OW20257   3.337   1.028   5.165 -0.0354 -0.2712 -0.2400
 2932SOL    HW120258   3.281   1.039   5.088 -0.0998 -1.0434 -0.3035
 2932SOL    HW220259   3.415   1.066   5.125 -0.9971  0.7579 -1.1282
 2933SOL     OW20260   4.330   3.474  13.226  0.3033 -0.7203  0.6569
 2933SOL    HW120261   4.393   3.476  13.155 -2.1113  0.1951 -1.4770
 2933SOL    HW220262   4.353   3.397  13.278  2.4649 -0.8390 -0.5137
 2934SOL     OW20263   4.366   0.578   2.788 -0.4995 -0.1543  0.1421
 2934SOL    HW120264   4.422   0.647   2.824 -0.6469 -0.5959  1.2237
 2934SOL    HW220265   4.282   0.601   2.827 -0.5842 -2.5044  1.3461
 2935SOL     OW20266   3.572   1.597   1.840 -0.1298 -0.6340  0.2611
 2935SOL    HW120267   3.554   1.626   1.930 -0.9105 -0.1115 -0.0648
 2935SOL    HW220268   3.651   1.641   1.810 -1.8899  1.9472 -0.6454
 2936SOL     OW20269   4.021   4.048   5.649  0.8087 -0.1546  0.3350
 2936SOL    HW120270   4.104   4.011   5.677  0.7202  0.4742  1.4394
 2936SOL    HW220271   4.025   4.038   5.554  0.0277 -0.6617  0.3551
 2937SOL     OW20272   2.592   4.171   7.575 -0.3094  0.1790 -0.0709
 2937SOL    HW120273   2.498   4.172   7.591 -0.1283 -1.3011  1.0060
 2937SOL    HW220274   2.589   4.192   7.481 -0.4675 -0.4240 -0.1973
 2938SOL     OW20275   0.491   1.128   1.149  0.5910  0.3288 -0.2704
 2938SOL    HW120276   0.428   1.135   1.221  1.8741  0.3225  0.8517
 2938SOL    HW220277   0.513   1.037   1.169  1.1927  0.3213 -0.9538
 2939SOL     OW20278   2.925   0.856  13.664 -0.2124  0.2944  0.6988
 2939SOL    HW120279   2.852   0.907  13.700  0.4482  2.4486 -0.9570
 2939SOL    HW220280   2.892   0.852  13.574 -1.1764  3.8954  0.8989
 2940SOL     OW20281   4.141   1.541   5.914 -0.1336  0.2216 -0.2054
 2940SOL    HW120282   4.174   1.491   5.839 -0.0156 -0.7341  0.4796
 2940SOL    HW220283   4.103   1.468   5.963  2.2457 -0.3988  0.7258
 2941SOL     OW20284   0.003   2.698   4.775  0.0224  0.1297 -0.2390
 2941SOL    HW120285   4.652   2.744   4.740  0.6046  2.2178  1.2331
 2941SOL    HW220286   0.062   2.771   4.790 -0.2944  0.7732 -2.0993
 2942SOL     OW20287   2.150   2.751  17.123 -0.1758  0.2613 -0.1470
 2942SOL    HW120288   2.238   2.777  17.149 -0.2213 -0.1108  0.3797
 2942SOL    HW220289   2.148   2.800  17.041  0.6106 -0.0512 -0.3521
 2943SOL     OW20290   0.909   1.550   1.503  0.0874 -0.5114 -0.3394
 2943SOL    HW120291   0.922   1.640   1.472 -0.9671 -1.5538 -3.8472
 2943SOL    HW220292   0.932   1.560   1.595 -1.2201  0.7209 -0.1526
 2944SOL     OW20293   1.503   4.557  11.548  0.2910 -0.1195  0.1097
 2944SOL    HW120294   1.523   4.540  11.640 -0.1923  0.1449  0.2689
 2944SOL    HW220295   1.578   4.598  11.505 -0.9065  0.8540 -1.0732
 2945SOL     OW20296   1.158   4.701   9.403  0.0486 -0.3985 -0.1326
 2945SOL    HW120297   1.138   4.608   9.386  2.6256 -1.0657  0.4602
 2945SOL    HW220298   1.119   0.019   9.327 -3.0924 -3.0101 -0.0337
 2946SOL     OW20299   1.947   4.544   5.012 -0.1208  0.4246 -0.2788
 2946SOL    HW120300   1.978   4.455   5.027  1.5235  1.6883  3.8193
 2946SOL    HW220301   1.924   4.579   5.099  0.7074  4.5122 -1.7256
 2947SOL     OW20302   0.330   0.088   5.284  0.1267 -0.0155  0.0886
 2947SOL    HW120303   0.414   0.097   5.329  0.9855 -1.1888 -1.2931
 2947SOL    HW220304   0.357   0.044   5.204 -1.5870  4.2682 -2.8304
 2948SOL     OW20305   3.395   2.959   0.619  0.0492 -0.6315  0.5786
 2948SOL    HW120306   3.457   2.974   0.548 -1.2980 -0.0236 -0.4728
 2948SOL    HW220307   3.320   3.009   0.585  0.2000  0.3750  1.7662
 2949SOL     OW20308   2.301   3.060  17.700 -0.4031 -0.4324 -0.4366
 2949SOL    HW120309   2.341   2.978  17.672 -2.8351 -1.0060 -2.1974
 2949SOL    HW220310   2.370   3.125  17.686  1.1496 -1.1357  3.9566
 2950SOL     OW20311   2.763   3.308   5.592  0.3686 -0.7749  0.2012
 2950SOL    HW120312   2.854   3.291   5.616  0.7612  0.3229 -0.5253
 2950SOL    HW220313   2.728   3.221   5.609 -1.7541 -0.1289 -0.8437
 2951SOL     OW20314   1.127   1.136   4.390  0.4360  0.3014  0.1584
 2951SOL    HW120315   1.208   1.119   4.343 -0.7917 -1.9954 -1.1262
 2951SOL    HW220316   1.066   1.150   4.317 -0.7177 -0.2280  1.0258
 2952SOL     OW20317   3.370   2.310   6.495  0.5061  0.5907 -0.2056
 2952SOL    HW120318   3.445   2.338   6.547 -0.1191 -1.7692  1.9830
 2952SOL    HW220319   3.292   2.322   6.549  0.7141  0.2503  0.1749
 2953SOL     OW20320   1.824   2.567   4.921 -0.2785 -1.0817 -0.3647
 2953SOL    HW120321   1.765   2.514   4.975 -0.2352 -0.5394  0.2135
 2953SOL    HW220322   1.857   2.496   4.866 -0.2197 -0.5077 -1.0571
 2954SOL     OW20323   3.439   1.075   9.623 -0.4738  0.0704 -0.2351
 2954SOL    HW120324   3.441   1.140   9.554 -0.2758  1.1178  0.7587
 2954SOL    HW220325   3.533   1.074   9.642 -0.5649  2.6912  0.3838
 2955SOL     OW20326   0.724   2.871  14.618  0.6039 -0.0537 -0.0922
 2955SOL    HW120327   0.717   2.921  14.700 -0.3723  1.1069 -0.8857
 2955SOL    HW220328   0.645   2.902  14.574 -0.6947 -1.5720  1.1702
 2956SOL     OW20329   0.413   2.330  11.651 -0.3059 -0.1108 -0.5141
 2956SOL    HW120330   0.416   2.337  11.747  0.5298 -0.1287 -0.5417
 2956SOL    HW220331   0.334   2.278  11.638 -1.3643  0.5693  3.0727
 2957SOL     OW20332   3.942   0.871   1.235  0.2439  0.3959  0.0406
 2957SOL    HW120333   3.934   0.959   1.273 -0.0265 -0.3334  1.6632
 2957SOL    HW220334   4.008   0.882   1.166 -2.0162  2.7105 -1.7490
 2958SOL     OW20335   0.615   0.818  10.530 -0.4270 -0.2204  0.5876
 2958SOL    HW120336   0.671   0.751  10.491  1.0382  0.0974  2.1498
 2958SOL    HW220337   0.529   0.775  10.526 -0.1492 -0.9284  2.1144
 2959SOL     OW20338   3.108   3.161   4.618  0.3284 -0.3016  0.0681
 2959SOL    HW120339   3.034   3.100   4.608 -0.1111  0.5459 -1.8187
 2959SOL    HW220340   3.138   3.140   4.706  2.0655 -0.7759 -0.6398
 2960SOL     OW20341   2.159   1.688   4.778  0.0652  0.6890 -0.2746
 2960SOL    HW120342   2.171   1.755   4.711  0.0730 -0.0660 -1.0102
 2960SOL    HW220343   2.120   1.616   4.730  2.9959 -1.0094 -0.1360
 2961SOL     OW20344   0.207   0.306   8.155 -0.4850  0.1240 -0.3254
 2961SOL    HW120345   0.123   0.259   8.157 -0.4104  0.0245  0.3400
 2961SOL    HW220346   0.189   0.381   8.097  1.4885 -0.4242 -1.6432
 2962SOL     OW20347   2.046   0.733  15.583  0.3245  0.1908 -0.4262
 2962SOL    HW120348   2.136   0.729  15.548 -0.1652 -1.5955 -1.4442
 2962SOL    HW220349   2.031   0.644  15.614  0.4748  0.1029 -0.6084
 2963SOL     OW20350   0.594   3.898   1.629  0.3674 -0.5376  0.0789
 2963SOL    HW120351   0.630   3.986   1.629  1.6328 -1.0524  0.1773
 2963SOL    HW220352   0.510   3.922   1.589  1.7075  2.2356 -1.0753
 2964SOL     OW20353   2.090   1.500  11.785  0.0488  0.6946  0.3826
 2964SOL    HW120354   2.153   1.468  11.720  0.1926 -0.3306  1.0147
 2964SOL    HW220355   2.023   1.529  11.723  0.8894 -1.3547 -1.4705
 2965SOL     OW20356   4.661   2.764   2.220 -0.8914  0.0373 -0.3813
 2965SOL    HW120357   4.572   2.793   2.242 -0.5076  0.0861  1.0734
 2965SOL    HW220358   4.713   2.825   2.273 -1.0227 -1.6199  1.6556
 2966SOL     OW20359   4.500   4.623   0.985  0.2290 -0.2693  0.3323
 2966SOL    HW120360   4.427   4.629   0.924 -0.9657  2.1543  2.0075
 2966SOL    HW220361   4.459   4.581   1.061  0.7825 -1.4485 -0.0203
 2967SOL     OW20362   3.784   2.297  11.149 -0.0439  0.3655  0.1423
 2967SOL    HW120363   3.847   2.265  11.085  0.7839 -2.3370  2.2765
 2967SOL    HW220364   3.710   2.313  11.090 -0.9551 -1.0067  0.8988
 2968SOL     OW20365   1.312   1.137   0.608 -0.4776  0.3765 -0.1658
 2968SOL    HW120366   1.341   1.218   0.566  3.9057  0.1715  2.4606
 2968SOL    HW220367   1.289   1.159   0.699  0.2423 -3.5219  0.9638
 2969SOL     OW20368   2.524   3.645   1.512  0.5611  0.0179 -0.3536
 2969SOL    HW120369   2.510   3.656   1.606 -2.8558 -1.9247 -0.6666
 2969SOL    HW220370   2.618   3.631   1.528  0.3401 -1.4614 -0.3151
 2970SOL     OW20371   3.551   2.587  16.607 -0.1467  0.0831  0.1972
 2970SOL    HW120372   3.630   2.552  16.648 -0.2224 -0.2984  0.0181
 2970SOL    HW220373   3.570   2.576  16.514 -2.2666 -1.1346 -0.1040
 2971SOL     OW20374   0.444   2.682   7.940 -0.1192 -0.2330  0.1159
 2971SOL    HW120375   0.420   2.592   7.965  1.7202 -0.8075 -0.1865
 2971SOL    HW220376   0.465   2.725   8.023  0.2767 -2.5330  1.2306
 2972SOL     OW20377   3.854   1.587   3.108 -0.4572  0.4984  0.9890
 2972SOL    HW120378   3.867   1.578   3.202 -0.1413  3.7726  1.2461
 2972SOL    HW220379   3.807   1.669   3.097  1.4654  1.3627 -0.5813
 2973SOL     OW20380   3.296   3.895  15.468 -0.2494 -0.2829  0.2437
 2973SOL    HW120381   3.232   3.835  15.429  1.0608 -0.2977 -1.8954
 2973SOL    HW220382   3.347   3.835  15.522  0.5150  0.1714  0.0113
 2974SOL     OW20383   0.705   1.171   7.735 -0.1219  0.2388 -0.2438
 2974SOL    HW120384   0.643   1.176   7.807  0.9154  2.5088  0.5152
 2974SOL    HW220385   0.661   1.229   7.673 -1.3774 -0.7981 -0.3144
 2975SOL     OW20386   3.569   0.125  12.003  0.2048  0.0209  0.4618
 2975SOL    HW120387   3.621   0.116  12.083  0.0414  0.9862  0.6884
 2975SOL    HW220388   3.554   0.220  12.003 -1.8234 -0.3010 -0.2930
 2976SOL     OW20389   4.314   4.039  12.486 -0.1031 -0.4552  0.0715
 2976SOL    HW120390   4.333   4.052  12.393  1.2496  2.8110  0.8055
 2976SOL    HW220391   4.343   3.948  12.492  0.7650 -0.1708  0.2672
 2977SOL     OW20392   1.661   4.363   2.209  0.0973  0.0077  0.3003
 2977SOL    HW120393   1.623   4.360   2.297  0.2097 -0.9815  0.3192
 2977SOL    HW220394   1.626   4.282   2.172  0.1541  0.0180  0.2237
 2978SOL     OW20395   4.448   4.356   1.618  0.5682 -0.0214  0.7281
 2978SOL    HW120396   4.364   4.359   1.571  0.1946  0.9139  1.4390
 2978SOL    HW220397   4.429   4.340   1.710  1.0380 -1.5821  0.5513
 2979SOL     OW20398   2.669   3.598  13.097 -0.5304 -0.0688 -0.5010
 2979SOL    HW120399   2.727   3.621  13.025 -0.6510  0.6428 -0.3730
 2979SOL    HW220400   2.710   3.635  13.175 -0.2734  2.8574 -2.0233
 2980SOL     OW20401   3.167   1.890   5.268 -0.0513  0.6823  0.5088
 2980SOL    HW120402   3.168   1.984   5.286 -0.6253  0.6033  0.9677
 2980SOL    HW220403   3.072   1.877   5.273  0.2578 -1.6854  0.3239
 2981SOL     OW20404   0.287   4.460   2.989  0.1275  0.4552  0.1054
 2981SOL    HW120405   0.250   4.531   2.937 -1.2173  0.5423  1.1758
 2981SOL    HW220406   0.312   4.394   2.925 -0.6834 -0.4019  0.6651
 2982SOL     OW20407   2.418   4.573   2.870  0.5053  0.1981 -0.5928
 2982SOL    HW120408   2.440   4.522   2.793  0.7715  0.3040 -0.5885
 2982SOL    HW220409   2.389   4.658   2.836  0.2366  0.1905 -0.3775
 2983SOL     OW20410   0.186   4.134  11.877 -0.8695  0.0582 -0.1627
 2983SOL    HW120411   0.114   4.194  11.858 -1.0935  0.3670  1.6879
 2983SOL    HW220412   0.241   4.157  11.802 -0.5588  1.9837  0.6540
 2984SOL     OW20413   1.461   3.780   3.313 -0.2324  0.0107  0.1687
 2984SOL    HW120414   1.437   3.720   3.243 -0.5837  2.3071 -1.6589
 2984SOL    HW220415   1.538   3.824   3.276 -0.2196  0.9815  1.3588
 2985SOL     OW20416   0.841   1.712  16.097 -0.0597 -0.6898  0.0605
 2985SOL    HW120417   0.763   1.762  16.072 -0.5105 -0.3106  2.2570
 2985SOL    HW220418   0.888   1.779  16.146 -1.4076  0.2058  0.1141
 2986SOL     OW20419   1.319   4.620   0.561 -0.1044 -0.2620 -0.2304
 2986SOL    HW120420   1.338   4.531   0.589  1.5367  0.4889  1.0053
 2986SOL    HW220421   1.273   4.655   0.637 -1.2553  1.4567 -1.7069
 2987SOL     OW20422   3.557   3.084  13.269  0.0038  0.3888 -0.4547
 2987SOL    HW120423   3.484   3.103  13.210 -0.2446 -1.8222 -0.8413
 2987SOL    HW220424   3.507   3.066  13.348  1.4078 -0.3278  0.2809
 2988SOL     OW20425   4.509   2.933   4.106 -0.0980  0.3958 -0.2096
 2988SOL    HW120426   4.593   2.891   4.125 -1.1530 -0.8058  1.7365
 2988SOL    HW220427   4.522   2.956   4.014  0.0733 -2.6793 -0.9594
 2989SOL     OW20428   2.294   4.434  11.382  0.4966  0.2461 -0.3480
 2989SOL    HW120429   2.323   4.361  11.327 -2.9283  0.5702 -2.5678
 2989SOL    HW220430   2.199   4.427  11.378  0.4573  0.3127  0.4839
 2990SOL     OW20431   2.509   4.101   3.539  0.2911  0.3952  0.0275
 2990SOL    HW120432   2.475   4.095   3.450 -1.2729 -1.6459  0.7844
 2990SOL    HW220433   2.485   4.014   3.569  4.2927 -0.5073  0.6232
 2991SOL     OW20434   3.853   3.859  12.773  0.1248  0.5437  0.0283
 2991SOL    HW120435   3.941   3.859  12.809  0.3536 -1.2783 -0.5217
 2991SOL    HW220436   3.864   3.907  12.691 -3.5572  4.4365  1.8201
 2992SOL     OW20437   0.735   3.987  17.577  0.3338 -0.5872  0.6251
 2992SOL    HW120438   0.815   3.959  17.622 -0.1975 -0.8679  1.3924
 2992SOL    HW220439   0.666   3.998  17.642  1.7681 -1.2223  2.2421
 2993SOL     OW20440   2.761   2.410  14.715 -0.2665  0.5062 -0.5574
 2993SOL    HW120441   2.837   2.353  14.706  0.0350  0.8922 -0.4804
 2993SOL    HW220442   2.717   2.362  14.785  0.7170  1.9292  1.0614
 2994SOL     OW20443   0.856   0.413  14.413 -0.0943  0.3143  0.5771
 2994SOL    HW120444   0.864   0.337  14.471  3.2832  1.7035  1.8920
 2994SOL    HW220445   0.948   0.431  14.397 -0.4159  2.0511  0.6206
 2995SOL     OW20446   2.966   2.045   8.159 -0.0311 -0.4128 -0.3621
 2995SOL    HW120447   2.937   2.119   8.212  1.4542 -0.1619  0.1127
 2995SOL    HW220448   3.060   2.038   8.178 -0.3524 -1.0023  0.9498
 2996SOL     OW20449   1.312   0.843   4.228 -0.2679 -0.1641  0.0849
 2996SOL    HW120450   1.252   0.801   4.167 -0.0929 -1.5137  0.8376
 2996SOL    HW220451   1.303   0.782   4.302  1.6293 -1.1846 -0.5362
 2997SOL     OW20452   4.548   2.543   6.057 -0.0178  0.7867 -0.7783
 2997SOL    HW120453   4.619   2.514   6.115 -0.8142  0.8102  0.2168
 2997SOL    HW220454   4.482   2.474   6.064  1.6723 -0.6669  0.8054
 2998SOL     OW20455   3.273   3.683   6.593 -0.0292 -0.4561  0.3724
 2998SOL    HW120456   3.343   3.741   6.563 -0.5553  0.1825  0.3894
 2998SOL    HW220457   3.304   3.595   6.572  0.1818 -0.3207  0.1097
 2999SOL     OW20458   1.621   2.316   6.502  0.1390  0.1935 -0.6424
 2999SOL    HW120459   1.533   2.347   6.526  1.4930  2.9900  0.6120
 2999SOL    HW220460   1.643   2.259   6.576 -0.9016 -0.7701 -1.0692
 3000SOL     OW20461   0.732   4.169   1.250  0.5310 -0.7057 -0.4594
 3000SOL    HW120462   0.691   4.255   1.252  1.1509 -0.4617  1.9122
 3000SOL    HW220463   0.803   4.201   1.305 -0.1909 -1.0003  0.6590
 3001SOL     OW20464   1.008   4.071   8.776 -0.2479 -0.1989 -0.1085
 3001SOL    HW120465   0.992   3.978   8.792 -1.7940  0.4773  2.2204
 3001SOL    HW220466   0.953   4.111   8.843  0.4057  0.0270  0.2958
 3002SOL     OW20467   3.232   0.934   9.516 -0.3550 -0.4175  0.0858
 3002SOL    HW120468   3.292   0.987   9.568 -2.3448  3.2242 -1.3405
 3002SOL    HW220469   3.244   0.843   9.543 -0.4862 -0.0999  1.1930
 3003SOL     OW20470   2.674   1.416   2.260  0.2050  0.3393  0.5695
 3003SOL    HW120471   2.718   1.477   2.200  0.5439 -0.9223 -0.4665
 3003SOL    HW220472   2.628   1.482   2.312 -1.2080 -1.7995  2.0154
 3004SOL     OW20473   1.070   0.904   2.233  0.2060 -0.3787  0.3900
 3004SOL    HW120474   1.145   0.912   2.175 -1.1258 -0.5684 -1.3588
 3004SOL    HW220475   1.018   0.983   2.218 -2.4805 -2.1623  0.3562
 3005SOL     OW20476   4.080   1.993  10.224 -0.2465  0.3500  0.0152
 3005SOL    HW120477   4.114   1.913  10.264  1.3882  1.2229  0.3731
 3005SOL    HW220478   4.000   1.993  10.278  0.1876  0.4553  0.6548
 3006SOL     OW20479   0.446   4.274  15.739  0.1412 -0.5301  0.0824
 3006SOL    HW120480   0.353   4.262  15.760 -0.3098  2.0876 -0.3462
 3006SOL    HW220481   0.479   4.185  15.751  1.3066 -0.0409  0.4435
 3007SOL     OW20482   1.351   4.384   6.796 -0.0836  0.1336  0.3811
 3007SOL    HW120483   1.271   4.352   6.837 -0.5717  0.1693 -0.5553
 3007SOL    HW220484   1.413   4.312   6.786 -2.2256 -1.4943 -1.0846
 3008SOL     OW20485   3.008   0.498   2.610 -0.1371  1.0051 -0.1862
 3008SOL    HW120486   3.024   0.574   2.555 -0.3813 -0.5723 -2.4427
 3008SOL    HW220487   3.086   0.454   2.576 -1.4186 -1.1190 -0.4100
 3009SOL     OW20488   4.061   4.006   4.105  0.4625 -0.0555  0.1832
 3009SOL    HW120489   4.049   3.961   4.022  0.3007 -0.5610  0.4819
 3009SOL    HW220490   3.990   4.071   4.105  0.9163  0.4406  1.9678
 3010SOL     OW20491   1.408   3.912  16.111 -0.5381  0.0031 -0.4810
 3010SOL    HW120492   1.413   3.977  16.041 -0.8197 -1.5045 -1.9147
 3010SOL    HW220493   1.314   3.917  16.128 -0.5150 -0.2540 -0.2706
 3011SOL     OW20494   0.677   0.123  16.742 -0.1617  0.6023 -0.0013
 3011SOL    HW120495   0.719   0.049  16.785 -0.3485  1.8797  2.4100
 3011SOL    HW220496   0.645   0.084  16.661  1.6711 -0.8350 -0.0369
 3012SOL     OW20497   4.343   0.853   8.324 -0.3391  0.4104  0.4225
 3012SOL    HW120498   4.375   0.871   8.412  1.2569  0.2021 -0.1232
 3012SOL    HW220499   4.250   0.840   8.343 -0.4075 -0.5084 -0.5297
 3013SOL     OW20500   4.321   3.677   0.281 -0.1777  0.1544 -0.1115
 3013SOL    HW120501   4.305   3.687   0.375 -1.4854 -0.8309 -0.2204
 3013SOL    HW220502   4.292   3.585   0.280  1.6316 -0.4287  0.5459
 3014SOL     OW20503   0.794   4.002   8.420 -0.3110  0.8328 -0.2981
 3014SOL    HW120504   0.752   4.060   8.484  0.1487 -1.2657  1.8968
 3014SOL    HW220505   0.813   4.064   8.349  0.4873  0.9808  0.0492
 3015SOL     OW20506   3.301   2.672   9.895  1.1242 -0.1937 -0.4009
 3015SOL    HW120507   3.340   2.709   9.974 -2.2848  0.8261  0.8168
 3015SOL    HW220508   3.365   2.616   9.852  0.3268 -2.3990  1.3118
 3016SOL     OW20509   2.819   2.507  14.384  0.0101  0.2159  0.2520
 3016SOL    HW120510   2.884   2.456  14.433  1.9208  1.3383 -1.1090
 3016SOL    HW220511   2.827   2.456  14.303  0.3598 -0.6157  0.8095
 3017SOL     OW20512   2.276   4.216   4.215 -0.1267  0.5255 -0.2564
 3017SOL    HW120513   2.230   4.273   4.277 -0.4698 -0.6455  0.5704
 3017SOL    HW220514   2.280   4.135   4.266  0.6199 -0.3979 -1.7951
 3018SOL     OW20515   0.192   3.446   5.736 -0.1255  0.0414 -0.1490
 3018SOL    HW120516   0.099   3.449   5.713  0.5156  0.2355 -2.7466
 3018SOL    HW220517   0.197   3.489   5.821 -1.9563  1.4036 -0.7458
 3019SOL     OW20518   3.311   4.224   9.231  0.0527  0.1225 -0.3562
 3019SOL    HW120519   3.249   4.259   9.167 -0.1465  0.4298  0.0068
 3019SOL    HW220520   3.264   4.230   9.313 -2.7201 -0.1513 -1.9307
 3020SOL     OW20521   3.638   2.612   9.098 -0.4425  0.2611 -0.2951
 3020SOL    HW120522   3.577   2.666   9.048  1.1775  1.5245 -0.8966
 3020SOL    HW220523   3.695   2.682   9.131 -1.8787  0.4729  1.7447
 3021SOL     OW20524   1.408   2.346   7.264  0.0516  0.1170  0.0974
 3021SOL    HW120525   1.471   2.283   7.228 -1.0288 -0.3861 -0.9282
 3021SOL    HW220526   1.325   2.300   7.249 -0.4936  1.7141 -1.7591
 3022SOL     OW20527   0.024   3.686   1.897 -0.5428 -0.1592 -0.2037
 3022SOL    HW120528   0.044   3.778   1.880 -0.7459  0.3347  2.1701
 3022SOL    HW220529   0.062   3.666   1.983  0.4943 -1.6648 -1.0236
 3023SOL     OW20530   3.951   0.078   2.401  0.1529  0.1015 -0.0168
 3023SOL    HW120531   3.961   4.709   2.407 -0.1232  0.0095 -0.9266
 3023SOL    HW220532   3.870   0.085   2.350  0.7543  1.5516 -0.7709
 3024SOL     OW20533   2.503   3.670   0.221  0.1228 -0.8649 -0.3613
 3024SOL    HW120534   2.531   3.663   0.312 -0.1100 -1.0131 -0.3015
 3024SOL    HW220535   2.491   3.765   0.219  0.1702 -0.8624 -0.5592
 3025SOL     OW20536   1.547   3.287   5.287  0.1114  0.2132  0.2787
 3025SOL    HW120537   1.588   3.201   5.298 -0.6660 -0.4696 -2.1142
 3025SOL    HW220538   1.579   3.305   5.199 -1.6246  1.5405 -0.0804
 3026SOL     OW20539   3.130   3.635  15.657  0.3093  0.4936  0.2768
 3026SOL    HW120540   3.067   3.654  15.727 -0.4411 -0.2338 -0.2022
 3026SOL    HW220541   3.206   3.602  15.704  0.2783 -1.0811 -0.8011
 3027SOL     OW20542   4.234   0.788   8.801  0.6632  0.2564 -0.5134
 3027SOL    HW120543   4.254   0.695   8.796  2.0167  0.4386  1.2101
 3027SOL    HW220544   4.139   0.789   8.791  0.8751 -0.3351 -2.6657
 3028SOL     OW20545   2.380   0.250   0.719  0.1533 -0.3016  0.6091
 3028SOL    HW120546   2.406   0.158   0.720  1.0508 -0.0544  0.3233
 3028SOL    HW220547   2.455   0.289   0.674 -1.3625  0.9232 -0.8369
 3029SOL     OW20548   1.586   1.930   7.435 -0.1816  0.6155 -0.4721
 3029SOL    HW120549   1.515   1.887   7.388  0.9610 -1.6879 -0.0780
 3029SOL    HW220550   1.660   1.870   7.440 -0.5638  0.3257  1.5226
 3030SOL     OW20551   2.350   2.259  12.388 -0.3858  0.4616  0.1405
 3030SOL    HW120552   2.433   2.235  12.429  0.3987 -0.1192 -1.8001
 3030SOL    HW220553   2.334   2.175  12.345 -2.2203 -0.1821  2.0793
 3031SOL     OW20554   2.014   0.392  11.363 -0.4149  0.0689 -0.8431
 3031SOL    HW120555   1.922   0.370  11.378  0.0403 -0.0240  1.8727
 3031SOL    HW220556   2.007   0.432  11.277  1.5479  0.9851 -0.5727
 3032SOL     OW20557   3.358   3.595   2.785 -0.4925 -0.9987 -0.1845
 3032SOL    HW120558   3.307   3.666   2.823 -1.0526 -1.1766 -0.5955
 3032SOL    HW220559   3.445   3.628   2.805 -1.2550  0.4774  0.6595
 3033SOL     OW20560   3.974   4.527  12.951 -0.2950  0.3198 -0.2664
 3033SOL    HW120561   3.918   4.604  12.957 -0.6134  0.4581 -4.6902
 3033SOL    HW220562   4.048   4.546  13.009 -1.4576  4.0665  0.0195
 3034SOL     OW20563   4.386   4.107   7.420 -0.0198 -0.1845  0.6375
 3034SOL    HW120564   4.353   4.128   7.507  1.0082 -0.7975  1.1834
 3034SOL    HW220565   4.416   4.192   7.388  0.3286 -0.3637  0.4895
 3035SOL     OW20566   4.175   4.658   2.230  0.5051 -0.3927 -0.4483
 3035SOL    HW120567   4.139   4.686   2.146 -1.2069 -0.5118  0.2625
 3035SOL    HW220568   4.249   4.719   2.237 -0.3760  0.8473 -1.9553
 3036SOL     OW20569   3.901   2.650   2.188  0.0257 -0.2034 -0.5031
 3036SOL    HW120570   3.882   2.735   2.149  0.8369  0.6839  1.0205
 3036SOL    HW220571   3.817   2.614   2.219 -0.5181  0.7328 -0.8822
 3037SOL     OW20572   1.537   1.402   7.714  0.1669 -0.2474 -0.0433
 3037SOL    HW120573   1.519   1.353   7.794 -1.0283  1.8857  1.0026
 3037SOL    HW220574   1.487   1.354   7.648  3.0472 -2.0013 -0.9338
 3038SOL     OW20575   4.035   3.399   8.914 -0.6738 -0.5614 -0.1131
 3038SOL    HW120576   4.000   3.464   8.975 -0.6773 -1.9801  1.3982
 3038SOL    HW220577   3.954   3.348   8.908 -1.5339  0.9498 -1.3951
 3039SOL     OW20578   4.674   1.975  17.391 -0.1046  0.0194 -0.7128
 3039SOL    HW120579   0.023   1.915  17.390 -1.0374 -1.1497  0.4580
 3039SOL    HW220580   4.613   1.931  17.332 -2.2354  0.2830  1.2759
 3040SOL     OW20581   2.977   4.390   5.663  0.6473  0.0688  0.1364
 3040SOL    HW120582   2.964   4.481   5.689 -0.9576  0.2134 -1.1513
 3040SOL    HW220583   2.940   4.349   5.741  2.4375 -2.8087 -0.5317
 3041SOL     OW20584   0.931   4.310   0.380 -0.6837  0.2128  0.2089
 3041SOL    HW120585   0.963   4.389   0.336  4.0252 -2.2398 -0.7583
 3041SOL    HW220586   0.864   4.345   0.439 -0.4640  1.3186 -0.1925
 3042SOL     OW20587   1.103   2.996   3.248  0.4363  0.6842 -0.2713
 3042SOL    HW120588   1.078   2.951   3.167  1.1106  1.7296 -1.0559
 3042SOL    HW220589   1.113   3.084   3.211 -0.1500  1.0563  0.4821
 3043SOL     OW20590   2.718   0.580  15.124 -0.3442 -0.4083  0.2588
 3043SOL    HW120591   2.650   0.630  15.078 -0.5296 -1.2008 -0.3153
 3043SOL    HW220592   2.762   0.659  15.157  0.2411 -0.1276 -1.2274
 3044SOL     OW20593   1.944   0.932   6.123 -0.4468 -0.2424  0.6830
 3044SOL    HW120594   1.937   1.027   6.110  0.7138 -0.0915  1.1554
 3044SOL    HW220595   2.020   0.912   6.068  0.7753  0.1102  2.2657
 3045SOL     OW20596   4.196   2.416  13.480  0.1135 -0.2667 -0.6617
 3045SOL    HW120597   4.205   2.339  13.424 -2.9615 -0.1654 -1.3120
 3045SOL    HW220598   4.150   2.382  13.557  0.6926 -0.4516 -0.4012
 3046SOL     OW20599   3.226   0.375   2.514 -0.3933 -0.1799  0.3097
 3046SOL    HW120600   3.315   0.389   2.482 -0.6579 -0.0141 -0.3478
 3046SOL    HW220601   3.230   0.292   2.563  0.6362  0.0692  0.6435
 3047SOL     OW20602   0.542   0.890   9.913 -0.2446 -0.0957  0.2694
 3047SOL    HW120603   0.534   0.807   9.959 -1.9432  0.8964  1.7759
 3047SOL    HW220604   0.559   0.947   9.989  0.2762  0.3183 -0.1605
 3048SOL     OW20605   2.765   2.546   4.724  0.1414 -0.5224 -0.0571
 3048SOL    HW120606   2.818   2.549   4.644  0.4931 -0.7906  0.1659
 3048SOL    HW220607   2.813   2.604   4.783 -0.9411  0.7515 -0.4227
 3049SOL     OW20608   1.133   3.003   4.923  0.4899 -0.2774  0.4015
 3049SOL    HW120609   1.220   2.963   4.916  0.1662 -0.8620 -0.2404
 3049SOL    HW220610   1.148   3.097   4.919  2.2970 -0.4488  2.6519
 3050SOL     OW20611   1.922   1.145   3.288  0.4181 -0.8888 -0.2728
 3050SOL    HW120612   1.985   1.097   3.342  2.4643  0.9780 -1.0320
 3050SOL    HW220613   1.977   1.210   3.245 -1.1840  1.6314  1.5050
 3051SOL     OW20614   0.191   4.477   6.022  0.3793 -0.5145  0.5020
 3051SOL    HW120615   0.273   4.433   6.044  0.0167 -1.2105  0.4904
 3051SOL    HW220616   0.203   4.565   6.057  0.6209 -0.6418  0.7391
 3052SOL     OW20617   2.537   2.569   4.578 -0.0281 -0.9141 -0.1001
 3052SOL    HW120618   2.610   2.586   4.637  0.9787 -0.7176 -1.4038
 3052SOL    HW220619   2.553   2.476   4.560  0.9708 -1.0242  1.3675
 3053SOL     OW20620   3.069   4.672  16.754  0.5118  1.0570  0.3593
 3053SOL    HW120621   3.103   4.601  16.808 -0.9963 -0.5575 -0.8076
 3053SOL    HW220622   3.043   4.629  16.673  0.5399  2.2796 -0.2942
 3054SOL     OW20623   1.989   2.403   2.561  0.6249  0.8629 -0.2617
 3054SOL    HW120624   1.933   2.348   2.616  1.1052 -0.5036 -1.1378
 3054SOL    HW220625   1.919   2.444   2.509 -0.8223 -0.2914  0.7795
 3055SOL     OW20626   0.770   3.977   7.961  0.6103  0.1865  0.1103
 3055SOL    HW120627   0.710   4.034   8.009 -0.9827 -0.7123 -0.8156
 3055SOL    HW220628   0.848   4.020   7.996 -0.4404  2.3507 -0.2330
 3056SOL     OW20629   3.157   4.340   7.307 -0.0733  0.1876  0.0065
 3056SOL    HW120630   3.178   4.252   7.276 -2.4011  0.4387 -2.2705
 3056SOL    HW220631   3.123   4.384   7.229 -1.2013 -2.8647 -1.1867
 3057SOL     OW20632   0.275   2.450  14.262 -0.4340  0.1412 -0.0676
 3057SOL    HW120633   0.201   2.491  14.218  0.3972  1.6650 -0.0563
 3057SOL    HW220634   0.314   2.529  14.299  1.1642  0.5362 -2.6743
 3058SOL     OW20635   4.693   3.104   2.758  0.4801 -0.1252  0.4485
 3058SOL    HW120636   4.652   3.123   2.674  0.5895  1.2363  0.6975
 3058SOL    HW220637   4.625   3.138   2.817 -0.6962 -1.0912 -0.3504
 3059SOL     OW20638   4.202   4.281   8.626  0.2804  0.2963  0.6818
 3059SOL    HW120639   4.180   4.239   8.710  1.9930 -1.6205  0.1634
 3059SOL    HW220640   4.125   4.338   8.630 -0.5191 -0.7932  0.9972
 3060SOL     OW20641   2.248   3.078  17.361  0.4409 -0.3682  0.1298
 3060SOL    HW120642   2.234   3.021  17.436 -1.0831  1.0949  0.9431
 3060SOL    HW220643   2.157   3.082  17.329  0.3346 -0.4095  0.4297
 3061SOL     OW20644   2.818   3.121  11.302 -0.0586  0.4809  0.6095
 3061SOL    HW120645   2.764   3.115  11.223 -0.5313 -1.5073  1.0978
 3061SOL    HW220646   2.770   3.181  11.359  2.2379 -0.1682  3.2074
 3062SOL     OW20647   0.834   0.415   6.411 -0.0274 -0.5902  0.3328
 3062SOL    HW120648   0.908   0.475   6.420 -0.0072 -0.5800  0.1058
 3062SOL    HW220649   0.880   0.339   6.376 -1.4724 -0.1515 -2.5323
 3063SOL     OW20650   3.302   2.721   0.778  0.4211 -0.1429 -0.7074
 3063SOL    HW120651   3.229   2.685   0.728  0.9243 -0.4444 -1.2250
 3063SOL    HW220652   3.303   2.803   0.729  1.8720  0.5046  0.4290
 3064SOL     OW20653   3.976   1.089   5.394 -0.3047  0.2878  0.0767
 3064SOL    HW120654   3.978   1.181   5.366  2.3393 -1.1104 -4.2573
 3064SOL    HW220655   3.966   1.047   5.309 -0.2223  1.6439 -0.6096
 3065SOL     OW20656   0.541   4.609   6.030 -0.5426 -0.5643  0.1760
 3065SOL    HW120657   0.490   4.562   5.964 -0.3902  0.0720 -0.3913
 3065SOL    HW220658   0.623   4.570   6.001  0.0041  1.1818 -0.6232
 3066SOL     OW20659   3.156   2.880  11.534 -0.0574  0.6422  0.5362
 3066SOL    HW120660   3.133   2.916  11.620 -0.1142 -0.2710  0.9060
 3066SOL    HW220661   3.122   2.792  11.544 -0.0473  0.4512 -1.1721
 3067SOL     OW20662   0.974   4.508  10.928 -0.0151  0.3596 -0.0181
 3067SOL    HW120663   1.042   4.478  10.988  1.5754  0.2673 -1.8955
 3067SOL    HW220664   0.927   4.427  10.909 -0.7636  0.7849  0.0039
 3068SOL     OW20665   1.306   0.340   3.321  0.7557  0.0025  0.5039
 3068SOL    HW120666   1.289   0.341   3.415  1.1971  1.7871  0.5574
 3068SOL    HW220667   1.254   0.261   3.306  0.7130 -0.0045  0.6958
 3069SOL     OW20668   3.011   1.947  13.355 -0.0338  0.3230  0.9667
 3069SOL    HW120669   3.058   1.908  13.281  0.9846  0.4446  1.5545
 3069SOL    HW220670   2.989   2.034  13.322  0.6235  0.2436  0.3269
 3070SOL     OW20671   1.412   2.938   4.019  0.6586 -0.0101  0.1504
 3070SOL    HW120672   1.414   2.882   3.942 -0.9495 -0.0733  0.1610
 3070SOL    HW220673   1.431   2.878   4.092  0.6465  0.3738  0.4709
 3071SOL     OW20674   1.893   1.798   8.673 -0.0314  0.0734  0.0495
 3071SOL    HW120675   1.918   1.775   8.763  0.4305 -0.1379 -0.1357
 3071SOL    HW220676   1.963   1.860   8.651 -0.4593  0.2803 -0.7303
 3072SOL     OW20677   4.538   3.096   6.680 -0.4353 -0.1663  0.5341
 3072SOL    HW120678   4.470   3.029   6.674  0.0924 -0.6494  0.0704
 3072SOL    HW220679   4.599   3.055   6.741 -0.0816  0.9819  0.9454
 3073SOL     OW20680   2.477   2.003   4.143 -0.0670  0.3665 -0.1903
 3073SOL    HW120681   2.523   1.951   4.077  0.8486  0.7849  0.1231
 3073SOL    HW220682   2.549   2.018   4.205 -1.6279  0.5052  1.5777
 3074SOL     OW20683   0.795   0.363   4.822 -0.1768  0.7646 -0.0406
 3074SOL    HW120684   0.724   0.400   4.770 -1.9771 -1.0590  1.1371
 3074SOL    HW220685   0.758   0.297   4.879 -0.6530 -0.3471 -1.6343
 3075SOL     OW20686   2.403   4.658   4.198  0.0765 -0.0845 -0.0875
 3075SOL    HW120687   2.416   4.596   4.126 -2.6547 -0.0551 -0.6237
 3075SOL    HW220688   2.309   4.651   4.214  0.4450 -4.5514  0.2080
 3076SOL     OW20689   0.949   4.675   7.991 -0.2990  0.4321  0.5166
 3076SOL    HW120690   0.998   4.596   8.013  0.5065  0.0621 -2.5417
 3076SOL    HW220691   0.882   4.680   8.059 -2.2898  0.0961 -1.4324
 3077SOL     OW20692   4.212   2.878   3.931 -0.1285  0.4524 -0.0255
 3077SOL    HW120693   4.259   2.812   3.981 -0.1615 -0.4753 -1.2273
 3077SOL    HW220694   4.281   2.942   3.913  0.3760  0.0871  0.5984
 3078SOL     OW20695   1.917   2.503   5.326  0.2448 -0.6414  0.1816
 3078SOL    HW120696   1.915   2.441   5.253  0.3567  1.1542 -1.3451
 3078SOL    HW220697   1.926   2.583   5.274  1.2985 -0.8364  0.0568
 3079SOL     OW20698   3.569   1.181   2.541 -0.3636  0.0614 -0.0345
 3079SOL    HW120699   3.619   1.258   2.569 -1.6942  0.4281  1.3118
 3079SOL    HW220700   3.634   1.128   2.493  1.1622  1.1685  0.8037
 3080SOL     OW20701   4.532   2.855   4.699 -0.3111  0.3091 -0.4178
 3080SOL    HW120702   4.453   2.847   4.645 -1.7207 -1.0067  1.8594
 3080SOL    HW220703   4.486   2.867   4.782 -0.6431 -0.1934 -0.5276
 3081SOL     OW20704   1.552   4.341   7.033 -0.1752  0.1067  0.1550
 3081SOL    HW120705   1.474   4.359   7.085 -0.7553 -0.7812 -0.4024
 3081SOL    HW220706   1.598   4.277   7.087 -0.6833  0.0197  0.4772
 3082SOL     OW20707   1.176   1.291   6.591  0.0039 -0.2340 -0.6166
 3082SOL    HW120708   1.171   1.376   6.547 -1.0751 -0.2430 -0.4945
 3082SOL    HW220709   1.260   1.267   6.552  1.2463  1.2109  1.1359
 3083SOL     OW20710   4.007   2.428   8.692  0.4108  0.0155 -0.4899
 3083SOL    HW120711   3.973   2.518   8.694  0.1753 -0.1518  2.6694
 3083SOL    HW220712   3.944   2.387   8.752  1.6545  1.5792  1.8574
 3084SOL     OW20713   1.810   3.702   8.700  0.5659  0.1699 -0.0024
 3084SOL    HW120714   1.864   3.734   8.773  1.1280 -3.1236  1.0134
 3084SOL    HW220715   1.815   3.609   8.722 -1.1627  0.2443  0.7111
 3085SOL     OW20716   4.158   3.881   8.416 -0.2066 -0.3115  0.4642
 3085SOL    HW120717   4.191   3.793   8.397  1.8822  0.4755  0.5145
 3085SOL    HW220718   4.111   3.854   8.494  1.5946 -3.2867  0.5171
 3086SOL     OW20719   4.024   4.658   1.292 -0.2027  0.0855 -0.1257
 3086SOL    HW120720   3.954   4.664   1.228 -0.1685  1.8298  0.0115
 3086SOL    HW220721   3.981   4.625   1.371 -1.1518 -0.4191 -0.8639
 3087SOL     OW20722   1.310   0.024   8.671  0.4384  0.2171  0.4282
 3087SOL    HW120723   1.345   0.013   8.759 -1.1557  1.2371  1.1909
 3087SOL    HW220724   1.229   0.074   8.686  0.3398  0.8039 -2.0607
 3088SOL     OW20725   1.315   3.710   6.602  0.1941 -0.3798 -0.0009
 3088SOL    HW120726   1.232   3.692   6.558 -0.6994 -0.6141  1.7822
 3088SOL    HW220727   1.336   3.802   6.587 -0.0276 -0.0960  1.4530
 3089SOL     OW20728   0.165   4.387  13.282  0.0068  0.3799 -0.4808
 3089SOL    HW120729   0.163   4.317  13.347 -1.2502 -0.2050 -1.1509
 3089SOL    HW220730   0.247   4.434  13.302  1.8606 -2.3065 -1.7954
 3090SOL     OW20731   1.491   4.638  10.708 -0.1397 -0.2438 -0.0149
 3090SOL    HW120732   1.478   4.604  10.796 -0.1263 -1.8084 -0.6300
 3090SOL    HW220733   1.525   0.002  10.720 -2.3840  0.4191  1.3297
 3091SOL     OW20734   4.448   0.063   1.449 -0.3432 -0.5244  0.0002
 3091SOL    HW120735   4.494   0.095   1.371 -0.7661 -0.9261 -0.4132
 3091SOL    HW220736   4.368   0.032   1.407 -0.9924  1.8567 -0.5191
 3092SOL     OW20737   3.599   2.242   2.456 -0.3224  0.6087  0.2741
 3092SOL    HW120738   3.622   2.236   2.363 -0.7274  0.8697  0.1557
 3092SOL    HW220739   3.517   2.291   2.461 -2.0442 -2.0772 -1.4349
 3093SOL     OW20740   4.419   0.857   8.582  0.0243 -0.0489  0.2186
 3093SOL    HW120741   4.356   0.841   8.652 -2.0015 -0.1410 -1.6300
 3093SOL    HW220742   4.500   0.869   8.632 -0.5410  3.3263  0.3614
 3094SOL     OW20743   4.422   0.083   2.225 -0.3067 -0.1581  0.6799
 3094SOL    HW120744   4.452   0.010   2.279  0.6683 -0.4413 -0.2439
 3094SOL    HW220745   4.498   0.106   2.172  1.6649 -1.2224  3.0330
 3095SOL     OW20746   0.203   4.357  14.729 -0.5767  0.7416  0.1403
 3095SOL    HW120747   0.193   4.364  14.824 -0.4443 -0.3465  0.2342
 3095SOL    HW220748   0.116   4.377  14.695  0.1007 -0.8747 -2.5011
 3096SOL     OW20749   0.869   3.587  17.468 -0.1244 -0.2715 -0.3388
 3096SOL    HW120750   0.801   3.611  17.405 -0.2923 -1.2530 -0.5237
 3096SOL    HW220751   0.818   3.528  17.522 -0.1008 -0.3499 -0.4023
 3097SOL     OW20752   4.660   1.250   4.846  0.0230  0.3399  0.6581
 3097SOL    HW120753   4.711   1.276   4.769  0.2949  1.8517  1.3430
 3097SOL    HW220754   0.000   1.243   4.915 -0.7250  0.0080  1.3276
 3098SOL     OW20755   4.619   2.853   9.338  0.6623 -0.2429 -0.1546
 3098SOL    HW120756   4.545   2.913   9.338  1.6996  1.0442  0.2712
 3098SOL    HW220757   4.576   2.768   9.327  1.1540 -0.4886 -0.1920
 3099SOL     OW20758   1.473   0.831   6.972  0.5984 -0.3692 -0.0143
 3099SOL    HW120759   1.566   0.845   6.988  0.2817  1.5251  0.1303
 3099SOL    HW220760   1.486   0.739   6.948  0.3107 -0.5850  0.6607
 3100SOL     OW20761   4.301   2.303   3.274 -0.0365 -0.0460  0.0487
 3100SOL    HW120762   4.375   2.297   3.213  1.6900  1.6413  1.9366
 3100SOL    HW220763   4.288   2.210   3.292 -0.6392 -0.1794 -1.0625
 3101SOL     OW20764   2.798   2.871   9.248 -0.4082 -0.4077 -0.3996
 3101SOL    HW120765   2.826   2.833   9.165  2.7180 -0.0830  0.5299
 3101SOL    HW220766   2.727   2.928   9.218 -0.0821  0.8860  1.2533
 3102SOL     OW20767   3.684   0.554   5.098  0.5925 -0.5678  0.3782
 3102SOL    HW120768   3.673   0.494   5.024  0.7381 -0.6146  0.3948
 3102SOL    HW220769   3.772   0.528   5.122  1.5818  1.1736 -1.4077
 3103SOL     OW20770   4.356   3.888   7.207  0.7704  0.2141  0.2969
 3103SOL    HW120771   4.391   3.958   7.262 -1.1073  1.9065 -0.6592
 3103SOL    HW220772   4.434   3.833   7.195  0.1921 -1.0677  2.5935
 3104SOL     OW20773   3.585   1.091   3.019  0.0614  0.6151 -0.4968
 3104SOL    HW120774   3.501   1.111   2.978 -0.2112  0.3613 -0.0740
 3104SOL    HW220775   3.630   1.065   2.940 -0.5332  2.3499 -1.4133
 3105SOL     OW20776   3.661   2.536  16.378  0.0870 -0.1964 -0.1491
 3105SOL    HW120777   3.634   2.476  16.309 -1.5130 -0.8622  1.0624
 3105SOL    HW220778   3.745   2.578  16.357 -0.1267  0.0245 -0.5525
 3106SOL     OW20779   0.437   2.533   1.904 -0.5888 -0.4412  0.1653
 3106SOL    HW120780   0.532   2.521   1.896 -0.5117  0.6464 -0.6788
 3106SOL    HW220781   0.428   2.603   1.839 -0.8951  1.0270  1.7950
 3107SOL     OW20782   1.071   0.680   8.716 -0.0889 -0.4250 -0.3693
 3107SOL    HW120783   1.039   0.729   8.792  0.2197  0.3196 -0.7256
 3107SOL    HW220784   1.166   0.688   8.727 -0.3240 -0.0043  1.3064
 3108SOL     OW20785   1.230   2.828   6.850 -0.4994  0.0405 -0.6395
 3108SOL    HW120786   1.224   2.753   6.910 -0.9257 -1.5930 -2.7173
 3108SOL    HW220787   1.277   2.789   6.776 -0.0670  0.9537 -0.8449
 3109SOL     OW20788   2.601   3.064  17.206  0.0465 -0.6990 -0.0407
 3109SOL    HW120789   2.555   3.133  17.160 -0.3328 -0.4408  0.7364
 3109SOL    HW220790   2.627   2.999  17.140 -1.9500 -0.9470 -0.5700
 3110SOL     OW20791   0.386   0.215   4.379 -0.6359 -0.3589  0.4667
 3110SOL    HW120792   0.408   0.166   4.299 -2.1099 -0.5636  0.1762
 3110SOL    HW220793   0.366   0.148   4.444 -0.9287 -0.0619  0.6777
 3111SOL     OW20794   3.674   0.704   2.776 -0.4866 -0.6038  0.0827
 3111SOL    HW120795   3.752   0.689   2.724  1.4044 -0.0690  2.7554
 3111SOL    HW220796   3.691   0.643   2.848  0.9281 -0.6400 -0.2890
 3112SOL     OW20797   4.637   3.101   9.065 -0.6723 -0.2491  1.0108
 3112SOL    HW120798   0.005   3.090   9.080 -0.6544 -2.3347 -0.5454
 3112SOL    HW220799   4.632   3.184   9.018 -1.0072 -0.5413  0.5242
 3113SOL     OW20800   2.599   1.910  12.303 -0.1512  0.4068 -0.0040
 3113SOL    HW120801   2.633   1.821  12.309 -1.6423 -0.1238  0.7078
 3113SOL    HW220802   2.512   1.890  12.340 -0.5625 -0.7891 -1.6287
 3114SOL     OW20803   0.508   0.246   4.936 -0.1008  0.3887  0.2069
 3114SOL    HW120804   0.560   0.260   5.015  0.7925 -0.3352 -0.2477
 3114SOL    HW220805   0.427   0.293   4.957  0.1735  0.6395  0.7018
 3115SOL     OW20806   0.987   0.455   3.486 -0.7178 -0.3542  0.2857
 3115SOL    HW120807   0.991   0.544   3.521 -0.8180  0.0498 -0.7292
 3115SOL    HW220808   1.079   0.430   3.493 -0.4901 -0.0757 -1.5483
 3116SOL     OW20809   1.942   4.382   0.292  0.4851 -0.0334 -0.3760
 3116SOL    HW120810   1.867   4.338   0.331  1.8577  0.8225  3.2458
 3116SOL    HW220811   2.014   4.335   0.334  3.1093  2.6422 -1.8306
 3117SOL     OW20812   4.013   3.519   3.981  0.0875 -0.3384 -0.1959
 3117SOL    HW120813   3.987   3.504   3.891 -1.8855  2.3252 -0.0587
 3117SOL    HW220814   3.967   3.452   4.032 -0.8264  0.2989 -0.2039
 3118SOL     OW20815   3.873   2.791   5.049  0.3715 -0.2639  0.0906
 3118SOL    HW120816   3.804   2.813   4.986 -0.7596  0.3733  1.5528
 3118SOL    HW220817   3.903   2.881   5.060  0.4747 -0.5689  2.2753
 3119SOL     OW20818   1.873   1.825  17.664  0.0999 -0.0532  0.0542
 3119SOL    HW120819   1.786   1.799  17.634  0.8860  0.9383 -3.1578
 3119SOL    HW220820   1.927   1.763  17.614 -0.3838 -0.6357  0.2578
 3120SOL     OW20821   0.499   3.920   7.100 -0.4408 -0.2989 -0.1795
 3120SOL    HW120822   0.580   3.889   7.059  1.1479  1.7618  1.4538
 3120SOL    HW220823   0.500   4.012   7.074  3.7306 -0.5228 -0.7729
 3121SOL     OW20824   1.536   2.336   4.258  0.2757  0.0840  0.2508
 3121SOL    HW120825   1.515   2.258   4.206  0.1264  0.7330 -0.6481
 3121SOL    HW220826   1.450   2.360   4.292 -0.5394  0.6149 -2.1796
 3122SOL     OW20827   1.987   0.382   4.421  0.0177 -0.0040 -0.4468
 3122SOL    HW120828   1.993   0.325   4.344  1.1027  1.0928 -1.1617
 3122SOL    HW220829   2.042   0.327   4.476 -0.5003 -2.6164 -2.5442
 3123SOL     OW20830   3.931   4.588   5.299  0.1002 -0.5650 -0.0030
 3123SOL    HW120831   3.881   4.507   5.294 -0.2168 -0.3648 -0.0601
 3123SOL    HW220832   3.908   4.612   5.389  0.6515  0.6341 -0.1863
 3124SOL     OW20833   2.485   4.322   2.714  0.3410  0.1292  0.2411
 3124SOL    HW120834   2.534   4.241   2.723 -1.7489 -0.9606  1.7724
 3124SOL    HW220835   2.396   4.293   2.732  0.7593 -2.8543 -2.3903
 3125SOL     OW20836   2.862   1.866   0.387 -0.3716  0.5446 -0.0152
 3125SOL    HW120837   2.864   1.877   0.292  0.2357  1.4621  0.1059
 3125SOL    HW220838   2.792   1.802   0.372  1.5150 -1.8837  1.5510
 3126SOL     OW20839   0.751   3.787   6.014  0.3749 -0.5247  0.5007
 3126SOL    HW120840   0.725   3.724   5.947  0.3652 -0.4123  0.4000
 3126SOL    HW220841   0.664   3.812   6.046 -0.1259 -2.4335  0.6293
 3127SOL     OW20842   2.803   0.636  11.478 -0.0456 -0.3871 -0.5023
 3127SOL    HW120843   2.729   0.686  11.443 -1.3406 -2.1903 -0.3727
 3127SOL    HW220844   2.861   0.628  11.402  2.0417 -1.4537  1.2091
 3128SOL     OW20845   0.373   4.249   1.852 -0.1143  0.2820 -0.1082
 3128SOL    HW120846   0.282   4.219   1.852  0.1390 -0.4449  1.2306
 3128SOL    HW220847   0.353   4.340   1.829 -0.1406  0.1537 -0.5922
 3129SOL     OW20848   2.529   1.043   2.124  0.3803  0.6779 -0.0981
 3129SOL    HW120849   2.492   0.955   2.127 -0.7287  1.1163 -1.0645
 3129SOL    HW220850   2.616   1.027   2.088  0.2185 -2.0238  0.7651
 3130SOL     OW20851   3.875   2.798   0.415  0.3815  0.4100 -0.1100
 3130SOL    HW120852   3.939   2.841   0.472  0.9476  0.7769 -1.0269
 3130SOL    HW220853   3.802   2.788   0.477  0.9105 -1.0487  0.2721
 3131SOL     OW20854   3.449   0.808   9.789 -0.2693 -0.6442  0.8176
 3131SOL    HW120855   3.542   0.797   9.769 -0.4304 -0.1141 -0.2445
 3131SOL    HW220856   3.439   0.898   9.757  1.0594 -0.8209 -0.0949
 3132SOL     OW20857   2.984   0.608   5.800 -0.2122  0.1421  0.5187
 3132SOL    HW120858   2.937   0.631   5.880 -1.8810  1.1224 -0.7298
 3132SOL    HW220859   3.053   0.548   5.827 -0.0020  0.5134  0.7969
 3133SOL     OW20860   4.554   2.060   8.912  0.2516  0.1410  0.0320
 3133SOL    HW120861   4.485   2.005   8.874  0.6072 -0.4777  0.3012
 3133SOL    HW220862   4.616   1.993   8.937  0.8088  0.4642 -0.4933
 3134SOL     OW20863   0.230   0.214  16.257  0.2054  0.1326  0.1788
 3134SOL    HW120864   0.305   0.154  16.254  0.9489  0.9789  1.6497
 3134SOL    HW220865   0.276   0.298  16.252  0.2522  0.2450  2.2659
 3135SOL     OW20866   4.649   1.816   1.499 -0.2696 -0.1112 -0.2145
 3135SOL    HW120867   4.703   1.745   1.534 -0.5027 -0.3024 -0.2466
 3135SOL    HW220868   4.662   1.824   1.405  0.5349  1.4301  0.0247
 3136SOL     OW20869   2.448   3.456  15.035 -0.0319  0.3290  0.4027
 3136SOL    HW120870   2.466   3.411  14.952  0.5211  2.3838 -0.5745
 3136SOL    HW220871   2.495   3.538  15.020  0.5107  0.2232  1.4879
 3137SOL     OW20872   3.983   3.554   6.518 -0.4670  0.5520  1.0144
 3137SOL    HW120873   4.071   3.592   6.523 -0.3557  0.2591  1.3488
 3137SOL    HW220874   4.007   3.465   6.490  0.7926  1.9043 -2.1767
 3138SOL     OW20875   4.278   2.545  15.220 -0.1568 -0.5037 -0.2445
 3138SOL    HW120876   4.292   2.452  15.235 -2.7687 -0.6985  0.9954
 3138SOL    HW220877   4.202   2.535  15.163  1.2241  2.3922 -2.6083
 3139SOL     OW20878   3.476   1.799   0.762 -0.7877  0.0901  1.0228
 3139SOL    HW120879   3.518   1.882   0.782 -1.2066 -0.0956  2.6422
 3139SOL    HW220880   3.551   1.741   0.779  0.8421  2.6945  2.5434
 3140SOL     OW20881   2.700   0.734  16.345  0.1878  0.2853  0.5952
 3140SOL    HW120882   2.711   0.773  16.258  0.7042  1.3257  1.1348
 3140SOL    HW220883   2.611   0.703  16.328  0.7066 -0.8330 -0.0789
 3141SOL     OW20884   4.215   3.906   1.149 -0.3055 -0.1185 -0.1986
 3141SOL    HW120885   4.163   3.835   1.187  0.2665  0.2562  1.2810
 3141SOL    HW220886   4.147   3.963   1.114 -0.2330  0.0508 -0.0581
 3142SOL     OW20887   3.153   3.844   5.332  0.5755 -0.0639 -0.3577
 3142SOL    HW120888   3.078   3.785   5.344 -0.8510  2.0190  0.8971
 3142SOL    HW220889   3.203   3.816   5.408  4.2276  0.6394 -2.5173
 3143SOL     OW20890   3.044   4.513  13.154  0.5277 -0.3750  0.2220
 3143SOL    HW120891   3.122   4.475  13.113 -0.6035 -3.0014  0.4888
 3143SOL    HW220892   3.007   4.563  13.081 -0.7656 -2.2902 -0.4546
 3144SOL     OW20893   0.917   1.234   5.318 -0.7629 -0.2314 -0.4701
 3144SOL    HW120894   0.905   1.309   5.377  0.1077 -1.6349  1.5010
 3144SOL    HW220895   0.885   1.254   5.230 -2.0159  0.9346  0.2425
 3145SOL     OW20896   3.111   1.243   5.504  0.3054 -0.5190  0.1506
 3145SOL    HW120897   3.154   1.166   5.468  0.0267 -0.6005 -0.0068
 3145SOL    HW220898   3.111   1.303   5.430  1.4880  0.0960  0.6425
 3146SOL     OW20899   0.659   1.684   3.536 -0.5438 -0.6122  0.1640
 3146SOL    HW120900   0.703   1.643   3.462 -1.2262 -1.6561  0.3258
 3146SOL    HW220901   0.711   1.660   3.613  0.3661  4.5355  1.1255
 3147SOL     OW20902   2.411   3.949   5.189  0.2015 -0.2123  0.0071
 3147SOL    HW120903   2.346   3.974   5.123 -1.7006  1.0565  2.4033
 3147SOL    HW220904   2.472   4.022   5.188  3.5079 -3.0028  0.0677
 3148SOL     OW20905   4.593   0.496   3.999  0.0813 -0.0228 -0.2618
 3148SOL    HW120906   4.521   0.540   3.954 -0.4197 -0.6527 -0.0841
 3148SOL    HW220907   4.638   0.573   4.033  1.4502 -0.8222 -0.2640
 3149SOL     OW20908   2.840   4.428  15.387 -0.2442 -0.1369 -0.0923
 3149SOL    HW120909   2.751   4.394  15.384  1.2802 -4.0325 -1.3189
 3149SOL    HW220910   2.824   4.513  15.427 -2.5375  0.1573 -1.6737
 3150SOL     OW20911   2.343   0.895   7.373 -0.6337 -0.1457 -0.0793
 3150SOL    HW120912   2.405   0.884   7.445 -1.9008 -0.9799  0.8854
 3150SOL    HW220913   2.406   0.892   7.301 -0.7783  2.1916 -0.3164
 3151SOL     OW20914   0.448   4.602   6.292 -0.3533  0.3283  0.1676
 3151SOL    HW120915   0.513   4.671   6.276 -2.6340  2.0043 -1.6887
 3151SOL    HW220916   0.434   4.574   6.202  1.6167 -2.5762  0.7565
 3152SOL     OW20917   3.282   2.533   1.726 -0.0686 -0.8395  0.7425
 3152SOL    HW120918   3.244   2.504   1.810 -2.3532  0.1852  0.0546
 3152SOL    HW220919   3.217   2.510   1.659 -1.7007 -0.7869  2.2911
 3153SOL     OW20920   4.512   0.298  15.495 -0.1820 -0.1792  0.2660
 3153SOL    HW120921   4.479   0.379  15.533  0.8423  0.2057  0.3357
 3153SOL    HW220922   4.550   0.243  15.564  0.8696  0.5773  0.2856
 3154SOL     OW20923   1.196   1.062   0.057 -0.0300  0.2098  0.3166
 3154SOL    HW120924   1.219   1.145   0.015 -0.4372  0.4079  0.4824
 3154SOL    HW220925   1.183   1.091   0.147 -0.2051 -0.2409  0.4361
 3155SOL     OW20926   1.550   1.896   2.727 -0.2741  0.5933 -0.2500
 3155SOL    HW120927   1.486   1.904   2.797  0.8868 -0.9871  0.9708
 3155SOL    HW220928   1.546   1.802   2.707 -1.3085  0.4422  0.6580
 3156SOL     OW20929   4.060   4.141   3.133 -0.7085 -0.4547  0.1204
 3156SOL    HW120930   4.052   4.236   3.133 -1.2710 -0.5291 -3.4503
 3156SOL    HW220931   4.067   4.126   3.228 -0.7899 -0.1874  0.1681
 3157SOL     OW20932   3.680   0.472   4.016  0.0660 -0.3707  0.0150
 3157SOL    HW120933   3.619   0.438   3.950 -1.1988  0.3930  0.7916
 3157SOL    HW220934   3.757   0.484   3.961 -0.2729 -0.8357 -0.5678
 3158SOL     OW20935   2.598   4.377   2.247  0.5798  0.1691  0.2303
 3158SOL    HW120936   2.689   4.407   2.255  0.3659  0.6799  0.7992
 3158SOL    HW220937   2.550   4.436   2.306 -0.6585 -2.0050  1.3746
 3159SOL     OW20938   1.933   2.208   3.328  0.2070  0.2913  0.3534
 3159SOL    HW120939   1.838   2.204   3.344  0.1149  0.5011 -0.1242
 3159SOL    HW220940   1.938   2.261   3.248  1.1646  1.0379  0.9190
 3160SOL     OW20941   3.659   4.527   9.070 -0.1100 -0.0554  0.0363
 3160SOL    HW120942   3.596   4.513   9.000  0.8241  0.0568 -0.8343
 3160SOL    HW220943   3.677   4.621   9.066  0.0013 -0.0276  1.0610
 3161SOL     OW20944   2.923   2.510   3.121  0.0988  0.1781  0.2960
 3161SOL    HW120945   2.938   2.572   3.192 -0.9835  0.3967  0.3377
 3161SOL    HW220946   2.828   2.500   3.131 -0.0122  1.3561  0.4089
 3162SOL     OW20947   2.824   0.089   8.116 -0.4247  0.2022 -0.0695
 3162SOL    HW120948   2.836   0.040   8.198  1.0152  0.6269 -0.0205
 3162SOL    HW220949   2.845   0.178   8.144 -2.4265  1.4368 -2.5160
 3163SOL     OW20950   3.425   0.260   3.215  0.2542 -0.3288 -0.1244
 3163SOL    HW120951   3.418   0.165   3.218 -0.8929 -0.2221  0.7458
 3163SOL    HW220952   3.448   0.279   3.306 -2.1410 -1.6893  0.7606
 3164SOL     OW20953   1.264   1.746  10.842  0.6295  0.4363  0.3313
 3164SOL    HW120954   1.242   1.663  10.800 -0.4621 -0.2504  2.2651
 3164SOL    HW220955   1.358   1.745  10.825  0.6934 -1.3847  0.7746
 3165SOL     OW20956   2.279   0.215   4.942 -0.2005  0.0922  0.2067
 3165SOL    HW120957   2.255   0.255   5.026  0.6897 -2.1636  1.5251
 3165SOL    HW220958   2.196   0.176   4.914 -1.9871  1.3923  3.6642
 3166SOL     OW20959   0.550   3.592   3.617  0.2697 -1.0250 -0.2402
 3166SOL    HW120960   0.473   3.616   3.669  1.5262 -1.0480  1.6367
 3166SOL    HW220961   0.612   3.663   3.634  3.0820 -3.4115 -0.5706
 3167SOL     OW20962   3.655   2.533   4.202 -0.3058  0.3987  0.3825
 3167SOL    HW120963   3.696   2.463   4.151  3.7099  1.6939  1.8074
 3167SOL    HW220964   3.717   2.606   4.198 -1.1087  1.0157 -0.9181
 3168SOL     OW20965   1.559   4.458   0.986 -0.1335  0.2177  0.1116
 3168SOL    HW120966   1.610   4.405   1.046  0.2805 -0.0441 -0.4746
 3168SOL    HW220967   1.469   4.436   1.010  0.0893  1.4255  2.0249
 3169SOL     OW20968   2.603   3.553   0.980 -0.0746 -0.1892 -0.4800
 3169SOL    HW120969   2.629   3.547   1.072  1.9115  0.1279 -1.0185
 3169SOL    HW220970   2.582   3.462   0.962 -0.0108  0.0406 -1.7498
 3170SOL     OW20971   2.109   2.182  10.650 -0.1020  0.0570  0.0123
 3170SOL    HW120972   2.043   2.147  10.591  0.5465 -2.1500  0.5692
 3170SOL    HW220973   2.117   2.272  10.620 -2.7399  0.2300 -0.1699
 3171SOL     OW20974   0.607   0.051   3.061 -0.4002 -0.2335 -0.2651
 3171SOL    HW120975   0.520   0.091   3.051 -0.5964  0.0479  2.4059
 3171SOL    HW220976   0.659   0.108   3.004 -1.4805  0.5546 -0.4624
 3172SOL     OW20977   1.612   0.080   6.329 -0.0054 -0.3514  0.0294
 3172SOL    HW120978   1.703   0.088   6.359  0.1345  2.2914 -1.1803
 3172SOL    HW220979   1.559   0.069   6.408  1.1382  0.6913  0.9505
 3173SOL     OW20980   4.362   0.070  12.377  0.1588  0.6149  0.1452
 3173SOL    HW120981   4.273   0.073  12.341  0.6261  1.6915 -0.9313
 3173SOL    HW220982   4.383   0.164  12.373  1.7819  0.2781  0.8765
 3174SOL     OW20983   1.355   0.070  14.639 -0.3990 -0.1013  0.2823
 3174SOL    HW120984   1.299   0.086  14.563  1.9675 -0.3564 -1.5271
 3174SOL    HW220985   1.347   0.157  14.679 -1.4473 -1.5859  3.2144
 3175SOL     OW20986   0.150   0.811   1.328 -0.0863 -0.1652  0.7657
 3175SOL    HW120987   0.142   0.863   1.407  2.7403  1.5830 -0.0940
 3175SOL    HW220988   0.211   0.745   1.361 -0.9389 -1.6330 -0.5822
 3176SOL     OW20989   0.586   2.948   6.686  0.3256  0.6808  0.2397
 3176SOL    HW120990   0.565   3.011   6.755 -3.4948  0.4297 -0.6840
 3176SOL    HW220991   0.603   2.869   6.735 -1.0660 -0.6157 -1.3581
 3177SOL     OW20992   1.438   3.944   9.268 -0.3998  0.4701  0.0461
 3177SOL    HW120993   1.478   4.028   9.248 -0.1191  0.4112  0.3531
 3177SOL    HW220994   1.470   3.931   9.357  4.4519  0.5796 -1.6492
 3178SOL     OW20995   4.592   4.064   8.433 -0.0078  0.1872 -0.4149
 3178SOL    HW120996   4.564   4.149   8.401 -1.7174 -0.9819 -2.0575
 3178SOL    HW220997   4.685   4.071   8.411 -0.8335 -0.0454 -3.9773
 3179SOL     OW20998   4.301   2.688   7.753 -0.3965 -0.0649  0.0634
 3179SOL    HW120999   4.348   2.770   7.768 -0.0319 -0.1672 -0.5027
 3179SOL    HW221000   4.352   2.634   7.814  2.0795 -1.2756 -3.0896
 3180SOL     OW21001   4.441   3.883   4.196 -0.3326 -0.2813  0.0904
 3180SOL    HW121002   4.477   3.808   4.242 -2.8816 -0.9380  1.0124
 3180SOL    HW221003   4.522   3.922   4.163 -0.9261 -0.3080 -1.4012
 3181SOL     OW21004   4.278   0.821   6.757  0.1851  0.0567  0.1625
 3181SOL    HW121005   4.188   0.836   6.729 -0.0642  0.8718  1.4088
 3181SOL    HW221006   4.302   0.908   6.787  0.1989 -0.4310  1.5546
 3182SOL     OW21007   2.769   4.198  15.669  0.1420 -0.1437 -0.3330
 3182SOL    HW121008   2.699   4.213  15.732  0.1414  0.0341 -0.3749
 3182SOL    HW221009   2.779   4.291  15.647  1.4861 -0.6693 -1.9096
 3183SOL     OW21010   2.593   0.391   0.613  0.0119 -0.0900  0.8619
 3183SOL    HW121011   2.683   0.395   0.580 -0.0277  1.4789  0.9673
 3183SOL    HW221012   2.580   0.484   0.631  1.9674  0.2226  0.7257
 3184SOL     OW21013   0.413   3.820   4.850 -0.3126 -0.3869 -0.1728
 3184SOL    HW121014   0.355   3.860   4.786 -0.6533  3.5103  2.5677
 3184SOL    HW221015   0.370   3.853   4.929  1.1329 -1.3470  1.0137
 3185SOL     OW21016   3.692   0.917  10.665 -0.0343  0.0005 -0.4441
 3185SOL    HW121017   3.609   0.871  10.649  0.1685 -1.0400  1.5234
 3185SOL    HW221018   3.749   0.840  10.669 -0.7975 -0.5971 -0.9971
 3186SOL     OW21019   3.087   3.987   6.920  0.1023  0.2486 -0.0665
 3186SOL    HW121020   3.155   4.007   6.856 -1.0227  1.2875 -0.9518
 3186SOL    HW221021   3.036   3.917   6.879  1.1385 -0.1640 -0.6526
 3187SOL     OW21022   4.274   2.351  12.618  0.0107 -0.1153 -0.0710
 3187SOL    HW121023   4.183   2.379  12.625  0.5542  2.1704 -2.1050
 3187SOL    HW221024   4.312   2.380  12.702 -1.3063 -2.4037  1.2991
 3188SOL     OW21025   3.383   4.463   0.294  0.3888 -0.1519  0.3919
 3188SOL    HW121026   3.360   4.444   0.203 -0.9763 -0.7819  0.8764
 3188SOL    HW221027   3.437   4.542   0.285 -0.5703  0.4659  0.0510
 3189SOL     OW21028   4.129   1.467   3.894 -0.1006  0.0242 -0.4228
 3189SOL    HW121029   4.190   1.450   3.966  0.3052  1.4043 -0.4455
 3189SOL    HW221030   4.197   1.463   3.826 -0.8324 -0.0760 -1.1436
 3190SOL     OW21031   2.251   1.648   0.965 -0.0843  0.0147 -0.3708
 3190SOL    HW121032   2.236   1.686   0.879  3.0002  2.4636  0.1675
 3190SOL    HW221033   2.346   1.647   0.963 -0.1015 -1.3675 -0.3620
 3191SOL     OW21034   3.640   4.662  11.599  0.0402 -0.6413  0.0199
 3191SOL    HW121035   3.570   4.606  11.566  1.2508 -1.3368 -1.3576
 3191SOL    HW221036   3.721   4.613  11.583  0.1828  0.4450 -2.5685
 3192SOL     OW21037   2.848   2.265   2.563 -0.2885  0.1727  0.4123
 3192SOL    HW121038   2.802   2.233   2.485  1.6913  0.2700 -0.7754
 3192SOL    HW221039   2.807   2.216   2.635 -0.6271 -1.8262 -1.1366
 3193SOL     OW21040   1.879   1.441   2.181  0.0515  0.1754  0.4945
 3193SOL    HW121041   1.939   1.387   2.130 -0.3075  0.7816 -0.5716
 3193SOL    HW221042   1.928   1.435   2.263  0.1983 -0.8068  0.3289
 3194SOL     OW21043   3.586   1.449   5.271  0.3902  0.2949 -0.4049
 3194SOL    HW121044   3.564   1.540   5.291  0.7821  0.3341 -0.1616
 3194SOL    HW221045   3.503   1.403   5.283  0.0742  1.2494  1.1020
 3195SOL     OW21046   3.873   2.826   1.679 -0.4943  1.0859  0.2883
 3195SOL    HW121047   3.817   2.787   1.612 -0.4160  0.1796  0.7591
 3195SOL    HW221048   3.944   2.866   1.628 -1.1383 -0.8912 -2.1373
 3196SOL     OW21049   2.941   3.572   9.687 -0.4690  0.8635  0.3139
 3196SOL    HW121050   3.012   3.599   9.744 -0.5086 -1.5411  1.4858
 3196SOL    HW221051   2.909   3.495   9.734  0.5900 -0.4241 -1.0896
 3197SOL     OW21052   0.293   2.692   9.022  0.1803 -0.5063 -0.0531
 3197SOL    HW121053   0.361   2.720   9.083  0.0433 -0.3908  0.0469
 3197SOL    HW221054   0.224   2.756   9.042  0.8229  0.1695  0.0116
 3198SOL     OW21055   0.848   0.492   9.507  0.3670  0.6776 -0.4307
 3198SOL    HW121056   0.900   0.413   9.497 -2.2675 -1.1043 -0.0870
 3198SOL    HW221057   0.796   0.487   9.427  1.2002  0.9217 -0.9876
 3199SOL     OW21058   2.380   2.448  16.785 -0.0449 -0.2379 -0.1587
 3199SOL    HW121059   2.336   2.389  16.846  0.0443 -0.1177  0.0235
 3199SOL    HW221060   2.425   2.390  16.725  0.3305 -0.5112  0.3951
 3200SOL     OW21061   4.166   4.286   0.536  0.2617 -0.2332  0.0886
 3200SOL    HW121062   4.109   4.303   0.610  1.7196  0.1438  1.1291
 3200SOL    HW221063   4.107   4.232   0.484 -0.9408  1.4933 -0.3371
 3201SOL     OW21064   2.804   3.904   4.036  0.6213  0.3870 -0.2646
 3201SOL    HW121065   2.828   3.826   3.986  1.4427  0.3938  0.1185
 3201SOL    HW221066   2.861   3.888   4.111 -1.3528  1.4450  1.4826
 3202SOL     OW21067   3.351   3.193   4.995  0.2596 -0.2294 -0.3257
 3202SOL    HW121068   3.416   3.228   4.933 -0.5822  2.3900  0.2467
 3202SOL    HW221069   3.392   3.125   5.049  1.8650  0.1510 -1.0696
 3203SOL     OW21070   1.392   1.089   4.341  0.4286 -0.2189  0.2072
 3203SOL    HW121071   1.460   1.068   4.276  1.7038 -2.5923  2.2900
 3203SOL    HW221072   1.359   0.999   4.348  0.5705 -0.3357 -0.6270
 3204SOL     OW21073   4.513   4.192   1.878 -0.2861  0.7095  0.4721
 3204SOL    HW121074   4.596   4.172   1.922 -1.2273  0.0121  1.9444
 3204SOL    HW221075   4.451   4.136   1.925  0.1733 -1.0705 -1.0578
 3205SOL     OW21076   3.098   0.084   7.964 -0.8098 -0.4391 -0.3652
 3205SOL    HW121077   3.117   0.172   7.931 -0.2711  0.0840  1.3962
 3205SOL    HW221078   3.005   0.089   7.987 -0.8905  0.9288 -0.9840
 3206SOL     OW21079   1.640   3.179  10.135  0.6221 -0.7850  0.4060
 3206SOL    HW121080   1.634   3.216  10.223  1.3233 -0.3456  0.2600
 3206SOL    HW221081   1.632   3.086  10.156 -3.1108 -0.1596  1.8524
 3207SOL     OW21082   0.324   1.322  10.600  0.8409 -0.3009 -0.1739
 3207SOL    HW121083   0.324   1.303  10.694  0.9976 -0.2257 -0.1581
 3207SOL    HW221084   0.232   1.317  10.576  0.5199  0.2636  0.9474
 3208SOL     OW21085   1.816   0.045   7.354 -0.3141  0.3908 -0.3804
 3208SOL    HW121086   1.847   0.068   7.442  0.9228  0.3846 -0.8108
 3208SOL    HW221087   1.834   4.677   7.351  0.1304  0.5368 -2.2951
 3209SOL     OW21088   1.719   1.151   2.140 -0.0676 -0.2259  0.7497
 3209SOL    HW121089   1.814   1.159   2.128 -0.2484  2.4753  1.0820
 3209SOL    HW221090   1.699   1.060   2.117  0.6525  0.1981 -1.5424
 3210SOL     OW21091   4.100   0.288   4.143 -0.0202  0.1619 -0.1259
 3210SOL    HW121092   4.014   0.290   4.101  0.1008 -0.4513 -0.4102
 3210SOL    HW221093   4.163   0.304   4.072 -0.4011  0.7018 -0.3451
 3211SOL     OW21094   2.321   4.024   5.780  0.0005 -0.7961  0.8270
 3211SOL    HW121095   2.330   3.936   5.741  4.9160  0.1721 -0.2153
 3211SOL    HW221096   2.412   4.036   5.806  0.3892 -0.7944 -0.5068
 3212SOL     OW21097   3.713   2.766   6.864  0.0585 -0.0233 -0.3703
 3212SOL    HW121098   3.788   2.772   6.805  0.9198 -1.0474  0.6094
 3212SOL    HW221099   3.650   2.817   6.812  1.0914  1.4756 -0.1500
 3213SOL     OW21100   2.100   1.741  11.522  0.4344  0.7544 -0.4251
 3213SOL    HW121101   2.039   1.691  11.467  1.5248 -0.8294 -0.1988
 3213SOL    HW221102   2.051   1.766  11.600  1.5003 -0.3271  0.5956
 3214SOL     OW21103   4.464   3.840   5.876 -0.5324  0.5365  0.1253
 3214SOL    HW121104   4.464   3.817   5.783  1.8752  0.6300  0.1037
 3214SOL    HW221105   4.519   3.918   5.869 -1.3869  1.2117  0.9107
 3215SOL     OW21106   0.257   2.694   2.607 -0.1185  0.0128  0.3819
 3215SOL    HW121107   0.248   2.683   2.512  2.2415 -0.3223  0.1745
 3215SOL    HW221108   0.216   2.779   2.622  0.0113  0.6082 -2.5176
 3216SOL     OW21109   4.671   2.166   1.079 -0.4992  0.5206  0.1134
 3216SOL    HW121110   4.688   2.131   1.166 -1.2276 -0.7117 -0.2361
 3216SOL    HW221111   4.670   2.080   1.038 -1.6608  0.0540  1.1216
 3217SOL     OW21112   2.099   2.513   6.401 -0.1850  0.2813 -0.0383
 3217SOL    HW121113   2.188   2.485   6.379 -0.1180 -0.9600  1.7997
 3217SOL    HW221114   2.069   2.569   6.330 -3.4291 -0.2534  0.9417
 3218SOL     OW21115   3.603   0.017  14.928 -0.1730  0.3551 -0.3631
 3218SOL    HW121116   3.536   0.083  14.915 -0.3679  0.1531 -0.3804
 3218SOL    HW221117   3.596   4.714  15.019  2.4158  0.4114 -0.1297
 3219SOL     OW21118   3.862   3.358  15.265 -0.3992 -0.3308  0.2273
 3219SOL    HW121119   3.807   3.348  15.343  0.8524  0.9286  1.2814
 3219SOL    HW221120   3.908   3.274  15.265  2.6379  1.3008 -1.5841
 3220SOL     OW21121   3.581   3.581   5.464  0.1351 -0.5037 -0.1245
 3220SOL    HW121122   3.614   3.668   5.487  0.2694 -0.2164 -1.4040
 3220SOL    HW221123   3.557   3.594   5.372  0.9002 -1.7733 -0.5107
 3221SOL     OW21124   0.764   0.592   5.920 -0.0040 -0.0965 -0.0537
 3221SOL    HW121125   0.785   0.508   5.880 -0.4753 -1.7471  3.1089
 3221SOL    HW221126   0.848   0.637   5.931 -0.9094  1.8776 -1.1369
 3222SOL     OW21127   2.020   3.049  13.955  0.7577  0.0820 -0.0242
 3222SOL    HW121128   1.959   3.103  13.904  1.5214  2.4473  1.5839
 3222SOL    HW221129   1.995   2.963  13.920  2.2043  0.4253 -1.9487
 3223SOL     OW21130   1.063   4.218  11.156  0.2658 -0.0629  0.3096
 3223SOL    HW121131   1.099   4.305  11.171 -1.0160  0.5527 -0.2046
 3223SOL    HW221132   1.003   4.234  11.083  2.2868 -0.0088 -1.3352
 3224SOL     OW21133   3.193   0.286  14.384  0.2643  0.7123 -0.2600
 3224SOL    HW121134   3.282   0.258  14.406  0.3984  0.6564 -0.8978
 3224SOL    HW221135   3.221   0.354  14.323  2.8610 -0.0432  0.1053
 3225SOL     OW21136   0.420   1.034   3.699  0.0167  0.9890  0.6242
 3225SOL    HW121137   0.384   0.949   3.675  3.3020 -1.4789  4.4296
 3225SOL    HW221138   0.510   1.011   3.722  0.2646 -0.7315 -2.0575
 3226SOL     OW21139   2.588   3.900   7.308  0.1721 -0.4165 -0.7804
 3226SOL    HW121140   2.495   3.885   7.327  0.6754 -0.5840  1.5685
 3226SOL    HW221141   2.630   3.884   7.393  1.1795  0.0402 -1.1960
 3227SOL     OW21142   0.952   1.778   2.225  0.5507  0.1357 -0.4866
 3227SOL    HW121143   1.034   1.807   2.185  0.9077  0.2318  0.3276
 3227SOL    HW221144   0.939   1.857   2.277 -0.6604 -0.9167  0.8166
 3228SOL     OW21145   2.393   4.038   3.317 -0.8318 -0.0936 -0.4797
 3228SOL    HW121146   2.373   4.039   3.223 -1.5603  1.5104 -0.3142
 3228SOL    HW221147   2.337   4.112   3.342  0.3429  1.1654 -1.5560
 3229SOL     OW21148   1.601   2.800   8.307  0.0535  0.0192 -0.6228
 3229SOL    HW121149   1.604   2.769   8.398  2.0140  0.5556 -0.5080
 3229SOL    HW221150   1.507   2.812   8.291  0.0812  1.8514  0.5105
 3230SOL     OW21151   0.173   1.985  11.489 -0.7665  0.2128  0.1260
 3230SOL    HW121152   0.155   1.949  11.402  0.0423  0.5810 -0.1979
 3230SOL    HW221153   0.081   1.991  11.516 -1.2395  0.1476 -1.4303
 3231SOL     OW21154   0.883   0.936  16.417  0.0559  0.0787  0.0958
 3231SOL    HW121155   0.812   0.986  16.376 -0.3140 -0.8124 -0.3360
 3231SOL    HW221156   0.960   0.967  16.368  1.4168 -0.0705  2.1563
 3232SOL     OW21157   0.423   3.585   5.207  0.6220 -0.6917  0.2751
 3232SOL    HW121158   0.494   3.534   5.169 -1.8369 -2.4257 -2.0340
 3232SOL    HW221159   0.411   3.568   5.301 -1.4873  1.7330  0.4336
 3233SOL     OW21160   4.724   3.060  16.957 -0.4957 -0.0930  1.2111
 3233SOL    HW121161   4.721   3.154  16.975  1.6601  0.0683  0.7535
 3233SOL    HW221162   0.050   3.023  17.029 -0.1263  0.5581  1.2824
 3234SOL     OW21163   1.127   1.326   7.208 -0.2488 -0.2516  0.1045
 3234SOL    HW121164   1.113   1.263   7.137 -0.9347  1.1148 -0.9717
 3234SOL    HW221165   1.176   1.265   7.263 -1.9354 -2.7285 -1.0969
 3235SOL     OW21166   1.465   0.501   8.122 -0.5634 -0.0750  0.4961
 3235SOL    HW121167   1.442   0.490   8.030 -0.7073 -1.3316  0.6732
 3235SOL    HW221168   1.421   0.582   8.149  0.6555  1.6909 -2.8876
 3236SOL     OW21169   0.659   0.170   6.955 -0.7079  0.3091 -0.3521
 3236SOL    HW121170   0.655   0.265   6.939 -1.7133  0.5483  1.3650
 3236SOL    HW221171   0.695   0.129   6.876  0.8070  1.7707 -0.4330
 3237SOL     OW21172   3.764   2.694   5.649  0.4674  0.5705  0.1440
 3237SOL    HW121173   3.853   2.697   5.615 -0.5241  1.3595 -2.3774
 3237SOL    HW221174   3.772   2.651   5.734 -0.5022 -0.1878 -0.1484
 3238SOL     OW21175   4.551   3.037  12.927  0.1223  0.3015  0.1932
 3238SOL    HW121176   4.483   3.060  12.991  0.3475 -0.4003  0.6890
 3238SOL    HW221177   4.501   3.025  12.847 -2.6173  1.0023  1.7893
 3239SOL     OW21178   1.869   1.432   5.880  0.2868  0.0567 -0.1604
 3239SOL    HW121179   1.893   1.509   5.829 -1.5944  0.0698 -1.0214
 3239SOL    HW221180   1.890   1.357   5.823 -0.3270 -0.4820  0.3179
 3240SOL     OW21181   0.054   2.031   1.275  0.5308  0.3605  0.0988
 3240SOL    HW121182   0.091   1.980   1.202 -0.6289 -2.2273  1.3178
 3240SOL    HW221183   0.117   2.028   1.346  0.4127 -2.0510  0.1009
 3241SOL     OW21184   0.168   4.406   8.064  0.0038 -0.5939  0.3930
 3241SOL    HW121185   0.083   4.362   8.064 -1.1443  1.5666  1.6411
 3241SOL    HW221186   0.145   4.478   8.006  3.1312  0.0659 -0.0097
 3242SOL     OW21187   3.088   2.970  13.756 -0.2126 -0.3347  0.1411
 3242SOL    HW121188   3.081   3.065  13.750 -2.2870 -0.4250  1.1343
 3242SOL    HW221189   3.068   2.941  13.667  1.1623  1.7593 -0.8415
 3243SOL     OW21190   1.902   1.426   5.186  0.4549  0.3818  0.0370
 3243SOL    HW121191   1.903   1.331   5.182 -0.6469  0.4028 -0.7839
 3243SOL    HW221192   1.933   1.454   5.099  0.9643 -0.6608 -0.1147
 3244SOL     OW21193   0.382   2.013  10.417  0.0980  0.2574 -0.2012
 3244SOL    HW121194   0.353   2.089  10.367 -2.2857  0.0156  0.7975
 3244SOL    HW221195   0.458   1.985  10.366  0.8962  1.6428  0.2289
 3245SOL     OW21196   0.123   4.441  12.745  0.0328  0.0708 -0.0363
 3245SOL    HW121197   0.210   4.433  12.707 -0.4695  1.0936 -1.4051
 3245SOL    HW221198   0.077   4.365  12.710 -0.0315 -1.4136  3.2866
 3246SOL     OW21199   3.388   4.311  14.130 -0.5004  0.2623  0.0924
 3246SOL    HW121200   3.482   4.303  14.113 -0.2199  1.2150  1.2072
 3246SOL    HW221201   3.370   4.404  14.119 -1.5099  0.1389  0.7062
 3247SOL     OW21202   2.723   3.118   3.081 -0.3963  0.6505  0.1326
 3247SOL    HW121203   2.800   3.174   3.072 -0.1087  0.2230 -0.0838
 3247SOL    HW221204   2.769   3.047   3.126  2.4749  0.7403 -2.6525
 3248SOL     OW21205   1.420   2.435   5.705 -0.1071 -0.3416 -0.3539
 3248SOL    HW121206   1.444   2.451   5.613 -1.3233  3.5980  0.0091
 3248SOL    HW221207   1.342   2.384   5.684 -0.3843 -0.0993  0.0751
 3249SOL     OW21208   1.821   1.117   4.965  0.2476 -0.3537  0.4640
 3249SOL    HW121209   1.853   1.114   4.875  1.5080  3.2446  0.7893
 3249SOL    HW221210   1.882   1.053   5.002 -0.9417 -0.1636  2.7505
 3250SOL     OW21211   3.255   3.649  11.888  0.1812 -0.1303  0.4953
 3250SOL    HW121212   3.285   3.695  11.966 -1.6983  2.7387 -0.4500
 3250SOL    HW221213   3.321   3.582  11.874 -0.7585 -1.0350  0.3476
 3251SOL     OW21214   0.021   0.944   6.611  0.4845  0.1934 -0.6718
 3251SOL    HW121215   4.687   0.882   6.569  0.9876 -0.3735 -0.5392
 3251SOL    HW221216   0.101   0.903   6.579  1.1808  0.4197  0.8135
 3252SOL     OW21217   2.109   1.940   8.614  0.1293  0.2210  0.3141
 3252SOL    HW121218   2.159   2.013   8.649  1.4157  0.4121 -1.9205
 3252SOL    HW221219   2.178   1.903   8.558 -0.5786 -0.7486  0.0760
 3253SOL     OW21220   3.956   1.049   8.090  0.4136  0.3346 -0.1609
 3253SOL    HW121221   3.887   1.005   8.040 -0.2768 -0.1230  1.1992
 3253SOL    HW221222   3.923   1.030   8.177 -2.6221 -1.6219 -1.7466
 3254SOL     OW21223   1.407   1.189  14.113 -0.3058 -0.2026  0.4630
 3254SOL    HW121224   1.392   1.169  14.205 -1.2706 -2.0157 -0.0864
 3254SOL    HW221225   1.429   1.282  14.112  1.6863 -0.6908 -0.2718
 3255SOL     OW21226   4.106   0.574   8.571 -0.1777  0.4743 -0.0990
 3255SOL    HW121227   4.126   0.502   8.510 -0.1568  0.9324 -0.6318
 3255SOL    HW221228   4.077   0.643   8.512  0.9878  0.1041 -1.1195
 3256SOL     OW21229   3.779   3.581   7.620 -0.5247  0.3410 -0.1654
 3256SOL    HW121230   3.769   3.538   7.535 -1.1792 -1.5349  0.8492
 3256SOL    HW221231   3.857   3.636   7.612 -0.0308 -0.3337  0.0622
 3257SOL     OW21232   1.585   3.250  10.391  0.5794 -0.5131 -0.6351
 3257SOL    HW121233   1.504   3.248  10.340 -0.9988 -0.8337  1.8921
 3257SOL    HW221234   1.586   3.331  10.442 -0.0964 -1.0016  0.1653
 3258SOL     OW21235   2.880   0.234   5.760 -0.1368 -0.0348  0.2748
 3258SOL    HW121236   2.799   0.183   5.771  0.0954 -0.7780 -1.4687
 3258SOL    HW221237   2.931   0.202   5.835 -1.4948  1.8657  2.0206
 3259SOL     OW21238   2.765   3.518   7.418 -0.0345 -0.6312 -0.1313
 3259SOL    HW121239   2.694   3.520   7.354  0.8925 -0.1338 -1.1400
 3259SOL    HW221240   2.825   3.571   7.366  0.1139 -1.2204 -0.5553
 3260SOL     OW21241   0.231   0.467   0.176 -0.1619  0.1713 -0.7175
 3260SOL    HW121242   0.298   0.508   0.231 -0.5108  0.6421 -0.6454
 3260SOL    HW221243   0.191   0.533   0.119 -1.0757  0.1741 -0.0592
 3261SOL     OW21244   2.535   0.844   6.262 -0.4192  0.2546  0.0483
 3261SOL    HW121245   2.574   0.903   6.198  0.0439 -0.4139 -0.2936
 3261SOL    HW221246   2.520   0.773   6.199 -0.7462 -0.2326  0.6739
 3262SOL     OW21247   2.316   0.552  12.715 -0.5347  0.0086  0.5235
 3262SOL    HW121248   2.330   0.607  12.792 -2.5500 -0.5953  1.3463
 3262SOL    HW221249   2.274   0.477  12.758  0.2275  0.2530  1.6883
 3263SOL     OW21250   3.748   0.417   9.196 -0.1599  0.3638  0.4652
 3263SOL    HW121251   3.784   0.475   9.129  1.3113 -1.0409  0.0465
 3263SOL    HW221252   3.680   0.375   9.143 -0.3925 -1.0797  1.9167
 3264SOL     OW21253   2.551   3.410  13.528 -0.0748  0.6374  0.8548
 3264SOL    HW121254   2.539   3.431  13.621  1.4330  1.3690  0.8784
 3264SOL    HW221255   2.465   3.418  13.486  0.6599 -1.2768 -0.9974
 3265SOL     OW21256   3.203   0.756  10.280  0.3870  0.1164  0.1477
 3265SOL    HW121257   3.247   0.728  10.200 -0.2777 -0.5495  0.0073
 3265SOL    HW221258   3.108   0.750  10.266  0.2670  2.0779  0.1603
 3266SOL     OW21259   4.516   1.226  16.481 -0.5852 -0.5344  0.1484
 3266SOL    HW121260   4.433   1.218  16.434 -0.7030  1.3456  0.0403
 3266SOL    HW221261   4.584   1.218  16.413  0.0461  1.4790  0.5435
 3267SOL     OW21262   0.706   0.214   8.059  0.3628 -0.0655  0.0934
 3267SOL    HW121263   0.673   0.196   7.971  2.0882 -2.0677 -0.1546
 3267SOL    HW221264   0.737   0.125   8.076  0.9885  0.3004  0.8723
 3268SOL     OW21265   4.147   1.568   2.847 -0.3031  0.1134 -0.4870
 3268SOL    HW121266   4.066   1.544   2.891 -0.3172  0.6876 -0.1985
 3268SOL    HW221267   4.177   1.645   2.895 -0.6168  0.9201 -1.5835
 3269SOL     OW21268   3.199   0.059  10.525 -0.1379 -0.7417  0.3931
 3269SOL    HW121269   3.269   0.064  10.591  1.1283  0.7165 -1.0568
 3269SOL    HW221270   3.172   0.150  10.519 -0.5263 -0.9210 -0.5289
 3270SOL     OW21271   2.945   4.172   3.256  0.3177  0.5135 -0.0620
 3270SOL    HW121272   2.903   4.257   3.249 -0.1073  0.2566 -0.5952
 3270SOL    HW221273   2.886   4.120   3.202 -0.1199  0.5318  0.3940
 3271SOL     OW21274   3.402   3.448   7.337  0.5313 -0.6548  0.2085
 3271SOL    HW121275   3.362   3.529   7.369  1.1071 -1.0936  2.0239
 3271SOL    HW221276   3.479   3.454   7.393  2.3533  0.6265 -2.4365
 3272SOL     OW21277   0.861   2.017  13.959  0.3709  0.3336 -0.1481
 3272SOL    HW121278   0.855   1.925  13.932  2.5668  0.2507 -0.3305
 3272SOL    HW221279   0.775   2.030  13.998  0.3208 -0.1846 -0.0842
 3273SOL     OW21280   1.747   0.964   6.730 -0.2541 -0.5089  0.0091
 3273SOL    HW121281   1.694   0.980   6.651  2.2730  2.5043 -1.0519
 3273SOL    HW221282   1.717   0.873   6.738  1.0243 -0.9756 -0.5217
 3274SOL     OW21283   0.263   4.593   7.373  0.0165  0.3653  0.1184
 3274SOL    HW121284   0.298   4.575   7.286  2.0641 -0.8226  1.1964
 3274SOL    HW221285   0.343   4.579   7.424 -0.3672 -0.9424  0.3690
 3275SOL     OW21286   0.597   4.218   3.389  0.1506  0.6773 -0.0368
 3275SOL    HW121287   0.551   4.227   3.305  0.0276 -0.4830 -0.0941
 3275SOL    HW221288   0.660   4.146   3.380  0.5639  1.0607 -0.1952
 3276SOL     OW21289   4.645   2.162   2.685 -0.4436 -0.3987 -0.2535
 3276SOL    HW121290   4.676   2.186   2.597  1.6403  0.8609  0.8425
 3276SOL    HW221291   4.686   2.233   2.734  0.3440  0.0588 -1.5607
 3277SOL     OW21292   3.930   4.218   8.270  0.0306 -0.0535 -0.8544
 3277SOL    HW121293   4.019   4.193   8.293 -0.6074 -1.4775  0.0517
 3277SOL    HW221294   3.899   4.266   8.347  1.6358 -0.0937 -0.1916
 3278SOL     OW21295   4.045   3.734   4.709 -0.7991  0.2186  0.1574
 3278SOL    HW121296   4.084   3.721   4.622  0.5723  0.1529  0.7756
 3278SOL    HW221297   3.989   3.809   4.687 -0.8566  0.3202  0.6473
 3279SOL     OW21298   0.679   2.628  10.735 -0.3405  0.4475  0.2287
 3279SOL    HW121299   0.680   2.700  10.799  0.6022  0.6782 -0.0521
 3279SOL    HW221300   0.757   2.580  10.763 -1.5851 -1.3040  0.6505
 3280SOL     OW21301   0.603   4.001   2.623 -0.3670 -0.4634  0.0165
 3280SOL    HW121302   0.581   4.094   2.618  1.2529 -0.0497  0.3215
 3280SOL    HW221303   0.526   3.967   2.669 -2.2203  0.2098 -2.5962
 3281SOL     OW21304   3.233   4.073  14.724 -0.1456  0.5059  0.3862
 3281SOL    HW121305   3.262   4.075  14.815  0.2092 -1.1857  0.3088
 3281SOL    HW221306   3.319   4.064  14.682 -0.1251 -0.3714  0.6041
 3282SOL     OW21307   4.382   3.992   2.032 -0.1408 -0.2683  0.1159
 3282SOL    HW121308   4.338   4.047   2.096  2.7353 -0.0781  1.9372
 3282SOL    HW221309   4.329   3.913   2.038  1.1124 -0.9887  1.9105
 3283SOL     OW21310   4.646   3.057   3.310  0.3310  0.5659  1.0549
 3283SOL    HW121311   4.556   3.056   3.275  0.8266  0.6875 -0.2482
 3283SOL    HW221312   4.695   3.099   3.238 -1.0822 -0.1013 -0.3048
 3284SOL     OW21313   0.103   2.218  16.413 -0.1119 -0.4648 -0.3206
 3284SOL    HW121314   0.154   2.257  16.484 -0.7286 -1.6264  0.7820
 3284SOL    HW221315   0.168   2.164  16.369  0.8599  0.3893  0.0774
 3285SOL     OW21316   2.013   2.703   9.365  0.7321  0.4987  0.8264
 3285SOL    HW121317   1.961   2.757   9.304  2.1126  0.2658 -0.5617
 3285SOL    HW221318   2.101   2.732   9.340  0.1381  1.0109 -0.6760
 3286SOL     OW21319   3.147   2.929   8.324 -0.4925  0.8644 -0.3467
 3286SOL    HW121320   3.159   2.960   8.234 -1.1869  0.1060 -0.6904
 3286SOL    HW221321   3.231   2.954   8.364 -1.8076  4.3128  0.2348
 3287SOL     OW21322   4.231   2.033   9.968  0.4223 -0.3672  0.1989
 3287SOL    HW121323   4.156   2.073   9.925 -0.9267 -0.0157  2.8175
 3287SOL    HW221324   4.191   2.020  10.055  0.6310 -0.4017  0.2892
 3288SOL     OW21325   3.716   0.300   2.556  0.4452 -0.3075  0.4579
 3288SOL    HW121326   3.728   0.248   2.636  1.7654  1.7662  1.6156
 3288SOL    HW221327   3.776   0.367   2.588 -1.0716 -0.0496  2.7515
 3289SOL     OW21328   2.438   4.492  15.453  0.1402  0.1752 -0.2933
 3289SOL    HW121329   2.484   4.418  15.414 -2.3478 -0.9365 -1.1232
 3289SOL    HW221330   2.420   4.546  15.376 -1.0976 -1.7128 -1.3142
 3290SOL     OW21331   0.814   2.749   4.466  0.2883 -0.6377  0.3875
 3290SOL    HW121332   0.796   2.707   4.550 -0.5153 -0.5781  0.2448
 3290SOL    HW221333   0.751   2.821   4.469 -1.3660 -2.0753  0.6690
 3291SOL     OW21334   1.276   1.024  10.642  0.1208  0.3204  0.6900
 3291SOL    HW121335   1.200   0.972  10.666  0.3515 -1.0496 -1.5636
 3291SOL    HW221336   1.272   1.024  10.546 -2.4461  2.9152  0.8004
 3292SOL     OW21337   3.559   4.490   4.243  0.0871 -0.1218  0.1138
 3292SOL    HW121338   3.599   4.500   4.157  0.2817  1.1423  0.3533
 3292SOL    HW221339   3.601   4.557   4.298  2.2808 -0.2049 -1.4831
 3293SOL     OW21340   4.449   0.332  12.876  0.6592  0.0359  0.3448
 3293SOL    HW121341   4.475   0.423  12.882  0.9337  0.0071 -0.3562
 3293SOL    HW221342   4.363   0.322  12.918  1.0915  0.9222  1.4127
 3294SOL     OW21343   1.618   1.399   2.134  0.2218 -0.3942  0.5889
 3294SOL    HW121344   1.703   1.442   2.128 -1.2183  2.6597  2.2573
 3294SOL    HW221345   1.646   1.308   2.149 -1.0505 -0.7934  0.5290
 3295SOL     OW21346   3.757   0.001   6.474  0.3351  0.0875 -0.2029
 3295SOL    HW121347   3.752   4.648   6.419  0.3689 -1.4103  1.9694
 3295SOL    HW221348   3.748   0.063   6.401 -1.9949  0.6695  0.5822
 3296SOL     OW21349   0.426   1.735   6.399 -0.3383 -0.0422  0.3937
 3296SOL    HW121350   0.355   1.739   6.335  0.6870  0.1104 -0.7235
 3296SOL    HW221351   0.433   1.824   6.433 -0.2245 -0.8299  2.4720
 3297SOL     OW21352   2.633   0.363   4.251 -0.2878 -0.2795  0.1643
 3297SOL    HW121353   2.682   0.397   4.177 -0.8775  0.0877 -0.0606
 3297SOL    HW221354   2.615   0.276   4.216  1.2345  0.7193 -3.0317
 3298SOL     OW21355   3.432   0.193  11.711 -0.4864  0.2409  0.0575
 3298SOL    HW121356   3.340   0.217  11.724 -0.3430  0.8825 -0.0873
 3298SOL    HW221357   3.471   0.263  11.763  0.0219 -0.2908  0.3770
 3299SOL     OW21358   0.767   1.305   4.043  0.0519 -0.3435  0.3634
 3299SOL    HW121359   0.764   1.400   4.033 -2.1420 -0.2753  1.6191
 3299SOL    HW221360   0.829   1.299   4.116 -0.4171 -2.1828  0.6195
 3300SOL     OW21361   2.423   3.076  15.197 -0.4829 -0.1791 -0.2898
 3300SOL    HW121362   2.381   3.073  15.283  0.4055  1.0164  0.1846
 3300SOL    HW221363   2.367   3.144  15.159 -0.8654 -0.6256 -0.5324
 3301SOL     OW21364   1.527   1.637  10.873  0.4834 -0.9410  0.2340
 3301SOL    HW121365   1.572   1.579  10.811 -1.0664 -1.2815 -0.5821
 3301SOL    HW221366   1.492   1.566  10.928  0.2326 -2.0287 -1.3204
 3302SOL     OW21367   2.160   1.746   1.793  0.1645 -0.0857 -0.0379
 3302SOL    HW121368   2.170   1.704   1.707 -3.1426 -1.1225  0.0932
 3302SOL    HW221369   2.162   1.840   1.777  2.2264 -0.1643 -0.2633
 3303SOL     OW21370   3.213   3.437   4.419  0.2915  0.1621 -0.5710
 3303SOL    HW121371   3.159   3.369   4.378  0.2703  1.2454 -2.3326
 3303SOL    HW221372   3.229   3.486   4.339  0.0839 -0.4230 -0.9660
 3304SOL     OW21373   2.753   0.634   8.086 -0.1781  0.3294 -0.5673
 3304SOL    HW121374   2.670   0.670   8.057  0.2990 -0.3314 -2.7689
 3304SOL    HW221375   2.784   0.690   8.157  0.8717 -0.6547 -0.2443
 3305SOL     OW21376   2.931   1.967  11.249 -0.1990  0.3325 -0.4705
 3305SOL    HW121377   2.872   1.935  11.180  0.6865 -3.1031  0.3830
 3305SOL    HW221378   3.012   1.925  11.221 -0.2008  0.1118 -0.1454
 3306SOL     OW21379   3.593   4.679   0.652 -0.1957  0.2657 -0.2560
 3306SOL    HW121380   3.642   0.025   0.612  1.7314 -0.8510  0.0745
 3306SOL    HW221381   3.641   4.598   0.635 -0.4958 -0.0497  0.4141
 3307SOL     OW21382   3.637   4.303  13.885  0.0520 -0.0535 -0.6164
 3307SOL    HW121383   3.690   4.230  13.854  0.5957  0.2048 -0.3084
 3307SOL    HW221384   3.635   4.291  13.980 -1.2889  1.1858 -0.4926
 3308SOL     OW21385   2.550   4.659   0.740 -0.1810 -0.3708  0.3387
 3308SOL    HW121386   2.502   4.612   0.671 -0.6496 -0.1980  0.5470
 3308SOL    HW221387   2.638   4.661   0.703 -1.1319 -0.3880 -1.9198
 3309SOL     OW21388   3.573   0.156   7.197 -0.0590  0.0960 -0.0308
 3309SOL    HW121389   3.563   0.224   7.263  2.2503  0.5425 -0.1162
 3309SOL    HW221390   3.586   0.197   7.112  0.0669 -3.3721 -1.6733
 3310SOL     OW21391   2.913   0.593   3.685  0.0968 -0.8813 -0.2080
 3310SOL    HW121392   2.819   0.573   3.690  0.0405 -0.3396  1.0020
 3310SOL    HW221393   2.946   0.618   3.771 -0.3909 -0.3822 -0.1626
 3311SOL     OW21394   2.258   0.466   4.703 -0.2007 -0.2220  0.7000
 3311SOL    HW121395   2.291   0.406   4.770 -2.1841 -1.0923  0.9044
 3311SOL    HW221396   2.208   0.407   4.647  0.3438  1.2407 -1.3262
 3312SOL     OW21397   0.273   0.745   1.902 -0.3304 -0.9394 -0.2727
 3312SOL    HW121398   0.209   0.768   1.835  0.3623  2.5920  0.3170
 3312SOL    HW221399   0.224   0.697   1.969 -0.8364  1.0430  0.7543
 3313SOL     OW21400   2.418   0.221  10.629 -0.3494  0.3390  0.3958
 3313SOL    HW121401   2.409   0.202  10.536 -1.6323  0.2540  0.5428
 3313SOL    HW221402   2.475   0.147  10.652  1.3554  1.5670  0.1082
 3314SOL     OW21403   4.431   0.744   9.531  0.2645  0.2676 -0.4704
 3314SOL    HW121404   4.440   0.654   9.560  0.0060  0.3531 -0.1200
 3314SOL    HW221405   4.462   0.723   9.443 -0.1533 -1.4389 -0.1996
 3315SOL     OW21406   2.102   4.142  12.225  0.1013 -0.3343  0.9376
 3315SOL    HW121407   2.152   4.087  12.165  1.6125  1.9088  0.1218
 3315SOL    HW221408   2.019   4.097  12.212 -1.4801  1.8819  3.4716
 3316SOL     OW21409   0.789   4.267   3.809 -0.2405  0.0422 -0.3094
 3316SOL    HW121410   0.873   4.238   3.775  0.1716 -1.4347  2.0019
 3316SOL    HW221411   0.786   4.358   3.781  0.7497  0.1790  0.0507
 3317SOL     OW21412   3.214   0.908   1.863 -0.5550 -0.1321 -0.1690
 3317SOL    HW121413   3.269   0.920   1.941 -1.3525 -0.6719  0.4756
 3317SOL    HW221414   3.261   0.960   1.798  0.6929 -0.2515  0.6213
 3318SOL     OW21415   1.544   4.608   2.516  0.8216  0.3471  0.0261
 3318SOL    HW121416   1.450   4.617   2.526  0.7940  0.8332 -0.7109
 3318SOL    HW221417   1.556   4.660   2.437  1.3342 -0.1831 -0.2448
 3319SOL     OW21418   3.286   2.638   9.305 -0.2301  0.5482  0.2597
 3319SOL    HW121419   3.242   2.723   9.301  2.1495  1.7477 -0.2179
 3319SOL    HW221420   3.357   2.660   9.366 -1.0018  0.1550  1.2927
 3320SOL     OW21421   0.379   0.669   0.320  0.9124  0.2156  0.2181
 3320SOL    HW121422   0.329   0.716   0.387  0.3738 -1.2043  0.7899
 3320SOL    HW221423   0.362   0.730   0.248  1.8426 -0.6748 -0.7519
 3321SOL     OW21424   3.251   1.478   7.975  0.1539 -0.1526 -0.2702
 3321SOL    HW121425   3.270   1.561   7.931 -0.0592  0.5857  1.0339
 3321SOL    HW221426   3.169   1.456   7.931  0.3017  0.1198 -0.6873
 3322SOL     OW21427   2.441   0.627   6.714  0.0925  0.1635 -0.1465
 3322SOL    HW121428   2.382   0.700   6.730  1.3093  1.5027 -1.7988
 3322SOL    HW221429   2.393   0.550   6.746  0.6053  1.0288  2.6871
 3323SOL     OW21430   4.310   0.787  10.471 -0.5183  0.2813  0.4315
 3323SOL    HW121431   4.346   0.699  10.461 -0.3647  0.1374  2.1380
 3323SOL    HW221432   4.225   0.772  10.430  0.0612 -3.2624  0.5402
 3324SOL     OW21433   0.149   3.445  12.238 -0.1112 -0.1105 -0.0838
 3324SOL    HW121434   0.213   3.504  12.196 -0.0337 -0.6663 -0.7436
 3324SOL    HW221435   0.197   3.363  12.228 -0.7054 -0.1600 -2.7264
 3325SOL     OW21436   0.030   2.979  11.737 -0.1829  0.2401 -0.1418
 3325SOL    HW121437   4.707   2.913  11.786  0.1541  1.9026  2.4214
 3325SOL    HW221438   4.690   3.037  11.698  1.2121 -0.9125 -4.1757
 3326SOL     OW21439   4.626   0.315   3.688 -0.4064  0.3273 -0.1098
 3326SOL    HW121440   4.590   0.402   3.668  0.1778 -0.0936 -2.8676
 3326SOL    HW221441   4.564   0.253   3.650  0.8372  0.2032 -1.9133
 3327SOL     OW21442   1.919   4.504   7.368 -0.5719  0.4000 -0.5371
 3327SOL    HW121443   1.920   4.415   7.403 -1.7729 -0.6934 -3.3182
 3327SOL    HW221444   1.981   4.539   7.433 -0.3547  1.8731 -1.5494
 3328SOL     OW21445   4.631   0.065   2.040  0.6728 -0.1439  0.7413
 3328SOL    HW121446   4.609   4.723   1.976  1.7363  0.7015 -0.5356
 3328SOL    HW221447   4.717   0.035   2.071  0.5027 -1.3583  0.0329
 3329SOL     OW21448   2.276   1.706   2.302 -0.2608  0.3844  0.1473
 3329SOL    HW121449   2.251   1.627   2.349 -3.2618 -0.4676 -2.9385
 3329SOL    HW221450   2.329   1.672   2.230 -1.2264  0.2722 -0.4964
 3330SOL     OW21451   0.558   1.788   5.099  0.0290  0.2410 -0.4493
 3330SOL    HW121452   0.641   1.753   5.068 -1.9831 -4.7600 -0.2064
 3330SOL    HW221453   0.580   1.853   5.165  2.7272  0.2337 -1.3707
 3331SOL     OW21454   1.073   2.785   5.674 -0.1795  0.0813  0.5666
 3331SOL    HW121455   0.996   2.834   5.700  0.8111  2.5627 -1.1948
 3331SOL    HW221456   1.071   2.775   5.579 -1.4101 -2.3983  0.8467
 3332SOL     OW21457   1.426   1.957   8.673 -0.2904  0.0970  0.3125
 3332SOL    HW121458   1.432   1.905   8.753 -2.4643 -0.4258  0.1494
 3332SOL    HW221459   1.482   1.908   8.612 -1.1644 -0.1945 -0.2557
 3333SOL     OW21460   1.155   0.233   6.948 -0.2034  0.0143 -0.1551
 3333SOL    HW121461   1.065   0.263   6.934 -0.0063  0.8221  0.3480
 3333SOL    HW221462   1.177   0.286   7.024 -1.3735 -0.1784  0.3170
 3334SOL     OW21463   1.550   4.632   3.634 -0.2752 -0.6726 -0.2242
 3334SOL    HW121464   1.530   4.543   3.604 -1.6267  0.0170 -1.3984
 3334SOL    HW221465   1.542   4.620   3.728 -0.3044 -1.2490 -0.2997
 3335SOL     OW21466   2.266   2.208  14.438 -0.4549 -0.3727 -0.3744
 3335SOL    HW121467   2.272   2.113  14.434 -0.4971 -0.4367  1.0461
 3335SOL    HW221468   2.358   2.234  14.446 -0.7165 -0.6779  3.4819
 3336SOL     OW21469   1.225   4.408   3.166  0.0687  0.0915  0.3162
 3336SOL    HW121470   1.222   4.503   3.166  0.6434  0.1023 -0.3075
 3336SOL    HW221471   1.156   4.374   3.224  0.7110 -1.9909 -0.1116
 3337SOL     OW21472   2.769   3.173   3.848 -0.9286  0.5282  0.0398
 3337SOL    HW121473   2.754   3.082   3.823  0.3062  0.5301 -0.6771
 3337SOL    HW221474   2.857   3.164   3.884 -1.1433 -1.3233  0.0835
 3338SOL     OW21475   3.022   1.867   6.074 -0.3880 -0.0852 -0.1489
 3338SOL    HW121476   3.018   1.961   6.054  1.0348  0.3327  1.4989
 3338SOL    HW221477   3.108   1.875   6.116  0.3758 -0.0003 -1.6882
 3339SOL     OW21478   2.825   4.664   2.199  0.3322 -0.4046 -0.5755
 3339SOL    HW121479   2.857   4.702   2.280 -0.0290 -0.0258 -0.6080
 3339SOL    HW221480   2.857   4.577   2.222 -1.1663 -0.6352  0.6257
 3340SOL     OW21481   3.475   0.791   4.835 -0.1572  0.1838 -0.1871
 3340SOL    HW121482   3.496   0.872   4.789  1.0827 -0.3582 -0.5731
 3340SOL    HW221483   3.439   0.732   4.768 -2.2256 -0.8612  1.8187
 3341SOL     OW21484   3.361   3.972   1.925  0.4091  0.6192  0.1408
 3341SOL    HW121485   3.327   3.909   1.988  0.7623  1.2213  0.9250
 3341SOL    HW221486   3.281   4.016   1.898  0.4118  0.4051 -0.2242
 3342SOL     OW21487   4.029   1.693   3.822 -0.0687 -0.2524  0.2836
 3342SOL    HW121488   4.103   1.747   3.851 -0.5186 -1.4308  3.5525
 3342SOL    HW221489   4.049   1.604   3.851 -1.4466 -1.0189 -1.0876
 3343SOL     OW21490   2.016   0.208   9.625 -0.2574  0.0490 -0.4282
 3343SOL    HW121491   2.110   0.223   9.613 -0.5021  1.6240 -0.2926
 3343SOL    HW221492   2.006   0.131   9.569  0.0894 -0.0263 -0.3901
 3344SOL     OW21493   4.181   2.953   9.254  0.9343  0.0619 -0.3082
 3344SOL    HW121494   4.134   2.994   9.326  1.2805  1.0497 -0.6519
 3344SOL    HW221495   4.161   3.014   9.183  0.5330  0.0557 -0.2015
 3345SOL     OW21496   0.965   0.564  10.624 -0.0515 -0.4765  0.2638
 3345SOL    HW121497   0.893   0.580  10.563  0.3776 -0.6388 -0.2755
 3345SOL    HW221498   1.035   0.541  10.564  0.6744 -0.8075  1.2293
 3346SOL     OW21499   0.580   4.031   5.453  0.3125 -0.0321 -0.4792
 3346SOL    HW121500   0.540   4.066   5.374 -3.4522  1.4102  2.0784
 3346SOL    HW221501   0.517   4.040   5.525 -0.2114  0.4159 -0.9987
 3347SOL     OW21502   2.783   4.494   4.293  0.3431 -0.5706  0.8727
 3347SOL    HW121503   2.783   4.410   4.338 -0.6256 -1.4316 -0.7549
 3347SOL    HW221504   2.708   4.531   4.342 -0.7335 -1.1876 -0.3298
 3348SOL     OW21505   0.001   4.525   7.316  0.1579  0.0117 -0.3079
 3348SOL    HW121506   0.088   4.558   7.336 -0.2877 -0.7997  2.9971
 3348SOL    HW221507   0.007   4.437   7.353  0.4254 -1.2701 -3.3872
 3349SOL     OW21508   3.156   3.583   0.119 -0.4484  0.2966 -0.2911
 3349SOL    HW121509   3.091   3.550   0.181 -1.4791 -0.3473 -1.7191
 3349SOL    HW221510   3.189   3.652   0.177 -1.3804  0.3743  0.1452
 3350SOL     OW21511   4.191   1.843   3.311 -0.4989  0.0020  0.3621
 3350SOL    HW121512   4.269   1.789   3.326  0.1183  1.0592  0.8957
 3350SOL    HW221513   4.124   1.815   3.373 -1.2681  1.7377  0.2885
 3351SOL     OW21514   4.040   0.517  15.311  0.0167 -0.4430 -0.3330
 3351SOL    HW121515   4.072   0.434  15.345 -2.8409 -1.3914  0.0590
 3351SOL    HW221516   3.947   0.500  15.325  0.0229 -0.1886  0.0404
 3352SOL     OW21517   0.614   3.335   5.844 -0.3440 -0.0791  0.3975
 3352SOL    HW121518   0.540   3.336   5.783 -1.2090  0.3889  1.4496
 3352SOL    HW221519   0.627   3.429   5.849  0.0479  0.0005 -2.0316
 3353SOL     OW21520   0.447   0.524  12.192 -0.0638  0.4643  0.0685
 3353SOL    HW121521   0.439   0.513  12.287  0.1646 -2.6910 -0.2672
 3353SOL    HW221522   0.521   0.463  12.182  1.0128  1.5432  1.4173
 3354SOL     OW21523   4.435   4.440   2.487  0.3684 -0.2011  0.1244
 3354SOL    HW121524   4.350   4.399   2.472  0.6888 -0.9578  0.3693
 3354SOL    HW221525   4.464   4.393   2.565 -1.8834 -1.5012  0.1764
 3355SOL     OW21526   1.707   2.230  11.720  0.2940  0.8246  0.0490
 3355SOL    HW121527   1.776   2.290  11.694  1.6017 -0.3333  0.8343
 3355SOL    HW221528   1.651   2.234  11.643  0.7574 -1.4208 -0.4179
 3356SOL     OW21529   1.667   3.233   2.127  0.0519 -0.1678  0.1285
 3356SOL    HW121530   1.735   3.254   2.063  0.7621  0.0464  0.9557
 3356SOL    HW221531   1.644   3.147   2.092 -1.3918  1.3760 -2.7490
 3357SOL     OW21532   1.106   1.473   3.376 -0.4980 -0.3528 -0.2280
 3357SOL    HW121533   1.047   1.422   3.320 -1.6199  0.0544  0.5840
 3357SOL    HW221534   1.181   1.415   3.392 -1.1468 -0.5577  2.0138
 3358SOL     OW21535   0.683   4.186   2.320  0.1244 -0.3402  0.0213
 3358SOL    HW121536   0.655   4.239   2.245 -0.1953 -0.5970 -0.0394
 3358SOL    HW221537   0.684   4.098   2.284  2.1451 -0.5714  0.6493
 3359SOL     OW21538   3.909   3.145   5.935 -0.2107 -0.6663 -0.4515
 3359SOL    HW121539   3.923   3.204   6.009  1.4023 -1.7656  0.1179
 3359SOL    HW221540   3.978   3.187   5.883  1.5192 -3.1056 -0.1193
 3360SOL     OW21541   0.187   3.809  14.603  0.0139 -0.2991  0.3369
 3360SOL    HW121542   0.228   3.723  14.590  2.2634  0.8755 -0.3184
 3360SOL    HW221543   0.219   3.827  14.691  1.0169 -0.0970 -0.0763
 3361SOL     OW21544   4.333   3.992   5.379 -0.0820 -0.0266 -0.1042
 3361SOL    HW121545   4.249   3.992   5.334 -0.0364 -0.2391 -0.1919
 3361SOL    HW221546   4.386   3.921   5.342 -0.1958  1.2010 -2.5713
 3362SOL     OW21547   0.076   0.146   4.168  0.4921 -0.1192  0.3893
 3362SOL    HW121548   0.095   0.065   4.120 -1.8147 -0.1388 -0.4945
 3362SOL    HW221549   4.713   0.164   4.137  0.3888 -0.3174  0.5677
 3363SOL     OW21550   0.458   0.232   2.866  0.6410 -0.3908  0.0064
 3363SOL    HW121551   0.392   0.301   2.862  0.6372 -0.4231 -0.5240
 3363SOL    HW221552   0.534   0.269   2.822 -1.0702  0.1064 -2.5232
 3364SOL     OW21553   4.716   1.571  10.502 -0.2384  0.0842  0.1116
 3364SOL    HW121554   4.643   1.596  10.558 -0.3987  0.1566 -0.1288
 3364SOL    HW221555   0.007   1.485  10.540  2.1302  1.1359  1.4501
 3365SOL     OW21556   3.808   4.337   2.676  0.1371 -0.3225  0.3401
 3365SOL    HW121557   3.839   4.260   2.628 -1.8593 -0.5101 -0.6807
 3365SOL    HW221558   3.772   4.380   2.599 -0.0592 -0.9881  0.0576
 3366SOL     OW21559   2.565   2.081   3.592 -1.0430 -0.4024  0.1089
 3366SOL    HW121560   2.470   2.065   3.595 -0.9977 -0.8083 -0.4972
 3366SOL    HW221561   2.597   2.000   3.554 -0.6395  0.2770 -1.0065
 3367SOL     OW21562   1.539   2.600   2.304 -0.3368  0.1770  0.2503
 3367SOL    HW121563   1.484   2.612   2.381  1.6322 -2.4627  2.0652
 3367SOL    HW221564   1.536   2.694   2.284  1.7952  0.3034  0.4573
 3368SOL     OW21565   2.720   2.568   7.014  0.1216  0.0663  0.3116
 3368SOL    HW121566   2.638   2.520   7.021 -0.3235  0.9380  1.1895
 3368SOL    HW221567   2.784   2.497   7.020 -2.1536 -1.9467  0.8571
 3369SOL     OW21568   3.623   3.634   6.589  0.1941 -0.1671 -0.2411
 3369SOL    HW121569   3.591   3.583   6.663 -0.6694  2.0151  0.8925
 3369SOL    HW221570   3.711   3.656   6.619  0.0441  3.0400 -2.1056
 3370SOL     OW21571   1.910   2.858   7.082  0.8001 -0.2238  0.1919
 3370SOL    HW121572   1.973   2.832   7.015  1.2311  1.0370  0.1113
 3370SOL    HW221573   1.847   2.789   7.062  0.3101  0.8106 -1.8707
 3371SOL     OW21574   2.800   1.361  12.610  0.4768 -0.1548  0.4247
 3371SOL    HW121575   2.756   1.354  12.525  0.6939 -1.6239  0.4415
 3371SOL    HW221576   2.892   1.368  12.586  0.4561  2.4641  1.1163
 3372SOL     OW21577   3.600   4.349   5.646  0.0482 -0.5610  0.3083
 3372SOL    HW121578   3.508   4.371   5.665  0.7761  1.7298  1.1484
 3372SOL    HW221579   3.622   4.376   5.736 -0.4519  0.0324  0.2592
 3373SOL     OW21580   4.051   2.918   1.488  0.0362  0.2788  0.6840
 3373SOL    HW121581   4.118   2.986   1.497  1.4681 -1.3224  1.9747
 3373SOL    HW221582   4.079   2.891   1.401  3.3963 -0.9399  2.1749
 3374SOL     OW21583   0.381   3.798   3.170  0.0312  0.1372  0.1620
 3374SOL    HW121584   0.338   3.852   3.235 -2.0859 -1.1906 -0.1458
 3374SOL    HW221585   0.435   3.746   3.230  2.0124  0.2660 -1.4770
 3375SOL     OW21586   1.443   2.293  11.085 -0.0896 -0.3073 -0.1690
 3375SOL    HW121587   1.426   2.219  11.143  2.8405 -0.2904  0.7101
 3375SOL    HW221588   1.538   2.294  11.089 -0.1874  1.4824  1.1439
 3376SOL     OW21589   1.781   4.557  13.382  0.3095  0.2444  0.7320
 3376SOL    HW121590   1.866   4.567  13.426  0.6767  0.8288 -0.1061
 3376SOL    HW221591   1.810   4.547  13.291  2.5221  2.3433  1.2103
 3377SOL     OW21592   1.358   2.147   7.492 -0.2266 -0.0158  0.1439
 3377SOL    HW121593   1.268   2.173   7.469 -0.4610  0.0372  1.1087
 3377SOL    HW221594   1.353   2.061   7.533 -1.3112 -1.1323 -2.3413
 3378SOL     OW21595   0.777   1.617  10.137  0.9807 -0.3197  0.1999
 3378SOL    HW121596   0.863   1.584  10.110  0.7726 -1.2985  0.7327
 3378SOL    HW221597   0.784   1.622  10.232 -1.3087  0.1298  0.3457
 3379SOL     OW21598   4.378   0.661   1.795  0.3454  0.7413  0.2231
 3379SOL    HW121599   4.334   0.583   1.827 -0.3430  0.9115 -0.3091
 3379SOL    HW221600   4.328   0.672   1.714 -1.5646 -1.3649  1.1438
 3380SOL     OW21601   0.834   2.501   0.338 -0.3755 -0.0036 -0.3569
 3380SOL    HW121602   0.827   2.550   0.256 -1.4575  0.1683 -0.1706
 3380SOL    HW221603   0.921   2.519   0.373 -0.4179 -0.5737  0.0332
 3381SOL     OW21604   2.189   3.707  14.628 -0.5346  0.3554  0.2351
 3381SOL    HW121605   2.276   3.725  14.593 -1.1344  1.0819 -0.9112
 3381SOL    HW221606   2.203   3.671  14.715 -1.6159 -0.1746  0.1912
 3382SOL     OW21607   4.273   0.610  12.650  0.6262  0.5966 -0.0988
 3382SOL    HW121608   4.178   0.603  12.638  0.8248 -0.9745 -0.7015
 3382SOL    HW221609   4.296   0.610  12.558  0.8945  2.1277 -0.0436
 3383SOL     OW21610   4.522   1.598   6.768 -0.0887  0.6562  0.0541
 3383SOL    HW121611   4.438   1.582   6.723 -0.3032 -2.2168  1.4502
 3383SOL    HW221612   4.520   1.523   6.827  0.5332  1.5464  1.1898
 3384SOL     OW21613   1.856   1.750  10.173  0.2688 -0.2125  0.2517
 3384SOL    HW121614   1.854   1.679  10.237 -0.5022 -3.7515 -3.7458
 3384SOL    HW221615   1.932   1.730  10.119  0.5765 -0.6554  0.8449
 3385SOL     OW21616   4.330   2.515   8.448  0.0094  0.0489  0.1768
 3385SOL    HW121617   4.365   2.602   8.431  0.9747 -0.1444  1.1766
 3385SOL    HW221618   4.243   2.530   8.487 -0.6196 -0.2529 -1.1045
 3386SOL     OW21619   3.042   2.078   7.347  0.1183  0.6340 -0.2607
 3386SOL    HW121620   3.019   2.030   7.268 -1.4455  2.5996 -0.9885
 3386SOL    HW221621   2.958   2.068   7.391 -0.5509  2.5774 -1.1032
 3387SOL     OW21622   1.053   3.392  15.900  0.3911 -0.4426 -0.1501
 3387SOL    HW121623   1.121   3.445  15.942  1.6556 -1.8488 -0.3938
 3387SOL    HW221624   1.029   3.461  15.838 -1.9729  1.0748  2.4662
 3388SOL     OW21625   3.312   4.358   5.650 -0.2398 -0.7019 -0.1254
 3388SOL    HW121626   3.281   4.385   5.737 -2.7826 -0.9530 -0.9456
 3388SOL    HW221627   3.268   4.274   5.635  0.0215 -0.9305  0.4001
 3389SOL     OW21628   4.469   0.398  10.816  0.4929  0.1223 -0.2408
 3389SOL    HW121629   4.516   0.481  10.826  1.9945 -0.5558 -1.6845
 3389SOL    HW221630   4.387   0.437  10.785 -0.4742 -0.7695  1.2063
 3390SOL     OW21631   2.942   2.324  13.153 -0.1378  0.0190 -0.2675
 3390SOL    HW121632   3.013   2.379  13.186 -1.0540  1.4028 -0.6028
 3390SOL    HW221633   2.975   2.291  13.069 -0.4705  1.3750 -0.9164
 3391SOL     OW21634   4.206   1.780   6.903  0.5471  0.1450  0.5121
 3391SOL    HW121635   4.276   1.720   6.878  0.6793  0.7987 -0.6707
 3391SOL    HW221636   4.236   1.782   6.994  1.9982  2.9581 -0.0204
 3392SOL     OW21637   1.563   3.067  12.767 -0.5656 -0.6790  0.7746
 3392SOL    HW121638   1.476   3.106  12.756 -0.2360  0.7245  3.1932
 3392SOL    HW221639   1.566   3.043  12.860 -0.2883  0.3333  1.0258
 3393SOL     OW21640   1.171   1.949   8.927 -0.6173  0.4581 -0.5246
 3393SOL    HW121641   1.108   1.886   8.894 -0.6800  0.6935 -0.8449
 3393SOL    HW221642   1.141   1.947   9.018 -0.9023 -3.0375 -0.7234
 3394SOL     OW21643   1.637   4.001   3.181 -0.0860  0.7183  0.1475
 3394SOL    HW121644   1.719   3.977   3.224  0.5868  3.1228  0.2290
 3394SOL    HW221645   1.657   4.086   3.141  2.8527 -1.3282 -2.7526
 3395SOL     OW21646   0.618   1.535  12.419  0.1740  0.0963 -0.0034
 3395SOL    HW121647   0.646   1.444  12.410 -0.6424 -0.1753  0.2448
 3395SOL    HW221648   0.602   1.550  12.326 -0.4274  0.7321  0.1963
 3396SOL     OW21649   1.469   4.493   9.077  0.0362 -0.1962  0.2699
 3396SOL    HW121650   1.381   4.520   9.051  0.5165  0.2020 -0.9200
 3396SOL    HW221651   1.445   4.436   9.150  3.3756 -2.5333 -0.4465
 3397SOL     OW21652   4.339   0.985   9.544 -0.7466  0.6635  0.1199
 3397SOL    HW121653   4.356   0.891   9.548 -0.1889  0.7388 -0.4800
 3397SOL    HW221654   4.317   1.005   9.635  0.1711 -0.3186  0.5679
 3398SOL     OW21655   2.839   0.527   4.750 -0.0586 -0.3377 -0.1708
 3398SOL    HW121656   2.765   0.585   4.737  1.1903  1.3968  0.4111
 3398SOL    HW221657   2.907   0.585   4.785  0.2851 -0.8931  0.0814
 3399SOL     OW21658   4.568   2.975  12.164  0.4003  0.0852 -0.4108
 3399SOL    HW121659   4.659   3.000  12.148 -0.6236  4.7051  1.0473
 3399SOL    HW221660   4.527   2.984  12.078 -0.4755 -1.1148 -0.1205
 3400SOL     OW21661   1.831   3.358   4.046 -0.0449 -0.2456 -0.1331
 3400SOL    HW121662   1.915   3.325   4.012 -1.4905 -2.3980 -1.6150
 3400SOL    HW221663   1.780   3.375   3.967  2.1012 -0.6951 -1.6272
 3401SOL     OW21664   4.312   2.005   8.728 -0.1392 -0.9643 -0.0726
 3401SOL    HW121665   4.297   1.911   8.736  3.1190 -1.2297  3.3273
 3401SOL    HW221666   4.294   2.023   8.636  0.8574 -0.5001 -0.1806
 3402SOL     OW21667   1.308   1.453   5.777  0.3098  0.0470 -0.4417
 3402SOL    HW121668   1.350   1.369   5.794 -1.3681 -0.1544  2.7481
 3402SOL    HW221669   1.311   1.489   5.866  1.2271 -0.7780 -0.1388
 3403SOL     OW21670   4.496   2.842   1.787  0.4687  0.1096 -0.1415
 3403SOL    HW121671   4.559   2.898   1.834  0.8564  1.6086 -2.4223
 3403SOL    HW221672   4.490   2.756   1.828 -1.3538 -0.3028 -1.2885
 3404SOL     OW21673   4.667   3.190   6.158  0.3306 -0.2284 -0.0751
 3404SOL    HW121674   0.022   3.223   6.120 -0.2157 -0.5535 -1.5338
 3404SOL    HW221675   4.605   3.188   6.085  0.5914  2.5240 -0.3449
 3405SOL     OW21676   3.022   3.364   6.627  0.4082 -0.0888 -0.0217
 3405SOL    HW121677   3.078   3.378   6.703  0.2622 -0.4503  0.1499
 3405SOL    HW221678   2.982   3.280   6.650 -0.2541  0.6885  1.6034
 3406SOL     OW21679   4.593   0.016  11.486 -0.3242 -0.1024  0.1391
 3406SOL    HW121680   4.593   0.027  11.391 -0.3408 -0.4039  0.1042
 3406SOL    HW221681   4.503   0.043  11.505 -0.5574 -2.1206  2.0030
 3407SOL     OW21682   3.632   2.046   5.006  0.5182  0.2057 -0.2467
 3407SOL    HW121683   3.695   2.081   4.942  0.4101 -1.7053 -1.4043
 3407SOL    HW221684   3.636   1.951   4.998 -1.7652  0.0187  0.8630
 3408SOL     OW21685   3.184   1.743   5.037 -0.1415  0.7059 -0.0734
 3408SOL    HW121686   3.172   1.803   4.963  0.3602 -0.0813 -0.8036
 3408SOL    HW221687   3.166   1.796   5.115 -2.7855 -1.0697  0.4998
 3409SOL     OW21688   2.890   4.479   1.657  0.4743  0.4970 -0.3565
 3409SOL    HW121689   2.804   4.513   1.632 -0.8910 -1.5047  1.6074
 3409SOL    HW221690   2.924   4.452   1.571 -0.4561  1.4560 -1.0328
 3410SOL     OW21691   1.878   2.658   5.569 -0.1477  0.4893  0.0509
 3410SOL    HW121692   1.784   2.644   5.579 -0.2558  0.5749 -0.8944
 3410SOL    HW221693   1.910   2.607   5.495  2.4999  1.8180  0.2813
 3411SOL     OW21694   3.171   3.381   2.800  0.3175 -0.0443  0.0820
 3411SOL    HW121695   3.239   3.445   2.819 -0.2028  0.2762  0.8543
 3411SOL    HW221696   3.099   3.411   2.856 -0.6192  2.6000 -2.5946
 3412SOL     OW21697   4.193   1.580  11.915 -0.0009  0.0804 -0.3920
 3412SOL    HW121698   4.234   1.493  11.915 -0.8998 -0.3498  0.9584
 3412SOL    HW221699   4.156   1.594  11.828  0.0400  0.0362 -0.4166
 3413SOL     OW21700   2.391   3.201   5.741  0.7705  0.2069  0.7101
 3413SOL    HW121701   2.471   3.175   5.695  0.0830  0.6701 -0.7322
 3413SOL    HW221702   2.406   3.293   5.766 -0.9765  0.3374  1.2357
 3414SOL     OW21703   4.153   0.893   2.705 -0.2863  0.3630  0.2323
 3414SOL    HW121704   4.235   0.865   2.663  0.1846  0.6609  0.9661
 3414SOL    HW221705   4.177   0.980   2.737  0.7296  0.9287 -2.0228
 3415SOL     OW21706   4.423   4.275   8.305  0.1054 -0.7129  0.6805
 3415SOL    HW121707   4.345   4.220   8.294 -1.1211  1.1211  0.2095
 3415SOL    HW221708   4.407   4.326   8.385  1.6465  2.4836 -1.0663
 3416SOL     OW21709   1.608   0.270   9.149  0.3108 -0.0746 -0.0545
 3416SOL    HW121710   1.559   0.315   9.218 -1.3725 -1.5391 -0.3185
 3416SOL    HW221711   1.551   0.196   9.132 -1.7814  1.4975  0.1478
 3417SOL     OW21712   1.488   0.003   5.743 -0.3070  0.7666 -0.1769
 3417SOL    HW121713   1.458   4.667   5.810  1.1418  1.2849  0.9437
 3417SOL    HW221714   1.578   0.003   5.776  0.0394 -3.0470 -1.1122
 3418SOL     OW21715   0.460   3.972  15.033 -0.0902  0.6503 -0.0228
 3418SOL    HW121716   0.519   3.968  15.108  0.7434 -3.7970 -0.9158
 3418SOL    HW221717   0.453   4.066  15.015  0.7479  0.7642  0.2483
 3419SOL     OW21718   0.684   2.968   6.232 -0.3541 -0.0979 -0.3818
 3419SOL    HW121719   0.736   2.897   6.195  0.7003  0.8554 -0.7488
 3419SOL    HW221720   0.743   3.040   6.207 -0.7529 -0.4211 -2.2178
 3420SOL     OW21721   1.639   0.437  16.529 -0.0513 -0.2127 -0.7768
 3420SOL    HW121722   1.719   0.463  16.483  0.4397  1.4017  1.0257
 3420SOL    HW221723   1.651   0.342  16.540  1.2183  0.3131  2.3231
 3421SOL     OW21724   1.823   2.128   7.155  0.5608  0.5475  0.1267
 3421SOL    HW121725   1.901   2.154   7.106  1.5002 -0.8707  0.8655
 3421SOL    HW221726   1.853   2.144   7.244  2.6806 -0.1661 -0.4677
 3422SOL     OW21727   0.252   0.808   2.306  0.3148 -0.2402  0.0885
 3422SOL    HW121728   0.257   0.713   2.309 -0.6642 -0.2107  3.1333
 3422SOL    HW221729   0.344   0.836   2.301  0.3920 -0.2257  1.5897
 3423SOL     OW21730   4.357   1.195   8.729  0.0418 -0.8252 -0.0220
 3423SOL    HW121731   4.438   1.145   8.732  0.7116  0.1539 -1.8769
 3423SOL    HW221732   4.350   1.224   8.820  2.5752  3.1522 -1.1192
 3424SOL     OW21733   3.589   2.361  11.337  0.5702  0.0143  0.1466
 3424SOL    HW121734   3.573   2.267  11.334  1.8613 -0.1847 -0.2465
 3424SOL    HW221735   3.499   2.394  11.339  0.1520 -1.2209  1.2270
 3425SOL     OW21736   2.242   3.266   5.370 -0.0140  0.5754 -0.3573
 3425SOL    HW121737   2.243   3.346   5.317  1.2006  0.8219  0.0435
 3425SOL    HW221738   2.332   3.235   5.364  0.1026  0.4025  2.5232
 3426SOL     OW21739   4.066   3.682   7.266 -0.0170  0.1018 -0.3229
 3426SOL    HW121740   4.054   3.590   7.245 -0.5738  0.0251  0.3209
 3426SOL    HW221741   3.977   3.691   7.302 -0.2433  0.9476 -1.0786
 3427SOL     OW21742   3.176   1.455   7.006 -0.0364 -0.0325  0.7965
 3427SOL    HW121743   3.191   1.367   6.973  1.5082  1.1231 -1.4912
 3427SOL    HW221744   3.101   1.444   7.065 -0.6294  2.7314  0.5760
 3428SOL     OW21745   1.479   1.779   5.737 -1.1084 -0.0132  0.4039
 3428SOL    HW121746   1.505   1.819   5.820 -1.9806  0.4585  0.4415
 3428SOL    HW221747   1.455   1.864   5.699 -1.6032 -0.6046 -0.6121
 3429SOL     OW21748   4.456   3.178  15.644  0.0681  0.1951 -0.0353
 3429SOL    HW121749   4.439   3.116  15.715  3.2568  0.7901  1.2628
 3429SOL    HW221750   4.366   3.182  15.612 -0.2918 -0.1380  0.9519
 3430SOL     OW21751   3.670   1.190  14.164 -0.0882 -0.0052 -0.3982
 3430SOL    HW121752   3.633   1.166  14.079 -1.9667 -0.3883  0.5209
 3430SOL    HW221753   3.672   1.107  14.211  0.3766  1.6186  2.4770
 3431SOL     OW21754   0.811   0.401   8.832 -0.0723 -0.3191 -0.5083
 3431SOL    HW121755   0.849   0.436   8.751 -2.0808 -0.4579 -1.5352
 3431SOL    HW221756   0.718   0.391   8.811  0.0975  0.2298 -1.5715
 3432SOL     OW21757   0.934   4.067   6.281 -0.3873  0.3124 -0.0006
 3432SOL    HW121758   0.890   3.986   6.256  0.5273  0.8168 -3.1831
 3432SOL    HW221759   1.008   4.028   6.329  0.5086 -0.5857 -2.1269
 3433SOL     OW21760   1.767   4.460   9.863 -0.3181  0.3810 -0.0630
 3433SOL    HW121761   1.770   4.404   9.940  1.5046 -0.1120 -0.4869
 3433SOL    HW221762   1.787   4.548   9.893 -1.7700  1.1153 -1.2242
 3434SOL     OW21763   2.588   2.940   0.337 -0.1794 -0.3617 -0.8389
 3434SOL    HW121764   2.585   2.844   0.332 -0.1522 -0.3767 -0.5308
 3434SOL    HW221765   2.565   2.955   0.245 -0.1796  3.0281 -0.2863
 3435SOL     OW21766   3.853   3.306   6.720  0.3742 -0.5213  0.1973
 3435SOL    HW121767   3.874   3.365   6.792  0.5792  0.2107 -0.4659
 3435SOL    HW221768   3.938   3.278   6.685 -0.6781 -2.1827 -1.0116
 3436SOL     OW21769   1.680   1.464   3.658 -0.1486  0.2435 -0.1258
 3436SOL    HW121770   1.755   1.512   3.622 -0.9919  1.0314 -0.8206
 3436SOL    HW221771   1.690   1.392   3.595 -0.4645 -0.7599  0.9803
 3437SOL     OW21772   0.162   4.028   6.566 -0.1402  0.2043  0.0090
 3437SOL    HW121773   0.110   3.949   6.553 -0.7115  0.2367  2.0927
 3437SOL    HW221774   0.244   4.003   6.524 -0.7276 -1.0263 -0.4011
 3438SOL     OW21775   3.925   1.117  15.342 -0.0424 -0.4505  0.4521
 3438SOL    HW121776   4.005   1.088  15.299 -0.8215 -0.2955 -1.0825
 3438SOL    HW221777   3.955   1.111  15.433  1.3830 -0.3677 -0.0242
 3439SOL     OW21778   2.048   0.074   4.966  0.1411  0.2101  0.1941
 3439SOL    HW121779   2.038   4.707   4.946  0.7093  0.3264 -0.6436
 3439SOL    HW221780   2.100   0.062   5.046 -2.2629  0.4293  1.7692
 3440SOL     OW21781   4.091   2.360   0.288  1.0294 -0.3629 -0.2486
 3440SOL    HW121782   4.029   2.288   0.291 -1.5745  1.8361 -0.6182
 3440SOL    HW221783   4.173   2.317   0.310  0.4461 -1.0165  0.6149
 3441SOL     OW21784   1.089   2.512   7.546 -0.2250  0.4787  0.0530
 3441SOL    HW121785   1.067   2.467   7.464  2.8465  1.0564 -1.1040
 3441SOL    HW221786   1.043   2.461   7.612  0.6661  2.1081  1.9392
 3442SOL     OW21787   1.128   3.586   5.435 -0.1747  0.4239 -0.7337
 3442SOL    HW121788   1.069   3.513   5.449  0.6325  0.3075  2.1955
 3442SOL    HW221789   1.197   3.536   5.392  1.4436  1.6181  0.4244
 3443SOL     OW21790   4.513   2.946   3.832  0.3332 -0.6104 -0.4817
 3443SOL    HW121791   4.598   2.989   3.841  0.6171 -1.1779 -0.4534
 3443SOL    HW221792   4.493   2.952   3.739  0.2082 -0.9254 -0.4758
 3444SOL     OW21793   3.034   1.213   3.020  0.2243 -0.2033  0.4644
 3444SOL    HW121794   2.964   1.277   3.014 -0.9621 -1.5043  0.3580
 3444SOL    HW221795   3.006   1.163   2.944 -0.0472 -0.1323  0.5171
 3445SOL     OW21796   0.406   4.272   3.183  0.5730  0.1987  0.0714
 3445SOL    HW121797   0.359   4.333   3.125 -1.8846 -0.3133  1.5481
 3445SOL    HW221798   0.364   4.278   3.268  3.0332 -1.5676  1.4180
 3446SOL     OW21799   2.869   0.119   8.780  0.1993 -0.6546 -0.2741
 3446SOL    HW121800   2.834   0.136   8.868 -0.3064 -1.8682 -0.2415
 3446SOL    HW221801   2.820   0.039   8.765 -2.7718  0.9586  0.7417
 3447SOL     OW21802   1.386   3.611   3.513 -0.0607 -0.1773 -0.2375
 3447SOL    HW121803   1.295   3.640   3.504 -0.5593 -1.6662  0.0161
 3447SOL    HW221804   1.425   3.679   3.458  3.4079 -2.0656 -0.1163
 3448SOL     OW21805   0.386   4.500   2.684  0.0322 -0.2342 -0.0386
 3448SOL    HW121806   0.409   4.502   2.591 -3.2705 -1.4864 -0.8832
 3448SOL    HW221807   0.320   4.431   2.682 -0.1806 -0.0142 -0.8670
 3449SOL     OW21808   1.524   4.616   4.963  0.1654 -0.5808 -0.6932
 3449SOL    HW121809   1.553   4.526   4.976 -0.8783 -0.8146  0.0507
 3449SOL    HW221810   1.441   4.616   5.011 -0.0235 -0.0755 -1.0246
 3450SOL     OW21811   2.082   0.695   5.539 -0.2152  0.3319  0.0025
 3450SOL    HW121812   2.043   0.736   5.616 -2.6836  0.7089 -1.4785
 3450SOL    HW221813   2.074   0.605   5.572 -0.1217  0.0556 -0.7190
 3451SOL     OW21814   2.374   2.732  13.337 -0.1397 -0.2335  0.5668
 3451SOL    HW121815   2.409   2.779  13.413  0.5488 -0.4856  0.4072
 3451SOL    HW221816   2.281   2.743  13.358 -0.8344 -0.7332 -2.2255
 3452SOL     OW21817   3.569   2.489   3.600 -0.5727 -0.6896  0.0515
 3452SOL    HW121818   3.504   2.553   3.630 -1.6617 -1.7290 -0.1173
 3452SOL    HW221819   3.525   2.405   3.609 -0.8456 -0.5933 -0.4175
 3453SOL     OW21820   4.030   1.630   7.404 -0.1001  0.1772  0.3145
 3453SOL    HW121821   4.028   1.575   7.482  1.5445 -2.3449 -1.4233
 3453SOL    HW221822   4.109   1.592   7.366  0.3874  0.4617  1.0489
 3454SOL     OW21823   1.750   3.802   6.865  0.0984 -0.0317  0.5733
 3454SOL    HW121824   1.748   3.708   6.845  0.8322 -0.4831  2.6884
 3454SOL    HW221825   1.671   3.834   6.822  0.6986  1.3377  0.5033
 3455SOL     OW21826   0.612   4.050   5.829 -0.0531  0.0046 -0.4623
 3455SOL    HW121827   0.637   3.961   5.805  1.0670  0.0510  0.5699
 3455SOL    HW221828   0.677   4.103   5.782  3.1825 -0.8387  3.0665
 3456SOL     OW21829   0.455   2.432   8.027 -0.3130  0.0699  0.4526
 3456SOL    HW121830   0.527   2.460   8.083 -0.5298  0.0807  0.7298
 3456SOL    HW221831   0.391   2.438   8.098 -1.3462  1.8441 -0.6419
 3457SOL     OW21832   1.423   2.644   3.241  0.2487  1.0239  0.4042
 3457SOL    HW121833   1.487   2.688   3.298  2.6643  0.3150 -1.7797
 3457SOL    HW221834   1.346   2.689   3.277 -0.2834 -1.4366  2.3435
 3458SOL     OW21835   0.106   0.494   6.105 -0.5609  0.0435  0.2535
 3458SOL    HW121836   0.057   0.438   6.044  0.1088  0.5869 -0.7833
 3458SOL    HW221837   0.147   0.427   6.160 -2.2775 -0.7623  0.5733
 3459SOL     OW21838   3.902   4.131   3.666  0.0325 -0.0580 -0.2856
 3459SOL    HW121839   3.963   4.205   3.671 -0.3656  0.2862 -0.4798
 3459SOL    HW221840   3.835   4.164   3.605 -0.8853 -2.5419 -0.6031
 3460SOL     OW21841   2.652   2.398   2.796  0.0168  0.0774  0.1817
 3460SOL    HW121842   2.696   2.435   2.720 -0.1061  0.4750  0.3016
 3460SOL    HW221843   2.562   2.393   2.765 -0.2584 -2.5331  1.3855
 3461SOL     OW21844   2.918   3.511   3.360 -0.5136  0.5515  0.9474
 3461SOL    HW121845   3.002   3.555   3.358  1.2493 -2.7952  0.4759
 3461SOL    HW221846   2.958   3.427   3.384  0.1734  0.3364 -0.9793
 3462SOL     OW21847   0.955   2.253   3.167 -0.3369  1.0300  0.5407
 3462SOL    HW121848   0.908   2.256   3.084  0.0710  1.8894  0.3447
 3462SOL    HW221849   0.883   2.260   3.230  0.8009 -1.3767  2.1205
 3463SOL     OW21850   0.251   1.894   4.806 -0.2348  0.0236  0.1487
 3463SOL    HW121851   0.218   1.832   4.741  0.3842  0.2032 -0.3370
 3463SOL    HW221852   0.205   1.860   4.883  0.2184 -1.6082 -0.3099
 3464SOL     OW21853   4.054   1.780   1.599 -0.7451  0.1817 -0.2645
 3464SOL    HW121854   4.034   1.731   1.519  0.2683 -1.4818  0.4900
 3464SOL    HW221855   4.149   1.776   1.611 -1.0152 -1.2410  1.3153
 3465SOL     OW21856   0.347   1.548   7.712  0.0444  0.2427  0.4053
 3465SOL    HW121857   0.255   1.560   7.732  0.2217  0.5541  1.0357
 3465SOL    HW221858   0.375   1.622   7.657 -1.3553  1.2331  1.0422
 3466SOL     OW21859   2.476   2.246   6.274  0.4698  0.4902  0.1969
 3466SOL    HW121860   2.457   2.287   6.189  0.7064  0.1157 -0.0355
 3466SOL    HW221861   2.404   2.183   6.278  0.3076  0.6685  0.1365
 3467SOL     OW21862   3.364   3.658   0.507  0.5682 -0.1790 -0.1600
 3467SOL    HW121863   3.293   3.594   0.494 -0.2069  0.8688 -1.0792
 3467SOL    HW221864   3.359   3.694   0.596  2.7547 -0.0963 -0.0734
 3468SOL     OW21865   4.450   2.317   1.133 -0.0102 -0.5327 -0.1225
 3468SOL    HW121866   4.525   2.267   1.100  0.3019  0.8099 -1.4558
 3468SOL    HW221867   4.413   2.351   1.052 -0.4241 -0.4668  0.0947
 3469SOL     OW21868   4.657   0.520   5.423  0.2121 -0.4740  0.1200
 3469SOL    HW121869   4.642   0.426   5.416  0.9594 -0.5862  0.1168
 3469SOL    HW221870   0.026   0.527   5.419  0.1353  0.6510  0.1904
 3470SOL     OW21871   4.076   0.816   8.398  0.9461  0.2578 -0.1982
 3470SOL    HW121872   4.039   0.877   8.461 -0.9194  0.0435 -1.0948
 3470SOL    HW221873   4.005   0.760   8.367  1.5713 -0.5439 -0.1817
 3471SOL     OW21874   3.860   1.788   3.599 -0.4966 -0.7992 -0.4809
 3471SOL    HW121875   3.863   1.857   3.665  1.3686 -0.1251 -1.2671
 3471SOL    HW221876   3.801   1.729   3.645 -1.0279 -0.1540 -0.3251
 3472SOL     OW21877   3.369   3.408  10.198  0.0654  0.0276 -0.3021
 3472SOL    HW121878   3.294   3.442  10.150  0.2427  0.4430 -0.2837
 3472SOL    HW221879   3.391   3.340  10.135 -0.1819  1.3069 -1.7665
 3473SOL     OW21880   1.616   0.785  12.820 -0.3791 -0.2741  0.0467
 3473SOL    HW121881   1.694   0.731  12.813  0.9073  1.7273 -1.0149
 3473SOL    HW221882   1.621   0.843  12.743  1.1051 -2.1322 -1.2391
 3474SOL     OW21883   3.929   2.687   8.717  0.3032 -0.0185  0.0922
 3474SOL    HW121884   3.974   2.747   8.658  1.2824 -1.6010 -0.7731
 3474SOL    HW221885   3.949   2.718   8.806  2.2190  1.3179 -0.8066
 3475SOL     OW21886   3.147   1.181   6.823  0.1182  0.0659 -0.0132
 3475SOL    HW121887   3.103   1.189   6.738  0.6884  0.8392 -0.2303
 3475SOL    HW221888   3.124   1.089   6.837  1.8202 -0.0113  2.2222
 3476SOL     OW21889   3.225   1.263   3.889 -0.5003  0.5559  0.2315
 3476SOL    HW121890   3.278   1.314   3.950 -0.1887 -0.8037  1.0941
 3476SOL    HW221891   3.141   1.287   3.928  0.0685 -1.3150  2.6111
 3477SOL     OW21892   2.319   0.388   2.364  0.3572  0.3894  0.3325
 3477SOL    HW121893   2.234   0.431   2.374 -0.6866 -1.3184 -1.1521
 3477SOL    HW221894   2.323   0.341   2.281 -2.3330 -1.0850  1.0591
 3478SOL     OW21895   0.885   1.228   6.353  0.5683  0.9870  0.1210
 3478SOL    HW121896   0.894   1.231   6.258 -1.2401 -0.0637 -0.0878
 3478SOL    HW221897   0.976   1.257   6.360  1.5656 -1.4700 -2.7460
 3479SOL     OW21898   0.933   0.053  11.038 -0.6648  0.0880 -0.4905
 3479SOL    HW121899   0.924   0.095  10.952  1.1680  1.2581 -0.1025
 3479SOL    HW221900   0.974   4.697  11.009  1.3569  0.9467 -0.0597
 3480SOL     OW21901   2.967   1.113   5.153 -0.2168  0.3225  0.0660
 3480SOL    HW121902   3.004   1.101   5.066  0.1984  0.3369  0.2420
 3480SOL    HW221903   3.037   1.068   5.200 -0.7202 -1.9102 -1.3295
 3481SOL     OW21904   3.726   1.067   7.548  0.5259 -0.3386 -0.6882
 3481SOL    HW121905   3.692   1.081   7.459 -2.1056  0.2565  0.4097
 3481SOL    HW221906   3.649   1.046   7.601  0.4201  0.7100 -0.4173
 3482SOL     OW21907   3.724   3.738  14.735 -0.0909  0.0477  0.5922
 3482SOL    HW121908   3.802   3.737  14.790  0.2691  1.1601  0.1070
 3482SOL    HW221909   3.661   3.670  14.757  1.3729 -1.5308 -0.0838
 3483SOL     OW21910   3.628   0.065   7.487 -0.4496 -0.0228  0.1791
 3483SOL    HW121911   3.574   0.125   7.435 -0.1870  0.6963  0.7510
 3483SOL    HW221912   3.712   0.066   7.442  0.3367  0.6544  1.6783
 3484SOL     OW21913   2.526   3.008   8.177  0.0872  0.0378 -0.2360
 3484SOL    HW121914   2.553   2.918   8.158 -1.4458 -0.8026  1.5772
 3484SOL    HW221915   2.499   3.040   8.091  2.6932  0.5830 -0.8731
 3485SOL     OW21916   2.514   0.372  12.969  0.0163 -0.0924 -0.1880
 3485SOL    HW121917   2.572   0.424  13.024 -0.4037  0.8553 -0.6368
 3485SOL    HW221918   2.553   0.371  12.882  1.4885  0.7586  0.4734
 3486SOL     OW21919   1.465   3.398   2.951  0.6284 -0.0739 -0.0412
 3486SOL    HW121920   1.466   3.471   2.889  1.9419 -0.0353  0.0320
 3486SOL    HW221921   1.514   3.329   2.907  1.0627 -0.2656  0.7309
 3487SOL     OW21922   1.826   1.112  12.769 -0.1719 -0.0007 -0.0631
 3487SOL    HW121923   1.880   1.156  12.703  0.6293  0.8341  1.1436
 3487SOL    HW221924   1.791   1.051  12.705 -1.1867  0.4520  0.0619
 3488SOL     OW21925   3.093   0.676   2.132  0.2299  0.6638  0.0694
 3488SOL    HW121926   3.028   0.736   2.167 -1.3316 -0.8588 -0.2116
 3488SOL    HW221927   3.097   0.607   2.198  0.6316  1.5027  0.9126
 3489SOL     OW21928   0.475   1.740   8.122 -0.5762 -0.7640 -0.0541
 3489SOL    HW121929   0.560   1.746   8.078 -0.3938 -0.9042  0.2844
 3489SOL    HW221930   0.502   1.703   8.206 -2.3929  0.6404  1.1455
 3490SOL     OW21931   2.044   3.007   2.188  0.0441 -0.4223 -0.2892
 3490SOL    HW121932   2.003   3.022   2.103 -1.5910  1.5475  0.8418
 3490SOL    HW221933   2.116   3.070   2.190 -0.9658  0.6792  1.3852
 3491SOL     OW21934   1.201   1.517  10.647  0.3081 -0.2286  0.1882
 3491SOL    HW121935   1.267   1.459  10.684  0.2864  0.0086  0.5987
 3491SOL    HW221936   1.166   1.468  10.573 -1.0191  0.2543  0.4914
 3492SOL     OW21937   3.882   3.877  12.051  0.0890  0.3820 -0.1382
 3492SOL    HW121938   3.799   3.860  12.006 -0.2629  0.4005  0.5107
 3492SOL    HW221939   3.880   3.821  12.128  4.1207 -0.3634 -0.5852
 3493SOL     OW21940   2.043   0.453   6.128  0.0612 -0.4782  0.0050
 3493SOL    HW121941   2.084   0.388   6.070  3.2802  0.6507  1.0583
 3493SOL    HW221942   1.995   0.398   6.190  1.0057 -0.6738  0.5527
 3494SOL     OW21943   4.514   4.440  11.357 -0.0280  0.5802 -0.3346
 3494SOL    HW121944   4.487   4.349  11.348 -1.1056  0.8554  0.0254
 3494SOL    HW221945   4.430   4.486  11.366 -1.5538 -1.8136 -2.2443
 3495SOL     OW21946   2.212   3.128   6.858 -0.4688 -0.2017 -0.1359
 3495SOL    HW121947   2.200   3.105   6.950 -0.6240  0.2824 -0.0357
 3495SOL    HW221948   2.278   3.066   6.827  1.5201  1.4289  0.8230
 3496SOL     OW21949   3.312   3.055  11.372 -0.5593 -0.2539 -0.5133
 3496SOL    HW121950   3.320   3.136  11.422 -1.4805  0.4998 -1.5925
 3496SOL    HW221951   3.286   2.983  11.430 -1.1754  1.3081  1.1208
 3497SOL     OW21952   0.840   0.971   4.275  0.2188  0.9425 -0.2425
 3497SOL    HW121953   0.793   0.910   4.332  0.6569  1.3859  0.5898
 3497SOL    HW221954   0.838   1.041   4.339  0.4370 -0.0369  0.8395
 3498SOL     OW21955   0.371   1.433   8.847  0.8611  0.2175 -0.8018
 3498SOL    HW121956   0.441   1.448   8.782  3.9058 -2.0152  1.9702
 3498SOL    HW221957   0.414   1.400   8.926 -0.0512 -2.1988 -1.3206
 3499SOL     OW21958   2.098   0.584   1.893 -0.0025  0.7046  0.1597
 3499SOL    HW121959   2.180   0.620   1.858 -0.3797  0.6446 -0.7764
 3499SOL    HW221960   2.062   0.537   1.818 -0.6246  0.6509  0.4894
 3500SOL     OW21961   0.002   1.352   6.569 -0.0811 -0.4138  0.4974
 3500SOL    HW121962   4.649   1.325   6.617 -1.1365  1.9916  0.1329
 3500SOL    HW221963   4.701   1.320   6.483  1.1788 -0.0387 -0.0317
 3501SOL     OW21964   2.725   2.928   5.959 -0.0815 -0.1356  0.9337
 3501SOL    HW121965   2.776   2.916   5.879 -2.4420  0.9884 -0.7394
 3501SOL    HW221966   2.737   3.023   5.968  0.7237  0.0750 -2.3028
 3502SOL     OW21967   0.722   1.836   7.273 -0.3035 -0.5621  0.0389
 3502SOL    HW121968   0.652   1.888   7.312 -0.4429 -1.3986  0.8764
 3502SOL    HW221969   0.783   1.820   7.345 -0.0353 -1.0088 -0.2802
 3503SOL     OW21970   0.293   3.850   8.931 -0.2188 -0.0344  0.1163
 3503SOL    HW121971   0.309   3.855   9.026  0.0726 -0.7643  0.1029
 3503SOL    HW221972   0.219   3.910   8.939 -0.3294 -0.1025 -0.4173
 3504SOL     OW21973   2.832   1.872   3.759  0.4195 -0.3166 -0.0219
 3504SOL    HW121974   2.806   1.780   3.769 -0.1328 -0.0853  0.7254
 3504SOL    HW221975   2.857   1.896   3.848 -1.8278  0.8541  0.3054
 3505SOL     OW21976   3.014   2.444   8.864  0.6905  0.2919 -0.5112
 3505SOL    HW121977   2.953   2.391   8.812  0.5509  0.4834 -0.5431
 3505SOL    HW221978   2.973   2.530   8.859  0.2217  0.0576 -0.6465
 3506SOL     OW21979   2.461   1.727   3.077 -0.2703  0.0540 -0.0531
 3506SOL    HW121980   2.550   1.752   3.104  0.1413 -1.5840  0.1228
 3506SOL    HW221981   2.403   1.797   3.106 -0.0281 -0.1646  0.9510
 3507SOL     OW21982   3.279   1.671   1.151 -0.2648  0.2683 -0.1983
 3507SOL    HW121983   3.249   1.637   1.066  0.6109 -0.6871 -0.1259
 3507SOL    HW221984   3.368   1.691   1.124 -0.0543 -1.5094 -0.8093
 3508SOL     OW21985   3.445   1.104   1.302 -0.0847  0.1839 -0.0819
 3508SOL    HW121986   3.491   1.040   1.248  1.5697  0.3794  1.0911
 3508SOL    HW221987   3.391   1.041   1.348 -2.5469  2.1642 -0.2437
 3509SOL     OW21988   3.936   1.787  17.436 -1.0234 -0.0217  0.3335
 3509SOL    HW121989   3.879   1.760  17.508  1.6506 -2.1151  1.7095
 3509SOL    HW221990   3.969   1.869  17.471  0.4283 -0.3373 -0.2987
 3510SOL     OW21991   1.817   2.744   4.064  0.0815  0.0654 -0.1344
 3510SOL    HW121992   1.772   2.671   4.108 -0.1867  0.0480 -0.4387
 3510SOL    HW221993   1.911   2.727   4.072  0.2739  2.1250  2.0790
 3511SOL     OW21994   2.420   0.805  17.536  0.4446 -0.6380 -0.4457
 3511SOL    HW121995   2.344   0.753  17.563  1.1683 -1.9492 -0.9323
 3511SOL    HW221996   2.483   0.797  17.609 -0.2073  0.2250  0.2154
 3512SOL     OW21997   4.562   1.598   2.201  0.6325  0.6680 -0.6711
 3512SOL    HW121998   4.541   1.641   2.118 -2.0623  0.4897 -0.0693
 3512SOL    HW221999   4.479   1.591   2.247  0.6605 -2.8639 -1.2151
 3513SOL     OW22000   1.895   1.230   6.412  0.2544  0.6346  0.7145
 3513SOL    HW122001   1.902   1.319   6.448 -2.3207  0.4018  1.7356
 3513SOL    HW222002   1.966   1.239   6.348  1.6167 -0.2578  2.0962
 3514SOL     OW22003   1.413   0.684   0.017 -0.5959  0.0386  0.3658
 3514SOL    HW122004   1.350   0.722   0.079 -0.4684 -0.1635  0.6191
 3514SOL    HW222005   1.409   0.747  17.649  2.0214 -1.0237 -0.6836
 3515SOL     OW22006   2.899   0.360  12.225 -0.5967 -0.5317 -0.0549
 3515SOL    HW122007   2.960   0.379  12.296  0.9004 -1.5588 -1.0410
 3515SOL    HW222008   2.965   0.353  12.156 -0.1499 -0.5821  0.3814
 3516SOL     OW22009   0.611   1.698   4.273 -0.1450  0.3596  0.1529
 3516SOL    HW122010   0.601   1.785   4.234 -0.2186  0.4709  0.4222
 3516SOL    HW222011   0.585   1.720   4.362 -0.6271 -1.0124  0.3507
 3517SOL     OW22012   2.794   4.444  11.675 -0.0846  0.3243  0.0379
 3517SOL    HW122013   2.805   4.451  11.580 -0.6058  0.7557  0.0113
 3517SOL    HW222014   2.840   4.360  11.682 -0.9223 -0.1857 -0.5073
 3518SOL     OW22015   2.371   1.258   6.168  0.1297  0.4811 -0.1404
 3518SOL    HW122016   2.413   1.241   6.083 -0.9695  2.1668 -1.0134
 3518SOL    HW222017   2.335   1.344   6.147 -1.5335  0.0815  1.0434
 3519SOL     OW22018   2.094   3.005   8.628 -0.2695 -0.9622  0.4182
 3519SOL    HW122019   2.107   3.017   8.534 -1.2268 -1.5934  0.1988
 3519SOL    HW222020   2.186   2.994   8.652 -0.8410 -3.2500  1.5219
 3520SOL     OW22021   0.293   2.510  13.919  0.3740  0.3953 -0.3523
 3520SOL    HW122022   0.259   2.421  13.921 -0.1584  0.5954 -0.5510
 3520SOL    HW222023   0.326   2.523  14.007  0.5649  1.5747 -0.6036
 3521SOL     OW22024   3.732   0.165   6.956 -0.1060 -0.1659  0.1403
 3521SOL    HW122025   3.765   0.116   6.881 -0.3663 -0.1299  0.0025
 3521SOL    HW222026   3.639   0.172   6.934  0.2195 -2.2991 -1.9264
 3522SOL     OW22027   4.025   0.564  12.553 -0.3430  0.1648  0.2058
 3522SOL    HW122028   3.932   0.546  12.567 -0.0342  0.0332  2.1303
 3522SOL    HW222029   4.030   0.589  12.461 -1.5320  0.0106  0.1026
 3523SOL     OW22030   3.147   1.634  10.260  0.3810  0.3544  0.4663
 3523SOL    HW122031   3.177   1.564  10.202  3.2355  0.6742  1.5771
 3523SOL    HW222032   3.135   1.705  10.196  2.6054  0.5627  0.2857
 3524SOL     OW22033   2.010   0.486   6.889 -1.1991  0.3961  0.1952
 3524SOL    HW122034   1.985   0.393   6.886  0.4515 -0.0108 -0.7973
 3524SOL    HW222035   2.072   0.473   6.961 -0.9448  0.4309 -0.0211
 3525SOL     OW22036   1.692   4.437   8.080 -0.3179 -0.2641  0.8912
 3525SOL    HW122037   1.747   4.380   8.134  2.0163  1.0705 -0.0797
 3525SOL    HW222038   1.633   4.460   8.152 -1.0704 -0.9674  0.4918
 3526SOL     OW22039   0.982   1.938   6.170  0.4108  0.2562  0.2661
 3526SOL    HW122040   0.953   1.849   6.192  0.4434  0.2763  0.3874
 3526SOL    HW222041   1.047   1.917   6.103  1.0190  2.7067  0.0862
 3527SOL     OW22042   3.087   2.564   7.012  0.1543  0.6014  0.2129
 3527SOL    HW122043   3.161   2.508   7.038 -1.5138 -0.5645  2.3857
 3527SOL    HW222044   3.140   2.628   6.964 -1.5635  2.5450  0.9594
 3528SOL     OW22045   3.709   1.176   1.382  0.0625 -0.0422  0.0308
 3528SOL    HW122046   3.732   1.207   1.294  1.0804 -1.3796 -0.1681
 3528SOL    HW222047   3.614   1.165   1.372 -0.2428  1.1268  1.6850
 3529SOL     OW22048   0.118   1.078   3.380 -0.0682 -0.6014 -0.1617
 3529SOL    HW122049   0.162   1.131   3.447  0.0418  0.5362 -1.1306
 3529SOL    HW222050   0.183   1.010   3.360 -0.0366 -0.9879  1.3086
 3530SOL     OW22051   0.966   4.144   7.397 -0.1275 -0.3604 -0.3084
 3530SOL    HW122052   0.913   4.221   7.373  0.6270 -0.5466 -2.6156
 3530SOL    HW222053   0.901   4.100   7.451  0.5953 -0.5191  0.4156
 3531SOL     OW22054   1.718   2.223   3.795 -0.0004 -0.4283 -0.4947
 3531SOL    HW122055   1.668   2.164   3.738 -0.0111  0.3869 -1.3446
 3531SOL    HW222056   1.811   2.205   3.776  0.3697  0.4478  0.5006
 3532SOL     OW22057   2.860   2.344   7.079 -0.1114 -0.0040  0.3955
 3532SOL    HW122058   2.950   2.323   7.105  0.7952  2.1589 -1.0028
 3532SOL    HW222059   2.845   2.265   7.027  0.3546 -0.4041  0.8658
 3533SOL     OW22060   1.299   3.436   5.283  0.0195 -0.0705 -0.0473
 3533SOL    HW122061   1.240   3.364   5.258  1.2634 -1.0600 -0.1730
 3533SOL    HW222062   1.379   3.385   5.298  0.9936  1.5958  0.4069
 3534SOL     OW22063   2.308   1.831  12.452  0.8303 -0.5380 -0.3475
 3534SOL    HW122064   2.263   1.751  12.427  1.6378 -1.0088 -0.2999
 3534SOL    HW222065   2.366   1.798  12.521 -1.0710 -0.4481  1.2973
 3535SOL     OW22066   0.267   2.436   8.229  0.2896 -0.0354  0.5262
 3535SOL    HW122067   0.284   2.402   8.317  0.8162 -1.5107 -0.1419
 3535SOL    HW222068   0.235   2.524   8.248  0.0656  0.3644 -1.6757
 3536SOL     OW22069   4.027   1.532   7.693 -0.0405  0.2110 -0.4048
 3536SOL    HW122070   3.948   1.578   7.721 -0.2724 -0.9744  0.8834
 3536SOL    HW222071   4.049   1.486   7.774  1.1273  0.5097 -0.5512
 3537SOL     OW22072   4.408   0.846   2.613 -0.3793  0.5262 -0.1711
 3537SOL    HW122073   4.458   0.927   2.612  0.3649  0.0988  1.9685
 3537SOL    HW222074   4.460   0.798   2.678 -0.4161 -1.5203 -1.6583
 3538SOL     OW22075   2.475   0.214   6.943  0.0753  0.5386  0.0389
 3538SOL    HW122076   2.440   0.132   6.978  2.8864  0.8466  3.6111
 3538SOL    HW222077   2.556   0.178   6.907 -0.5598  0.3947 -1.2233
 3539SOL     OW22078   2.201   0.397  11.088 -0.0760  0.2340  0.2563
 3539SOL    HW122079   2.177   0.333  11.155 -0.8144  0.4223  0.1666
 3539SOL    HW222080   2.149   0.366  11.013 -1.4288 -3.0140  2.5215
 3540SOL     OW22081   2.423   2.651  14.704  0.1358  0.0725 -0.1794
 3540SOL    HW122082   2.394   2.608  14.785 -2.5923 -0.4171 -1.4207
 3540SOL    HW222083   2.467   2.581  14.655  0.5969  0.6423 -0.5738
 3541SOL     OW22084   3.558   2.216   8.621  0.6366 -0.1600 -0.1244
 3541SOL    HW122085   3.627   2.204   8.555  2.2164 -1.4921  1.8025
 3541SOL    HW222086   3.588   2.297   8.662 -1.2202  0.8017 -0.6551
 3542SOL     OW22087   0.683   2.454  12.610 -0.1899  0.4461  0.0413
 3542SOL    HW122088   0.622   2.404  12.664  0.3507 -1.1664 -0.8362
 3542SOL    HW222089   0.643   2.443  12.524 -1.5425 -0.4904  0.7974
 3543SOL     OW22090   4.656   3.384   7.480  0.5138  0.4712 -0.0551
 3543SOL    HW122091   4.582   3.324   7.483  1.0587 -0.1828  0.2333
 3543SOL    HW222092   4.635   3.440   7.405 -1.0911 -1.6997 -1.2188
 3544SOL     OW22093   3.523   1.693   2.967 -0.0681 -0.2324  0.0686
 3544SOL    HW122094   3.517   1.745   2.886 -1.8108  0.3267  0.5675
 3544SOL    HW222095   3.587   1.740   3.020 -3.0035  1.5947  1.9839
 3545SOL     OW22096   2.277   1.324   8.591  0.2583  0.4406 -0.7699
 3545SOL    HW122097   2.361   1.371   8.600 -0.2454  0.7736  2.4893
 3545SOL    HW222098   2.224   1.404   8.589 -1.7842 -0.8686  1.5935
 3546SOL     OW22099   4.683   0.748   4.145  0.1368 -0.0812  0.2473
 3546SOL    HW122100   4.656   0.831   4.183  2.2492  0.2180  1.1117
 3546SOL    HW222101   0.018   0.712   4.210  1.8512  1.9008 -0.2553
 3547SOL     OW22102   1.844   2.536   4.479 -0.5431 -0.3652 -0.0769
 3547SOL    HW122103   1.755   2.516   4.507 -0.8383  0.0292 -0.7481
 3547SOL    HW222104   1.832   2.547   4.385 -1.4189  1.1143  0.1999
 3548SOL     OW22105   2.610   0.098   8.569 -0.9341 -0.3881 -0.0542
 3548SOL    HW122106   2.666   0.031   8.610  0.5966  3.2832  3.8013
 3548SOL    HW222107   2.665   0.176   8.576 -0.1740 -0.8942 -0.2811
 3549SOL     OW22108   0.313   1.078   8.265 -0.2499 -0.2983  0.6294
 3549SOL    HW122109   0.325   1.142   8.335  0.0530  0.2655  0.0574
 3549SOL    HW222110   0.269   1.018   8.326  0.7472 -0.7743  0.8751
 3550SOL     OW22111   3.249   4.617   2.815  0.2164  0.1282 -0.0052
 3550SOL    HW122112   3.207   4.575   2.740 -0.2848 -0.1486  0.4316
 3550SOL    HW222113   3.326   4.562   2.824 -0.0850  0.0685  2.3631
 3551SOL     OW22114   0.534   1.834   2.587 -0.0061  0.0106 -0.4297
 3551SOL    HW122115   0.560   1.917   2.629 -2.7250  0.7834 -0.2624
 3551SOL    HW222116   0.581   1.843   2.504  0.1982  2.4443 -0.0585
 3552SOL     OW22117   3.694   2.614   3.109 -0.1719  0.6310  0.2255
 3552SOL    HW122118   3.731   2.532   3.142 -1.2427 -0.0757 -0.3185
 3552SOL    HW222119   3.684   2.666   3.189 -0.3849  0.6139  0.2098
 3553SOL     OW22120   4.714   0.569   8.790 -0.0732  0.5862 -0.4738
 3553SOL    HW122121   0.047   0.581   8.714 -0.8450  0.1504 -1.1377
 3553SOL    HW222122   0.041   0.592   8.866 -0.4561  1.3175 -0.4365
 3554SOL     OW22123   3.713   0.299   5.320  0.2560 -0.1298  0.2129
 3554SOL    HW122124   3.750   0.281   5.406 -0.0383 -2.2838 -0.1149
 3554SOL    HW222125   3.638   0.347   5.355  0.6374  0.1981  0.5763
 3555SOL     OW22126   0.900   2.775  10.138  0.4435  0.1815  0.3214
 3555SOL    HW122127   0.968   2.719  10.101  1.6768  0.7289  1.7845
 3555SOL    HW222128   0.827   2.747  10.083  1.8445 -3.6262  0.4136
 3556SOL     OW22129   2.815   2.503   1.990  0.0398  0.4604  0.1442
 3556SOL    HW122130   2.867   2.570   1.946  2.6797  0.3879  3.1397
 3556SOL    HW222131   2.725   2.523   1.964 -0.7079  0.4192  2.6958
 3557SOL     OW22132   3.975   4.451   9.964 -0.3171 -1.2478 -0.1331
 3557SOL    HW122133   4.041   4.419  10.025 -0.0004 -0.2650  0.0338
 3557SOL    HW222134   3.915   4.496  10.023  1.5804 -0.1003  0.9306
 3558SOL     OW22135   2.095   2.970  11.967  0.0107  0.1023  0.5171
 3558SOL    HW122136   2.103   2.943  11.875 -0.8458  2.3082 -0.2021
 3558SOL    HW222137   2.185   2.963  11.998  0.7064  0.5253 -1.3874
 3559SOL     OW22138   4.182   3.761   9.283 -0.7911 -0.3568 -0.0498
 3559SOL    HW122139   4.116   3.729   9.345 -0.4700 -0.9991 -0.0438
 3559SOL    HW222140   4.258   3.746   9.339  0.0718  2.9476 -0.3346
 3560SOL     OW22141   2.057   3.304  11.003 -0.3290  0.6260 -0.5968
 3560SOL    HW122142   2.132   3.356  11.034 -0.2595 -0.1551  0.5228
 3560SOL    HW222143   2.063   3.228  11.060 -1.2788  0.8083 -0.2592
 3561SOL     OW22144   1.594   2.943  10.235 -0.3236 -0.3026  0.4646
 3561SOL    HW122145   1.564   2.855  10.215 -1.6665 -0.2334  2.1428
 3561SOL    HW222146   1.680   2.930  10.275 -0.2621 -2.5661 -0.3805
 3562SOL     OW22147   3.406   0.251   7.410  0.6727  0.2619 -0.2763
 3562SOL    HW122148   3.338   0.210   7.355 -0.0697 -0.4662  1.1911
 3562SOL    HW222149   3.359   0.247   7.493  0.9871 -0.7658 -0.1579
 3563SOL     OW22150   0.896   3.559  10.017  0.6469 -0.3587 -0.2336
 3563SOL    HW122151   0.855   3.596  10.095  0.2165 -2.6421  0.6465
 3563SOL    HW222152   0.924   3.637   9.970 -0.8276  0.3936  0.1370
 3564SOL     OW22153   1.040   1.257   0.360  0.0712  0.1008  0.7827
 3564SOL    HW122154   0.975   1.206   0.410  0.0257 -0.3711  0.2386
 3564SOL    HW222155   0.989   1.312   0.302 -1.8897 -0.6559  1.7869
 3565SOL     OW22156   1.006   3.461   2.713  0.1869 -0.5920  0.4961
 3565SOL    HW122157   0.959   3.544   2.719  1.4692  0.3465 -2.6193
 3565SOL    HW222158   0.936   3.399   2.730 -0.1753 -1.1797 -3.3524
 3566SOL     OW22159   3.665   4.108   8.229  0.0006  0.1017 -0.5454
 3566SOL    HW122160   3.693   4.016   8.232 -0.7993 -0.0264  2.7205
 3566SOL    HW222161   3.753   4.142   8.213  0.5857 -1.5954 -0.9611
 3567SOL     OW22162   4.573   0.657  16.430 -0.2729  0.0898 -0.8408
 3567SOL    HW122163   4.520   0.646  16.510 -0.3973  1.6915 -0.7016
 3567SOL    HW222164   4.661   0.631  16.457 -1.4108 -2.7336  0.1801
 3568SOL     OW22165   0.961   3.914   7.637 -0.7318  0.0641  0.2615
 3568SOL    HW122166   0.990   3.890   7.725  1.8062 -0.5462 -0.7254
 3568SOL    HW222167   1.030   3.978   7.616 -2.2441  0.9554 -2.0180
 3569SOL     OW22168   3.209   0.673   6.161 -0.1249  0.1790 -0.1590
 3569SOL    HW122169   3.270   0.714   6.222 -0.7628  0.5239  0.2373
 3569SOL    HW222170   3.152   0.742   6.128 -1.4386 -0.8156  0.0238
 3570SOL     OW22171   1.785   3.165  14.845 -0.0498 -0.0533 -0.0697
 3570SOL    HW122172   1.835   3.164  14.927  1.0042 -1.4917 -0.7213
 3570SOL    HW222173   1.722   3.237  14.852  0.2636  0.4207 -2.1655
 3571SOL     OW22174   2.090   3.221   2.630 -0.6899  0.1662 -0.0380
 3571SOL    HW122175   2.157   3.193   2.693 -3.0284 -1.6903  1.6676
 3571SOL    HW222176   2.052   3.288   2.687 -2.9349 -0.7940 -0.4230
 3572SOL     OW22177   4.041   2.295  12.309 -0.4750  0.0729  0.1093
 3572SOL    HW122178   4.063   2.301  12.216  1.9644  1.7766  0.8098
 3572SOL    HW222179   3.949   2.270  12.298 -0.2604  0.8583 -3.4350
 3573SOL     OW22180   0.003   2.744   4.315 -0.1759 -0.0818 -0.2113
 3573SOL    HW122181   4.680   2.709   4.241 -0.6097  0.8172 -0.3530
 3573SOL    HW222182   0.056   2.666   4.331 -0.0490 -0.3868 -2.1782
 3574SOL     OW22183   3.881   1.155   8.780 -0.4359 -0.0909 -0.1651
 3574SOL    HW122184   3.793   1.172   8.814 -0.5107 -1.9742  0.5476
 3574SOL    HW222185   3.921   1.153   8.867 -2.5694  1.2479  0.8412
 3575SOL     OW22186   3.572   4.688   5.582  0.0441  0.2103  0.5129
 3575SOL    HW122187   3.480   4.663   5.579  0.4908 -1.1209 -2.0244
 3575SOL    HW222188   3.581   4.680   5.487  0.4080  0.3956  0.5335
 3576SOL     OW22189   0.109   2.882   9.126 -0.2213  0.6542  0.5289
 3576SOL    HW122190   0.023   2.889   9.165 -0.5117  0.4020 -0.0626
 3576SOL    HW222191   0.160   2.900   9.205  0.1978 -1.6860  0.7826
 3577SOL     OW22192   0.221   4.540   0.928 -0.3043  0.3001  0.0542
 3577SOL    HW122193   0.230   4.610   0.863 -1.0856 -1.7005 -2.1971
 3577SOL    HW222194   0.311   4.517   0.950 -1.3096 -2.5747  1.1228
 3578SOL     OW22195   0.783   1.550   4.148  0.3932 -0.5724 -0.1138
 3578SOL    HW122196   0.715   1.613   4.173  0.5267  0.5149 -2.5492
 3578SOL    HW222197   0.861   1.606   4.150 -0.3312  0.4436  0.1390
 3579SOL     OW22198   3.913   1.815  12.344  0.5692 -0.0529  0.0645
 3579SOL    HW122199   3.869   1.826  12.259  0.3595 -2.4001 -0.1334
 3579SOL    HW222200   3.844   1.823  12.409  0.7468 -0.1436  0.2631
 3580SOL     OW22201   3.989   3.525  15.004  0.0416 -0.8022  0.1895
 3580SOL    HW122202   4.031   3.511  15.089  1.3739  1.1296 -0.1609
 3580SOL    HW222203   3.968   3.434  14.982 -1.2582 -0.6663  0.8825
 3581SOL     OW22204   0.328   0.883   3.335 -0.0578 -0.3729 -0.1996
 3581SOL    HW122205   0.417   0.915   3.321 -0.0910 -1.0790 -2.1121
 3581SOL    HW222206   0.337   0.816   3.267  0.6331  0.6728 -1.1626
 3582SOL     OW22207   0.798   1.441   6.971 -0.1605 -0.2693  0.0690
 3582SOL    HW122208   0.836   1.382   6.906  1.0016  2.6868 -1.9237
 3582SOL    HW222209   0.819   1.527   6.934 -0.9033 -0.8348 -1.6734
 3583SOL     OW22210   1.956   0.774   6.608 -0.1448 -0.0726  0.1095
 3583SOL    HW122211   1.990   0.860   6.583  0.5493 -0.5795 -0.6921
 3583SOL    HW222212   1.893   0.756   6.539  0.8664 -1.8426 -0.3547
 3584SOL     OW22213   3.708   1.270   7.792 -0.0287  0.2513  0.1927
 3584SOL    HW122214   3.643   1.339   7.799  1.3977  1.6094 -0.0965
 3584SOL    HW222215   3.744   1.275   7.704  1.2050  1.8263  0.7743
 3585SOL     OW22216   2.294   0.777  16.851  0.8120 -0.2874 -1.1134
 3585SOL    HW122217   2.218   0.721  16.835  1.1485 -1.0394 -0.1244
 3585SOL    HW222218   2.276   0.829  16.930  1.9423 -0.2722 -0.8561
 3586SOL     OW22219   2.874   2.517   2.407  0.1003  0.5174 -0.1518
 3586SOL    HW122220   2.826   2.576   2.465 -1.7063 -1.5392  0.4362
 3586SOL    HW222221   2.815   2.442   2.398  0.4782  0.0504  1.1737
 3587SOL     OW22222   1.495   1.612  11.214 -0.1104  0.9572 -0.3311
 3587SOL    HW122223   1.463   1.556  11.143  1.8845  0.6022 -0.9442
 3587SOL    HW222224   1.421   1.673  11.218  0.8649  2.1007  0.3350
 3588SOL     OW22225   1.624   2.899   4.935 -0.3062 -0.4122 -0.0313
 3588SOL    HW122226   1.678   2.869   4.862 -0.3320 -2.7034  0.8653
 3588SOL    HW222227   1.642   2.830   5.000 -2.5314  0.6235  1.6651
 3589SOL     OW22228   4.160   1.947  16.656  0.1920  0.4441  0.1878
 3589SOL    HW122229   4.251   1.916  16.654 -0.5257 -1.7600  0.9494
 3589SOL    HW222230   4.123   1.872  16.609 -2.2943  0.0414  2.7815
 3590SOL     OW22231   3.278   4.614   2.429 -0.0928  0.1807  0.2055
 3590SOL    HW122232   3.270   4.684   2.365  1.1833  1.0716  1.0294
 3590SOL    HW222233   3.196   4.568   2.410 -0.6341  0.5401  1.6663
 3591SOL     OW22234   0.311   0.893   9.774  0.0980  0.4290 -0.0356
 3591SOL    HW122235   0.386   0.899   9.833 -0.4207 -0.0088  0.6709
 3591SOL    HW222236   0.238   0.859   9.826  0.9271  0.7540  1.3387
 3592SOL     OW22237   1.029   2.786   4.329 -0.0650  0.3529 -0.4407
 3592SOL    HW122238   0.947   2.770   4.376 -0.0102  0.6309 -0.2514
 3592SOL    HW222239   1.019   2.880   4.312  0.3339  0.3563 -0.6498
 3593SOL     OW22240   1.824   0.703   3.086  0.2591  0.2350 -0.1473
 3593SOL    HW122241   1.759   0.684   3.154  0.0981  0.9143 -0.1128
 3593SOL    HW222242   1.869   0.778   3.126  2.7904  0.4730 -3.4008
 3594SOL     OW22243   2.870   0.561   6.294 -0.2580  0.1169 -0.2115
 3594SOL    HW122244   2.811   0.502   6.341  0.5170 -0.0384  0.5840
 3594SOL    HW222245   2.938   0.493   6.301 -0.1954  0.1680 -0.3274
 3595SOL     OW22246   2.418   2.010  16.142  0.6868  0.4427 -0.1751
 3595SOL    HW122247   2.435   1.919  16.121 -2.2239 -0.2200  0.3165
 3595SOL    HW222248   2.330   2.026  16.106  0.7281 -0.7462 -0.7818
 3596SOL     OW22249   1.682   3.334   5.028  0.0715  0.2087  0.1650
 3596SOL    HW122250   1.739   3.257   5.023 -1.1111 -0.6145 -0.4720
 3596SOL    HW222251   1.600   3.296   4.997 -0.2894  2.5774 -1.8394
 3597SOL     OW22252   4.499   2.449   4.201 -0.1414 -0.8931  0.5534
 3597SOL    HW122253   4.441   2.464   4.126 -0.0679 -1.2779  0.4176
 3597SOL    HW222254   4.582   2.494   4.182 -1.9270  2.0369 -0.3800
 3598SOL     OW22255   0.652   0.715  13.249  0.3312 -0.1554  0.8554
 3598SOL    HW122256   0.585   0.765  13.202  0.3843  2.1460  3.2135
 3598SOL    HW222257   0.613   0.707  13.336 -0.4371  0.3207  0.5567
 3599SOL     OW22258   4.543   1.077   9.393 -0.3613 -0.1012  0.0078
 3599SOL    HW122259   4.496   1.090   9.310 -0.3590 -2.8800 -0.4348
 3599SOL    HW222260   4.487   1.020   9.445 -1.6420  0.0615 -1.2039
 3600SOL     OW22261   4.018   2.019   5.115  0.0208  0.0137 -0.0753
 3600SOL    HW122262   3.955   2.037   5.185  1.0076 -1.6948  1.2626
 3600SOL    HW222263   3.988   1.937   5.077 -0.5147 -0.1707  0.7371
 3601SOL     OW22264   0.102   4.283  16.512  0.0609 -0.1465 -0.2477
 3601SOL    HW122265   0.107   4.255  16.603  0.3610 -2.3655 -0.9543
 3601SOL    HW222266   0.194   4.306  16.497  0.6362 -1.9327  0.5790
 3602SOL     OW22267   2.090   1.613  12.051  0.0068  0.1064  0.0811
 3602SOL    HW122268   2.166   1.558  12.068 -0.1963  0.6780  2.7515
 3602SOL    HW222269   2.075   1.579  11.962 -1.4640  4.1959 -1.2548
 3603SOL     OW22270   3.705   2.335   2.692 -0.2331  1.1001  0.1374
 3603SOL    HW122271   3.686   2.287   2.611  2.2680 -0.4391  0.4631
 3603SOL    HW222272   3.744   2.416   2.659 -0.3581 -0.0628 -2.9077
 3604SOL     OW22273   3.886   1.183   6.075 -0.4996 -0.2397 -0.0638
 3604SOL    HW122274   3.938   1.220   6.003 -1.2689  1.9734  0.5079
 3604SOL    HW222275   3.799   1.187   6.035  0.3629  0.7878 -1.8882
 3605SOL     OW22276   1.565   2.464   4.558 -0.7722 -0.5163  0.2863
 3605SOL    HW122277   1.525   2.479   4.643 -0.5667  2.4517 -0.1389
 3605SOL    HW222278   1.484   2.473   4.506  0.0084  0.3772 -0.7825
 3606SOL     OW22279   0.442   4.644   3.744 -0.2550  0.1002  0.1935
 3606SOL    HW122280   0.444   4.591   3.823  0.5654 -0.5258 -0.2393
 3606SOL    HW222281   0.502   4.712   3.775 -0.2151  0.1691 -0.0319
 3607SOL     OW22282   4.237   3.574   8.198 -0.0117 -0.4158  0.3919
 3607SOL    HW122283   4.172   3.566   8.269  0.7342  1.0102  1.2250
 3607SOL    HW222284   4.314   3.585   8.253 -1.2034  5.2520  0.8692
 3608SOL     OW22285   0.984   3.446   6.191 -0.4615 -0.2435  0.3082
 3608SOL    HW122286   0.893   3.473   6.204 -0.2630  0.2734  0.6253
 3608SOL    HW222287   0.972   3.352   6.175  0.2064 -0.1469 -0.7416
 3609SOL     OW22288   1.902   4.463  13.848 -0.9098  0.5360 -0.4270
 3609SOL    HW122289   1.980   4.437  13.800 -1.3883 -2.3039  0.3573
 3609SOL    HW222290   1.834   4.397  13.834  0.3902 -1.3851  2.2931
 3610SOL     OW22291   1.338   1.026   2.066 -0.1794 -0.2117 -0.6754
 3610SOL    HW122292   1.257   1.066   2.034 -0.3028  0.2231  0.1766
 3610SOL    HW222293   1.388   1.020   1.984  0.1693  1.2239 -0.5816
 3611SOL     OW22294   0.256   3.149   6.455 -0.0196 -0.1460  0.4512
 3611SOL    HW122295   0.205   3.090   6.400 -1.4260  0.1851  1.4037
 3611SOL    HW222296   0.267   3.092   6.532  0.6796  0.0612  0.5030
 3612SOL     OW22297   1.933   3.899   8.874 -0.3561  0.6907 -0.0268
 3612SOL    HW122298   1.959   3.960   8.805  2.7723 -1.0405 -0.3869
 3612SOL    HW222299   1.857   3.948   8.906 -0.2677 -0.2247  1.5841
 3613SOL     OW22300   1.569   0.394  10.395  0.0591 -0.4546  0.1996
 3613SOL    HW122301   1.523   0.392  10.311 -1.2775 -1.7562  0.9534
 3613SOL    HW222302   1.521   0.327  10.445 -1.4500  1.5772  1.5110
 3614SOL     OW22303   0.395   2.096   5.907 -0.4369  0.2833 -0.0261
 3614SOL    HW122304   0.390   2.041   5.985  1.0172 -2.2526 -1.7483
 3614SOL    HW222305   0.473   2.057   5.868 -0.1689  0.1739  0.6193
 3615SOL     OW22306   3.370   4.618   6.296 -0.3897  0.4996  0.0560
 3615SOL    HW122307   3.369   4.590   6.387  0.7400 -0.3343 -0.1867
 3615SOL    HW222308   3.419   4.700   6.296 -3.3967  2.3029  3.0146
 3616SOL     OW22309   2.087   1.958   2.647 -0.3549 -0.2714 -0.0944
 3616SOL    HW122310   1.998   1.929   2.664 -0.8240  1.1158 -0.2188
 3616SOL    HW222311   2.082   1.941   2.552 -0.7527  0.4662 -0.1987
 3617SOL     OW22312   1.970   3.772   3.934 -0.3850 -0.4135 -0.3952
 3617SOL    HW122313   1.925   3.738   4.011 -0.3122  2.3435  0.8511
 3617SOL    HW222314   1.911   3.815   3.873  0.1412  1.4162  0.3987
 3618SOL     OW22315   2.943   2.335   3.524  0.0152 -0.5469  0.0014
 3618SOL    HW122316   2.908   2.245   3.528  1.1651 -0.9986 -0.0092
 3618SOL    HW222317   3.034   2.312   3.545  0.2114  0.5031  0.2884
 3619SOL     OW22318   3.011   3.989   4.928 -0.3537 -0.2403  0.4906
 3619SOL    HW122319   3.104   3.978   4.950  0.0393  0.6906 -0.7093
 3619SOL    HW222320   2.999   3.918   4.865  1.1586 -0.0067 -0.0586
 3620SOL     OW22321   3.367   3.968   6.466  0.4742  0.6706 -0.2250
 3620SOL    HW122322   3.367   4.004   6.377 -1.8789 -2.5253 -1.5213
 3620SOL    HW222323   3.442   4.012   6.507  2.3009 -0.5550 -2.2658
 3621SOL     OW22324   2.714   3.777   4.692 -0.3287  0.1328  0.7515
 3621SOL    HW122325   2.665   3.721   4.752 -0.8414  1.2876  1.3929
 3621SOL    HW222326   2.739   3.722   4.617  1.1334 -1.7105  2.5724
 3622SOL     OW22327   0.537   1.553  12.157 -0.0061 -0.1366  0.1293
 3622SOL    HW122328   0.595   1.594  12.093 -1.6622  0.2728 -1.1028
 3622SOL    HW222329   0.453   1.578  12.118 -0.1262  0.8942  1.0596
 3623SOL     OW22330   1.843   3.328   4.390  0.4879 -0.8147 -0.0759
 3623SOL    HW122331   1.806   3.245   4.419 -1.4421 -0.7701 -2.3729
 3623SOL    HW222332   1.783   3.352   4.319 -0.7367  0.0888  1.2919
 3624SOL     OW22333   0.372   1.350   2.564  0.2757  0.0671 -0.3297
 3624SOL    HW122334   0.431   1.276   2.579 -1.1945 -1.5125 -2.4419
 3624SOL    HW222335   0.418   1.429   2.593 -2.4113  0.1667  3.6549
 3625SOL     OW22336   3.176   3.573   4.158  0.1481 -0.6072 -0.1352
 3625SOL    HW122337   3.213   3.646   4.109 -1.4202 -0.5468 -1.2266
 3625SOL    HW222338   3.087   3.579   4.123  0.8984  1.1221 -1.7548
 3626SOL     OW22339   2.241   1.290   7.255 -0.0759 -0.2991  0.3941
 3626SOL    HW122340   2.161   1.291   7.308  1.8072  1.4759  3.2235
 3626SOL    HW222341   2.208   1.334   7.177 -0.5961  1.2931  1.5027
 3627SOL     OW22342   4.516   3.532  13.020 -0.3072 -0.0644 -0.1506
 3627SOL    HW122343   4.596   3.576  12.990 -0.4532  0.1179 -0.2770
 3627SOL    HW222344   4.545   3.441  13.018  0.2346  0.1432 -1.7074
 3628SOL     OW22345   0.916   3.430   6.457  0.3883 -0.2152  0.3779
 3628SOL    HW122346   0.830   3.472   6.462  1.2228  1.3469  1.5524
 3628SOL    HW222347   0.946   3.472   6.377 -2.7032 -1.3779 -1.3658
 3629SOL     OW22348   3.833   0.676  11.491  0.6933 -0.5489  0.5122
 3629SOL    HW122349   3.928   0.690  11.499  1.0988 -2.0745 -1.5850
 3629SOL    HW222350   3.795   0.718  11.567  0.6122  0.1933  0.0570
 3630SOL     OW22351   2.311   1.171   8.332 -0.0676 -0.3236 -0.2063
 3630SOL    HW122352   2.279   1.222   8.407  0.7846  0.6858 -0.5255
 3630SOL    HW222353   2.388   1.221   8.305  0.5665  0.3953  2.8099
 3631SOL     OW22354   0.904   2.265  11.348  0.1932  0.3187 -0.3778
 3631SOL    HW122355   0.815   2.281  11.380  0.2878  0.2794 -0.0970
 3631SOL    HW222356   0.917   2.176  11.381 -3.4998 -0.5759 -1.3568
 3632SOL     OW22357   3.214   4.514   0.482 -0.2237 -0.4862 -0.1493
 3632SOL    HW122358   3.246   4.595   0.523 -0.5834 -1.8724  2.8172
 3632SOL    HW222359   3.285   4.485   0.424 -1.3505 -0.5053 -1.5173
 3633SOL     OW22360   1.032   2.527   2.842  0.1180 -0.3057  0.4440
 3633SOL    HW122361   0.940   2.549   2.827  0.1177  0.2442  1.2354
 3633SOL    HW222362   1.067   2.615   2.830 -1.4162  0.3333  0.6962
 3634SOL     OW22363   1.251   2.180   8.822 -0.3107  0.1699 -0.7809
 3634SOL    HW122364   1.159   2.203   8.824 -0.4776 -0.5562  0.1492
 3634SOL    HW222365   1.231   2.093   8.859 -1.6620  0.4511 -0.8712
 3635SOL     OW22366   4.143   0.900   3.335 -0.7113 -0.2353 -0.0396
 3635SOL    HW122367   4.057   0.861   3.320 -0.6992 -0.1353 -0.3767
 3635SOL    HW222368   4.159   0.957   3.260 -0.6747 -1.9468 -1.3421
 3636SOL     OW22369   1.936   0.184   2.902 -0.5804  0.9972 -0.0137
 3636SOL    HW122370   2.005   0.227   2.952 -1.8943  1.1617  1.6262
 3636SOL    HW222371   1.863   0.233   2.940  0.1113  2.5153 -0.6451
 3637SOL     OW22372   2.023   4.332  14.051 -0.3064  0.2364  0.8117
 3637SOL    HW122373   1.970   4.363  13.977 -0.0950 -0.5723  0.3226
 3637SOL    HW222374   2.110   4.351  14.016 -1.6436  1.4598 -1.9420
 3638SOL     OW22375   1.788   2.433   8.072 -0.2117 -0.7301 -0.3582
 3638SOL    HW122376   1.738   2.513   8.060  1.5528  0.2018 -1.3974
 3638SOL    HW222377   1.826   2.426   7.985 -0.2379  1.9398 -0.5806
 3639SOL     OW22378   2.349   3.718   4.590  0.0536 -0.3166  0.5214
 3639SOL    HW122379   2.387   3.805   4.601 -3.2828  1.3252 -0.8956
 3639SOL    HW222380   2.429   3.672   4.565 -0.0324  1.4551 -2.9585
 3640SOL     OW22381   1.757   4.348   4.753  0.1738  0.9410  0.4029
 3640SOL    HW122382   1.836   4.310   4.791  0.5394 -1.0155 -2.2969
 3640SOL    HW222383   1.780   4.440   4.769  1.2332  0.8194 -0.3701
 3641SOL     OW22384   2.517   0.065  13.555  0.0104 -0.3364  0.1553
 3641SOL    HW122385   2.595   0.100  13.598 -0.1307  1.8542 -1.3925
 3641SOL    HW222386   2.542   4.701  13.531  2.4848  0.5626 -0.6205
 3642SOL     OW22387   1.444   2.429   7.507  0.6446  0.8759  0.1789
 3642SOL    HW122388   1.415   2.341   7.529  0.6736  1.2110  1.5973
 3642SOL    HW222389   1.445   2.416   7.412  0.4799 -0.6055  0.3788
 3643SOL     OW22390   2.741   3.897   7.526  0.4453  0.4003  0.1537
 3643SOL    HW122391   2.829   3.921   7.498  0.7750 -0.2123  0.6764
 3643SOL    HW222392   2.719   3.988   7.546 -0.3358  0.3821 -0.6534
 3644SOL     OW22393   1.002   0.265   6.211  0.1215  0.6967 -0.1919
 3644SOL    HW122394   1.012   0.283   6.117  0.5354  1.7947  0.0598
 3644SOL    HW222395   1.079   0.213   6.231 -0.2672  0.3919  0.5080
 3645SOL     OW22396   0.997   2.534   7.234  0.3018  0.4723  0.2215
 3645SOL    HW122397   0.948   2.616   7.228  0.2347  0.4368  0.2779
 3645SOL    HW222398   0.924   2.475   7.257  0.4504 -0.1043 -0.8017
 3646SOL     OW22399   0.280   4.549   0.459  0.3060  0.3890 -0.7157
 3646SOL    HW122400   0.346   4.479   0.468  1.6240  1.8570  0.9077
 3646SOL    HW222401   0.207   4.508   0.506 -1.4342  3.0084 -1.1748
 3647SOL     OW22402   2.403   3.878   2.839 -0.3997 -0.6027  0.0975
 3647SOL    HW122403   2.485   3.833   2.820 -0.7519 -0.5312 -1.6174
 3647SOL    HW222404   2.350   3.843   2.768 -1.8797  0.3434  0.7198
 3648SOL     OW22405   3.263   3.125   2.903 -0.1581  0.2422 -0.7584
 3648SOL    HW122406   3.211   3.203   2.882 -0.9248  1.0091  4.1047
 3648SOL    HW222407   3.351   3.151   2.876  0.2508  0.7604  1.1358
 3649SOL     OW22408   3.394   0.892   4.050 -0.3242  0.0496 -0.2223
 3649SOL    HW122409   3.449   0.958   4.093 -0.0684 -0.5534  0.3854
 3649SOL    HW222410   3.307   0.916   4.083 -0.7538 -0.5627 -0.9109
 3650SOL     OW22411   0.468   2.686   4.403 -0.5770 -0.6360 -0.6680
 3650SOL    HW122412   0.515   2.765   4.430 -2.4899 -0.5339  2.4132
 3650SOL    HW222413   0.396   2.677   4.466 -1.3056  2.4845 -1.0518
 3651SOL     OW22414   2.653   1.343   3.244  0.1960 -0.0510 -0.5158
 3651SOL    HW122415   2.668   1.357   3.338 -1.9604  1.7955 -0.4587
 3651SOL    HW222416   2.731   1.381   3.203 -1.2456  2.5712 -0.7955
 3652SOL     OW22417   2.761   1.159   7.788 -0.1187 -0.3889  0.0427
 3652SOL    HW122418   2.843   1.157   7.838  0.2182 -0.3585 -0.5087
 3652SOL    HW222419   2.741   1.253   7.785  0.9981 -0.1224  0.6592
 3653SOL     OW22420   3.706   4.167   4.317  0.0012  0.1576  0.2854
 3653SOL    HW122421   3.745   4.166   4.230  0.4232  1.7949  0.4503
 3653SOL    HW222422   3.640   4.234   4.296  0.7520  0.9464  0.4552
 3654SOL     OW22423   3.496   3.029   1.181  0.3102  0.0499 -0.4585
 3654SOL    HW122424   3.480   2.954   1.238  0.7590  2.1477  2.3951
 3654SOL    HW222425   3.505   2.978   1.101  0.3321  1.2536 -1.2281
 3655SOL     OW22426   3.053   2.935   7.078 -0.3069 -0.7470  0.2601
 3655SOL    HW122427   2.978   2.887   7.042 -0.0853 -2.1591  1.6795
 3655SOL    HW222428   3.040   3.025   7.047 -1.6195 -0.1134  2.6633
 3656SOL     OW22429   2.885   3.206   0.496 -0.3430 -0.1882 -0.3168
 3656SOL    HW122430   2.822   3.252   0.441 -0.6593  1.3952  1.3663
 3656SOL    HW222431   2.879   3.262   0.574  1.1933 -0.7420  0.1995
 3657SOL     OW22432   2.635   4.255  15.283 -0.0196  0.0827 -0.2881
 3657SOL    HW122433   2.713   4.237  15.230  0.7050  1.7178  0.2417
 3657SOL    HW222434   2.611   4.168  15.313 -1.4173  0.0411 -1.5278
 3658SOL     OW22435   1.403   0.215   5.030  0.1196  0.9182 -0.0794
 3658SOL    HW122436   1.362   0.297   5.058 -1.4627  0.9341 -2.4446
 3658SOL    HW222437   1.339   0.151   5.063 -0.5767  1.6831  0.0599
 3659SOL     OW22438   0.759   3.889   5.237 -0.1795  0.2544  0.0207
 3659SOL    HW122439   0.746   3.983   5.250 -3.7705 -0.2727  0.1186
 3659SOL    HW222440   0.764   3.860   5.328  0.1386 -2.5978 -0.9213
 3660SOL     OW22441   1.509   0.391   4.743 -0.4154 -0.6123 -0.7101
 3660SOL    HW122442   1.513   0.382   4.647  2.3137  1.3028 -0.7862
 3660SOL    HW222443   1.539   0.303   4.766  1.4971 -0.2062 -1.5693
 3661SOL     OW22444   2.316   0.104   0.303  0.2285 -0.4391  0.1125
 3661SOL    HW122445   2.342   0.185   0.348 -2.4321  0.0194  0.8123
 3661SOL    HW222446   2.351   0.137   0.220 -0.0797  2.0531  0.9611
 3662SOL     OW22447   2.430   0.542   4.340  0.1431  0.1501 -0.2301
 3662SOL    HW122448   2.490   0.483   4.294 -0.7757  0.0261 -1.2970
 3662SOL    HW222449   2.472   0.627   4.329  0.6123 -0.1927 -1.1046
 3663SOL     OW22450   4.229   4.241   6.113 -0.6283 -0.0475  0.4500
 3663SOL    HW122451   4.258   4.330   6.131  3.1599 -0.9483 -1.1816
 3663SOL    HW222452   4.249   4.186   6.189 -1.2551  1.2815  1.5796
 3664SOL     OW22453   2.328   3.234   3.529 -0.2789 -0.2592 -0.0217
 3664SOL    HW122454   2.269   3.169   3.490  0.5307 -0.4768 -0.8914
 3664SOL    HW222455   2.412   3.232   3.483 -0.1377  0.8171  0.1767
 3665SOL     OW22456   4.190   1.500   8.179 -0.6658  0.3711 -0.6047
 3665SOL    HW122457   4.166   1.528   8.267 -1.1419 -1.3340 -0.1931
 3665SOL    HW222458   4.267   1.448   8.200 -0.7221  0.3323 -0.4936
 3666SOL     OW22459   3.555   4.545   3.835  0.1393  0.2254  0.0130
 3666SOL    HW122460   3.631   4.488   3.828  0.9962  1.3269  0.3856
 3666SOL    HW222461   3.528   4.566   3.745 -2.1357 -1.5192  0.2783
 3667SOL     OW22462   0.375   1.372   7.320 -0.3560 -0.5208  0.8741
 3667SOL    HW122463   0.357   1.452   7.270  0.8666 -0.7897 -0.0156
 3667SOL    HW222464   0.463   1.378   7.358 -1.3563 -0.9404  3.2253
 3668SOL     OW22465   2.416   4.287  13.190  0.5015 -0.3118  0.3555
 3668SOL    HW122466   2.387   4.197  13.174  1.7018 -1.0403  2.3015
 3668SOL    HW222467   2.334   4.317  13.229  1.4445  1.4790  0.9733
 3669SOL     OW22468   1.131   0.287  15.119  0.4428  0.1060 -0.0625
 3669SOL    HW122469   1.080   0.216  15.080  0.1488  0.5605 -0.4957
 3669SOL    HW222470   1.126   0.254  15.209  0.7851 -0.0994 -0.1183
 3670SOL     OW22471   2.473   0.645   3.914  0.0732 -0.1643  0.4292
 3670SOL    HW122472   2.442   0.734   3.929  2.0114  0.3902  1.1779
 3670SOL    HW222473   2.502   0.622   4.002  0.5736 -0.9176  0.0708
 3671SOL     OW22474   3.083   4.469   7.077 -0.4358  0.1310  0.6687
 3671SOL    HW122475   3.067   4.561   7.055 -0.3429 -0.5613 -2.3314
 3671SOL    HW222476   2.994   4.436   7.065 -0.0716 -0.1783 -1.2271
 3672SOL     OW22477   4.620   3.897   3.930 -0.3264  0.2214 -0.8294
 3672SOL    HW122478   4.644   3.844   3.854 -2.1045 -0.5471 -0.8583
 3672SOL    HW222479   4.529   3.916   3.908 -0.3844  1.9170  0.8633
 3673SOL     OW22480   3.349   2.887  13.699  0.6979  0.8286 -0.0456
 3673SOL    HW122481   3.259   2.912  13.720  0.4207 -0.0256 -0.2320
 3673SOL    HW222482   3.366   2.816  13.759 -1.0057  0.2946 -0.1975
 3674SOL     OW22483   3.024   3.096  17.267 -0.0190 -0.1819  0.2945
 3674SOL    HW122484   3.096   3.150  17.297 -0.6374  0.5049  0.5587
 3674SOL    HW222485   3.062   3.010  17.251 -0.1742 -0.0748 -0.6792
 3675SOL     OW22486   1.784   1.863   9.945 -0.6216  0.1312 -0.1466
 3675SOL    HW122487   1.819   1.824  10.026 -0.5462  0.2625 -0.1163
 3675SOL    HW222488   1.689   1.863   9.958 -0.4333 -0.1266  1.2619
 3676SOL     OW22489   2.779   4.354   1.998  0.4195  0.1783 -0.4509
 3676SOL    HW122490   2.827   4.379   2.077  0.7936 -1.0219 -0.2982
 3676SOL    HW222491   2.726   4.288   2.043  1.0478 -0.9197 -1.3270
 3677SOL     OW22492   4.560   4.560   5.838 -0.4403 -0.0133 -0.4751
 3677SOL    HW122493   4.496   4.497   5.805 -0.7203 -1.2526  2.4415
 3677SOL    HW222494   4.545   4.545   5.932  0.6931 -3.5941 -0.8920
 3678SOL     OW22495   4.648   1.126   8.683  0.4453 -0.2518  0.1865
 3678SOL    HW122496   4.630   1.163   8.597 -1.9427 -0.7845  0.4669
 3678SOL    HW222497   0.016   1.146   8.691  0.5528 -0.8991  0.5718
 3679SOL     OW22498   0.903   1.150   2.064  0.3488  0.4762  0.0521
 3679SOL    HW122499   0.829   1.134   2.005 -0.9470  2.4590  1.1603
 3679SOL    HW222500   0.857   1.208   2.124 -0.2526  0.4972 -0.4275
 3680SOL     OW22501   1.495   1.015   2.981 -0.0777 -0.4290  0.1513
 3680SOL    HW122502   1.532   1.052   2.901 -2.9944 -1.0254 -1.4803
 3680SOL    HW222503   1.569   1.028   3.041  0.9957 -1.6415 -0.8947
 3681SOL     OW22504   0.184   3.976   4.404  0.0328 -0.2922  0.6960
 3681SOL    HW122505   0.116   4.037   4.376  0.6580 -0.2436 -0.6700
 3681SOL    HW222506   0.179   3.915   4.330 -1.5594  1.4669 -0.6412
 3682SOL     OW22507   3.863   3.766   2.451 -0.1057 -0.8724  0.0220
 3682SOL    HW122508   3.910   3.695   2.408 -0.1793  0.2212 -1.9125
 3682SOL    HW222509   3.821   3.805   2.374 -0.5308 -0.4420  0.4693
 3683SOL     OW22510   0.255   1.816   5.824 -0.5063 -0.1027 -0.3633
 3683SOL    HW122511   0.259   1.852   5.913  0.5797 -0.5486 -0.2376
 3683SOL    HW222512   0.332   1.863   5.792 -0.2489 -0.2981 -0.0277
 3684SOL     OW22513   3.584   0.016  12.607 -0.2456 -0.3011 -0.2051
 3684SOL    HW122514   3.585   4.657  12.651  0.9640 -0.2055 -0.0549
 3684SOL    HW222515   3.665   0.064  12.623 -1.1785  1.5550 -0.9799
 3685SOL     OW22516   4.264   0.362  15.096  0.3080  0.1003 -0.3773
 3685SOL    HW122517   4.341   0.322  15.135  0.2330 -0.0841 -0.4156
 3685SOL    HW222518   4.210   0.382  15.173  1.0947 -1.9087  0.6972
 3686SOL     OW22519   2.436   0.917   4.941 -0.5349 -0.9086  0.3154
 3686SOL    HW122520   2.387   0.852   4.893 -1.4056 -1.6595  2.2189
 3686SOL    HW222521   2.517   0.871   4.963 -0.0829 -0.8289 -1.1705
 3687SOL     OW22522   2.323   0.979   1.415 -0.0057  0.5422  0.3276
 3687SOL    HW122523   2.282   0.984   1.328 -1.6190 -0.9622  0.9917
 3687SOL    HW222524   2.399   1.034   1.400 -0.4980  1.0418 -0.3152
 3688SOL     OW22525   0.035   2.554   8.001 -0.7075 -0.1432 -0.1658
 3688SOL    HW122526   0.117   2.591   7.967 -0.6366  1.6357  1.9468
 3688SOL    HW222527   0.070   2.480   8.052 -0.6064  0.4946  0.6901
 3689SOL     OW22528   0.423   1.488   0.589  0.8371 -0.2274  0.2561
 3689SOL    HW122529   0.392   1.417   0.647 -0.6796  1.0012  0.9616
 3689SOL    HW222530   0.515   1.500   0.609  1.1793 -0.9578 -0.8576
 3690SOL     OW22531   2.872   2.025   3.276  0.2020  0.5869  0.1063
 3690SOL    HW122532   2.898   2.058   3.362 -1.3493 -2.1557  1.6565
 3690SOL    HW222533   2.778   2.041   3.283  0.4053  1.6322  0.4986
 3691SOL     OW22534   0.396   2.657   7.396 -0.0594 -0.5521 -0.4685
 3691SOL    HW122535   0.399   2.576   7.345 -0.0671 -1.6710  1.3093
 3691SOL    HW222536   0.450   2.640   7.474  1.3626 -0.6707 -1.4804
 3692SOL     OW22537   0.581   1.422   7.625 -0.2115  0.1995  0.3266
 3692SOL    HW122538   0.500   1.470   7.609  0.3274  0.5405 -1.3404
 3692SOL    HW222539   0.604   1.457   7.711 -0.0237  0.9609 -0.0349
 3693SOL     OW22540   2.360   3.178  13.300 -0.4662  0.0463  0.5414
 3693SOL    HW122541   2.281   3.222  13.331 -0.1981  2.3131 -1.9517
 3693SOL    HW222542   2.319   3.095  13.275  1.4495 -0.8891  0.5484
 3694SOL     OW22543   2.159   0.797  15.941  0.0777 -0.0174  0.2823
 3694SOL    HW122544   2.249   0.821  15.962 -0.5024  1.8579  0.6354
 3694SOL    HW222545   2.160   0.730  15.872  0.2877 -1.2113  1.4488
 3695SOL     OW22546   3.174   1.463  10.058 -0.2317 -0.0804  0.0544
 3695SOL    HW122547   3.192   1.402   9.986 -2.2348 -0.5952  0.0013
 3695SOL    HW222548   3.252   1.436  10.106 -0.8855 -2.0582 -0.0066
 3696SOL     OW22549   3.125   1.377   5.916  0.3551  0.3135 -0.3756
 3696SOL    HW122550   3.081   1.357   5.834 -0.2866  0.3823 -0.0514
 3696SOL    HW222551   3.212   1.389   5.879  0.4748  1.0308  0.1298
 3697SOL     OW22552   4.196   0.376  16.524 -0.2909  0.3727  0.0540
 3697SOL    HW122553   4.194   0.470  16.542 -0.2509  0.5580 -0.8830
 3697SOL    HW222554   4.289   0.363  16.503 -0.4306 -1.6452  0.7130
 3698SOL     OW22555   0.666   4.709  17.631 -0.0648 -0.0811  0.1879
 3698SOL    HW122556   0.665   4.614  17.648 -0.4248 -0.3248 -1.1599
 3698SOL    HW222557   0.596   4.726  17.568  1.6652 -1.1158 -2.0066
 3699SOL     OW22558   0.416   2.867   8.178  0.2679 -0.5462  0.6953
 3699SOL    HW122559   0.381   2.945   8.221  1.0429  0.4972 -0.5600
 3699SOL    HW222560   0.503   2.894   8.149 -0.8007  0.9402 -1.0801
 3700SOL     OW22561   0.898   1.457  11.816 -1.0541  0.1911  0.1416
 3700SOL    HW122562   0.942   1.373  11.802 -1.9520 -0.7034  2.6674
 3700SOL    HW222563   0.971   1.516  11.832  1.9572 -2.9805 -1.6294
 3701SOL     OW22564   3.490   4.286   4.955 -0.3589  0.1332  0.2390
 3701SOL    HW122565   3.537   4.285   4.872  0.6941  1.2797  0.8241
 3701SOL    HW222566   3.533   4.362   4.993  1.1822 -1.3724  1.5102
 3702SOL     OW22567   2.734   2.725   5.272 -0.2935 -0.1321  0.0079
 3702SOL    HW122568   2.811   2.737   5.327  0.1268  0.5580 -0.7221
 3702SOL    HW222569   2.758   2.766   5.188  0.1464 -2.2775 -0.9125
 3703SOL     OW22570   1.796   0.764   5.324  0.5418  0.7069 -0.5154
 3703SOL    HW122571   1.782   0.693   5.386 -0.1960  0.5299 -0.8941
 3703SOL    HW222572   1.830   0.714   5.250  2.7942  0.8657  0.3962
 3704SOL     OW22573   0.078   2.154   5.781 -0.0936  0.5334  0.4721
 3704SOL    HW122574   0.086   2.127   5.873  0.0643 -2.1960 -0.3491
 3704SOL    HW222575   0.027   2.082   5.744 -0.7639  0.6208  1.2219
 3705SOL     OW22576   1.678   2.225   3.266  0.2869  0.2392 -0.1299
 3705SOL    HW122577   1.707   2.156   3.206  2.2647 -0.2792  1.4081
 3705SOL    HW222578   1.590   2.231   3.228  0.6972  0.0955 -1.1073
 3706SOL     OW22579   0.673   3.989   3.009  0.0901 -0.0062  0.4515
 3706SOL    HW122580   0.764   4.016   2.996  0.1898 -1.1730 -1.2472
 3706SOL    HW222581   0.637   4.075   3.030 -0.3515 -0.2678  0.7574
 3707SOL     OW22582   4.126   1.747   2.345  0.6036  0.7461  0.2353
 3707SOL    HW122583   4.100   1.673   2.401 -0.7301  1.0320 -0.0036
 3707SOL    HW222584   4.221   1.746   2.360  0.6494 -0.2663 -0.0811
 3708SOL     OW22585   1.918   4.046   9.276  0.1095 -0.2316 -0.1187
 3708SOL    HW122586   1.992   4.091   9.317  0.3873 -0.6797 -0.1247
 3708SOL    HW222587   1.889   3.987   9.346  0.9490 -3.3978 -2.4566
 3709SOL     OW22588   0.526   0.298   5.736  0.5687 -0.1207 -0.2885
 3709SOL    HW122589   0.509   0.392   5.731  1.7798  0.1988  1.5581
 3709SOL    HW222590   0.621   0.303   5.750  0.8267 -3.0184 -1.1221
 3710SOL     OW22591   0.619   1.556   7.235  0.5419 -0.0835 -0.5497
 3710SOL    HW122592   0.543   1.603   7.201  0.2196 -0.8655 -0.9041
 3710SOL    HW222593   0.684   1.625   7.222  0.9455 -0.1936  0.8112
 3711SOL     OW22594   3.129   1.996  16.134  0.5396  0.4951 -0.2102
 3711SOL    HW122595   3.189   2.034  16.198  2.6806 -1.9067 -0.7988
 3711SOL    HW222596   3.163   2.037  16.055  3.0901 -2.0346 -0.4256
 3712SOL     OW22597   4.380   0.523  10.447 -0.2047 -0.4597  0.4130
 3712SOL    HW122598   4.413   0.446  10.493 -1.4566 -0.7021  0.9117
 3712SOL    HW222599   4.387   0.472  10.367 -2.3872  0.5103 -0.4026
 3713SOL     OW22600   0.423   0.596  10.545 -0.0979 -0.0103 -0.2962
 3713SOL    HW122601   0.367   0.672  10.558  0.8618  0.7199 -0.4793
 3713SOL    HW222602   0.371   0.520  10.571  0.4718 -1.0786 -2.2591
 3714SOL     OW22603   3.814   4.705   8.171  0.0765 -0.1934 -0.1412
 3714SOL    HW122604   3.756   4.634   8.198 -0.4451 -0.6492 -2.4838
 3714SOL    HW222605   3.792   0.041   8.242  0.2068  1.2217 -1.3248
 3715SOL     OW22606   2.994   0.997   5.845 -0.6068  0.1577  0.4819
 3715SOL    HW122607   3.008   0.945   5.766  1.1603  2.2166 -0.5565
 3715SOL    HW222608   2.976   1.085   5.812 -3.0440 -1.2010 -1.8169
 3716SOL     OW22609   2.179   0.814  10.643  0.2075  0.2120 -0.0183
 3716SOL    HW122610   2.239   0.881  10.611 -0.5592  1.7704  1.8064
 3716SOL    HW222611   2.237   0.755  10.692  0.9178  0.5442 -0.4671
 3717SOL     OW22612   2.930   4.679   2.916  0.0566 -0.0411 -0.4815
 3717SOL    HW122613   2.964   4.606   2.968 -0.1054  0.2233 -0.0077
 3717SOL    HW222614   2.940   4.636   2.831 -0.9217 -1.1757 -0.0172
 3718SOL     OW22615   4.130   1.687  16.913  0.5285 -1.0700  0.2005
 3718SOL    HW122616   4.147   1.758  16.974 -1.7439 -1.2791  1.0991
 3718SOL    HW222617   4.213   1.641  16.904 -0.7892 -3.5097  0.5165
 3719SOL     OW22618   2.590   4.500  10.438  0.0447  0.6717 -0.0369
 3719SOL    HW122619   2.580   4.547  10.355  1.1449 -0.1762 -0.6488
 3719SOL    HW222620   2.617   4.415  10.403  3.2099  0.9154  1.8041
 3720SOL     OW22621   4.472   1.043  12.270  0.6682 -0.4175  0.0604
 3720SOL    HW122622   4.393   1.019  12.221  0.9381  1.0097 -1.0614
 3720SOL    HW222623   4.537   1.022  12.203  0.1289  1.1704 -0.9631
 3721SOL     OW22624   2.538   0.356   1.316 -0.0253  0.1886 -0.9251
 3721SOL    HW122625   2.616   0.364   1.261  0.8857  2.6745  0.7542
 3721SOL    HW222626   2.586   0.335   1.395  0.7436  2.1183 -0.8658
 3722SOL     OW22627   1.282   4.205   8.051  0.2255  0.5864 -0.3932
 3722SOL    HW122628   1.340   4.130   8.036 -1.1894 -0.5076 -0.3295
 3722SOL    HW222629   1.319   4.230   8.136 -1.0465  2.6878 -0.4386
 3723SOL     OW22630   3.300   0.780   3.022  0.5200 -0.7524  0.2982
 3723SOL    HW122631   3.306   0.707   3.083  0.9587 -2.2899 -1.5998
 3723SOL    HW222632   3.333   0.749   2.937  3.8168 -0.3438  1.4316
 3724SOL     OW22633   3.856   3.090   9.558 -0.3730  0.2746 -0.0399
 3724SOL    HW122634   3.851   3.047   9.643 -1.0666  1.2126  0.3927
 3724SOL    HW222635   3.946   3.075   9.530 -0.0158  1.3073  0.5714
 3725SOL     OW22636   0.217   2.800   1.219 -0.0827 -0.3522  0.1429
 3725SOL    HW122637   0.303   2.795   1.178 -0.4464 -0.0141 -0.6669
 3725SOL    HW222638   0.170   2.737   1.164  1.1632  0.8441 -2.2940
 3726SOL     OW22639   0.720   0.511   4.147 -0.5429  0.2918 -0.3783
 3726SOL    HW122640   0.645   0.514   4.206 -0.9409  1.7585 -0.9812
 3726SOL    HW222641   0.779   0.572   4.191  0.7197 -1.0320 -0.2359
 3727SOL     OW22642   2.604   0.848  17.340  0.1950 -0.1743  0.6228
 3727SOL    HW122643   2.538   0.847  17.409 -0.9585  0.5067 -0.4687
 3727SOL    HW222644   2.648   0.768  17.369  1.3059  0.0673 -0.3710
 3728SOL     OW22645   2.654   1.298   2.624 -0.6022 -0.6537  0.2697
 3728SOL    HW122646   2.625   1.388   2.634 -1.1947 -0.9153  0.8987
 3728SOL    HW222647   2.640   1.280   2.531 -2.2894 -0.1105  0.4167
 3729SOL     OW22648   0.512   2.608   3.473  0.2372  0.3866  0.0567
 3729SOL    HW122649   0.525   2.692   3.429  0.8869  1.0364  1.4876
 3729SOL    HW222650   0.418   2.612   3.459  0.1844  0.2974  0.3972
 3730SOL     OW22651   0.302   4.319   8.613  0.4908 -0.1807  0.5091
 3730SOL    HW122652   0.394   4.326   8.589  0.6840 -0.6702  1.1153
 3730SOL    HW222653   0.293   4.370   8.695  0.7199 -0.3747  0.6536
 3731SOL     OW22654   4.616   4.346   8.119  0.5929  0.1710  0.6241
 3731SOL    HW122655   4.573   4.413   8.066 -0.5820 -0.9045  0.2064
 3731SOL    HW222656   4.552   4.332   8.189 -1.5746  2.1075 -0.9793
 3732SOL     OW22657   0.633   3.761   4.993  0.2106 -0.2665 -0.2503
 3732SOL    HW122658   0.568   3.809   4.942  1.9810  1.5881 -0.7802
 3732SOL    HW222659   0.583   3.765   5.074  0.3091 -0.0761 -0.1969
 3733SOL     OW22660   3.419   2.135   0.543  0.3488  0.4941 -0.1635
 3733SOL    HW122661   3.510   2.120   0.567 -0.0619  1.5305  2.1041
 3733SOL    HW222662   3.370   2.061   0.580  0.3672  0.9399  0.7532
 3734SOL     OW22663   3.780   1.264   8.065  0.4485  0.0490  0.0924
 3734SOL    HW122664   3.863   1.216   8.055  0.5165  0.3835 -1.0125
 3734SOL    HW222665   3.729   1.260   7.984 -0.5342  1.2031  0.6647
 3735SOL     OW22666   1.108   2.882   6.153  0.7929 -0.0814 -0.4894
 3735SOL    HW122667   1.192   2.894   6.110  0.6528  2.2462 -0.1153
 3735SOL    HW222668   1.124   2.909   6.243  0.4562 -0.4552 -0.3154
 3736SOL     OW22669   2.624   0.463  15.480  0.0288  0.1760  0.7704
 3736SOL    HW122670   2.705   0.514  15.488  2.2467 -3.1988 -0.4305
 3736SOL    HW222671   2.639   0.394  15.544  2.1355  2.1689  2.4365
 3737SOL     OW22672   1.089   2.607   4.108  0.1826  0.4863 -0.3328
 3737SOL    HW122673   1.066   2.648   4.191  0.7227 -0.7105  0.3998
 3737SOL    HW222674   1.018   2.639   4.052 -0.5064 -1.2719 -0.4712
 3738SOL     OW22675   1.248   3.174   2.470 -0.1060 -0.3373  0.2841
 3738SOL    HW122676   1.210   3.262   2.469 -0.2820 -0.4511 -2.6435
 3738SOL    HW222677   1.219   3.143   2.556  3.6195 -0.5946  1.4788
 3739SOL     OW22678   4.389   3.658   8.405 -0.1684 -0.1054 -0.1391
 3739SOL    HW122679   4.341   3.627   8.482 -0.0713 -0.5054 -0.2376
 3739SOL    HW222680   4.466   3.604   8.417  1.8230  3.1524  1.6170
 3740SOL     OW22681   2.267   1.303   6.930  0.1175  0.3860 -0.2526
 3740SOL    HW122682   2.186   1.322   6.976  0.1380  1.7899 -0.8042
 3740SOL    HW222683   2.238   1.279   6.842 -0.7812  0.1392  0.1154
 3741SOL     OW22684   2.233   1.110   5.295  0.0402 -0.1739 -0.1567
 3741SOL    HW122685   2.232   1.015   5.304  1.4350 -0.0148  1.6064
 3741SOL    HW222686   2.321   1.118   5.258 -0.6746 -0.8854 -2.0098
 3742SOL     OW22687   0.795   3.805  14.190  0.3526 -0.2035  0.2320
 3742SOL    HW122688   0.852   3.759  14.251  0.6167  2.2423  1.8353
 3742SOL    HW222689   0.845   3.839  14.115  0.0841 -0.1861  0.0609
 3743SOL     OW22690   1.709   3.689   4.591 -0.3013 -0.1172  0.2637
 3743SOL    HW122691   1.790   3.654   4.628 -0.6313 -4.9202 -3.5208
 3743SOL    HW222692   1.659   3.692   4.673  0.1241  2.6362  0.4231
 3744SOL     OW22693   1.822   3.915   3.775  0.1097  0.3782  0.6494
 3744SOL    HW122694   1.734   3.907   3.738  0.0251 -2.0490  1.3250
 3744SOL    HW222695   1.846   4.002   3.746 -0.0247  0.8634  1.9695
 3745SOL     OW22696   1.235   3.720   6.893 -0.2476  0.6982  0.2982
 3745SOL    HW122697   1.290   3.686   6.822 -2.0298  0.4212 -0.9517
 3745SOL    HW222698   1.154   3.730   6.843 -0.3014 -1.2042 -0.0110
 3746SOL     OW22699   3.170   3.156   7.695 -0.5307  0.1015 -0.2459
 3746SOL    HW122700   3.156   3.061   7.696 -0.7247  0.1422  1.3263
 3746SOL    HW222701   3.077   3.175   7.688 -0.3820  0.3456 -1.6353
 3747SOL     OW22702   4.164   3.650   7.810 -0.1547 -0.0836 -0.1407
 3747SOL    HW122703   4.155   3.560   7.779 -1.4384  0.3235 -0.9623
 3747SOL    HW222704   4.244   3.677   7.765  0.4733 -0.2391  0.8675
 3748SOL     OW22705   3.380   0.560  14.520 -0.2311  0.2962  0.9955
 3748SOL    HW122706   3.292   0.552  14.557 -0.6131  0.6692  0.1653
 3748SOL    HW222707   3.430   0.513  14.586 -1.8237 -1.9818  0.5736
 3749SOL     OW22708   0.782   1.580   3.316 -0.2089 -0.1614 -0.0216
 3749SOL    HW122709   0.850   1.532   3.269 -0.0272  0.4504 -0.3954
 3749SOL    HW222710   0.756   1.648   3.253 -1.2984 -1.8597 -1.3898
 3750SOL     OW22711   0.887   0.943   4.016  0.0822  0.5886  0.6859
 3750SOL    HW122712   0.851   0.957   4.104  2.2040 -1.3053  1.8580
 3750SOL    HW222713   0.954   1.010   4.026  1.0076 -0.2745  0.1301
 3751SOL     OW22714   4.332   4.559  17.352 -0.0459  0.1299 -0.6370
 3751SOL    HW122715   4.267   4.509  17.402  1.9219 -2.1424 -0.3019
 3751SOL    HW222716   4.281   4.574  17.273  0.0504  0.4190 -0.6424
 3752SOL     OW22717   3.137   0.848   0.571 -0.3563 -0.3315 -0.0282
 3752SOL    HW122718   3.119   0.794   0.648  0.2321  0.7937  0.9011
 3752SOL    HW222719   3.215   0.807   0.534 -0.0317  0.9202 -0.7216
 3753SOL     OW22720   1.151   3.320   0.311 -0.1659  0.3165 -0.1157
 3753SOL    HW122721   1.185   3.409   0.325 -0.0815  0.2326  0.1892
 3753SOL    HW222722   1.219   3.279   0.258 -0.0129 -0.8182  0.9769
 3754SOL     OW22723   3.365   3.548   1.881  0.3092 -0.6557  0.2431
 3754SOL    HW122724   3.377   3.463   1.838  0.9937 -0.4107 -0.0557
 3754SOL    HW222725   3.378   3.597   1.799 -2.7338  0.3193  0.3462
 3755SOL     OW22726   0.714   2.098  11.115  0.4349 -0.3600 -0.5023
 3755SOL    HW122727   0.691   2.019  11.164 -2.9986 -0.2221 -1.8904
 3755SOL    HW222728   0.646   2.164  11.135  0.8913  0.2306 -0.8910
 3756SOL     OW22729   3.670   4.478   5.133 -0.1929 -0.3233 -0.2798
 3756SOL    HW122730   3.716   4.561   5.146 -0.0635 -0.2851 -0.9524
 3756SOL    HW222731   3.602   4.497   5.198 -0.2571 -1.0998 -0.1260
 3757SOL     OW22732   1.342   3.312  16.043  0.9917 -0.1021 -0.1594
 3757SOL    HW122733   1.286   3.294  16.119  0.3931  0.5190 -0.4500
 3757SOL    HW222734   1.345   3.407  16.054 -1.7238 -0.3597  2.9776
 3758SOL     OW22735   0.965   0.101   3.486  0.1975  0.1490  0.3106
 3758SOL    HW122736   1.040   0.053   3.520 -0.7158 -1.4714  0.0113
 3758SOL    HW222737   0.903   0.028   3.488  2.8291 -2.1011  0.0064
 3759SOL     OW22738   1.113   3.367   3.444 -0.8195  0.1435 -0.7178
 3759SOL    HW122739   1.114   3.321   3.360  0.2038 -3.8048  1.4592
 3759SOL    HW222740   1.062   3.310   3.502  1.5085 -0.5003  0.6899
 3760SOL     OW22741   2.148   1.008   7.698 -0.0410  0.3661  0.2745
 3760SOL    HW122742   2.117   1.005   7.607 -0.7595 -0.3872  0.5499
 3760SOL    HW222743   2.169   1.101   7.705  2.7631 -0.3555  1.3773
 3761SOL     OW22744   2.876   4.394   9.411  0.8276  0.4698 -0.1484
 3761SOL    HW122745   2.964   4.415   9.378  0.5809  0.6643 -0.6835
 3761SOL    HW222746   2.847   4.340   9.337  1.7387 -0.9255  0.5166
 3762SOL     OW22747   1.651   4.275   7.828  0.2439 -0.2810  0.0550
 3762SOL    HW122748   1.683   4.190   7.858 -0.2047 -0.9202 -1.3330
 3762SOL    HW222749   1.659   4.322   7.911 -2.8716 -0.3497  0.3868
 3763SOL     OW22750   0.786   0.320   3.572 -0.1650  0.0200  0.1727
 3763SOL    HW122751   0.829   0.235   3.564 -1.3937 -0.2847 -3.1703
 3763SOL    HW222752   0.860   0.375   3.547  0.8998 -1.8064 -0.7171
 3764SOL     OW22753   3.061   1.678   6.348 -0.5415 -0.1252  0.0103
 3764SOL    HW122754   3.116   1.736   6.296 -0.9794  1.0473  0.8345
 3764SOL    HW222755   3.040   1.619   6.275 -1.5006  2.8932 -2.1516
 3765SOL     OW22756   0.672   1.449  14.724  0.2012 -0.4339 -1.2188
 3765SOL    HW122757   0.760   1.411  14.724 -0.5795 -2.2542  0.6180
 3765SOL    HW222758   0.627   1.366  14.741 -0.1835  0.4558  2.0570
 3766SOL     OW22759   4.279   0.186   8.852 -0.2716  0.0909  0.0892
 3766SOL    HW122760   4.357   0.192   8.906 -0.6345 -0.4808  0.6753
 3766SOL    HW222761   4.253   0.095   8.863  2.1779 -0.9280 -2.5420
 3767SOL     OW22762   2.054   3.698   1.558 -0.3507 -0.2655 -0.2052
 3767SOL    HW122763   2.039   3.634   1.489 -1.0677  0.0800 -0.3619
 3767SOL    HW222764   2.068   3.638   1.632 -0.2397 -0.7537 -0.6216
 3768SOL     OW22765   0.778   3.988  11.617 -0.1498  0.4468 -0.1057
 3768SOL    HW122766   0.822   3.920  11.668 -1.4080 -1.0791 -1.0437
 3768SOL    HW222767   0.850   4.006  11.558  0.1903  0.3005  0.2641
 3769SOL     OW22768   1.867   3.632   7.329 -0.1117 -0.4357 -0.5771
 3769SOL    HW122769   1.954   3.636   7.291  0.0813  0.5838 -0.0290
 3769SOL    HW222770   1.827   3.700   7.274  0.1687 -0.1414 -0.4209
 3770SOL     OW22771   0.147   4.676  17.599  0.0788 -0.6062  0.6110
 3770SOL    HW122772   0.218   4.706  17.655  2.2330 -1.3638 -1.7073
 3770SOL    HW222773   0.069   4.691  17.653  0.1495  1.2920  0.2080
 3771SOL     OW22774   4.095   3.804   2.723 -0.2242  1.0262  0.0547
 3771SOL    HW122775   4.001   3.791   2.710  0.2841 -2.3862 -0.1105
 3771SOL    HW222776   4.099   3.827   2.816  1.8521 -0.4394  0.3262
 3772SOL     OW22777   2.656   1.705   1.819 -0.2242  0.5931 -0.1342
 3772SOL    HW122778   2.657   1.712   1.724 -1.1175 -1.2141 -0.2711
 3772SOL    HW222779   2.590   1.772   1.839 -2.0232 -2.1439  3.0156
 3773SOL     OW22780   4.100   1.944   7.405  0.1139 -0.7115 -0.0989
 3773SOL    HW122781   4.085   1.853   7.428  0.5114 -0.2055  2.1668
 3773SOL    HW222782   4.046   1.992   7.468 -1.6226 -0.6376 -1.6353
 3774SOL     OW22783   3.403   0.642   3.891 -0.0470  0.2323  0.2375
 3774SOL    HW122784   3.351   0.662   3.814 -1.0083  0.4308  0.9411
 3774SOL    HW222785   3.404   0.724   3.940  1.1093  1.8618 -2.5787
 3775SOL     OW22786   0.545   3.046   5.144  0.1202 -0.0069 -0.4659
 3775SOL    HW122787   0.489   3.108   5.097 -0.0845 -0.9730 -1.5048
 3775SOL    HW222788   0.532   3.071   5.235  2.5919 -0.4349 -0.0092
 3776SOL     OW22789   0.105   2.064   6.494  0.7183 -0.1738 -0.3365
 3776SOL    HW122790   0.155   2.145   6.491  1.5112 -0.7208 -1.8215
 3776SOL    HW222791   0.034   2.086   6.555 -0.2160 -0.0272 -1.4769
 3777SOL     OW22792   2.712   2.934   8.375  0.1127 -0.0981 -0.4727
 3777SOL    HW122793   2.667   2.947   8.459  0.7504  0.7310 -0.2603
 3777SOL    HW222794   2.681   3.013   8.332  1.3324 -0.1897 -1.4955
 3778SOL     OW22795   0.705   1.000  17.391  0.0360  0.0895  0.3299
 3778SOL    HW122796   0.732   0.998  17.299 -1.9398 -1.6745 -0.2120
 3778SOL    HW222797   0.636   0.935  17.379 -0.3787  0.9978 -2.2194
 3779SOL     OW22798   0.064   4.274   7.399 -0.0193 -0.3891 -0.0588
 3779SOL    HW122799   0.148   4.234   7.378  0.3084 -0.3226  1.0925
 3779SOL    HW222800   0.036   4.222   7.475  1.3177  0.4024  0.9781
 3780SOL     OW22801   0.237   0.176   9.656 -0.3516  0.1025 -0.1932
 3780SOL    HW122802   0.196   0.090   9.656  2.2204 -1.0991 -0.7128
 3780SOL    HW222803   0.324   0.139   9.644 -0.2585  0.3681 -0.3527
 3781SOL     OW22804   3.832   4.330   5.834  0.2253  0.2500  0.7130
 3781SOL    HW122805   3.873   4.349   5.918  2.1109 -1.2745  0.1283
 3781SOL    HW222806   3.847   4.237   5.821 -0.1606  0.4475 -1.1720
 3782SOL     OW22807   3.305   3.650   7.664  0.4283 -0.0551  0.2108
 3782SOL    HW122808   3.303   3.555   7.655  1.8175 -0.3433  2.7373
 3782SOL    HW222809   3.396   3.664   7.693  1.0329  0.4986 -1.9574
 3783SOL     OW22810   3.929   0.420   0.822  0.1039 -0.1354  0.0655
 3783SOL    HW122811   3.998   0.459   0.875  0.9375 -2.0977  0.4340
 3783SOL    HW222812   3.979   0.351   0.778  1.7082  1.6331 -0.8688
 3784SOL     OW22813   3.791   0.276   2.056  0.2655 -0.7886 -0.3532
 3784SOL    HW122814   3.866   0.320   2.096 -0.3506  0.9061 -1.0736
 3784SOL    HW222815   3.806   0.280   1.961  0.8735  1.1148 -0.1715
 3785SOL     OW22816   4.479   1.453   7.998  0.0945 -0.4654  0.4477
 3785SOL    HW122817   4.567   1.449   8.034  0.1531  0.1795  0.3747
 3785SOL    HW222818   4.430   1.419   8.073  1.8501 -0.9673  1.3574
 3786SOL     OW22819   3.533   3.241  11.079  0.0199 -0.2368  0.5631
 3786SOL    HW122820   3.438   3.240  11.070 -0.0278 -2.7778  1.3725
 3786SOL    HW222821   3.542   3.160  11.130 -0.2595 -0.7169 -0.1445
 3787SOL     OW22822   0.638   4.251   3.034 -0.0316  0.8176 -0.1869
 3787SOL    HW122823   0.562   4.273   3.089  0.1029 -1.6308  0.9779
 3787SOL    HW222824   0.629   4.300   2.953  0.6772 -0.8612 -1.2703
 3788SOL     OW22825   0.205   2.127   3.912 -0.1063  0.1955 -0.0528
 3788SOL    HW122826   0.209   2.043   3.866  0.6638  0.8888 -1.2457
 3788SOL    HW222827   0.298   2.139   3.928 -0.0825  1.5370 -1.1692
 3789SOL     OW22828   2.665   2.720   4.135 -0.1166  0.2292  0.4220
 3789SOL    HW122829   2.582   2.732   4.181 -0.1344  1.9804 -0.0429
 3789SOL    HW222830   2.663   2.625   4.131 -0.9044  0.2297  0.8467
 3790SOL     OW22831   2.023   0.802   5.782 -0.0848  0.6343  0.1448
 3790SOL    HW122832   2.086   0.817   5.853 -0.0054  0.1771  0.1718
 3790SOL    HW222833   1.956   0.743   5.817  1.1844 -0.1295  1.3142
 3791SOL     OW22834   2.298   2.842   2.686  0.2142  0.4427 -0.0449
 3791SOL    HW122835   2.218   2.800   2.717  1.3615 -0.5422  1.5788
 3791SOL    HW222836   2.291   2.931   2.720 -0.1185  0.9729 -1.5293
 3792SOL     OW22837   3.551   4.409   0.757 -0.6851 -0.1114  0.3033
 3792SOL    HW122838   3.472   4.460   0.775 -0.7454  1.4276 -4.3402
 3792SOL    HW222839   3.553   4.414   0.661  0.2349 -0.4590  0.3061
 3793SOL     OW22840   2.266   1.208   0.312  0.2766  0.6566  1.2159
 3793SOL    HW122841   2.353   1.240   0.290  0.9890 -1.6294  0.7355
 3793SOL    HW222842   2.201   1.276   0.294  0.3902  0.8611  1.5897
 3794SOL     OW22843   4.647   4.080  12.017 -0.2488  0.1383 -0.9544
 3794SOL    HW122844   4.615   4.018  11.952 -0.7862 -1.1559  0.5618
 3794SOL    HW222845   0.016   4.063  12.020 -0.2067  0.5132 -0.2972
 3795SOL     OW22846   2.090   1.705  15.456  0.1558  0.0572  0.5535
 3795SOL    HW122847   2.004   1.665  15.441  0.7046 -0.3443 -1.5680
 3795SOL    HW222848   2.134   1.676  15.376  1.7304 -0.0969  1.4803
 3796SOL     OW22849   1.501   1.982   5.321 -0.4427  0.0693  0.2766
 3796SOL    HW122850   1.449   1.901   5.318  0.2003 -0.4438  2.5209
 3796SOL    HW222851   1.434   2.035   5.364 -0.8049  1.6199 -2.2176
 3797SOL     OW22852   2.628   0.404   7.701  0.1946  0.1156  0.0024
 3797SOL    HW122853   2.541   0.439   7.720 -0.3464 -0.8842 -0.6321
 3797SOL    HW222854   2.628   0.328   7.760  1.1020  0.7870  0.8474
 3798SOL     OW22855   2.822   4.694   4.113  0.6158 -0.2142 -0.2536
 3798SOL    HW122856   2.826   4.627   4.180  0.3107 -0.5993 -0.6181
 3798SOL    HW222857   2.813   4.636   4.037  3.5939 -0.3338 -0.4969
 3799SOL     OW22858   0.873   3.024  16.183  0.9714 -0.0757 -0.2486
 3799SOL    HW122859   0.947   3.070  16.143 -0.6811  1.5671 -1.3951
 3799SOL    HW222860   0.918   2.943  16.210 -1.6678 -0.8501  1.7511
 3800SOL     OW22861   2.595   4.467   6.353 -0.0917 -0.4004  0.0209
 3800SOL    HW122862   2.565   4.557   6.363  2.8275  0.3372  1.9753
 3800SOL    HW222863   2.519   4.442   6.406  0.2780  0.1518  0.8143
 3801SOL     OW22864   2.305   2.023  12.254 -0.2130  0.5258 -0.0089
 3801SOL    HW122865   2.288   1.944  12.307 -1.5685  0.2566 -0.8504
 3801SOL    HW222866   2.263   1.995  12.173  0.0053  0.9479 -0.2663
 3802SOL     OW22867   4.213   1.103  16.390 -0.6815 -0.4113 -0.3189
 3802SOL    HW122868   4.126   1.070  16.370 -0.9945 -0.5595  1.2575
 3802SOL    HW222869   4.269   1.027  16.373 -0.0173  0.0274 -0.0978
 3803SOL     OW22870   0.108   4.055   5.467  0.2653 -0.1929  0.1227
 3803SOL    HW122871   0.024   4.094   5.487  1.3064  1.9767  0.2137
 3803SOL    HW222872   0.171   4.126   5.479 -1.0317  0.7034  1.4760
 3804SOL     OW22873   2.024   2.285   6.568  0.2416 -0.1564 -0.0808
 3804SOL    HW122874   2.088   2.238   6.513 -2.3569 -2.2886 -1.3125
 3804SOL    HW222875   2.028   2.369   6.522 -1.9946  1.1780  2.1833
 3805SOL     OW22876   1.137   3.266   5.599 -0.3976  0.4665 -0.0361
 3805SOL    HW122877   1.223   3.293   5.566 -0.4801  0.6382 -0.1152
 3805SOL    HW222878   1.141   3.171   5.598  1.9611  0.5566  0.5464
 3806SOL     OW22879   3.837   1.024   8.394 -1.3322  0.2422 -0.6481
 3806SOL    HW122880   3.799   1.110   8.377  0.1011  1.5248  2.6993
 3806SOL    HW222881   3.888   1.038   8.473 -0.2951  3.4633 -1.9122
 3807SOL     OW22882   1.971   0.109   6.627  0.1263  0.0055 -0.3049
 3807SOL    HW122883   2.042   0.148   6.577  1.0098  1.1374  1.8166
 3807SOL    HW222884   1.933   0.040   6.573  1.5140  0.2876 -1.6332
 3808SOL     OW22885   3.949   3.761  17.138  0.4919  0.1297  0.3694
 3808SOL    HW122886   3.988   3.823  17.076  0.4826  0.9679  1.2104
 3808SOL    HW222887   4.006   3.685  17.130  1.5784  0.8762  0.9481
 3809SOL     OW22888   3.717   2.284   4.073  0.3419  0.1989 -0.3215
 3809SOL    HW122889   3.703   2.304   3.980 -1.2432 -2.3299 -0.6555
 3809SOL    HW222890   3.795   2.229   4.068  0.8755  0.9171  0.2931
 3810SOL     OW22891   0.185   1.541   5.879  0.0592 -0.0427  0.3304
 3810SOL    HW122892   0.240   1.585   5.814  1.1686 -2.2773 -0.2473
 3810SOL    HW222893   0.164   1.457   5.836  0.1378  0.2040 -0.1931
 3811SOL     OW22894   4.256   4.097  13.296 -0.0722 -0.1955  0.8133
 3811SOL    HW122895   4.350   4.116  13.294  0.0034 -0.6326  0.2152
 3811SOL    HW222896   4.244   4.002  13.296 -0.2371 -0.1823  3.5885
 3812SOL     OW22897   0.997   0.530   8.213 -0.6871 -0.4693 -0.0001
 3812SOL    HW122898   1.035   0.455   8.260 -1.2136 -1.0605 -0.5126
 3812SOL    HW222899   1.009   0.486   8.129  2.9421 -0.0924  0.3311
 3813SOL     OW22900   0.743   4.344   7.461 -0.0563  0.2609 -0.2611
 3813SOL    HW122901   0.660   4.380   7.494  0.1661  2.7428 -2.3798
 3813SOL    HW222902   0.798   4.346   7.539  0.1170 -0.0505 -0.3770
 3814SOL     OW22903   1.802   3.465  10.058  0.4535  0.2045  0.8539
 3814SOL    HW122904   1.867   3.524  10.020  0.5264  0.4823  1.4195
 3814SOL    HW222905   1.754   3.526  10.114  0.0318  0.2028  0.4960
 3815SOL     OW22906   1.064   0.986   1.804  0.1146 -0.6394  0.2328
 3815SOL    HW122907   1.027   1.074   1.810 -0.3465 -0.8205  0.0889
 3815SOL    HW222908   1.084   0.981   1.710 -0.4691 -0.8216  0.1196
 3816SOL     OW22909   0.089   0.972   5.077 -0.1150 -0.2091  0.2029
 3816SOL    HW122910   0.131   1.057   5.090  2.8270 -1.7644  0.8885
 3816SOL    HW222911   4.723   0.996   5.068  0.1524  1.0038  0.7308
 3817SOL     OW22912   2.174   1.682  15.190  0.2073 -0.0321 -0.1399
 3817SOL    HW122913   2.201   1.591  15.179 -1.9944 -0.8759  1.4290
 3817SOL    HW222914   2.155   1.705  15.099  1.2079  1.1200 -0.0713
 3818SOL     OW22915   3.830   2.613   2.874  0.5149 -0.3034  0.6144
 3818SOL    HW122916   3.900   2.581   2.930  1.8760  1.3696 -0.1347
 3818SOL    HW222917   3.769   2.628   2.946 -1.5620  1.7374 -1.5771
 3819SOL     OW22918   4.712   4.468   3.585 -0.0137  0.8481  0.0248
 3819SOL    HW122919   4.724   4.460   3.490 -1.3602  0.5152 -0.1176
 3819SOL    HW222920   0.073   4.433   3.606  1.2904  2.8822 -1.9001
 3820SOL     OW22921   1.742   2.526   2.490 -1.3481  0.6680  0.5413
 3820SOL    HW122922   1.686   2.538   2.567  0.7250 -0.1510  2.1621
 3820SOL    HW222923   1.693   2.581   2.428  0.0420  0.8639 -0.3744
 3821SOL     OW22924   0.496   4.051   0.027  0.1564 -0.0412 -0.2176
 3821SOL    HW122925   0.535   3.969   0.058 -1.1899 -0.9188 -0.8355
 3821SOL    HW222926   0.485   4.089   0.114  1.2055 -0.0619 -0.0797
 3822SOL     OW22927   2.955   2.408   5.086 -0.0233 -0.1287  0.9215
 3822SOL    HW122928   2.860   2.409   5.096 -0.0098  3.2375  0.8511
 3822SOL    HW222929   2.986   2.389   5.174  0.3779 -0.4942  0.6988
 3823SOL     OW22930   0.237   0.315   5.026 -0.2564 -0.3481 -0.1445
 3823SOL    HW122931   0.204   0.261   5.098  0.1364 -0.8262 -0.3232
 3823SOL    HW222932   0.160   0.353   4.984 -0.5775  0.1416  0.9012
 3824SOL     OW22933   2.089   0.647  11.008  0.2256  0.2994 -0.6290
 3824SOL    HW122934   2.156   0.586  11.038  1.6868  2.2280 -0.0223
 3824SOL    HW222935   2.092   0.645  10.912 -0.0621 -0.5250 -0.6171
 3825SOL     OW22936   2.450   2.815   3.068  0.4166 -0.5225 -0.3154
 3825SOL    HW122937   2.361   2.791   3.094 -0.0118 -0.7539 -2.0138
 3825SOL    HW222938   2.444   2.903   3.032 -0.4771 -0.4742 -0.0477
 3826SOL     OW22939   3.310   2.510   6.312  0.0443  0.3541  0.2527
 3826SOL    HW122940   3.352   2.499   6.227 -0.0015  0.3949  0.2250
 3826SOL    HW222941   3.327   2.428   6.358  0.0010 -0.5257 -1.3144
 3827SOL     OW22942   0.791   3.811   2.433 -0.5303 -0.1356  0.0183
 3827SOL    HW122943   0.762   3.858   2.511 -0.1383  0.0309  0.0645
 3827SOL    HW222944   0.754   3.867   2.364  3.3520  1.4788 -0.7663
 3828SOL     OW22945   2.485   2.974   4.159 -0.0721  0.1131  0.5337
 3828SOL    HW122946   2.570   2.972   4.202  0.4475 -0.8107 -0.5459
 3828SOL    HW222947   2.491   3.055   4.109  0.9199 -0.8730 -0.9534
 3829SOL     OW22948   3.046   0.546   8.237 -0.2398 -0.3480 -0.2507
 3829SOL    HW122949   3.056   0.642   8.234  0.8499 -0.4963 -1.4892
 3829SOL    HW222950   3.067   0.524   8.328 -2.0840  0.7528  0.4398
 3830SOL     OW22951   0.799   1.983   7.826 -0.2595  0.1039  0.5200
 3830SOL    HW122952   0.840   2.054   7.875  0.3803  0.1475 -0.0808
 3830SOL    HW222953   0.714   2.004   7.865  0.0629  0.2071  1.1720
 3831SOL     OW22954   1.492   2.917   2.654 -0.0415  0.1153 -0.0902
 3831SOL    HW122955   1.572   2.871   2.628  0.2829  0.2699  0.6375
 3831SOL    HW222956   1.424   2.856   2.626  0.8365 -0.5558 -0.7458
 3832SOL     OW22957   2.539   1.556   3.401 -0.6014  0.0394  0.1896
 3832SOL    HW122958   2.482   1.592   3.469 -3.2758 -2.0806 -0.9176
 3832SOL    HW222959   2.490   1.481   3.368 -3.3029  1.4271  1.0763
 3833SOL     OW22960   4.039   3.054   4.538  0.3553  0.4343  0.1643
 3833SOL    HW122961   3.947   3.062   4.513  0.6128  1.2878 -0.5317
 3833SOL    HW222962   4.075   2.997   4.470  1.9572  0.3074  1.1141
 3834SOL     OW22963   0.566   2.044   7.933  0.2125  0.6974 -0.3310
 3834SOL    HW122964   0.511   2.040   8.012 -0.0060  1.5921 -0.4380
 3834SOL    HW222965   0.491   2.042   7.874  0.0289  2.5639 -0.1623
 3835SOL     OW22966   4.309   3.645  14.071 -0.4969 -0.5174  0.7521
 3835SOL    HW122967   4.349   3.729  14.094  0.5291 -0.3170 -1.8841
 3835SOL    HW222968   4.241   3.664  14.006 -1.2018 -1.5100  1.1978
 3836SOL     OW22969   3.736   0.199   0.554  0.0073 -0.8464 -0.4769
 3836SOL    HW122970   3.668   0.265   0.568  0.0797 -0.7850 -0.4129
 3836SOL    HW222971   3.763   0.208   0.463 -0.6774 -2.4641 -0.8472
 3837SOL     OW22972   3.825   2.194   4.871  0.2527 -0.3400  0.0676
 3837SOL    HW122973   3.867   2.227   4.951  2.1046 -0.4591 -0.8433
 3837SOL    HW222974   3.899   2.151   4.828  1.1895  1.1089  0.2348
 3838SOL     OW22975   4.146   4.359   8.999 -0.2736  0.0729  0.0901
 3838SOL    HW122976   4.127   4.266   8.984  2.3900 -0.5855  0.8225
 3838SOL    HW222977   4.065   4.399   9.031 -1.6048 -1.1349 -1.7596
 3839SOL     OW22978   0.975   1.866  10.797 -0.0293 -0.0701 -0.4265
 3839SOL    HW122979   1.063   1.888  10.827  0.3158 -0.4166 -1.2044
 3839SOL    HW222980   0.992   1.871  10.703  0.2211 -0.5169 -0.4055
 3840SOL     OW22981   1.321   0.268   6.453 -0.5687  0.2669 -0.1356
 3840SOL    HW122982   1.282   0.199   6.399  1.6537  0.9668 -2.6311
 3840SOL    HW222983   1.352   0.220   6.529  2.0325  0.0243 -1.3654
 3841SOL     OW22984   4.007   2.636   0.251 -0.0198 -0.5959  0.2282
 3841SOL    HW122985   4.009   2.544   0.224  2.9771  0.0353 -1.7170
 3841SOL    HW222986   3.969   2.636   0.339 -0.9906 -0.6867 -0.1921
 3842SOL     OW22987   0.174   3.880   7.437 -0.4765  0.0761 -0.3427
 3842SOL    HW122988   0.239   3.924   7.491 -1.3004 -0.9596  1.5002
 3842SOL    HW222989   0.092   3.921   7.466  1.3188  2.9590  0.6152
 3843SOL     OW22990   1.279   0.727   8.219 -0.2836  0.3594  0.3902
 3843SOL    HW122991   1.258   0.675   8.296  0.2167  2.9565  2.2713
 3843SOL    HW222992   1.337   0.794   8.255 -0.6087  1.2694 -0.7594
 3844SOL     OW22993   1.829   3.596   5.080 -0.2375 -0.4306  0.0800
 3844SOL    HW122994   1.911   3.549   5.095  0.2166  0.5658  0.6596
 3844SOL    HW222995   1.768   3.525   5.100 -0.0707 -0.1217  1.6119
 3845SOL     OW22996   0.207   3.466   6.429  0.5685  0.4095 -0.1370
 3845SOL    HW122997   0.156   3.390   6.457  0.6292  0.5697  0.4119
 3845SOL    HW222998   0.187   3.530   6.498  0.6864  1.8569 -1.4423
 3846SOL     OW22999   2.426   2.652  12.633  0.3069 -0.6842 -0.7365
 3846SOL    HW123000   2.345   2.704  12.638  0.4332 -0.6180  0.6368
 3846SOL    HW223001   2.385   2.585  12.579 -0.3833 -1.0175  0.1877
 3847SOL     OW23002   2.108   0.327   7.111 -0.0708 -0.3059  0.0396
 3847SOL    HW123003   2.120   0.252   7.169  0.5768 -2.0253 -2.3427
 3847SOL    HW223004   2.112   0.387   7.186  1.1225 -0.7350  0.3183
 3848SOL     OW23005   3.947   0.196   1.027 -0.0596 -0.0161 -0.4907
 3848SOL    HW123006   3.955   0.178   0.933 -0.5962  1.6079 -0.8582
 3848SOL    HW223007   4.039   0.204   1.052 -0.1420 -0.3555 -0.0850
 3849SOL     OW23008   0.328   3.646  16.593 -0.0905  0.6188  0.3418
 3849SOL    HW123009   0.298   3.571  16.542 -1.3066  3.7506 -3.5761
 3849SOL    HW223010   0.271   3.720  16.571 -0.8569 -0.1580 -0.2314
 3850SOL     OW23011   1.379   0.926   7.214  0.0211  0.1520  0.1170
 3850SOL    HW123012   1.393   0.902   7.123  0.5343 -0.9013  0.4754
 3850SOL    HW223013   1.462   0.910   7.258  0.0577  0.2471  0.0816
 3851SOL     OW23014   2.594   1.495   1.438  0.1176  0.5273  0.1893
 3851SOL    HW123015   2.679   1.452   1.449  1.2825  1.8967 -3.1139
 3851SOL    HW223016   2.547   1.437   1.378 -3.3371  0.7252  2.7199
 3852SOL     OW23017   4.425   3.506   8.019 -0.0774 -0.9433 -0.2392
 3852SOL    HW123018   4.356   3.544   8.074  0.6149 -0.0914  0.0413
 3852SOL    HW223019   4.457   3.581   7.969  0.3138 -0.3406  0.9178
 3853SOL     OW23020   1.590   1.920   6.620  0.1757  0.2268 -0.5034
 3853SOL    HW123021   1.555   1.990   6.674 -1.0168 -0.6002 -0.2229
 3853SOL    HW223022   1.682   1.946   6.626  0.7449 -1.4011 -1.9348
 3854SOL     OW23023   2.423   0.802   2.209 -0.5421 -0.7338 -0.4811
 3854SOL    HW123024   2.460   0.735   2.152 -0.9995 -0.5021 -1.0418
 3854SOL    HW223025   2.451   0.767   2.294  0.1841  1.8709  0.3742
 3855SOL     OW23026   0.545   1.255   7.047 -0.2648 -0.0412 -0.2341
 3855SOL    HW123027   0.533   1.276   6.955 -0.4481  1.1792  0.0710
 3855SOL    HW223028   0.473   1.312   7.074 -2.8301 -2.0104 -2.9791
 3856SOL     OW23029   2.378   3.791  10.577 -0.3390  0.0642 -0.4489
 3856SOL    HW123030   2.307   3.794  10.513  0.3415 -1.0526 -1.2695
 3856SOL    HW223031   2.373   3.707  10.621  0.4858 -0.2803 -1.0123
 3857SOL     OW23032   3.384   4.066  14.979 -0.1294 -0.3758 -0.3772
 3857SOL    HW123033   3.439   3.995  14.948  1.0836  0.3450  0.1409
 3857SOL    HW223034   3.422   4.147  14.948  0.8206  0.3405  2.6590
 3858SOL     OW23035   2.195   0.337   8.680 -0.7888 -0.0428 -0.1659
 3858SOL    HW123036   2.235   0.288   8.608  1.2103 -0.1117  1.0078
 3858SOL    HW223037   2.235   0.293   8.755 -2.5885 -2.3813 -0.5838
 3859SOL     OW23038   3.972   1.126   4.943 -0.4489 -0.0359  0.1575
 3859SOL    HW123039   3.883   1.161   4.951 -0.8131 -1.5182  2.5354
 3859SOL    HW223040   3.983   1.114   4.849 -0.0695 -1.3485  0.3739
 3860SOL     OW23041   4.354   1.654   2.422  0.4472  0.0278  0.3075
 3860SOL    HW123042   4.376   1.680   2.511 -2.9336 -1.4263  1.5743
 3860SOL    HW223043   4.389   1.730   2.376  0.8544  0.1235  0.7823
 3861SOL     OW23044   1.511   3.689   5.375  0.4656 -0.1994  0.7301
 3861SOL    HW123045   1.474   3.602   5.394 -1.9958  0.4834 -0.8809
 3861SOL    HW223046   1.454   3.742   5.431 -0.4969 -1.4645  0.9714
 3862SOL     OW23047   3.583   4.571  11.937 -0.5051 -0.1114 -0.0761
 3862SOL    HW123048   3.585   4.476  11.928  0.0711 -0.2968  2.1041
 3862SOL    HW223049   3.544   4.588  12.023 -2.0275  0.8404 -0.9453
 3863SOL     OW23050   0.368   3.255  11.844 -0.5064  0.2870  0.8795
 3863SOL    HW123051   0.406   3.222  11.924 -0.8718  0.8140  1.2740
 3863SOL    HW223052   0.450   3.268  11.797  0.2612  1.0037  2.4278
 3864SOL     OW23053   0.654   3.903   3.354 -0.1378 -0.4389 -0.1707
 3864SOL    HW123054   0.616   3.923   3.268  2.9895 -1.0764 -1.7029
 3864SOL    HW223055   0.723   3.844   3.324  0.3425  0.5664 -1.0237
 3865SOL     OW23056   0.219   3.361   3.776  0.6981 -0.3251  0.2142
 3865SOL    HW123057   0.275   3.435   3.801  2.2944 -2.7371  3.9168
 3865SOL    HW223058   0.178   3.391   3.695  0.1770 -1.6535 -0.0101
 3866SOL     OW23059   4.706   3.465   5.390 -0.4427 -0.4339  0.2080
 3866SOL    HW123060   0.052   3.528   5.388  0.4111 -1.4299 -0.4447
 3866SOL    HW223061   4.696   3.453   5.484 -0.7410 -0.2462  0.2025
 3867SOL     OW23062   3.076   1.877   6.571  0.2681 -0.4023  0.3631
 3867SOL    HW123063   3.067   1.962   6.530  0.5878  0.4013  1.9356
 3867SOL    HW223064   3.071   1.815   6.498 -2.9232 -0.4000  0.5710
 3868SOL     OW23065   2.661   0.914  13.478  0.0509 -0.3830  0.6669
 3868SOL    HW123066   2.606   0.954  13.411 -1.2185 -0.5750  1.6082
 3868SOL    HW223067   2.682   0.837  13.424  2.2291  0.6636  0.0046
 3869SOL     OW23068   4.183   2.300   4.830 -0.5375 -0.1998 -0.0641
 3869SOL    HW123069   4.202   2.295   4.924 -2.2244 -0.2484  0.2642
 3869SOL    HW223070   4.266   2.325   4.789 -1.1558  0.5304 -0.8914
 3870SOL     OW23071   1.569   0.274  11.711  0.4485 -0.2379  0.0016
 3870SOL    HW123072   1.485   0.315  11.732  0.8115  0.8447 -0.6530
 3870SOL    HW223073   1.596   0.245  11.798 -0.5571  1.9630  1.0677
 3871SOL     OW23074   0.294   1.306   4.236 -0.2288  0.1013 -0.5077
 3871SOL    HW123075   0.205   1.334   4.258 -0.3385 -1.7526  1.5149
 3871SOL    HW223076   0.335   1.332   4.318  0.1033  2.5395 -1.4570
 3872SOL     OW23077   0.974   3.086   2.892  0.4332  0.0682 -0.4241
 3872SOL    HW123078   0.960   3.180   2.906  3.2201  0.6553 -1.7004
 3872SOL    HW223079   0.895   3.045   2.928 -0.7869  1.2159 -1.7801
 3873SOL     OW23080   2.371   0.920  11.436 -0.5796  0.1352 -0.1697
 3873SOL    HW123081   2.286   0.925  11.391 -0.6356 -0.1414 -0.0943
 3873SOL    HW223082   2.370   0.834  11.478 -0.2981 -0.7567 -1.9780
 3874SOL     OW23083   1.368   2.006   4.199 -0.5798  0.1014  0.0379
 3874SOL    HW123084   1.313   2.084   4.197  0.9896  1.1780 -1.1653
 3874SOL    HW223085   1.298   1.944   4.180 -0.5809  0.6738 -1.7810
 3875SOL     OW23086   2.350   0.446  10.740  0.0023  0.1930 -0.2452
 3875SOL    HW123087   2.369   0.365  10.693  2.9523  0.5655  0.3055
 3875SOL    HW223088   2.393   0.424  10.823 -0.2108  4.5048  1.0154
 3876SOL     OW23089   0.051   3.154   4.741 -0.0559 -0.1397  0.7813
 3876SOL    HW123090   0.049   3.250   4.743  4.1366 -0.0058 -0.6747
 3876SOL    HW223091   0.068   3.133   4.833  0.9204 -1.6785  0.2473
 3877SOL     OW23092   2.204   3.554   6.029  0.6046 -0.0447 -0.5950
 3877SOL    HW123093   2.210   3.552   6.125 -0.9099  1.3635 -0.4807
 3877SOL    HW223094   2.140   3.484   6.015  0.9011 -0.0584 -1.8070
 3878SOL     OW23095   3.219   1.681   5.885  0.0911  0.3359 -0.0398
 3878SOL    HW123096   3.170   1.759   5.860 -0.9996 -1.4956 -3.6163
 3878SOL    HW223097   3.161   1.639   5.949  0.2690  1.1378  0.6468
 3879SOL     OW23098   1.741   3.548  15.089  0.0478  0.1462  0.5148
 3879SOL    HW123099   1.828   3.569  15.053 -0.1005  2.4256  1.5542
 3879SOL    HW223100   1.724   3.626  15.141  1.4456  3.0815 -3.4243
 3880SOL     OW23101   1.009   2.997   8.463  0.3962 -0.3749  0.3284
 3880SOL    HW123102   1.037   2.945   8.389 -1.9138 -1.1242 -0.0080
 3880SOL    HW223103   1.092   3.005   8.510  0.8785  0.7947 -0.7312
 3881SOL     OW23104   1.442   1.780   6.472  0.4346  0.2714 -0.4582
 3881SOL    HW123105   1.520   1.818   6.513 -0.5800  1.2978  0.5081
 3881SOL    HW223106   1.377   1.808   6.536  2.2095  1.2722  0.9007
 3882SOL     OW23107   3.179   3.669  17.565 -0.7133 -0.5526 -0.2201
 3882SOL    HW123108   3.175   3.618  17.646  0.5367 -0.6554 -0.2232
 3882SOL    HW223109   3.086   3.688  17.555 -1.0136 -1.6170  0.4857
 3883SOL     OW23110   2.090   0.500  10.755  0.2700  0.6078  0.0765
 3883SOL    HW123111   2.034   0.425  10.778  0.6148  0.1082 -0.7201
 3883SOL    HW223112   2.178   0.464  10.743  0.2157  1.0183 -1.4716
 3884SOL     OW23113   2.783   0.627   1.752 -0.2518  0.3554  0.4429
 3884SOL    HW123114   2.865   0.628   1.801 -0.5800  1.7759  0.9735
 3884SOL    HW223115   2.810   0.559   1.690  1.4100  1.3976 -0.0005
 3885SOL     OW23116   2.969   3.706   7.331  0.3561  0.0275  0.0359
 3885SOL    HW123117   3.039   3.721   7.395 -1.0002  0.2025  1.4879
 3885SOL    HW223118   2.945   3.796   7.309  1.0500 -0.1953 -1.5799
 3886SOL     OW23119   1.175   1.965   6.438  0.2135  0.0828 -0.0271
 3886SOL    HW123120   1.214   1.887   6.398 -1.2567 -0.9578  0.5515
 3886SOL    HW223121   1.084   1.935   6.432  0.0022  0.6359  0.4717
 3887SOL     OW23122   0.281   1.320   3.067  0.6153  0.0487 -0.6976
 3887SOL    HW123123   0.305   1.387   3.003  0.7205  1.3234  0.6837
 3887SOL    HW223124   0.340   1.341   3.140  0.1114 -0.3841 -0.1634
 3888SOL     OW23125   2.974   1.657  15.196  0.3605 -0.4067 -0.0455
 3888SOL    HW123126   2.904   1.723  15.197 -0.0184 -0.7890 -1.0365
 3888SOL    HW223127   2.941   1.599  15.128 -0.1690  1.4948 -1.3982
 3889SOL     OW23128   3.215   1.302  16.357 -0.2930 -0.4635 -0.0199
 3889SOL    HW123129   3.183   1.262  16.438 -1.1988  0.5347  0.1125
 3889SOL    HW223130   3.309   1.309  16.373 -0.2480  1.6245 -1.2552
 3890SOL     OW23131   1.008   4.559   0.275  0.3990 -0.2989 -0.1356
 3890SOL    HW123132   1.097   4.592   0.264  0.2382  0.0602 -0.3670
 3890SOL    HW223133   0.971   4.580   0.189  0.3035  1.5172  0.3525
 3891SOL     OW23134   1.635   0.714  16.615 -0.1744 -0.2328  0.4658
 3891SOL    HW123135   1.542   0.724  16.637 -0.0689 -1.7784  1.5767
 3891SOL    HW223136   1.633   0.619  16.615  1.9320 -0.2745  2.3221
 3892SOL     OW23137   2.181   1.671   1.534 -0.3765  0.1044 -0.2679
 3892SOL    HW123138   2.205   1.749   1.484 -0.8016  0.9893  0.9023
 3892SOL    HW223139   2.096   1.659   1.493 -0.8169 -2.0366  1.2880
 3893SOL     OW23140   1.538   0.215   1.140  0.1251 -0.1376 -0.4164
 3893SOL    HW123141   1.587   0.179   1.066 -1.2426  0.7129 -1.7371
 3893SOL    HW223142   1.476   0.145   1.160 -0.6690  0.9192  0.7909
 3894SOL     OW23143   1.202   4.311   0.421  0.8345 -0.0672  0.6123
 3894SOL    HW123144   1.249   4.317   0.337  0.7460 -0.1415  0.5574
 3894SOL    HW223145   1.109   4.303   0.398  0.8390  0.6575  0.3380
 3895SOL     OW23146   2.713   0.769  15.359 -0.1875 -0.4803  0.4938
 3895SOL    HW123147   2.755   0.708  15.420  2.2945  0.4317 -0.2846
 3895SOL    HW223148   2.785   0.831  15.346 -0.5395 -0.4062 -1.0132
 3896SOL     OW23149   4.503   3.143  11.603 -0.6194  0.2492 -0.0263
 3896SOL    HW123150   4.572   3.193  11.561 -0.0134  0.2518  0.9555
 3896SOL    HW223151   4.507   3.174  11.694  0.6547  2.8081 -0.9757
 3897SOL     OW23152   1.420   2.872   7.341 -0.3884  0.7536 -0.1360
 3897SOL    HW123153   1.351   2.936   7.325  1.1509  2.2649 -0.7053
 3897SOL    HW223154   1.379   2.825   7.414  3.3709  1.6022  2.5395
 3898SOL     OW23155   2.628   0.338  16.879  0.0237  0.1293 -0.7529
 3898SOL    HW123156   2.700   0.386  16.838  0.2965  1.3733  1.1523
 3898SOL    HW223157   2.569   0.409  16.906  0.4974  0.6943 -1.2237
 3899SOL     OW23158   0.026   3.804   5.365 -0.7042 -0.6062 -0.3635
 3899SOL    HW123159   0.021   3.811   5.270 -1.5390 -2.7520 -0.4839
 3899SOL    HW223160   0.041   3.895   5.391 -2.6203 -0.6998  1.0356
 3900SOL     OW23161   3.968   0.707   2.623 -0.4147 -0.2468  0.2297
 3900SOL    HW123162   3.999   0.780   2.677  0.0437  0.4757 -1.0058
 3900SOL    HW223163   4.012   0.725   2.540 -1.7646  0.3857 -0.3303
 3901SOL     OW23164   2.256   3.716   6.746  0.3982 -0.3912 -0.0730
 3901SOL    HW123165   2.222   3.747   6.662  2.0039  0.5078 -0.4087
 3901SOL    HW223166   2.234   3.624   6.754  0.5381 -0.5587 -1.6981
 3902SOL     OW23167   2.640   2.151   0.731 -0.1840  0.2934 -0.5686
 3902SOL    HW123168   2.703   2.083   0.704  0.3211  0.6246 -0.2326
 3902SOL    HW223169   2.585   2.104   0.793  0.1692  0.7167  0.0726
 3903SOL     OW23170   0.224   2.624   7.789  0.6160 -0.5515 -0.9288
 3903SOL    HW123171   0.296   2.672   7.831  0.7585  1.0697 -3.0486
 3903SOL    HW223172   0.153   2.688   7.794 -0.5126 -2.0398  2.1447
 3904SOL     OW23173   1.767   0.669   4.800  0.1390 -0.1218 -0.3862
 3904SOL    HW123174   1.862   0.675   4.785 -0.1253  3.3776 -0.5389
 3904SOL    HW223175   1.735   0.647   4.712 -0.9522 -0.6786  0.1612
 3905SOL     OW23176   2.779   3.238   6.432  0.0080 -0.1897  0.1796
 3905SOL    HW123177   2.817   3.155   6.460  2.1751  0.6617 -0.2156
 3905SOL    HW223178   2.688   3.209   6.435  0.5532 -1.8693  0.5772
 3906SOL     OW23179   1.466   0.213   2.074  0.4387  0.0348 -0.7097
 3906SOL    HW123180   1.542   0.225   2.018  0.1713 -0.8166 -1.2493
 3906SOL    HW223181   1.413   0.170   2.007 -2.0789  1.2796  0.4755
 3907SOL     OW23182   4.218   0.557   2.158 -0.0919  0.3981 -0.2001
 3907SOL    HW123183   4.197   0.649   2.170 -1.5526 -0.2691  2.3020
 3907SOL    HW223184   4.158   0.518   2.221 -0.6355  0.5194 -0.6461
 3908SOL     OW23185   2.118   1.851   2.095  0.5398 -0.1427 -0.0021
 3908SOL    HW123186   2.209   1.825   2.111  0.6701  0.0810 -0.3764
 3908SOL    HW223187   2.098   1.789   2.025  0.4334 -0.5636  0.4064
 3909SOL     OW23188   3.010   1.563   2.137  0.2514 -0.0894  0.1131
 3909SOL    HW123189   3.051   1.628   2.195 -2.0650  1.2177  0.2917
 3909SOL    HW223190   3.027   1.489   2.196 -0.5053 -0.8085 -0.5829
 3910SOL     OW23191   1.500   0.497   2.208  0.3723  0.3585 -0.4525
 3910SOL    HW123192   1.584   0.533   2.180  0.7098 -0.1249 -0.0672
 3910SOL    HW223193   1.483   0.444   2.131  0.5810 -1.0728  0.4856
 3911SOL     OW23194   4.424   0.249  17.133 -0.2889  0.4313  0.4958
 3911SOL    HW123195   4.463   0.202  17.206 -1.8289 -1.0020  0.4051
 3911SOL    HW223196   4.348   0.296  17.167 -0.9421 -1.0148  1.0352
 3912SOL     OW23197   4.600   2.605  13.158  0.0979 -0.3587  0.0545
 3912SOL    HW123198   4.565   2.574  13.074 -1.9566  0.5013  0.5969
 3912SOL    HW223199   4.518   2.610  13.208  0.6664  2.9253  0.6851
 3913SOL     OW23200   2.833   4.704   2.635 -0.2303  0.6441 -0.1862
 3913SOL    HW123201   2.745   4.669   2.642 -0.6519  1.7775  0.1171
 3913SOL    HW223202   2.820   0.073   2.631 -0.0859  0.6724  0.0352
 3914SOL     OW23203   0.797   0.599   7.896  0.2970 -0.0932 -0.3323
 3914SOL    HW123204   0.758   0.594   7.983  1.3224 -1.3586  0.0556
 3914SOL    HW223205   0.816   0.692   7.896  1.0803 -0.2595  1.2006
 3915SOL     OW23206   3.726   0.792   8.320  0.7944  0.0489  0.7499
 3915SOL    HW123207   3.765   0.784   8.233  0.9183  0.9730  0.7162
 3915SOL    HW223208   3.717   0.887   8.330 -1.3141 -0.0993  0.3432
 3916SOL     OW23209   2.499   4.504   6.042  0.4098  0.2351 -0.1582
 3916SOL    HW123210   2.424   4.525   6.098  0.8845  1.3533  0.0585
 3916SOL    HW223211   2.474   4.416   6.013 -3.4004  1.0082  0.7335
 3917SOL     OW23212   0.784   2.182  12.477 -0.5354  0.2779 -0.3200
 3917SOL    HW123213   0.851   2.237  12.519 -0.3922 -1.0363  1.2043
 3917SOL    HW223214   0.747   2.247  12.418 -0.4248 -1.2057 -1.9951
 3918SOL     OW23215   1.515   1.897  11.401 -0.0826  0.4968  0.1161
 3918SOL    HW123216   1.541   1.917  11.312 -0.6223 -0.0037 -0.1583
 3918SOL    HW223217   1.427   1.933  11.411  0.0913  0.1353  3.2712
 3919SOL     OW23218   0.989   1.982  12.155 -0.1209  0.2678  0.2828
 3919SOL    HW123219   0.900   1.963  12.184 -0.7515 -0.0389 -1.7944
 3919SOL    HW223220   1.009   1.908  12.097  1.6542  0.2013  1.0158
 3920SOL     OW23221   3.932   3.075   6.849  0.1339  0.1814  0.0049
 3920SOL    HW123222   3.883   3.134   6.792 -1.6469 -1.5842 -0.2999
 3920SOL    HW223223   3.895   3.098   6.935 -0.9006  1.0165 -0.6527
 3921SOL     OW23224   1.427   4.211   4.718  0.3924 -0.2474 -0.4660
 3921SOL    HW123225   1.512   4.172   4.736  1.3795  0.8807 -2.7508
 3921SOL    HW223226   1.380   4.128   4.726 -0.6989  0.4655  0.4744
 3922SOL     OW23227   3.030   0.627   3.927  0.1128 -0.4000  0.4422
 3922SOL    HW123228   3.029   0.542   3.970 -1.9375 -1.0019 -0.8368
 3922SOL    HW223229   3.061   0.689   3.994  1.8151  0.0296 -0.7304
 3923SOL     OW23230   4.233   0.736   4.904 -0.5741  0.1001  0.4828
 3923SOL    HW123231   4.222   0.763   4.995 -0.0008  0.6918  0.3764
 3923SOL    HW223232   4.181   0.802   4.859 -1.3139 -1.9543 -1.6618
 3924SOL     OW23233   2.351   2.771  13.860  0.1227 -0.1655 -0.2933
 3924SOL    HW123234   2.426   2.726  13.823  0.2942 -0.2316  0.1374
 3924SOL    HW223235   2.276   2.738  13.811  0.0897 -2.5212  1.3203
 3925SOL     OW23236   1.339   1.187  16.498  0.5824 -0.1878 -0.2196
 3925SOL    HW123237   1.409   1.253  16.498 -1.0375  1.5453 -1.1916
 3925SOL    HW223238   1.389   1.122  16.548 -1.1192 -0.0084  1.7225
 3926SOL     OW23239   2.336   3.867   7.457  0.4291  0.0954 -0.1780
 3926SOL    HW123240   2.290   3.844   7.537 -1.4879  2.1495 -0.6954
 3926SOL    HW223241   2.335   3.779   7.418 -2.2174 -0.3781  0.9152
 3927SOL     OW23242   1.415   2.061  11.769  0.2005 -0.6768  0.3447
 3927SOL    HW123243   1.465   2.142  11.781 -2.0274  0.7752 -0.1743
 3927SOL    HW223244   1.332   2.096  11.802  0.3612  0.9868 -1.0004
 3928SOL     OW23245   1.967   3.314   8.449 -0.0936 -0.2047 -0.0198
 3928SOL    HW123246   2.034   3.379   8.429  0.4981 -1.1482 -1.1147
 3928SOL    HW223247   1.993   3.317   8.541 -1.3640 -0.1118  0.3363
 3929SOL     OW23248   3.871   4.670   3.073 -0.5595 -0.0287  0.3091
 3929SOL    HW123249   3.778   4.687   3.056 -0.5553 -0.1004  0.2158
 3929SOL    HW223250   3.891   4.622   2.993  2.6346 -0.6617  1.4883
 3930SOL     OW23251   1.657   2.844   7.553  0.1731 -0.1931  0.0977
 3930SOL    HW123252   1.711   2.765   7.547  0.1114 -0.2034 -0.2986
 3930SOL    HW223253   1.593   2.829   7.484  3.0224 -0.2278 -2.5427
 3931SOL     OW23254   2.912   1.179   2.620  0.0948 -0.1307  0.1243
 3931SOL    HW123255   2.844   1.211   2.678 -0.6570 -0.9913 -0.2800
 3931SOL    HW223256   2.858   1.159   2.543 -2.5607 -0.5091  2.1012
 3932SOL     OW23257   1.114   3.751   3.168 -0.1113  0.0374  0.3838
 3932SOL    HW123258   1.105   3.776   3.076 -1.4365  1.1463  0.8165
 3932SOL    HW223259   1.208   3.769   3.173 -0.0972  0.3322 -0.8528
 3933SOL     OW23260   3.288   0.662   9.566 -0.0667 -0.1974  0.5375
 3933SOL    HW123261   3.362   0.651   9.626  0.2475 -0.8037  0.0404
 3933SOL    HW223262   3.222   0.613   9.615  0.1328  0.0230  1.0261
 3934SOL     OW23263   2.655   2.446   1.202 -0.1586  0.4324  0.1305
 3934SOL    HW123264   2.578   2.409   1.159 -0.4505  1.9766 -0.6638
 3934SOL    HW223265   2.609   2.510   1.257  0.7784  0.2608  1.1255
 3935SOL     OW23266   2.289   4.406   9.252  0.4379  0.1631 -0.0983
 3935SOL    HW123267   2.222   4.461   9.293  1.7845 -0.6032  3.1568
 3935SOL    HW223268   2.238   4.373   9.178  0.6310  0.1541 -0.2294
 3936SOL     OW23269   3.852   4.612   5.833 -0.0037  0.2321  0.1981
 3936SOL    HW123270   3.827   4.519   5.830  0.2769  0.1571  0.1780
 3936SOL    HW223271   3.852   4.630   5.927 -0.4683 -0.6119  0.3581
 3937SOL     OW23272   0.516   0.343   3.699 -0.2274  0.3082 -0.2024
 3937SOL    HW123273   0.430   0.367   3.733  0.0683  0.4763  0.4291
 3937SOL    HW223274   0.576   0.374   3.767  0.6644 -1.7851 -0.0343
 3938SOL     OW23275   1.158   2.655   5.924  0.5294  0.3751 -0.6331
 3938SOL    HW123276   1.201   2.712   5.988  0.4774 -0.8694  0.5149
 3938SOL    HW223277   1.144   2.709   5.846  1.0023  3.6631  1.5520
 3939SOL     OW23278   0.293   0.926   9.478 -0.4716  0.2582 -0.5881
 3939SOL    HW123279   0.282   1.005   9.425 -1.1186 -0.9379 -2.2346
 3939SOL    HW223280   0.311   0.956   9.567 -0.9485  1.1916 -0.8124
 3940SOL     OW23281   3.058   2.971  11.775  0.0203 -0.2794  0.3190
 3940SOL    HW123282   2.989   2.974  11.840 -1.3218 -0.3472 -1.1011
 3940SOL    HW223283   3.125   2.932  11.831 -0.8900  0.7192  2.0904
 3941SOL     OW23284   2.331   1.206   2.633  0.0700  0.7008  0.3486
 3941SOL    HW123285   2.398   1.214   2.565  2.7400  0.3711  2.9401
 3941SOL    HW223286   2.246   1.198   2.590  0.3415  0.8869 -0.2258
 3942SOL     OW23287   2.897   1.255   6.036  0.1766 -0.5771 -0.3688
 3942SOL    HW123288   2.817   1.306   6.027  1.1364  1.1819  1.0183
 3942SOL    HW223289   2.945   1.292   5.962 -1.1175  0.2778 -0.7671
 3943SOL     OW23290   3.017   0.146  10.255 -0.3191 -0.4708  0.4732
 3943SOL    HW123291   3.021   0.241  10.240 -0.1413 -0.1009  2.8248
 3943SOL    HW223292   3.034   0.114  10.166 -1.4616 -0.2360  0.1602
 3944SOL     OW23293   2.230   2.715   0.464 -0.7149 -0.1105 -0.0572
 3944SOL    HW123294   2.137   2.719   0.443 -0.4239  0.4816 -1.2646
 3944SOL    HW223295   2.240   2.664   0.544  1.6766 -0.4987 -0.5946
 3945SOL     OW23296   0.586   2.523   7.009 -0.0356  0.1129 -0.0149
 3945SOL    HW123297   0.678   2.547   6.995  0.3132 -1.5142 -0.4623
 3945SOL    HW223298   0.540   2.607   6.997 -1.4432 -0.5940  0.4422
 3946SOL     OW23299   3.553   4.476  13.567 -0.1561  0.0718 -0.1053
 3946SOL    HW123300   3.468   4.509  13.538 -0.2995 -0.4690 -0.2862
 3946SOL    HW223301   3.528   4.390  13.600  0.1038  0.2768  0.6321
 3947SOL     OW23302   3.265   0.145   2.641  0.3159 -0.0949  0.5956
 3947SOL    HW123303   3.273   0.079   2.571 -0.7535  0.5956 -0.1826
 3947SOL    HW223304   3.279   0.092   2.719  0.9552  2.5567  2.2441
 3948SOL     OW23305   0.216   4.605   4.254  0.3819 -0.1646  0.1271
 3948SOL    HW123306   0.158   4.572   4.323  0.4191  0.3661  0.4157
 3948SOL    HW223307   0.296   4.590   4.304  0.5272 -4.3414 -1.4293
 3949SOL     OW23308   0.189   4.002   8.129  0.0709  0.1261 -0.7024
 3949SOL    HW123309   0.270   3.963   8.162  0.3129  0.2003 -1.2310
 3949SOL    HW223310   0.181   4.075   8.190 -0.8018 -1.0197  0.5856
 3950SOL     OW23311   0.999   0.309   5.113 -0.4934 -0.4178  1.1109
 3950SOL    HW123312   0.943   0.384   5.133  0.0745 -0.3536  2.5023
 3950SOL    HW223313   1.084   0.350   5.131  0.3499 -1.1321 -1.3205
 3951SOL     OW23314   1.652   3.744  17.036 -0.2055  0.3861 -0.4178
 3951SOL    HW123315   1.691   3.657  17.028  1.3712  1.1679 -1.1175
 3951SOL    HW223316   1.564   3.730  17.002 -0.6112 -1.4742  1.3979
 3952SOL     OW23317   3.848   1.109   2.709 -0.3162 -0.2489 -0.3319
 3952SOL    HW123318   3.771   1.056   2.728  1.1141 -2.6397 -1.2590
 3952SOL    HW223319   3.804   1.191   2.686 -0.3876  0.1680  1.2491
 3953SOL     OW23320   2.861   1.660   7.015  0.0043  0.4021  0.5620
 3953SOL    HW123321   2.799   1.691   6.949 -0.7699 -0.9437  0.6634
 3953SOL    HW223322   2.849   1.565   7.017  0.2140  0.3482 -0.7244
 3954SOL     OW23323   0.390   1.425  13.873 -0.0302 -0.0826 -0.3074
 3954SOL    HW123324   0.360   1.376  13.796 -1.0377 -1.0323  0.6874
 3954SOL    HW223325   0.311   1.449  13.923 -1.6485  0.6581 -3.2108
 3955SOL     OW23326   2.642   0.797   1.401  0.3924 -0.4870  0.0184
 3955SOL    HW123327   2.575   0.734   1.374  1.5027 -0.1402 -3.5002
 3955SOL    HW223328   2.716   0.739   1.420  1.4580  0.6056 -0.7924
 3956SOL     OW23329   2.355   1.950   3.724  0.0849 -0.1089  0.1277
 3956SOL    HW123330   2.273   1.901   3.720 -0.4255  0.7111  0.4014
 3956SOL    HW223331   2.326   2.010   3.793 -0.2058  1.2510 -1.1662
 3957SOL     OW23332   2.133   2.179   1.313  0.6534 -0.0377  0.2039
 3957SOL    HW123333   2.196   2.213   1.377  1.4719  1.1695 -1.2480
 3957SOL    HW223334   2.116   2.261   1.267  0.2984 -0.0400  0.3329
 3958SOL     OW23335   0.657   1.957   3.611 -0.1774 -0.0538  0.4961
 3958SOL    HW123336   0.640   1.871   3.573 -1.7266  0.9508 -1.0858
 3958SOL    HW223337   0.744   1.975   3.574 -0.6095  0.5760 -0.2075
 3959SOL     OW23338   2.146   0.733   8.837 -0.1342 -0.4891 -1.3339
 3959SOL    HW123339   2.136   0.749   8.931  1.2602  2.1723 -1.6459
 3959SOL    HW223340   2.080   0.797   8.811  0.0721 -1.0579 -3.2870
 3960SOL     OW23341   3.127   0.460  14.615  0.5939 -0.5578 -0.1388
 3960SOL    HW123342   3.033   0.455  14.630  0.9781  0.1394  2.5387
 3960SOL    HW223343   3.140   0.414  14.532  1.0843  0.9142 -0.8729
 3961SOL     OW23344   2.231   3.129  13.048 -0.1808 -0.4541 -0.5224
 3961SOL    HW123345   2.267   3.162  12.965 -1.8825 -0.0696 -1.1086
 3961SOL    HW223346   2.226   3.034  13.037 -1.1695 -0.2709 -1.6772
 3962SOL     OW23347   3.122   0.448   2.276  0.7381 -0.0135 -0.6938
 3962SOL    HW123348   3.157   0.415   2.359 -1.3854 -1.3694 -0.3430
 3962SOL    HW223349   3.128   0.364   2.231  1.6373  0.8647 -2.2160
 3963SOL     OW23350   0.014   3.101  14.511  0.3924  1.2041 -0.0631
 3963SOL    HW123351   4.694   3.140  14.585  2.7671  0.4634  1.7951
 3963SOL    HW223352   4.672   3.104  14.444  1.0680  1.2552 -0.7425
 3964SOL     OW23353   2.775   0.815   8.340  0.6526 -0.2161 -0.1584
 3964SOL    HW123354   2.704   0.751   8.350 -0.4931  0.9379 -0.9708
 3964SOL    HW223355   2.756   0.889   8.397 -3.3344 -0.8238 -0.7450
 3965SOL     OW23356   2.847   1.363   5.037  0.3085  0.4029  0.1048
 3965SOL    HW123357   2.754   1.373   5.057  0.8908  0.1360  2.8251
 3965SOL    HW223358   2.872   1.285   5.087 -1.1391 -0.4362 -0.4855
 3966SOL     OW23359   4.241   2.361   7.931  0.0201 -0.3348 -0.1509
 3966SOL    HW123360   4.277   2.368   8.020  2.0043 -0.2476 -0.9571
 3966SOL    HW223361   4.265   2.449   7.902  0.6875 -0.6024 -0.4122
 3967SOL     OW23362   4.214   0.908  17.580  0.4582  0.1795  0.3068
 3967SOL    HW123363   4.139   0.878  17.630 -0.4017  2.0947  0.1457
 3967SOL    HW223364   4.271   0.914  17.657  1.0431  1.6063 -0.2393
 3968SOL     OW23365   1.570   1.487   7.302  0.0259 -0.0194  0.3538
 3968SOL    HW123366   1.527   1.404   7.280  2.7160 -1.9577  2.4198
 3968SOL    HW223367   1.650   1.455   7.345  0.1603 -1.4233 -0.9511
 3969SOL     OW23368   3.508   3.259   2.800  0.6169  0.5950  0.4072
 3969SOL    HW123369   3.523   3.174   2.758  0.6229  1.2927 -1.0172
 3969SOL    HW223370   3.537   3.308   2.723 -0.4623  1.0909  0.3167
 3970SOL     OW23371   4.202   2.063  14.858 -0.3902 -0.3794  0.4746
 3970SOL    HW123372   4.120   2.091  14.818  0.1953 -0.1786 -0.5895
 3970SOL    HW223373   4.223   1.973  14.833  0.7854 -0.0529  0.2695
 3971SOL     OW23374   1.412   0.391   6.007  0.0515  0.0896 -0.0447
 3971SOL    HW123375   1.401   0.383   5.912  1.2757 -0.8443 -0.1078
 3971SOL    HW223376   1.466   0.315   6.027 -0.8177 -0.6456 -0.5073
 3972SOL     OW23377   4.417   2.039   3.298  0.1387  0.1915 -0.0052
 3972SOL    HW123378   4.356   1.971   3.268 -1.4884  2.0427 -0.8568
 3972SOL    HW223379   4.503   1.999   3.290 -0.5747 -1.6524  1.4590
 3973SOL     OW23380   4.192   4.161   8.358  0.0221  0.4993  0.1179
 3973SOL    HW123381   4.180   4.182   8.450  2.4424 -1.2141  0.8481
 3973SOL    HW223382   4.184   4.066   8.366 -0.1012  0.5294  0.3404
 3974SOL     OW23383   0.040   1.952  11.878  0.0629  0.0295  0.3216
 3974SOL    HW123384   0.017   2.026  11.934 -1.7628  0.0017 -0.3955
 3974SOL    HW223385   0.055   1.884  11.943 -0.5251 -1.2471 -0.8765
 3975SOL     OW23386   1.984   0.544   2.386  0.8780 -0.2808 -0.3946
 3975SOL    HW123387   2.034   0.620   2.417 -0.1573  1.3321 -2.6540
 3975SOL    HW223388   1.980   0.503   2.472  0.0928 -2.7783 -1.6375
 3976SOL     OW23389   0.183   3.436   2.408  0.1841  0.4947 -0.5710
 3976SOL    HW123390   0.256   3.497   2.402  0.9728 -0.2900  1.2202
 3976SOL    HW223391   0.218   3.385   2.481 -1.8805  0.7404  0.6265
 3977SOL     OW23392   4.258   3.903   8.808  0.3004 -0.2571  0.2149
 3977SOL    HW123393   4.338   3.904   8.755  0.0588 -0.8316 -0.1559
 3977SOL    HW223394   4.292   3.929   8.894 -0.8512 -1.3584  0.9926
 3978SOL     OW23395   2.603   3.655   7.159 -0.6699 -0.0987  0.2322
 3978SOL    HW123396   2.643   3.718   7.218  1.9569 -1.6208  0.1283
 3978SOL    HW223397   2.616   3.679   7.067 -0.7231 -1.4301 -0.1275
 3979SOL     OW23398   3.484   0.206   6.897  0.3592  0.0116 -0.3919
 3979SOL    HW123399   3.415   0.147   6.925 -1.9746  3.9195  1.9975
 3979SOL    HW223400   3.435   0.288   6.898  0.9697  0.3757  0.8155
 3980SOL     OW23401   3.497   4.183   3.714  0.2040  0.2261 -0.3586
 3980SOL    HW123402   3.494   4.108   3.654 -1.0498 -1.4218  1.7607
 3980SOL    HW223403   3.581   4.163   3.755 -0.2528  0.3500  0.6344
 3981SOL     OW23404   1.763   0.347   7.027 -0.4284 -0.2147 -0.2194
 3981SOL    HW123405   1.719   0.281   7.081 -1.8764  0.5586 -0.4271
 3981SOL    HW223406   1.832   0.291   6.994 -1.4520  1.0825 -4.5898
 3982SOL     OW23407   2.151   0.254   3.078  0.1285  0.1591 -0.0959
 3982SOL    HW123408   2.117   0.344   3.077 -1.7612 -0.5521  1.1629
 3982SOL    HW223409   2.222   0.268   3.015  0.3483 -1.8063 -0.2817
 3983SOL     OW23410   4.698   2.250   2.449  0.1805  0.3031 -0.1634
 3983SOL    HW123411   0.027   2.235   2.372 -3.1813 -1.0073 -2.2775
 3983SOL    HW223412   4.645   2.325   2.423  1.8033  0.8369 -1.9081
 3984SOL     OW23413   1.133   1.053   9.060 -0.1197  0.6831  0.2842
 3984SOL    HW123414   1.219   1.075   9.024 -0.5827  3.1704  0.7146
 3984SOL    HW223415   1.102   1.139   9.089 -2.3664  0.0948 -0.3935
 3985SOL     OW23416   4.292   2.023   5.575 -0.1234 -0.0454 -0.0457
 3985SOL    HW123417   4.305   2.092   5.510  1.9027  1.2317  1.7422
 3985SOL    HW223418   4.319   2.069   5.654  1.1453  0.6732 -0.9085
 3986SOL     OW23419   1.738   0.748   9.740 -0.1285 -0.0489  0.3491
 3986SOL    HW123420   1.774   0.704   9.817 -1.1272  1.1634  1.5234
 3986SOL    HW223421   1.812   0.806   9.719 -2.0840  2.0537 -0.7562
 3987SOL     OW23422   0.758   0.740   7.588 -0.0101  0.2422 -0.0779
 3987SOL    HW123423   0.791   0.688   7.661 -2.1368  0.5027  1.0492
 3987SOL    HW223424   0.717   0.819   7.624 -0.8037 -0.6138  0.8844
 3988SOL     OW23425   0.045   2.517  15.318 -0.5294  0.1059 -0.5054
 3988SOL    HW123426   0.067   2.539  15.408  1.2708 -0.7331 -0.7434
 3988SOL    HW223427   4.698   2.579  15.320 -0.2011  0.4088  1.5294
 3989SOL     OW23428   1.624   1.559   0.423 -0.1690  0.8693  0.2647
 3989SOL    HW123429   1.559   1.521   0.482 -1.6468 -0.5647 -2.2962
 3989SOL    HW223430   1.689   1.491   0.438 -1.6503 -0.4214  0.7771
 3990SOL     OW23431   3.979   3.082  11.484 -0.5118  0.3634  0.7619
 3990SOL    HW123432   3.920   3.103  11.412 -2.2670  0.9713  2.3999
 3990SOL    HW223433   3.915   3.045  11.544  2.3492 -1.2099  2.8688
 3991SOL     OW23434   1.413   4.687   1.935  0.7325 -0.4848  0.1761
 3991SOL    HW123435   1.450   4.656   1.853 -1.2363 -1.3778 -0.3655
 3991SOL    HW223436   1.475   4.663   2.004 -1.2016  0.5853  2.2924
 3992SOL     OW23437   2.754   2.753  13.541 -0.1579 -0.1632 -0.3635
 3992SOL    HW123438   2.813   2.701  13.595  1.0767  1.0947 -0.4746
 3992SOL    HW223439   2.785   2.751  13.450  0.7284  1.2252 -0.0915
 3993SOL     OW23440   3.942   1.559   2.605  0.3628  0.4806  0.0046
 3993SOL    HW123441   3.909   1.643   2.635  2.0848  0.9226  0.6261
 3993SOL    HW223442   4.020   1.558   2.659  0.0629  1.0849  0.4424
 3994SOL     OW23443   0.881   2.663  13.635  0.2000  0.3819 -0.2630
 3994SOL    HW123444   0.904   2.676  13.727 -2.4626 -0.0579  0.4501
 3994SOL    HW223445   0.786   2.670  13.641 -0.0539 -1.8607 -1.5954
 3995SOL     OW23446   3.981   3.088   2.509 -0.1472 -0.2159 -0.6863
 3995SOL    HW123447   3.887   3.071   2.502 -0.1949 -0.6280  0.8361
 3995SOL    HW223448   4.007   3.099   2.418  2.7581  2.0267  0.4009
 3996SOL     OW23449   1.743   1.579   7.858 -0.2972 -0.1351  0.7562
 3996SOL    HW123450   1.682   1.574   7.932 -2.0495 -1.1946 -0.7835
 3996SOL    HW223451   1.703   1.519   7.796 -0.3899  0.6699  0.0358
 3997SOL     OW23452   4.618   1.617   7.636 -0.4870 -1.0912 -0.5749
 3997SOL    HW123453   4.690   1.564   7.602 -0.1244 -2.9625  3.1254
 3997SOL    HW223454   4.563   1.547   7.672 -1.5587 -0.1890 -0.4564
 3998SOL     OW23455   0.562   4.193  16.644 -0.0394 -0.4181  0.4477
 3998SOL    HW123456   0.496   4.248  16.686  0.5128 -0.6281  1.6243
 3998SOL    HW223457   0.641   4.227  16.687 -0.5074 -0.6173  1.4660
 3999SOL     OW23458   4.068   2.035   6.141  0.1154 -0.2829  0.2852
 3999SOL    HW123459   4.114   2.085   6.209 -0.2448  2.7301 -1.7030
 3999SOL    HW223460   4.141   1.979   6.114  0.5581 -0.0518  0.9895
 4000SOL     OW23461   3.325   1.582  17.273 -0.3236  0.1810  0.2696
 4000SOL    HW123462   3.374   1.662  17.289  1.5964 -1.2672  1.5390
 4000SOL    HW223463   3.369   1.524  17.335 -0.6650 -1.4282 -1.0102
 4001SOL     OW23464   1.366   3.233   0.647 -0.8965 -0.7759  0.0790
 4001SOL    HW123465   1.307   3.169   0.606 -2.7590  1.1527 -0.2875
 4001SOL    HW223466   1.427   3.174   0.690 -1.0275 -1.3332 -0.5053
 4002SOL     OW23467   3.187   0.002   1.184 -0.4875  0.1081  0.1626
 4002SOL    HW123468   3.240   4.660   1.141  0.9531  2.0727 -1.1834
 4002SOL    HW223469   3.150   4.667   1.247 -1.0872 -0.3222 -0.6029
 4003SOL     OW23470   3.197   3.099   6.090 -0.0179  0.1082  0.0236
 4003SOL    HW123471   3.156   3.016   6.066  0.4310  0.1685 -0.9174
 4003SOL    HW223472   3.210   3.075   6.182  0.3530  2.5636  0.6219
 4004SOL     OW23473   2.055   2.350   3.889 -0.0012  0.2262  0.5934
 4004SOL    HW123474   2.030   2.440   3.870 -1.5639 -0.0443  1.4462
 4004SOL    HW223475   2.135   2.354   3.836 -0.4750 -1.0335 -0.2111
 4005SOL     OW23476   1.733   2.211   5.251 -0.5062 -0.2979  0.9184
 4005SOL    HW123477   1.751   2.165   5.333  0.6431 -0.3102  0.6666
 4005SOL    HW223478   1.823   2.229   5.223 -1.6630  1.1734 -1.8414
 4006SOL     OW23479   2.651   0.931   7.945 -0.0123 -0.3162  0.3321
 4006SOL    HW123480   2.723   0.959   8.002 -1.4869  1.8787  1.1183
 4006SOL    HW223481   2.691   0.964   7.865  2.6888  0.5871  2.0828
 4007SOL     OW23482   0.972   2.574   8.757  0.2044  0.4477  0.1779
 4007SOL    HW123483   1.002   2.611   8.839 -0.6003  1.5496 -0.0287
 4007SOL    HW223484   0.950   2.651   8.704  2.7147  1.0325 -0.0170
 4008SOL     OW23485   2.501   0.358   3.146  0.3056  0.3408 -0.6486
 4008SOL    HW123486   2.460   0.416   3.210  2.4849 -0.0511  1.0678
 4008SOL    HW223487   2.478   0.401   3.064 -0.1160  0.6043 -0.3912
 4009SOL     OW23488   4.446   0.288  16.459  0.4868  0.4739  0.3799
 4009SOL    HW123489   4.488   0.276  16.544  0.4460  0.3995  0.3895
 4009SOL    HW223490   4.512   0.260  16.396  1.6393  2.0776  0.8705
 4010SOL     OW23491   2.364   4.057   6.493  0.1169  0.0023  0.4040
 4010SOL    HW123492   2.425   4.110   6.545  0.3540  0.2662 -0.1296
 4010SOL    HW223493   2.429   4.020   6.434 -0.7184  0.9870 -1.1400
 4011SOL     OW23494   0.357   3.960   2.733 -0.0118  0.1951 -0.3352
 4011SOL    HW123495   0.265   3.950   2.709 -0.4425 -1.0726  1.8059
 4011SOL    HW223496   0.374   3.880   2.783 -0.1038  0.4189  0.0495
 4012SOL     OW23497   2.071   0.985  17.548 -0.1475 -0.6379 -0.0964
 4012SOL    HW123498   2.124   1.031  17.613 -1.9807 -0.2884  1.1452
 4012SOL    HW223499   2.016   0.928  17.603  1.8793 -0.7540  1.8280
 4013SOL     OW23500   0.488   2.795   7.028 -0.1959 -0.1566  0.1832
 4013SOL    HW123501   0.395   2.791   7.049 -0.4727 -0.3897 -1.1094
 4013SOL    HW223502   0.479   2.862   6.961 -1.3126 -0.0415  0.4518
 4014SOL     OW23503   2.286   4.102  10.194  0.6475  0.0411  0.2189
 4014SOL    HW123504   2.290   4.163  10.121  1.1053  1.8416  1.7446
 4014SOL    HW223505   2.366   4.118  10.245  0.3513  2.1211  0.0404
 4015SOL     OW23506   1.698   2.258   8.725 -0.1309 -0.4703  0.2666
 4015SOL    HW123507   1.719   2.191   8.660  0.2407 -0.3209  0.2309
 4015SOL    HW223508   1.606   2.275   8.706 -0.1215  0.3439  0.9658
 4016SOL     OW23509   4.410   1.790   3.696  0.1027 -0.0407  0.3711
 4016SOL    HW123510   4.386   1.698   3.702  1.3060 -0.3918 -0.0661
 4016SOL    HW223511   4.479   1.784   3.762 -0.4554  1.5447  1.1031
 4017SOL     OW23512   1.689   1.434   2.790  0.7442  0.2077 -0.1039
 4017SOL    HW123513   1.762   1.396   2.742 -0.3924  0.3562 -1.9205
 4017SOL    HW223514   1.748   1.504   2.818  0.7876  1.3237 -2.9915
 4018SOL     OW23515   0.180   2.213  11.654  0.2562 -0.2494  0.1898
 4018SOL    HW123516   0.087   2.233  11.664  0.0269 -1.3465  0.2743
 4018SOL    HW223517   0.169   2.139  11.594  1.2782  0.8173 -1.2910
 4019SOL     OW23518   3.741   0.184   1.688  0.2339 -0.6843  0.1885
 4019SOL    HW123519   3.773   0.183   1.598  3.1402  1.2745  1.1911
 4019SOL    HW223520   3.804   0.249   1.719 -0.0619 -0.4198  0.2317
 4020SOL     OW23521   3.455   1.124   7.901  0.2884 -0.1583 -0.3502
 4020SOL    HW123522   3.458   1.149   7.808 -0.1015  3.1191  0.5332
 4020SOL    HW223523   3.363   1.137   7.921 -0.1644  1.6127 -3.4834
 4021SOL     OW23524   1.197   4.006  11.573  0.1525  0.1379 -0.6766
 4021SOL    HW123525   1.193   4.022  11.668  0.1727 -1.3397 -0.4181
 4021SOL    HW223526   1.281   4.046  11.551  0.2623 -0.0305 -0.5730
 4022SOL     OW23527   2.398   1.523   1.644  0.1509 -0.2415  0.4686
 4022SOL    HW123528   2.332   1.589   1.627 -1.2078 -2.2993 -2.2823
 4022SOL    HW223529   2.436   1.518   1.556 -1.7121  1.1576 -0.3935
 4023SOL     OW23530   1.180   4.587   2.037  0.3705 -0.1842 -0.0134
 4023SOL    HW123531   1.261   4.618   1.995 -0.4374 -0.1135 -1.4978
 4023SOL    HW223532   1.117   4.616   1.972  0.1680 -1.1843 -0.2652
 4024SOL     OW23533   2.560   1.814   5.727 -0.0782 -0.1069  0.3007
 4024SOL    HW123534   2.483   1.763   5.703  1.2321 -1.3466 -1.2679
 4024SOL    HW223535   2.539   1.816   5.821 -1.1066  0.1958  0.0667
 4025SOL     OW23536   3.201   0.213   6.879  1.0350  0.3684 -0.1223
 4025SOL    HW123537   3.183   0.299   6.918  0.4649  0.7007 -1.1291
 4025SOL    HW223538   3.132   0.194   6.816 -1.2129  1.3296  2.0071
 4026SOL     OW23539   0.815   4.470   5.971  0.3815 -0.0715 -0.2972
 4026SOL    HW123540   0.805   4.438   5.882 -1.2169 -2.9971  0.9036
 4026SOL    HW223541   0.848   4.392   6.015 -0.5819 -1.1689 -1.5300
 4027SOL     OW23542   3.896   1.464  14.766 -0.0030 -0.0862  0.6943
 4027SOL    HW123543   3.848   1.504  14.694 -0.5600 -0.1710  1.0218
 4027SOL    HW223544   3.844   1.383  14.772 -1.5074  0.8699  0.5929
 4028SOL     OW23545   1.127   0.585   3.031  1.0900  0.0405 -0.3976
 4028SOL    HW123546   1.119   0.494   3.002  1.1396  0.3903 -1.4954
 4028SOL    HW223547   1.039   0.589   3.069  1.6284  0.7788  0.7728
 4029SOL     OW23548   3.864   3.570   5.975  0.5415  0.0996  0.5012
 4029SOL    HW123549   3.920   3.524   5.913 -1.0605 -0.5966 -0.4199
 4029SOL    HW223550   3.889   3.661   5.957 -2.3026  0.7254 -0.3819
 4030SOL     OW23551   0.421   1.529   0.261  0.3172 -0.0989  0.1363
 4030SOL    HW123552   0.366   1.601   0.230  0.6491  0.4180  0.7223
 4030SOL    HW223553   0.369   1.451   0.243  1.2955 -0.6973 -0.0872
 4031SOL     OW23554   2.945   1.227   8.818  0.3933 -0.3507 -0.3275
 4031SOL    HW123555   2.981   1.259   8.901  0.8969 -0.2835 -0.5753
 4031SOL    HW223556   2.874   1.180   8.862 -1.8122  3.5024  0.2855
 4032SOL     OW23557   3.049   4.660   3.662  0.5417 -0.2248  0.4927
 4032SOL    HW123558   3.080   4.619   3.743  1.5969 -1.5534 -0.5848
 4032SOL    HW223559   3.073   4.602   3.589 -0.2930  1.2329 -0.9370
 4033SOL     OW23560   1.751   1.930  13.593 -0.4180  0.3826 -0.2557
 4033SOL    HW123561   1.675   1.951  13.538  0.5812  1.6746 -1.1436
 4033SOL    HW223562   1.732   1.842  13.626  3.1594 -0.9001 -1.6377
 4034SOL     OW23563   3.207   0.953   2.708  0.4185  0.0426 -0.2408
 4034SOL    HW123564   3.243   0.881   2.760 -0.9633 -0.2628  0.2915
 4034SOL    HW223565   3.272   0.953   2.638 -1.5213 -4.0540 -2.0456
 4035SOL     OW23566   4.688   0.543   3.192  0.4502 -0.4659  0.5034
 4035SOL    HW123567   4.635   0.623   3.185 -0.2311 -0.9756 -0.1648
 4035SOL    HW223568   0.034   0.560   3.131  0.2065 -0.2617  0.2735
 4036SOL     OW23569   2.388   0.500   0.201 -0.1247 -0.1232 -0.2353
 4036SOL    HW123570   2.356   0.423   0.155  1.7777 -1.2940  0.3739
 4036SOL    HW223571   2.305   0.537   0.230  1.2480  0.1005  3.4616
 4037SOL     OW23572   4.495   2.170   5.842  0.1058 -0.2223 -0.4302
 4037SOL    HW123573   4.516   2.086   5.801  0.2320  0.0929 -1.0057
 4037SOL    HW223574   4.566   2.159   5.905 -0.8071  0.2739  0.6892
 4038SOL     OW23575   1.757   3.828  15.198  0.1877 -0.4951 -0.5658
 4038SOL    HW123576   1.773   3.909  15.149 -2.1751 -0.8016 -1.8428
 4038SOL    HW223577   1.741   3.850  15.290  0.9512  2.8378 -1.2141
 4039SOL     OW23578   4.010   1.877   4.729  0.2346 -0.3037  0.2758
 4039SOL    HW123579   3.986   1.966   4.703 -2.0061 -0.4396  1.8914
 4039SOL    HW223580   3.924   1.845   4.758  0.3664 -1.3201 -0.4639
 4040SOL     OW23581   2.571   2.217   5.113  0.2411  0.0566 -0.0262
 4040SOL    HW123582   2.627   2.285   5.077  0.3330 -0.0934 -0.1669
 4040SOL    HW223583   2.496   2.263   5.151  0.5715  1.3119 -0.8742
 4041SOL     OW23584   4.644   4.361  14.036 -0.0301  0.0521 -0.0075
 4041SOL    HW123585   0.013   4.358  14.045 -0.3470  0.3011  3.2427
 4041SOL    HW223586   4.625   4.381  14.128  0.1709 -0.5782  0.1634
 4042SOL     OW23587   0.996   1.393  10.842  0.3450 -0.3273 -0.3987
 4042SOL    HW123588   0.938   1.343  10.785  1.5343  0.0031 -1.8952
 4042SOL    HW223589   1.020   1.470  10.791 -2.6027  0.7454 -0.1787
 4043SOL     OW23590   2.345   4.724   7.083  0.2403 -0.5337 -0.3397
 4043SOL    HW123591   2.276   4.678   7.035 -0.8991  1.4937 -0.6639
 4043SOL    HW223592   2.292   0.025   7.158  2.3315  0.2380  0.8665
 4044SOL     OW23593   0.357   2.436   4.173 -0.5301 -0.1327  0.0092
 4044SOL    HW123594   0.309   2.464   4.095  0.1759  0.6538 -0.1455
 4044SOL    HW223595   0.383   2.518   4.214  0.8684 -1.1296  1.1110
 4045SOL     OW23596   0.768   2.275   5.486 -0.1318 -0.4070  0.2472
 4045SOL    HW123597   0.820   2.223   5.547  0.1980  0.8079  1.0113
 4045SOL    HW223598   0.683   2.259   5.528 -1.3203  1.1185 -1.5609
 4046SOL     OW23599   3.414   3.421   6.151  0.4284  0.1525  0.1993
 4046SOL    HW123600   3.403   3.332   6.119  2.8977  0.4704 -1.5045
 4046SOL    HW223601   3.451   3.396   6.236 -0.2108 -0.5427  0.2669
 4047SOL     OW23602   1.415   2.229   3.168  0.1512 -0.2452  0.1808
 4047SOL    HW123603   1.382   2.167   3.233  1.1055 -1.0562 -0.1097
 4047SOL    HW223604   1.340   2.280   3.138 -3.1391 -2.6821  4.4248
 4048SOL     OW23605   3.901   2.935   1.034  0.1054  0.3190 -0.2877
 4048SOL    HW123606   3.904   2.839   1.036  0.7208  0.3731  1.3529
 4048SOL    HW223607   3.888   2.943   0.939  0.4023 -2.6220 -0.5741
 4049SOL     OW23608   4.309   3.244   6.472 -0.3665  0.1928 -0.7039
 4049SOL    HW123609   4.390   3.210   6.433 -1.1228  1.4540 -3.3863
 4049SOL    HW223610   4.347   3.275   6.554  0.0569 -1.2972 -0.3472
 4050SOL     OW23611   0.043   3.145   3.081 -0.0806  0.5329 -0.0169
 4050SOL    HW123612   0.109   3.124   3.015  0.0121 -0.2965  0.3360
 4050SOL    HW223613   0.044   3.241   3.080  0.2662  0.5277 -0.0989
 4051SOL     OW23614   0.499   0.754   3.871  0.1795 -0.2966 -0.3029
 4051SOL    HW123615   0.419   0.772   3.919  1.4995 -0.4897  1.9562
 4051SOL    HW223616   0.467   0.741   3.782 -0.7366  1.4097 -0.2245
 4052SOL     OW23617   2.630   4.370   5.669 -0.5108 -0.4219  0.6781
 4052SOL    HW123618   2.651   4.377   5.576 -1.7371 -0.2472  0.4114
 4052SOL    HW223619   2.695   4.302   5.683  0.9278  1.3973  2.8744
 4053SOL     OW23620   3.511   0.602  17.197 -0.1635  0.8362  0.2881
 4053SOL    HW123621   3.526   0.595  17.292  0.6745  0.0814  0.0976
 4053SOL    HW223622   3.435   0.660  17.201 -0.9802 -0.0695 -1.9421
 4054SOL     OW23623   2.065   2.676   7.290  0.0041 -0.0414 -0.5115
 4054SOL    HW123624   2.134   2.717   7.239 -1.6978  2.9044 -0.4699
 4054SOL    HW223625   2.090   2.683   7.382  2.3931  0.6200 -1.2203
 4055SOL     OW23626   0.671   3.131   7.805  0.5775 -0.1635  0.0572
 4055SOL    HW123627   0.600   3.196   7.806  1.0896  0.4066 -1.6342
 4055SOL    HW223628   0.622   3.052   7.782  1.1471 -0.3477 -0.4977
 4056SOL     OW23629   3.328   4.549   0.835 -0.0605 -0.2545  0.1765
 4056SOL    HW123630   3.295   4.524   0.921 -0.4081 -1.3148 -0.2599
 4056SOL    HW223631   3.273   4.626   0.817 -0.9819 -0.6739  1.2249
 4057SOL     OW23632   0.159   1.973   7.880  0.1651 -0.6399 -0.0299
 4057SOL    HW123633   0.157   2.065   7.906 -1.0850 -0.7040  0.1293
 4057SOL    HW223634   0.067   1.963   7.855  0.1026 -0.0610 -0.0312
 4058SOL     OW23635   0.420   1.866   2.108 -0.1207 -0.1080 -0.3480
 4058SOL    HW123636   0.337   1.851   2.063  0.9779  0.9955 -2.7240
 4058SOL    HW223637   0.486   1.813   2.064 -0.5874 -0.1760 -0.9673
 4059SOL     OW23638   1.545   0.913  14.144 -0.0732  0.0358 -0.0344
 4059SOL    HW123639   1.491   0.962  14.207 -0.7596 -0.2321 -0.4196
 4059SOL    HW223640   1.632   0.948  14.162  0.4482 -1.3040  0.0518
 4060SOL     OW23641   3.008   2.793   8.589  0.2389 -0.1713  0.1125
 4060SOL    HW123642   3.091   2.806   8.635  1.1939  1.8274 -2.1283
 4060SOL    HW223643   3.013   2.873   8.537 -1.9851 -0.3914 -0.4169
 4061SOL     OW23644   4.577   2.790  11.858 -0.1576 -0.4141 -0.3916
 4061SOL    HW123645   4.573   2.784  11.953  4.0570 -0.2945 -0.1772
 4061SOL    HW223646   4.484   2.805  11.842 -0.2143  0.0264  0.3886
 4062SOL     OW23647   1.476   4.585  11.230  0.3436 -0.3780  0.2738
 4062SOL    HW123648   1.492   4.564  11.323  1.0171 -0.6997  0.0885
 4062SOL    HW223649   1.436   4.668  11.253  1.7190  0.3479  0.0330
 4063SOL     OW23650   2.620   1.456   5.104 -0.3870  0.1380 -0.6665
 4063SOL    HW123651   2.627   1.522   5.173  0.3849  0.6879 -1.2751
 4063SOL    HW223652   2.565   1.509   5.045  0.8856  1.7923 -0.3690
 4064SOL     OW23653   0.513   3.563  16.778 -0.0341 -0.1824  0.2884
 4064SOL    HW123654   0.461   3.594  16.852 -2.8543 -2.2301 -0.8158
 4064SOL    HW223655   0.447   3.583  16.712 -0.4189 -0.5070  0.5711
 4065SOL     OW23656   1.231   2.360   4.155  0.2064 -0.0080  0.6357
 4065SOL    HW123657   1.159   2.301   4.180 -0.3353 -0.1079 -1.1436
 4065SOL    HW223658   1.183   2.437   4.125  1.4685  0.4638 -0.1537
 4066SOL     OW23659   0.764   3.612   9.302 -0.1855  0.3944  0.2700
 4066SOL    HW123660   0.790   3.575   9.386 -0.6816 -0.4739  0.0420
 4066SOL    HW223661   0.676   3.575   9.291 -1.3618  3.2860 -0.1984
 4067SOL     OW23662   3.321   3.908   2.918 -0.6162  0.5755 -0.0434
 4067SOL    HW123663   3.375   3.966   2.864 -0.5812 -0.3229 -0.9501
 4067SOL    HW223664   3.233   3.942   2.899 -0.1788  0.5826 -1.9462
 4068SOL     OW23665   4.084   0.868   5.478  0.3034  0.1791  1.1080
 4068SOL    HW123666   4.038   0.951   5.464  0.2224 -0.3714 -1.9692
 4068SOL    HW223667   4.176   0.889   5.463 -0.1273 -0.4282 -2.4869
 4069SOL     OW23668   4.554   0.178   1.221  0.3210 -0.6125 -0.3713
 4069SOL    HW123669   4.636   0.220   1.245 -0.2750  1.6261 -2.3127
 4069SOL    HW223670   4.522   0.239   1.155 -0.1463  0.4542  0.8444
 4070SOL     OW23671   2.198   0.186   8.900  0.2262  0.5228  0.4106
 4070SOL    HW123672   2.224   0.108   8.851 -0.8007  0.6297 -0.2995
 4070SOL    HW223673   2.111   0.162   8.933  0.5382  1.1891  1.7430
 4071SOL     OW23674   3.602   4.637   2.702 -0.4292 -0.5551  0.0963
 4071SOL    HW123675   3.581   4.552   2.740 -1.3404 -0.7051 -0.7372
 4071SOL    HW223676   3.585   4.617   2.610  1.8279 -2.2498  0.0507
 4072SOL     OW23677   1.259   3.884   8.739 -0.2038  0.2376 -0.5190
 4072SOL    HW123678   1.174   3.847   8.764 -1.5237  3.6498  0.1023
 4072SOL    HW223679   1.298   3.903   8.825  0.1495 -0.8449 -0.4483
 4073SOL     OW23680   2.377   0.803  11.091  0.2532 -0.0759  0.1666
 4073SOL    HW123681   2.313   0.845  11.149 -1.4341 -0.1599 -1.6400
 4073SOL    HW223682   2.325   0.799  11.011 -2.6526 -0.9042  2.0802
 4074SOL     OW23683   1.881   3.917   2.713 -0.2584 -0.2309 -0.2095
 4074SOL    HW123684   1.940   3.977   2.758 -0.2069 -0.2694 -0.2246
 4074SOL    HW223685   1.806   3.971   2.690 -0.6629 -0.6407  0.1533
 4075SOL     OW23686   1.731   4.103  12.807  0.0211  0.0342 -0.1736
 4075SOL    HW123687   1.669   4.045  12.764 -0.1509  1.3939 -1.7601
 4075SOL    HW223688   1.728   4.180  12.751 -0.5435  1.2256  1.4726
 4076SOL     OW23689   3.781   2.455   3.438 -0.3158 -0.0935  0.9618
 4076SOL    HW123690   3.715   2.471   3.506 -0.9438 -1.6163  0.7202
 4076SOL    HW223691   3.726   2.446   3.361 -1.1359 -0.1502  1.5537
 4077SOL     OW23692   4.340   2.491   5.205 -0.0498  0.6242  0.2763
 4077SOL    HW123693   4.384   2.460   5.126 -0.6676 -1.6473  0.8361
 4077SOL    HW223694   4.417   2.524   5.250  0.6686 -0.8494  0.1121
 4078SOL     OW23695   0.928   1.777   5.849 -0.7351 -0.1984  0.1267
 4078SOL    HW123696   0.843   1.787   5.891 -0.4615 -0.8579  0.8298
 4078SOL    HW223697   0.907   1.762   5.756 -2.6436  0.9790  0.3623
 4079SOL     OW23698   3.778   1.525   8.420 -0.0747  0.1854 -0.0218
 4079SOL    HW123699   3.727   1.577   8.358 -0.2378  0.3115  0.2199
 4079SOL    HW223700   3.731   1.543   8.501 -0.9415 -0.8863 -0.2807
 4080SOL     OW23701   2.757   1.927   0.619  0.1210 -0.4640 -0.0548
 4080SOL    HW123702   2.720   1.841   0.638 -1.3464 -0.1838 -1.6631
 4080SOL    HW223703   2.806   1.912   0.538  0.2927  0.3131 -0.0921
 4081SOL     OW23704   0.113   0.802  16.191  0.2434 -1.1055 -0.2557
 4081SOL    HW123705   0.029   0.820  16.233  1.4867  0.2578  1.6530
 4081SOL    HW223706   0.125   0.709  16.212 -0.0193 -0.6668  1.7937
 4082SOL     OW23707   0.801   3.416   3.679 -0.1523 -0.5082 -0.2976
 4082SOL    HW123708   0.739   3.385   3.745 -0.0953 -0.6529 -0.3116
 4082SOL    HW223709   0.748   3.457   3.611  1.1838 -0.1363 -1.1179
 4083SOL     OW23710   3.972   4.246  15.798  0.3009  0.0469  0.1070
 4083SOL    HW123711   3.884   4.280  15.781  0.6661  1.3788  0.8426
 4083SOL    HW223712   4.009   4.331  15.775  0.2990 -0.3813 -1.5290
 4084SOL     OW23713   1.600   1.224   4.602 -0.2069 -0.1905 -0.2001
 4084SOL    HW123714   1.588   1.129   4.594 -3.4376  0.2856 -1.0772
 4084SOL    HW223715   1.687   1.207   4.566  0.2304 -2.7417  2.0494
 4085SOL     OW23716   0.617   1.968   4.199  0.1691  0.3780  0.4463
 4085SOL    HW123717   0.680   1.991   4.132 -0.6914  0.9598 -0.1560
 4085SOL    HW223718   0.570   2.052   4.198  0.7244  0.6766 -0.3222
 4086SOL     OW23719   0.929   0.291  12.476  0.2706 -0.1890  0.6237
 4086SOL    HW123720   0.957   0.201  12.457 -0.7695 -0.0171 -1.8029
 4086SOL    HW223721   1.002   0.329  12.524 -0.5700  1.8966  0.2505
 4087SOL     OW23722   1.928   3.122  10.643  0.3955 -0.5065 -0.0730
 4087SOL    HW123723   1.982   3.071  10.704 -0.5320 -1.6272 -0.1955
 4087SOL    HW223724   1.867   3.051  10.623  0.4813 -1.1569  1.9476
 4088SOL     OW23725   2.012   1.805   0.514 -0.0119 -0.3555 -0.2960
 4088SOL    HW123726   1.923   1.770   0.513  0.5652 -1.8451  0.5318
 4088SOL    HW223727   2.014   1.877   0.452 -0.6202 -0.1505 -0.0780
 4089SOL     OW23728   4.176   4.531   3.285 -0.0995  0.2936  0.0042
 4089SOL    HW123729   4.152   4.506   3.196  0.5721  0.2646 -0.1758
 4089SOL    HW223730   4.191   4.624   3.269 -0.1775 -0.0614 -2.1525
 4090SOL     OW23731   2.802   2.205   4.426  0.4525  0.6489 -0.1502
 4090SOL    HW123732   2.844   2.184   4.509 -0.3201 -1.3526 -0.2523
 4090SOL    HW223733   2.881   2.207   4.372  0.8366  2.8446  0.5391
 4091SOL     OW23734   0.677   0.916   2.902  0.8939 -0.9342  0.5750
 4091SOL    HW123735   0.727   0.995   2.921 -1.2646  0.2123  1.4566
 4091SOL    HW223736   0.748   0.853   2.900  1.1032 -0.6968  0.5584
 4092SOL     OW23737   1.122   0.552   9.633 -0.0013  0.3817  0.2253
 4092SOL    HW123738   1.114   0.579   9.542  1.1777  1.4680  0.4283
 4092SOL    HW223739   1.213   0.581   9.647 -0.5360  1.7573  0.9177
 4093SOL     OW23740   2.846   3.643   8.363 -0.3444 -0.2562 -0.0076
 4093SOL    HW123741   2.873   3.554   8.386  1.4364  0.1883 -0.3301
 4093SOL    HW223742   2.764   3.665   8.407 -1.0120  1.8505 -2.3119
 4094SOL     OW23743   1.201   3.523   7.905  1.0031  0.3996  0.0379
 4094SOL    HW123744   1.197   3.435   7.867  0.6817  0.3246  0.2385
 4094SOL    HW223745   1.132   3.521   7.972  1.3718 -0.5119  0.3917
 4095SOL     OW23746   1.272   4.369   2.154 -0.0823 -0.0478  0.1174
 4095SOL    HW123747   1.253   4.446   2.102 -0.1494 -0.4217 -0.4139
 4095SOL    HW223748   1.325   4.310   2.100 -0.7800 -1.8226  1.3737
 4096SOL     OW23749   3.299   3.988  11.826  0.7894 -0.3278  0.1724
 4096SOL    HW123750   3.359   3.914  11.820  0.4065 -0.5087 -1.2034
 4096SOL    HW223751   3.276   3.972  11.918  0.2797  0.5003  0.1946
 4097SOL     OW23752   3.476   4.517   5.873  0.7156  0.5754 -0.1738
 4097SOL    HW123753   3.414   4.582   5.907 -0.0762 -0.8008  1.0083
 4097SOL    HW223754   3.437   4.441   5.917  1.7536  0.7733  1.0783
 4098SOL     OW23755   2.625   1.531   7.957  0.1905  0.5352  0.3478
 4098SOL    HW123756   2.579   1.610   7.928  2.7154  1.8394 -0.0128
 4098SOL    HW223757   2.672   1.573   8.029  0.0949 -2.1947  2.0183
 4099SOL     OW23758   0.675   3.097   8.883 -0.1976  0.3691 -0.0090
 4099SOL    HW123759   0.643   3.187   8.893 -0.0838  0.6781 -2.3961
 4099SOL    HW223760   0.616   3.059   8.949 -0.2408 -1.5589 -1.1471
 4100SOL     OW23761   1.179   4.679   4.013  0.2589 -1.3305 -0.2049
 4100SOL    HW123762   1.220   0.037   3.992  0.8859 -1.0818  2.0154
 4100SOL    HW223763   1.243   4.646   4.076 -0.0049  1.3341  1.4346
 4101SOL     OW23764   3.678   3.555   4.088  0.1139  0.3548 -0.2143
 4101SOL    HW123765   3.642   3.643   4.081  0.2778  0.4735  0.4372
 4101SOL    HW223766   3.643   3.534   4.175  0.0216  1.2491 -0.0445
 4102SOL     OW23767   1.361   1.042  12.899  0.1335 -0.1052 -0.2027
 4102SOL    HW123768   1.438   1.075  12.944  0.4015 -0.4191 -0.4303
 4102SOL    HW223769   1.369   1.097  12.821  1.3322 -1.6780 -1.1935
 4103SOL     OW23770   2.873   3.111   6.794 -0.0576 -0.4944  0.6186
 4103SOL    HW123771   2.893   3.081   6.705 -1.3146  0.9683 -0.1456
 4103SOL    HW223772   2.778   3.115   6.789  0.0688  0.0081 -1.6148
 4104SOL     OW23773   3.503   1.328  16.411 -0.3331  0.0874  0.0942
 4104SOL    HW123774   3.548   1.409  16.384  1.8536 -1.0674  0.2600
 4104SOL    HW223775   3.573   1.277  16.451 -2.2219 -1.5676  1.3094
 4105SOL     OW23776   0.825   4.132  14.037 -0.2198  0.0757  0.0060
 4105SOL    HW123777   0.891   4.178  14.088  0.4076 -0.3224 -0.4441
 4105SOL    HW223778   0.751   4.192  14.045  0.9467  1.5321 -0.3225
 4106SOL     OW23779   3.939   0.070   8.753  0.3627 -0.2358 -0.4809
 4106SOL    HW123780   3.900   0.139   8.806  1.3682 -0.2078  0.2184
 4106SOL    HW223781   3.881   4.719   8.759  0.8474 -0.5219  0.5883
 4107SOL     OW23782   2.150   1.652  12.947 -0.8595  0.4359  0.1413
 4107SOL    HW123783   2.166   1.746  12.959  0.3459  0.3512 -0.8004
 4107SOL    HW223784   2.088   1.641  13.019 -2.0475  2.9191 -0.4557
 4108SOL     OW23785   0.439   1.026   6.213 -0.0900  0.1008  0.6833
 4108SOL    HW123786   0.361   0.970   6.223  0.7447 -1.0492  0.8112
 4108SOL    HW223787   0.496   0.969   6.162  0.8841  1.4478  0.2765
 4109SOL     OW23788   3.205   0.917   2.366  0.2833 -0.5621 -0.2946
 4109SOL    HW123789   3.140   0.887   2.301  0.5802  0.0226 -0.8508
 4109SOL    HW223790   3.278   0.856   2.371  0.7434 -0.0452 -0.8521
 4110SOL     OW23791   1.809   2.385   1.068  0.1328  0.2285 -0.1745
 4110SOL    HW123792   1.797   2.291   1.076  3.0697 -0.1449 -0.3624
 4110SOL    HW223793   1.745   2.409   1.135  0.9051 -0.7132  0.8971
 4111SOL     OW23794   2.051   4.656   4.360 -0.1543  0.1446  0.7190
 4111SOL    HW123795   2.055   0.015   4.318 -2.4523 -0.5199 -0.8055
 4111SOL    HW223796   1.968   4.617   4.333  0.5748 -0.2541 -0.9475
 4112SOL     OW23797   3.380   3.429   6.532 -0.0073 -0.0097  0.5029
 4112SOL    HW123798   3.376   3.334   6.530  0.7980  0.0004 -2.2096
 4112SOL    HW223799   3.460   3.434   6.584 -0.4550 -3.0539  1.4700
 4113SOL     OW23800   1.967   3.035   7.258  0.6085 -0.1103 -0.3220
 4113SOL    HW123801   1.959   2.985   7.339 -2.1426 -1.0467 -1.1868
 4113SOL    HW223802   1.934   2.966   7.201  0.3878 -0.2940  0.0257
 4114SOL     OW23803   1.183   0.240  16.512  0.1202  0.2048 -0.3812
 4114SOL    HW123804   1.261   0.257  16.566  1.8492 -4.0722 -1.4566
 4114SOL    HW223805   1.212   0.242  16.421 -0.5757  1.1460 -0.5724
 4115SOL     OW23806   0.699   3.790   4.690  0.2574 -0.2703  0.1735
 4115SOL    HW123807   0.772   3.817   4.745  1.4146 -2.5749 -0.2418
 4115SOL    HW223808   0.654   3.736   4.755  1.8206 -1.8774 -0.0904
 4116SOL     OW23809   2.311   0.646   9.325 -0.5005  0.3931 -0.2507
 4116SOL    HW123810   2.362   0.627   9.246 -1.6578 -0.4016 -0.8023
 4116SOL    HW223811   2.389   0.655   9.380 -3.6174  0.6955  4.1132
 4117SOL     OW23812   3.437   0.246   5.929  0.5841  0.2326 -0.2462
 4117SOL    HW123813   3.494   0.190   5.877  0.5787  0.3838 -0.4142
 4117SOL    HW223814   3.481   0.331   5.927  1.6397 -0.2996  0.1898
 4118SOL     OW23815   1.073   4.696   2.349 -0.0131  0.6384 -0.0807
 4118SOL    HW123816   1.032   0.030   2.411 -2.0927  0.2624 -1.0834
 4118SOL    HW223817   1.009   4.712   2.279 -0.1202 -0.7997 -0.3195
 4119SOL     OW23818   3.235   2.201   2.481  0.1867 -0.4066 -0.3253
 4119SOL    HW123819   3.237   2.281   2.533  0.3167 -0.4514 -0.2601
 4119SOL    HW223820   3.255   2.226   2.391  1.4994 -0.4842 -0.0617
 4120SOL     OW23821   0.862   2.899   6.642 -0.5020  0.0657 -0.1178
 4120SOL    HW123822   0.776   2.914   6.682 -1.0596 -2.1960 -0.4525
 4120SOL    HW223823   0.908   2.901   6.726 -2.1562 -0.2116  0.7974
 4121SOL     OW23824   3.000   0.604   3.281 -0.4837 -0.2075 -0.5381
 4121SOL    HW123825   3.080   0.555   3.265  1.0482  2.4835 -1.0382
 4121SOL    HW223826   3.015   0.680   3.225 -2.0178  2.4400  2.6587
 4122SOL     OW23827   1.396   2.660  17.424 -0.1099  0.7717  0.8082
 4122SOL    HW123828   1.384   2.575  17.380  0.7994 -0.4131  2.8342
 4122SOL    HW223829   1.307   2.695  17.417  0.0734  1.3531  1.4259
 4123SOL     OW23830   1.427   3.262   3.196  0.5074 -0.3397 -0.1019
 4123SOL    HW123831   1.437   3.283   3.103 -0.1709  0.5508  0.0257
 4123SOL    HW223832   1.496   3.317   3.232  0.2166  1.1894 -1.8835
 4124SOL     OW23833   0.553   2.666   8.874 -0.0425 -0.1230 -0.3211
 4124SOL    HW123834   0.463   2.633   8.874 -0.6615  1.5473 -0.6896
 4124SOL    HW223835   0.557   2.750   8.919  1.9411  1.2329 -3.0301
 4125SOL     OW23836   4.056   1.515   0.429  0.4444  0.6139  0.3443
 4125SOL    HW123837   3.973   1.536   0.471 -0.3190  0.7544 -1.2097
 4125SOL    HW223838   4.051   1.420   0.432  0.5868  0.5630 -0.9481
 4126SOL     OW23839   2.639   4.461   7.276  0.8594  0.6759 -0.0832
 4126SOL    HW123840   2.545   4.443   7.274  0.7023  1.4407  0.5215
 4126SOL    HW223841   2.671   4.378   7.311  2.1414  0.5425 -1.5879
 4127SOL     OW23842   2.629   4.512  10.820 -0.0436 -0.1725  0.1310
 4127SOL    HW123843   2.577   4.581  10.861 -0.3997 -0.4743  0.1943
 4127SOL    HW223844   2.664   4.547  10.738 -1.3597 -1.9751 -1.2060
 4128SOL     OW23845   0.927   3.442  12.039  0.3593 -0.3154 -0.7334
 4128SOL    HW123846   1.006   3.483  12.073 -0.2010  0.3324 -0.2191
 4128SOL    HW223847   0.867   3.516  12.045 -0.6265 -1.2081  0.7257
 4129SOL     OW23848   0.269   2.634   3.359  0.1239 -0.6216 -0.3218
 4129SOL    HW123849   0.189   2.596   3.396 -1.4881  1.0815 -2.0249
 4129SOL    HW223850   0.232   2.712   3.317  2.0279  1.0297  1.0865
 4130SOL     OW23851   1.642   1.559  10.437  0.4884 -0.0647  0.3643
 4130SOL    HW123852   1.737   1.544  10.434  0.6489  0.5934  1.8104
 4130SOL    HW223853   1.636   1.648  10.472 -0.1021  0.7017 -1.6888
 4131SOL     OW23854   4.193   1.207   9.482  0.0865  0.2442  0.1215
 4131SOL    HW123855   4.245   1.135   9.517  0.5498 -0.9667 -3.0676
 4131SOL    HW223856   4.163   1.164   9.402  0.8890 -2.6140  1.3899
 4132SOL     OW23857   1.977   2.192   4.458  0.2340  0.6496 -0.6462
 4132SOL    HW123858   2.031   2.113   4.470  0.0931  0.7135  0.3938
 4132SOL    HW223859   2.042   2.261   4.467  1.2257 -0.5338  1.4021
 4133SOL     OW23860   1.025   2.762   3.516 -0.2003  0.0103 -0.1697
 4133SOL    HW123861   0.972   2.733   3.590  0.5352 -2.8455 -0.7633
 4133SOL    HW223862   1.013   2.856   3.531 -1.9669  0.0000 -1.4893
 4134SOL     OW23863   2.957   0.235   2.936 -0.0210  0.4991 -0.3474
 4134SOL    HW123864   2.903   0.259   3.011  0.2516 -0.5943  0.1844
 4134SOL    HW223865   2.943   0.141   2.934 -1.6924  0.7322  1.0589
 4135SOL     OW23866   2.600   2.674   0.398 -0.2135  0.3641  0.4225
 4135SOL    HW123867   2.564   2.630   0.475 -1.7391  0.5156 -0.2048
 4135SOL    HW223868   2.690   2.645   0.407 -0.3902 -0.6722 -1.1029
 4136SOL     OW23869   1.111   0.996   1.521  0.3063 -0.0536 -0.0909
 4136SOL    HW123870   1.196   0.958   1.497  1.8778  2.8791  0.8744
 4136SOL    HW223871   1.055   0.981   1.445 -0.5846  1.5249  0.2566
 4137SOL     OW23872   0.179   3.360  11.643  0.3586  0.3571 -0.0533
 4137SOL    HW123873   0.244   3.297  11.674 -0.6379  0.1593  1.6173
 4137SOL    HW223874   0.180   3.417  11.720  1.4418  1.4807 -0.8937
 4138SOL     OW23875   0.701   4.121   4.942 -0.5102  0.4363  0.2955
 4138SOL    HW123876   0.728   4.040   4.984  0.5355  0.9272  0.5750
 4138SOL    HW223877   0.669   4.170   5.018 -0.4688  0.3018  0.3988
 4139SOL     OW23878   3.754   1.984   8.332  0.4470 -0.0979  0.6350
 4139SOL    HW123879   3.748   2.057   8.394  3.7953  1.6978 -1.1826
 4139SOL    HW223880   3.850   1.984   8.333  0.4540 -1.4478 -0.1444
 4140SOL     OW23881   3.255   0.433   7.776 -0.5410 -0.1690  0.3348
 4140SOL    HW123882   3.211   0.446   7.692  0.3493 -0.3234 -0.1605
 4140SOL    HW223883   3.183   0.426   7.838  2.6150  0.8085  4.1277
 4141SOL     OW23884   4.013   1.240  13.042 -0.1181  0.2615  0.2480
 4141SOL    HW123885   3.932   1.289  13.028  0.0898  0.9850  1.5651
 4141SOL    HW223886   4.073   1.300  13.086  1.0105 -0.4530 -0.3278
 4142SOL     OW23887   2.907   0.135   1.417 -0.2806 -0.1371  0.5049
 4142SOL    HW123888   2.899   0.077   1.342  1.0105 -0.0213  0.2685
 4142SOL    HW223889   2.965   0.076   1.464  0.7366  0.2773 -0.2137
 4143SOL     OW23890   4.292   3.423   7.531  0.1828 -0.2615 -0.4622
 4143SOL    HW123891   4.209   3.411   7.485 -0.1737 -1.6977  0.5645
 4143SOL    HW223892   4.346   3.347   7.510  0.2543 -0.1020 -0.8624
 4144SOL     OW23893   4.614   0.139   7.760 -0.0943  0.0924  0.2209
 4144SOL    HW123894   4.665   0.104   7.687  0.9632  0.1137  0.9571
 4144SOL    HW223895   4.636   0.231   7.753  2.1281 -0.5022 -0.6801
 4145SOL     OW23896   4.094   4.688   4.157  1.1116 -0.2871 -0.4206
 4145SOL    HW123897   4.173   4.637   4.134  1.3477  1.5417 -3.7071
 4145SOL    HW223898   4.128   0.043   4.119 -0.4761 -0.0765 -1.3850
 4146SOL     OW23899   2.610   2.410   3.552 -0.2053  0.8461 -1.1504
 4146SOL    HW123900   2.576   2.386   3.465  1.5140  0.5815 -1.7493
 4146SOL    HW223901   2.683   2.461   3.516 -0.3768  0.5656 -1.9004
 4147SOL     OW23902   4.201   4.646   6.806  0.3389  0.3824 -0.2396
 4147SOL    HW123903   4.178   0.012   6.821  0.2689 -0.1445  2.8618
 4147SOL    HW223904   4.180   4.625   6.897 -0.0477  3.0261  0.2587
 4148SOL     OW23905   0.921   1.052   0.036 -0.3843 -0.3676  0.1917
 4148SOL    HW123906   1.014   1.028   0.039 -0.6462 -1.2579  1.0509
 4148SOL    HW223907   0.929   1.148   0.036  2.6003 -0.6087 -1.4722
 4149SOL     OW23908   1.148   4.110   2.179  0.1990 -0.3758 -0.0734
 4149SOL    HW123909   1.072   4.141   2.129  0.7360 -2.4555 -2.1384
 4149SOL    HW223910   1.208   4.185   2.179  1.3512 -1.3013 -1.6157
 4150SOL     OW23911   0.373   3.863   8.514  0.8679  0.1053 -0.3911
 4150SOL    HW123912   0.362   3.896   8.425 -0.1667 -0.0875 -0.3357
 4150SOL    HW223913   0.458   3.823   8.498 -0.5765 -3.0793 -0.0616
 4151SOL     OW23914   0.715   0.821  10.827 -0.0086  0.5572  0.3437
 4151SOL    HW123915   0.700   0.835  10.734  0.1925 -1.3662  0.0099
 4151SOL    HW223916   0.623   0.808  10.850  0.2719 -3.0547 -0.5130
 4152SOL     OW23917   4.065   4.491  10.805  0.3311  0.1176  0.4577
 4152SOL    HW123918   4.120   4.437  10.749 -0.8250  0.7876 -1.3343
 4152SOL    HW223919   4.053   4.572  10.755 -0.1375 -0.6792 -0.7074
 4153SOL     OW23920   3.557   0.404   1.243 -0.1775  0.0243 -0.0700
 4153SOL    HW123921   3.621   0.394   1.313  0.5557 -2.2129 -1.0775
 4153SOL    HW223922   3.617   0.404   1.168  0.1258 -1.9035  0.1747
 4154SOL     OW23923   0.129   4.632   9.053 -0.2569 -0.1911  0.1912
 4154SOL    HW123924   0.088   4.559   9.099  0.3851 -0.6910 -0.0202
 4154SOL    HW223925   0.058   4.694   9.038 -0.0323 -0.0238 -0.1922
 4155SOL     OW23926   0.422   2.032  15.960 -0.4281 -0.1791  0.4960
 4155SOL    HW123927   0.408   2.126  15.958 -1.9930 -0.4266  0.0223
 4155SOL    HW223928   0.389   2.007  15.874 -1.4079 -3.0980  1.7269
 4156SOL     OW23929   2.612   1.286  17.575 -0.0154 -0.0391  0.7468
 4156SOL    HW123930   2.677   1.230  17.531  2.0980  3.1008 -0.1067
 4156SOL    HW223931   2.531   1.253  17.535 -0.2389  2.2202 -0.6468
 4157SOL     OW23932   0.831   3.311   2.909  0.3444 -0.8139  0.1594
 4157SOL    HW123933   0.753   3.255   2.904 -1.4700  1.6540  0.7270
 4157SOL    HW223934   0.802   3.379   2.970  0.5263 -1.6563  1.1969
 4158SOL     OW23935   1.834   0.977   4.732 -0.1016  0.0587  0.6722
 4158SOL    HW123936   1.802   0.971   4.642  0.3550 -0.8401  0.5604
 4158SOL    HW223937   1.775   0.915   4.776 -0.0247 -0.4878  0.0104
 4159SOL     OW23938   1.157   2.422  11.425 -0.0064  0.6734  0.3593
 4159SOL    HW123939   1.231   2.376  11.386 -0.6629 -0.5792  0.6035
 4159SOL    HW223940   1.089   2.357  11.412 -0.3219  1.1416 -0.3374
 4160SOL     OW23941   0.980   0.663   9.905  0.0583  0.2083 -0.0087
 4160SOL    HW123942   1.063   0.617   9.917  0.6603  0.9422 -1.3627
 4160SOL    HW223943   0.990   0.727   9.976 -0.7730  0.1555  0.1488
 4161SOL     OW23944   2.833   4.552   6.753 -0.3338  0.0778 -0.2550
 4161SOL    HW123945   2.847   4.484   6.818  2.0079  0.6396 -0.1802
 4161SOL    HW223946   2.751   4.522   6.715 -0.4414  0.4291 -0.2995
 4162SOL     OW23947   3.790   0.223  11.771 -0.3367  0.3193  0.0035
 4162SOL    HW123948   3.872   0.247  11.728  0.8459  0.4476  2.3076
 4162SOL    HW223949   3.743   0.298  11.736 -0.4345  1.3402  2.3429
 4163SOL     OW23950   2.144   4.362   8.676 -0.2143  0.0992 -0.4047
 4163SOL    HW123951   2.141   4.267   8.682  1.6424 -0.0177 -1.1114
 4163SOL    HW223952   2.126   4.388   8.766  1.7055  2.3382 -0.6489
 4164SOL     OW23953   0.222   2.726   6.975 -0.3017 -0.1536  0.2566
 4164SOL    HW123954   0.141   2.774   6.993 -0.7461 -0.1875 -1.6530
 4164SOL    HW223955   0.193   2.635   6.974  3.3312 -1.3067  1.3680
 4165SOL     OW23956   3.308   1.520   1.894  0.0758  0.0742  0.3499
 4165SOL    HW123957   3.360   1.479   1.963 -0.7190 -3.7712 -1.3690
 4165SOL    HW223958   3.375   1.564   1.842 -0.8072 -0.3938 -1.1765
 4166SOL     OW23959   0.465   0.962  14.508 -0.4758  0.1873 -0.3950
 4166SOL    HW123960   0.455   0.869  14.527  1.5549 -0.3447 -1.8600
 4166SOL    HW223961   0.519   0.952  14.429 -1.1233 -0.3688 -0.7642
 4167SOL     OW23962   2.220   3.955   4.348  0.1186  0.0183  0.1763
 4167SOL    HW123963   2.217   3.971   4.443  2.3513  1.7573 -0.0572
 4167SOL    HW223964   2.224   3.860   4.339 -0.2864  0.1964 -1.7988
 4168SOL     OW23965   2.812   3.764  13.253 -0.0560 -0.0634  0.2899
 4168SOL    HW123966   2.877   3.803  13.195 -1.2128  0.2821 -0.7780
 4168SOL    HW223967   2.798   3.824  13.326  2.9124 -1.4285  1.9484
 4169SOL     OW23968   2.929   0.861   2.230 -0.1344  0.4132  0.8836
 4169SOL    HW123969   2.967   0.945   2.205  1.6732 -0.7878 -0.4339
 4169SOL    HW223970   2.847   0.857   2.180  0.1852 -0.5188  0.4307
 4170SOL     OW23971   1.866   4.618   7.945  0.7290 -0.2523  0.6077
 4170SOL    HW123972   1.793   4.560   7.965 -0.8424  1.7301  0.5362
 4170SOL    HW223973   1.897   4.648   8.030 -0.0220 -1.4496  1.2977
 4171SOL     OW23974   3.996   2.866  13.213  0.1562 -0.4106  0.0699
 4171SOL    HW123975   3.978   2.776  13.186 -0.1717 -0.1677 -0.5126
 4171SOL    HW223976   3.914   2.890  13.256  0.8826  1.1700  0.5619
 4172SOL     OW23977   3.736   4.611   8.492  0.0524 -0.2920  0.1780
 4172SOL    HW123978   3.756   4.704   8.479  1.0847 -0.5327  0.0887
 4172SOL    HW223979   3.649   4.618   8.453  0.0304 -0.8202  0.1264
 4173SOL     OW23980   2.116   4.296   9.088 -0.6494 -0.1850  0.3437
 4173SOL    HW123981   2.086   4.366   9.030 -1.0018  1.1501  2.1640
 4173SOL    HW223982   2.031   4.252   9.095 -0.0726 -1.6359 -1.5460
 4174SOL     OW23983   0.455   2.187  17.092  0.7477 -0.4630  0.2185
 4174SOL    HW123984   0.417   2.164  17.177 -0.1822  2.6124  0.6073
 4174SOL    HW223985   0.501   2.104  17.078 -0.6606 -0.6416 -3.3141
 4175SOL     OW23986   4.718   3.915   3.190  0.5178 -0.0229  0.7391
 4175SOL    HW123987   0.087   3.906   3.204  0.7560  1.1837 -0.0975
 4175SOL    HW223988   4.703   4.007   3.167 -1.7657 -0.3462  0.9424
 4176SOL     OW23989   0.092   4.568  13.057  0.1925  0.0997  0.9708
 4176SOL    HW123990   0.186   4.576  13.070  0.0351 -0.0971  2.2636
 4176SOL    HW223991   0.070   4.507  13.128  2.0210 -0.7376  0.8139
 4177SOL     OW23992   3.721   4.101   3.853 -0.3257 -0.1628  0.0569
 4177SOL    HW123993   3.732   4.008   3.870 -0.7464 -0.2133  0.0506
 4177SOL    HW223994   3.793   4.112   3.790 -1.5485 -1.0374 -1.5171
 4178SOL     OW23995   3.664   2.951   4.899  0.9254  0.2924  0.1476
 4178SOL    HW123996   3.645   2.966   4.806 -0.9147  0.4739  0.5606
 4178SOL    HW223997   3.693   3.042   4.912  3.1871 -0.3268 -0.6006
 4179SOL     OW23998   1.550   2.806   7.114 -0.3199  0.6445  0.1697
 4179SOL    HW123999   1.522   2.823   7.204  0.6481  0.8952  0.4340
 4179SOL    HW224000   1.484   2.739   7.098  1.3025 -0.8245 -0.3591
 4180SOL     OW24001   3.793   0.987   0.163 -0.0839  0.4908 -0.0844
 4180SOL    HW124002   3.854   0.927   0.205 -0.3546 -1.7931 -2.8973
 4180SOL    HW224003   3.801   0.963   0.070  1.2568  1.2952 -0.1821
 4181SOL     OW24004   3.869   0.612   2.064 -0.4603  0.1280  0.4783
 4181SOL    HW124005   3.942   0.643   2.010 -0.1443  1.1616  1.5122
 4181SOL    HW224006   3.911   0.532   2.094  2.5384  1.9382  1.0967
 4182SOL     OW24007   0.068   1.270  10.501 -0.3224 -0.3274 -0.0532
 4182SOL    HW124008   0.029   1.196  10.547 -0.8976  0.3783  0.5850
 4182SOL    HW224009   0.097   1.234  10.418  0.2764  0.2737 -0.1128
 4183SOL     OW24010   1.776   0.932  16.598 -0.2756 -0.2947 -0.0144
 4183SOL    HW124011   1.723   0.852  16.594 -1.6688  0.7448 -2.4081
 4183SOL    HW224012   1.846   0.905  16.657 -1.3992 -0.6743  1.1382
 4184SOL     OW24013   2.099   1.774  14.952  0.8913 -0.1622 -0.3223
 4184SOL    HW124014   2.017   1.794  14.996  0.9084  2.0916 -1.3339
 4184SOL    HW224015   2.065   1.748  14.866 -1.3097  1.3270  0.1035
 4185SOL     OW24016   0.378   2.977  15.045  0.2144  0.3593 -0.3128
 4185SOL    HW124017   0.300   3.013  15.005  0.4221  1.4168  0.2227
 4185SOL    HW224018   0.382   2.890  15.005 -2.5393 -0.0225  0.2318
 4186SOL     OW24019   1.408   1.638   2.316  0.9208 -0.6636 -0.4565
 4186SOL    HW124020   1.395   1.717   2.369 -2.7098  0.2515 -2.7528
 4186SOL    HW224021   1.345   1.655   2.247 -0.4405  1.7642  1.3948
 4187SOL     OW24022   3.539   3.462   5.204 -0.6432  0.4462 -0.1008
 4187SOL    HW124023   3.444   3.458   5.204 -0.5530 -1.2953  2.6876
 4187SOL    HW224024   3.553   3.550   5.168 -0.3249 -0.1919 -1.5826
 4188SOL     OW24025   4.228   1.005   3.573  0.3364 -0.1195 -0.2945
 4188SOL    HW124026   4.208   0.924   3.525 -0.4475  0.6691 -1.3188
 4188SOL    HW224027   4.280   1.051   3.507 -0.5842  0.5114 -0.5826
 4189SOL     OW24028   4.038   1.281   2.257  0.4204  0.0614  0.0869
 4189SOL    HW124029   4.105   1.250   2.197  1.7863  1.5240  0.8455
 4189SOL    HW224030   4.049   1.214   2.324 -2.1766 -1.4448 -0.9957
 4190SOL     OW24031   3.970   2.339  16.909 -0.2488  0.0597 -0.3110
 4190SOL    HW124032   3.937   2.249  16.906 -1.3410  0.5043 -1.5525
 4190SOL    HW224033   4.038   2.319  16.973  0.3124  1.0263 -0.6035
 4191SOL     OW24034   3.534   2.252   2.893 -0.4815 -0.1612 -0.3342
 4191SOL    HW124035   3.529   2.334   2.943 -1.5093 -1.3775  1.5648
 4191SOL    HW224036   3.599   2.279   2.828  1.7258  0.6031  2.1494
 4192SOL     OW24037   3.479   0.416   2.421 -0.4175  0.3701 -0.3108
 4192SOL    HW124038   3.564   0.381   2.450  0.4636  1.2005 -1.9347
 4192SOL    HW224039   3.486   0.418   2.326 -1.0454 -2.4776 -0.4169
 4193SOL     OW24040   0.061   2.927   1.371 -0.2756  0.3668  0.3342
 4193SOL    HW124041   0.114   2.874   1.312 -0.1968  0.9778 -0.1547
 4193SOL    HW224042   4.701   2.925   1.327 -0.6314  0.4645  1.0218
 4194SOL     OW24043   3.174   3.939   3.791  0.6776 -0.0388 -0.4013
 4194SOL    HW124044   3.248   3.881   3.773  0.7043  0.0035 -0.4282
 4194SOL    HW224045   3.178   4.005   3.722 -0.7541  0.1878 -0.2779
 4195SOL     OW24046   0.015   4.291   5.979  0.2578  0.5233 -0.1181
 4195SOL    HW124047   4.672   4.328   6.035 -1.8696 -2.2024 -0.9500
 4195SOL    HW224048   0.080   4.347   6.021  0.5827 -0.5615  0.8381
 4196SOL     OW24049   1.842   3.470  14.538 -0.0266  0.2497 -0.4798
 4196SOL    HW124050   1.906   3.448  14.606 -0.0486  0.1744 -0.4830
 4196SOL    HW224051   1.784   3.394  14.539 -0.6712  0.7679  1.2725
 4197SOL     OW24052   2.652   4.178   2.992 -0.0480  0.0144  0.1486
 4197SOL    HW124053   2.673   4.100   3.042  1.0812  1.1819  1.5173
 4197SOL    HW224054   2.558   4.170   2.975 -0.1574 -0.8556  1.1581
 4198SOL     OW24055   3.644   4.279  13.169 -0.3393  0.4849 -0.1760
 4198SOL    HW124056   3.733   4.244  13.175 -1.4152 -2.0478  0.7190
 4198SOL    HW224057   3.597   4.220  13.228  0.0295  0.6788  0.3164
 4199SOL     OW24058   0.665   1.954   9.215  0.3238 -0.0881  0.0835
 4199SOL    HW124059   0.595   1.896   9.246  0.4475  0.1542  0.8071
 4199SOL    HW224060   0.667   1.936   9.121 -3.4050 -0.5501  0.0893
 4200SOL     OW24061   1.537   1.810  13.027 -0.2842 -0.1272  0.1106
 4200SOL    HW124062   1.607   1.746  13.014 -0.5026 -0.4810  0.6770
 4200SOL    HW224063   1.574   1.882  12.976 -1.6004  1.0313  0.8262
 4201SOL     OW24064   1.109   0.948   8.472  0.1178 -0.1263  0.0102
 4201SOL    HW124065   1.041   1.013   8.492 -0.5157 -0.5599 -0.7694
 4201SOL    HW224066   1.181   0.995   8.515  0.8712 -1.0684 -0.2240
 4202SOL     OW24067   3.096   4.434  14.259  0.5871  0.1070  0.6264
 4202SOL    HW124068   3.168   4.470  14.207  0.4434 -0.8513 -0.2354
 4202SOL    HW224069   3.122   4.450  14.350 -0.3347 -0.2719  0.9598
 4203SOL     OW24070   3.496   0.142   6.381 -0.3222 -0.5814 -0.4477
 4203SOL    HW124071   3.461   0.162   6.468 -1.8239  0.6368 -1.3361
 4203SOL    HW224072   3.472   0.219   6.330 -0.2143 -0.9704 -1.0803
 4204SOL     OW24073   3.457   3.739  15.128 -0.0552 -0.3376 -0.3687
 4204SOL    HW124074   3.486   3.795  15.199  0.9949 -0.3516 -0.7784
 4204SOL    HW224075   3.363   3.726  15.137 -0.1941  0.8702 -0.1889
 4205SOL     OW24076   3.503   3.891   5.448 -0.4080 -0.0479  0.2819
 4205SOL    HW124077   3.472   3.969   5.402  1.6984  0.9020  0.4726
 4205SOL    HW224078   3.553   3.933   5.518 -2.3418 -0.3984  1.8792
 4206SOL     OW24079   1.650   4.206   1.833  0.0287 -0.1440  0.3258
 4206SOL    HW124080   1.688   4.203   1.921  0.7079 -0.7958  0.0040
 4206SOL    HW224081   1.724   4.191   1.775  0.8692  1.2938  1.0230
 4207SOL     OW24082   4.405   1.748   8.414 -0.1038  0.0475 -0.2763
 4207SOL    HW124083   4.402   1.727   8.321  1.8563  2.1182 -0.7834
 4207SOL    HW224084   4.462   1.825   8.413  0.0042 -0.0162  1.1563
 4208SOL     OW24085   1.329   1.647   5.972  0.1621 -0.5448 -0.6114
 4208SOL    HW124086   1.347   1.668   6.064 -1.2565 -2.0873  0.0334
 4208SOL    HW224087   1.415   1.641   5.932  1.8452  0.2753  2.8360
 4209SOL     OW24088   4.690   1.289  16.281  0.0804 -0.0650  0.3353
 4209SOL    HW124089   4.713   1.220  16.219 -0.2608 -0.4337  0.6223
 4209SOL    HW224090   0.003   1.362  16.233 -0.2114 -0.8527 -1.1182
 4210SOL     OW24091   1.484   2.888   2.207  0.6854  0.6020 -0.2490
 4210SOL    HW124092   1.519   2.944   2.277  0.0210  0.5348  0.1351
 4210SOL    HW224093   1.392   2.912   2.220  0.3374 -0.6120 -0.4676
 4211SOL     OW24094   1.585   3.136   6.818  0.3451  0.0718  0.2402
 4211SOL    HW124095   1.585   3.045   6.789 -2.0068  0.2222 -0.2466
 4211SOL    HW224096   1.495   3.169   6.812  0.1607 -0.4191  0.2879
 4212SOL     OW24097   3.043   3.745   3.651 -0.1086  0.4427  0.1320
 4212SOL    HW124098   3.093   3.798   3.713 -0.7207  0.2054  0.8183
 4212SOL    HW224099   2.957   3.778   3.675 -0.6067 -0.5053 -0.3591
 4213SOL     OW24100   4.326   1.001   5.468 -0.3786 -0.2252  0.7869
 4213SOL    HW124101   4.404   0.946   5.462  0.8474  1.7969 -2.2161
 4213SOL    HW224102   4.350   1.081   5.421 -0.9400 -0.3749  0.2524
 4214SOL     OW24103   1.166   1.081   7.890 -0.0510 -0.1323  0.6072
 4214SOL    HW124104   1.089   1.088   7.833 -0.5642 -1.6316  1.1023
 4214SOL    HW224105   1.120   1.063   7.973  0.4424 -2.6749  0.3356
 4215SOL     OW24106   2.503   1.559   2.403  0.6779 -0.0094  0.1055
 4215SOL    HW124107   2.433   1.624   2.411  1.8252  1.3253 -0.5602
 4215SOL    HW224108   2.542   1.557   2.491 -1.2482 -1.9356  0.9138
 4216SOL     OW24109   2.426   0.223   2.571 -0.5295  0.5096 -0.3604
 4216SOL    HW124110   2.475   0.172   2.506  1.2654 -0.7645  1.9649
 4216SOL    HW224111   2.372   0.283   2.519 -0.6158 -0.9919 -2.0300
 4217SOL     OW24112   4.335   2.806   9.989  0.0479  0.3845  0.3280
 4217SOL    HW124113   4.239   2.809   9.986  0.1874  1.0199 -2.4798
 4217SOL    HW224114   4.356   2.744   9.920  1.1519  2.6290 -1.3053
 4218SOL     OW24115   3.363   2.071   6.306 -0.6906  0.0134 -0.3146
 4218SOL    HW124116   3.455   2.074   6.330 -1.0892  0.2928  1.2019
 4218SOL    HW224117   3.337   2.122   6.384 -1.7129 -1.3450  0.2356
 4219SOL     OW24118   1.878   4.380  15.137  0.1256  0.1863  0.1447
 4219SOL    HW124119   1.933   4.369  15.060  1.2598 -3.2086  1.4326
 4219SOL    HW224120   1.837   4.461  15.106  0.4138  0.9431  1.7314
 4220SOL     OW24121   3.646   1.221   4.083 -0.4068 -0.2975  0.3449
 4220SOL    HW124122   3.618   1.159   4.151 -0.1467 -0.5087  0.2624
 4220SOL    HW224123   3.635   1.165   4.006  1.0130  0.8622 -0.6985
 4221SOL     OW24124   2.057   2.495   4.207  0.3885  0.2653 -0.1528
 4221SOL    HW124125   2.086   2.539   4.128  0.0183 -0.8759 -0.9209
 4221SOL    HW224126   1.965   2.520   4.213  0.0537 -1.1985  1.1395
 4222SOL     OW24127   2.223   0.930   3.884 -0.1156  0.2732  0.0933
 4222SOL    HW124128   2.130   0.915   3.867  0.1374  0.8386 -1.7830
 4222SOL    HW224129   2.214   0.948   3.978 -2.0278 -0.4640  0.0499
 4223SOL     OW24130   0.750   0.051   2.363  0.6996 -0.7877  0.0002
 4223SOL    HW124131   0.669   0.099   2.344 -0.5265 -2.3400  1.2420
 4223SOL    HW224132   0.772   0.014   2.278 -1.3365 -0.1877 -0.7902
 4224SOL     OW24133   3.235   0.385   0.820 -0.1208  0.2488 -0.3522
 4224SOL    HW124134   3.219   0.321   0.751  1.4289  0.9160 -1.3526
 4224SOL    HW224135   3.283   0.340   0.890  1.1142  0.1630 -1.2428
 4225SOL     OW24136   4.388   0.961  10.656 -0.3471 -0.0755  0.2193
 4225SOL    HW124137   4.422   1.026  10.594  0.7978  0.0570  0.9780
 4225SOL    HW224138   4.364   0.887  10.600  1.2730  0.2521 -0.8961
 4226SOL     OW24139   3.331   1.295  10.759 -0.1799 -0.1390 -0.2977
 4226SOL    HW124140   3.279   1.370  10.787 -0.7501 -0.0948 -1.4794
 4226SOL    HW224141   3.272   1.221  10.773 -0.6946  0.4120  0.4176
 4227SOL     OW24142   4.039   3.087   8.999  0.1642 -0.1949 -0.4822
 4227SOL    HW124143   4.069   3.121   8.915 -1.8617  0.9601 -0.7236
 4227SOL    HW224144   3.963   3.141   9.017  1.1828  0.7297  0.9856
 4228SOL     OW24145   0.915   1.755  17.020 -0.1614 -0.4499  0.2430
 4228SOL    HW124146   0.853   1.757  16.946  0.1600 -1.5296 -0.0575
 4228SOL    HW224147   0.932   1.661  17.015 -1.0193 -0.5514 -0.8768
 4229SOL     OW24148   0.459   2.512   4.670 -0.0046  0.2322 -0.0963
 4229SOL    HW124149   0.380   2.565   4.659 -0.2460  0.0007  0.4904
 4229SOL    HW224150   0.514   2.566   4.728 -0.7264  2.1182 -1.1744
 4230SOL     OW24151   3.778   3.276   4.260 -0.4779  0.1919  0.1592
 4230SOL    HW124152   3.741   3.338   4.323 -0.6111  0.4981 -0.2205
 4230SOL    HW224153   3.872   3.290   4.263 -0.2298 -1.3458 -0.4939
 4231SOL     OW24154   4.065   0.743   4.132 -0.4752  0.0828  0.0740
 4231SOL    HW124155   4.088   0.811   4.070 -1.3982  0.7114  0.4240
 4231SOL    HW224156   3.974   0.720   4.114 -0.5130 -0.0068  0.3833
 4232SOL     OW24157   3.720   1.225   4.912  0.0583 -0.1429 -0.6445
 4232SOL    HW124158   3.663   1.189   4.844  1.8185 -0.9064 -1.7020
 4232SOL    HW224159   3.674   1.308   4.926  0.4297  0.0082 -0.3190
 4233SOL     OW24160   0.433   3.310   6.706 -0.0769 -0.2849 -0.2383
 4233SOL    HW124161   0.372   3.354   6.765 -0.3786 -2.6677  1.2103
 4233SOL    HW224162   0.423   3.220   6.736 -0.9973 -0.4725 -1.0999
 4234SOL     OW24163   2.044   4.303   1.434 -0.0545 -0.0108  0.3553
 4234SOL    HW124164   2.098   4.228   1.460 -0.5475  0.6364  3.1970
 4234SOL    HW224165   2.111   4.371   1.428 -0.4911  0.2410 -1.7294
 4235SOL     OW24166   2.194   2.875   1.731  0.0504  0.0396 -0.6063
 4235SOL    HW124167   2.190   2.825   1.812  2.8139  1.4726  0.3946
 4235SOL    HW224168   2.171   2.964   1.758 -0.2155  0.7188 -3.0577
 4236SOL     OW24169   0.443   0.645  13.473  0.0228 -0.3731  0.6545
 4236SOL    HW124170   0.469   0.555  13.492  2.2073  0.4056  1.3551
 4236SOL    HW224171   0.353   0.628  13.442 -0.4047 -0.4639  1.9603
 4237SOL     OW24172   2.503   4.190   6.684 -0.4101  0.2196 -0.1721
 4237SOL    HW124173   2.456   4.153   6.759 -0.8342  0.5286 -0.2861
 4237SOL    HW224174   2.592   4.195   6.720  0.0332 -0.7654 -1.1357
 4238SOL     OW24175   2.458   2.492   6.103  0.3306  0.3961 -0.0861
 4238SOL    HW124176   2.410   2.506   6.022 -0.7564  0.5166  0.5832
 4238SOL    HW224177   2.537   2.545   6.091  1.6738 -1.5510  0.2117
 4239SOL     OW24178   0.415   1.025   4.257  0.7413 -0.1618 -0.1726
 4239SOL    HW124179   0.323   1.033   4.234  1.7171  2.5144 -3.0914
 4239SOL    HW224180   0.399   0.979   4.339 -0.3307  0.7306  0.1112
 4240SOL     OW24181   4.512   2.499   5.615 -0.0236  0.6359 -0.4035
 4240SOL    HW124182   4.599   2.483   5.653 -0.0019  2.8480  0.4860
 4240SOL    HW224183   4.481   2.561   5.681  0.2009  2.2838 -1.8507
 4241SOL     OW24184   3.394   2.378   9.272  0.2323 -0.4278 -0.2278
 4241SOL    HW124185   3.330   2.450   9.274 -1.5373 -2.0121  0.1817
 4241SOL    HW224186   3.354   2.308   9.323 -0.7077 -0.9566 -1.6647
 4242SOL     OW24187   4.612   3.295  12.967  0.6456  0.4600  0.3954
 4242SOL    HW124188   4.624   3.201  12.954 -0.7041  0.5201 -1.2830
 4242SOL    HW224189   4.679   3.326  12.907  1.1320 -0.0032  0.6993
 4243SOL     OW24190   2.930   0.068   6.398 -0.4067  0.6246  0.0475
 4243SOL    HW124191   3.010   0.015   6.409 -0.2251  1.2823  1.8111
 4243SOL    HW224192   2.860   0.006   6.377  0.1938  0.5352 -1.6489
 4244SOL     OW24193   2.504   1.679   7.132  0.1125  0.1573  0.4867
 4244SOL    HW124194   2.556   1.745   7.086  1.2548 -1.3711 -0.4023
 4244SOL    HW224195   2.420   1.675   7.086 -0.4317 -0.2950  1.5253
 4245SOL     OW24196   0.978   3.618   8.565  0.4917  0.3729 -0.5885
 4245SOL    HW124197   0.914   3.597   8.497 -0.9081 -0.6497  1.0457
 4245SOL    HW224198   1.050   3.564   8.531  0.3835 -0.0951 -0.0809
 4246SOL     OW24199   3.696   2.373   5.708  0.2762 -0.1439  0.0312
 4246SOL    HW124200   3.744   2.391   5.627  0.3273 -0.9388 -0.1199
 4246SOL    HW224201   3.627   2.438   5.690 -1.0734 -1.2478  1.2266
 4247SOL     OW24202   1.981   3.671   4.644 -0.0530 -0.2982  0.5264
 4247SOL    HW124203   2.000   3.761   4.672 -1.0985 -0.1584  0.7933
 4247SOL    HW224204   2.064   3.650   4.603 -0.1547 -2.3955  1.3788
 4248SOL     OW24205   4.344   3.712   4.007  0.1791  0.1105  0.6352
 4248SOL    HW124206   4.437   3.733   4.000  0.3245 -0.5608  0.5196
 4248SOL    HW224207   4.326   3.777   4.074 -0.1486  0.9031 -0.2232
 4249SOL     OW24208   2.972   1.485   6.574  0.1894 -0.3206 -0.4575
 4249SOL    HW124209   3.035   1.543   6.532 -1.9130  2.1311 -0.2284
 4249SOL    HW224210   2.996   1.510   6.663 -1.9385 -2.3715  0.6933
 4250SOL     OW24211   3.436   4.447   7.429 -0.3582 -0.0544  0.0428
 4250SOL    HW124212   3.512   4.498   7.402 -0.0584  1.3647  3.5038
 4250SOL    HW224213   3.396   4.504   7.496  0.5505  0.7079 -0.0658
 4251SOL     OW24214   0.714   4.589   3.656 -0.1247 -0.3206  0.1268
 4251SOL    HW124215   0.636   4.555   3.612  1.2318  0.7568 -3.1692
 4251SOL    HW224216   0.781   4.547   3.602 -0.6063  0.2598 -0.9296
 4252SOL     OW24217   1.627   0.297   6.771 -0.1714  0.2569 -0.0154
 4252SOL    HW124218   1.593   0.220   6.817 -0.9988  0.5650 -0.1092
 4252SOL    HW224219   1.671   0.329   6.850 -0.4675 -1.1461  0.7241
 4253SOL     OW24220   1.200   3.927   3.935  0.4968 -0.0523  0.0172
 4253SOL    HW124221   1.153   3.845   3.926 -0.3740  0.6221 -1.5395
 4253SOL    HW224222   1.131   3.993   3.936  0.4442 -0.1087  0.1161
 4254SOL     OW24223   2.913   1.609  10.934  0.0035  0.6034 -0.1182
 4254SOL    HW124224   2.906   1.697  10.972  1.0746  0.8648 -0.5380
 4254SOL    HW224225   2.874   1.626  10.848  1.9635  2.2270 -0.6717
 4255SOL     OW24226   1.428   1.563  13.123  0.5725  0.1957  0.0077
 4255SOL    HW124227   1.518   1.531  13.127  1.0964  1.6689  0.2599
 4255SOL    HW224228   1.449   1.657  13.128 -0.3131  0.2962  1.9733
 4256SOL     OW24229   0.805   0.999   3.180 -0.5901 -0.3394  0.2799
 4256SOL    HW124230   0.815   1.091   3.155 -2.3072 -0.1100  0.4798
 4256SOL    HW224231   0.719   0.989   3.139 -0.7960 -0.3331  0.7113
 4257SOL     OW24232   2.872   4.672   8.355  0.0647  0.1805 -0.2329
 4257SOL    HW124233   2.928   4.667   8.432 -1.1084  1.1619  0.6915
 4257SOL    HW224234   2.791   4.630   8.384 -1.3836  2.3563 -1.1157
 4258SOL     OW24235   0.623   1.370  10.865  0.7077 -0.2330 -0.0777
 4258SOL    HW124236   0.647   1.315  10.791  0.4949  3.9612 -3.2683
 4258SOL    HW224237   0.543   1.321  10.885  0.8453  0.0785  1.2736
 4259SOL     OW24238   4.179   1.915   0.273  0.5236 -0.0568 -0.4545
 4259SOL    HW124239   4.122   1.868   0.212  0.2347  0.9098 -0.9302
 4259SOL    HW224240   4.119   1.947   0.340  1.4344  0.6776  0.0097
 4260SOL     OW24241   2.392   2.654   7.782 -0.2026 -0.2439 -0.0728
 4260SOL    HW124242   2.447   2.585   7.745  2.7109  2.9693 -1.6372
 4260SOL    HW224243   2.438   2.724   7.737 -0.4402  0.6946  1.1526
 4261SOL     OW24244   2.464   2.787   6.313  0.1154 -0.0662 -0.6902
 4261SOL    HW124245   2.448   2.707   6.363  0.3560  0.9621  1.0243
 4261SOL    HW224246   2.532   2.755   6.253 -0.4084 -1.6574 -0.4431
 4262SOL     OW24247   1.398   3.593  13.652  0.0721  0.3171 -0.1484
 4262SOL    HW124248   1.348   3.642  13.586  2.2245  0.5467 -1.5921
 4262SOL    HW224249   1.329   3.566  13.714 -0.5999  0.3202 -0.8906
 4263SOL     OW24250   1.669   0.799   5.569  0.1681 -0.1619 -0.9801
 4263SOL    HW124251   1.722   0.841   5.637 -0.4005  1.0852 -1.2982
 4263SOL    HW224252   1.674   0.864   5.498  0.7940  1.2110  0.3277
 4264SOL     OW24253   2.973   1.027   2.827  0.0174  0.2845 -0.4314
 4264SOL    HW124254   2.943   1.066   2.746 -0.7100 -0.3814 -0.4866
 4264SOL    HW224255   3.065   1.013   2.804 -0.1062 -1.7182  0.2830
 4265SOL     OW24256   1.836   4.285   8.264  0.2375 -0.8055  0.0274
 4265SOL    HW124257   1.812   4.197   8.294 -1.2274  0.0558  1.3876
 4265SOL    HW224258   1.897   4.320   8.328  0.4571 -0.5577 -0.3181
 4266SOL     OW24259   1.511   3.790  17.438 -0.3486  0.1820  0.5676
 4266SOL    HW124260   1.531   3.709  17.391  0.0006  0.6570 -0.1120
 4266SOL    HW224261   1.578   3.789  17.506 -0.3077 -0.0330  0.5255
 4267SOL     OW24262   3.172   2.122   3.882 -0.5844 -0.4584 -0.1054
 4267SOL    HW124263   3.162   2.036   3.840 -1.3790  0.0199 -0.8922
 4267SOL    HW224264   3.086   2.119   3.924  0.9380  2.1511  3.2144
 4268SOL     OW24265   3.780   0.844   6.167 -0.0585 -0.3579  0.3361
 4268SOL    HW124266   3.865   0.800   6.161  0.3267  0.4829 -0.2667
 4268SOL    HW224267   3.769   0.897   6.088 -0.0367 -1.4620 -0.3977
 4269SOL     OW24268   0.676   0.049   6.268 -0.1962  0.1167 -0.2620
 4269SOL    HW124269   0.708   0.057   6.179  1.4523  0.0315  0.3255
 4269SOL    HW224270   0.749   0.095   6.309 -2.1469  1.7642  1.4032
 4270SOL     OW24271   2.785   0.880   5.322  0.4475  0.3624  0.4221
 4270SOL    HW124272   2.861   0.822   5.314 -0.0678 -0.4192  1.1703
 4270SOL    HW224273   2.728   0.829   5.264 -0.0579  1.8073 -0.3574
 4271SOL     OW24274   3.623   3.191  13.721  0.1169 -0.2083 -0.5570
 4271SOL    HW124275   3.557   3.149  13.666 -1.3900  1.9448 -0.3886
 4271SOL    HW224276   3.671   3.240  13.654  0.6236  1.2447  0.8614
 4272SOL     OW24277   0.990   1.890   8.028 -0.0174  0.1184 -0.1464
 4272SOL    HW124278   1.044   1.901   7.949 -1.3246 -0.8324 -1.1748
 4272SOL    HW224279   0.968   1.799   8.007  1.9182 -0.5619  0.7560
 4273SOL     OW24280   3.798   0.742   4.081  0.1400  0.0955 -0.5302
 4273SOL    HW124281   3.721   0.685   4.079  0.7163 -0.7234  0.7677
 4273SOL    HW224282   3.770   0.815   4.025  0.6120  0.1755 -0.6635
 4274SOL     OW24283   4.480   0.542   4.908  0.2219 -0.7945  0.1648
 4274SOL    HW124284   4.392   0.537   4.871  0.5396 -1.7780 -0.4709
 4274SOL    HW224285   4.467   0.484   4.983 -0.8129  0.3860  0.8695
 4275SOL     OW24286   1.179   2.180   7.224  0.2640  0.2020  0.4953
 4275SOL    HW124287   1.194   2.086   7.212 -1.6533 -0.2153  1.3466
 4275SOL    HW224288   1.115   2.183   7.295  1.8598  1.0799  1.8998
 4276SOL     OW24289   0.892   4.183   2.514  0.9052  0.3429  0.3373
 4276SOL    HW124290   0.899   4.278   2.499  1.1836  0.3471  0.4875
 4276SOL    HW224291   0.812   4.164   2.466 -0.5965  1.6529  2.3357
 4277SOL     OW24292   4.464   0.477   9.551 -0.2700 -0.3591  0.2158
 4277SOL    HW124293   4.535   0.418   9.525 -0.1421 -0.6830  1.2980
 4277SOL    HW224294   4.414   0.476   9.470 -0.6937 -1.9887  0.5132
 4278SOL     OW24295   1.661   1.134   6.970 -0.1052 -0.4617 -0.2016
 4278SOL    HW124296   1.684   1.065   7.033  0.3235  0.2134  0.3722
 4278SOL    HW224297   1.678   1.097   6.883 -2.7996 -1.1061 -0.4724
 4279SOL     OW24298   4.623   0.601  14.394 -0.3876 -0.6652 -0.2374
 4279SOL    HW124299   4.627   0.677  14.336  2.2266 -0.9347 -0.4027
 4279SOL    HW224300   4.658   0.535  14.335  0.3044 -0.4677 -0.0476
 4280SOL     OW24301   3.259   2.946   8.680  0.1105  0.5624 -0.4563
 4280SOL    HW124302   3.338   2.951   8.734  0.0454  3.7682 -0.6367
 4280SOL    HW224303   3.219   3.033   8.681  0.8104  0.8888 -0.7884
 4281SOL     OW24304   0.413   0.311   7.875 -0.5891 -0.0292  0.1397
 4281SOL    HW124305   0.499   0.354   7.872  0.7416 -2.5202  2.4205
 4281SOL    HW224306   0.351   0.377   7.846 -1.3158 -0.7702  0.0275
 4282SOL     OW24307   0.495   4.245   2.531 -0.2831  0.7778  0.4449
 4282SOL    HW124308   0.404   4.265   2.507 -0.4632 -0.7501 -0.1212
 4282SOL    HW224309   0.529   4.207   2.451  0.5005  0.9856  0.6845
 4283SOL     OW24310   1.872   3.682  11.170  0.1989  0.0611  0.3459
 4283SOL    HW124311   1.909   3.770  11.159  1.1039 -0.2645  0.8010
 4283SOL    HW224312   1.782   3.713  11.155  0.5625  1.1217  0.3583
 4284SOL     OW24313   3.889   4.483   1.493 -0.0561 -0.7827 -0.3487
 4284SOL    HW124314   3.810   4.537   1.488  0.4985  0.0189 -0.4660
 4284SOL    HW224315   3.848   4.404   1.530 -0.1788  0.0127  1.2290
 4285SOL     OW24316   0.044   0.356   7.663  0.3939 -0.2489 -0.2377
 4285SOL    HW124317   0.089   0.376   7.745 -0.2252 -1.9555  0.5439
 4285SOL    HW224318   0.079   0.417   7.599  2.6471  1.0540  2.2227
 4286SOL     OW24319   1.465   0.297   2.925  0.4971 -0.0183  0.2008
 4286SOL    HW124320   1.463   0.386   2.961 -0.7286 -0.2815  0.7879
 4286SOL    HW224321   1.528   0.301   2.853  0.6059 -3.6193  0.0801
 4287SOL     OW24322   2.738   4.352   3.208 -0.3294  0.0506  0.0557
 4287SOL    HW124323   2.746   4.439   3.168  1.8409 -0.1541  0.0133
 4287SOL    HW224324   2.683   4.301   3.148  1.5875 -1.2003 -0.6616
 4288SOL     OW24325   1.130   2.035  14.068  0.5031  0.1665 -0.0765
 4288SOL    HW124326   1.153   1.949  14.102  0.1249  0.0574 -0.0962
 4288SOL    HW224327   1.038   2.009  14.063  0.2823  0.6218  1.5236
 4289SOL     OW24328   0.082   2.596  17.027  1.1264 -0.6811  0.4584
 4289SOL    HW124329   4.721   2.555  17.018  1.7616 -1.5914 -1.3468
 4289SOL    HW224330   0.077   2.624  17.119 -0.5285  1.1908 -0.2033
 4290SOL     OW24331   1.915   4.361   2.160 -0.1805 -0.9899  0.5026
 4290SOL    HW124332   1.834   4.405   2.184  1.1127  1.3076  0.5917
 4290SOL    HW224333   1.875   4.277   2.135  1.2025 -0.7557 -2.5703
 4291SOL     OW24334   3.495   2.779  10.048 -0.0661  0.3770  0.2753
 4291SOL    HW124335   3.547   2.764  10.127  2.9769 -3.7267 -2.5011
 4291SOL    HW224336   3.564   2.777   9.981 -1.6901 -2.2481 -1.3036
 4292SOL     OW24337   3.987   0.388   2.180 -0.3207 -0.1845  0.1902
 4292SOL    HW124338   3.986   0.385   2.276  0.7447  1.8799  0.2770
 4292SOL    HW224339   4.074   0.358   2.153 -0.8728 -1.5845 -0.0422
 4293SOL     OW24340   1.045   3.930   3.385  0.3735  0.2189 -0.2708
 4293SOL    HW124341   1.100   3.883   3.321 -0.0862  0.9090 -1.1716
 4293SOL    HW224342   1.083   3.885   3.461 -0.7080  0.3068  0.3173
 4294SOL     OW24343   4.174   3.368   7.918 -0.9781 -0.1036 -0.3313
 4294SOL    HW124344   4.178   3.416   8.001 -2.0265 -0.8373  0.1454
 4294SOL    HW224345   4.260   3.328   7.921 -0.8005  0.4734  2.9288
 4295SOL     OW24346   2.537   4.540   7.850 -0.6262  0.4658  0.3254
 4295SOL    HW124347   2.614   4.528   7.793 -1.2135 -1.5147 -0.0806
 4295SOL    HW224348   2.542   4.458   7.899  0.2718 -0.0315 -0.5923
 4296SOL     OW24349   2.120   1.783   4.509  0.1248  0.4773 -0.2327
 4296SOL    HW124350   2.049   1.753   4.452 -0.8317  1.9305  0.1868
 4296SOL    HW224351   2.160   1.854   4.459  1.0173 -1.0068 -1.6336
 4297SOL     OW24352   3.261   2.829   4.550  0.1705  0.5464 -0.2049
 4297SOL    HW124353   3.232   2.821   4.641  1.3928 -2.6912 -0.1125
 4297SOL    HW224354   3.329   2.895   4.566 -2.1959  2.7150  1.0947
 4298SOL     OW24355   2.290   1.558   6.127  0.1418 -0.1456 -0.0206
 4298SOL    HW124356   2.199   1.532   6.143 -0.1034  2.5426  2.8691
 4298SOL    HW224357   2.276   1.645   6.165 -1.3061  0.3480 -1.6899
 4299SOL     OW24358   1.931   3.534  15.663 -0.1477 -0.1427  0.7713
 4299SOL    HW124359   1.888   3.473  15.724  1.4662 -1.8909  0.1531
 4299SOL    HW224360   1.869   3.527  15.590  0.6150 -1.0060  0.2169
 4300SOL     OW24361   3.886   4.559  12.671  0.1070 -0.4896  0.6587
 4300SOL    HW124362   3.875   4.652  12.651  0.7128 -0.5316  0.1366
 4300SOL    HW224363   3.796   4.529  12.664 -0.0927 -0.1238  1.6757
 4301SOL     OW24364   1.461   2.462   5.447  0.3746 -0.9774 -0.4306
 4301SOL    HW124365   1.435   2.381   5.403  0.6657 -2.3107  1.8315
 4301SOL    HW224366   1.503   2.516   5.381 -0.4879 -0.8087 -0.8382
 4302SOL     OW24367   3.674   4.027   2.582  0.1486  0.2879  0.2980
 4302SOL    HW124368   3.754   4.074   2.557  1.1545 -0.6935  1.6649
 4302SOL    HW224369   3.624   4.043   2.501  0.2652 -1.4132 -0.1145
 4303SOL     OW24370   1.743   3.902   5.874 -0.3870  0.4726  0.1512
 4303SOL    HW124371   1.729   3.811   5.901 -1.5116  1.4747  2.8952
 4303SOL    HW224372   1.753   3.902   5.779  0.6136  2.1820  0.2558
 4304SOL     OW24373   0.894   4.175   4.147 -0.2261 -0.1367 -0.0164
 4304SOL    HW124374   0.967   4.231   4.123 -1.3592  1.7192  0.8391
 4304SOL    HW224375   0.826   4.237   4.175  0.8907  1.7373 -1.5313
 4305SOL     OW24376   4.106   2.153   6.409  0.1324 -0.3851  0.7964
 4305SOL    HW124377   4.044   2.147   6.482 -0.1788  0.3896  0.5981
 4305SOL    HW224378   4.125   2.247   6.416  0.6605 -0.3418 -1.1501
 4306SOL     OW24379   3.266   2.060   7.504 -0.6502 -0.2161  0.1456
 4306SOL    HW124380   3.343   2.111   7.477  0.3580 -1.3721  0.8457
 4306SOL    HW224381   3.214   2.060   7.424 -3.1785  0.4738  1.7960
 4307SOL     OW24382   2.271   1.893   7.031 -0.3601  0.3348  0.4313
 4307SOL    HW124383   2.300   1.970   7.080 -1.1233  0.0460  1.3389
 4307SOL    HW224384   2.188   1.916   6.990 -0.1791  0.2976  0.0493
 4308SOL     OW24385   0.287   4.504   8.830  0.0614  0.2307  0.0921
 4308SOL    HW124386   0.203   4.537   8.801 -0.0589 -0.8902 -0.8200
 4308SOL    HW224387   0.275   4.532   8.921 -0.2011 -1.8440  0.6971
 4309SOL     OW24388   4.081   1.133   0.149  0.1051  0.7853  0.1168
 4309SOL    HW124389   4.024   1.108   0.076  0.7987 -1.2299  0.2525
 4309SOL    HW224390   4.149   1.176   0.096  1.4398 -0.5615  0.7399
 4310SOL     OW24391   3.359   2.249   5.084 -0.3534  0.4950 -0.5845
 4310SOL    HW124392   3.366   2.332   5.132 -0.0913  0.4367 -0.5237
 4310SOL    HW224393   3.433   2.195   5.112 -2.7113 -2.1027  0.6319
 4311SOL     OW24394   2.523   4.315   7.993 -0.5780 -0.2289 -0.2517
 4311SOL    HW124395   2.448   4.256   7.980 -1.6416  1.3121 -1.0988
 4311SOL    HW224396   2.594   4.251   7.982 -1.4865 -0.6761 -3.3683
 4312SOL     OW24397   0.808   3.758   3.081  0.5886 -0.0796  0.0799
 4312SOL    HW124398   0.891   3.743   3.036 -0.0671  0.9444 -1.4618
 4312SOL    HW224399   0.761   3.823   3.028 -1.5170  0.1796  2.2636
 4313SOL     OW24400   2.293   3.054  13.869  0.1570  0.2337  1.0601
 4313SOL    HW124401   2.204   3.049  13.904 -0.6404  0.2377 -0.9413
 4313SOL    HW224402   2.335   2.969  13.881  0.8428 -0.0202 -3.1710
 4314SOL     OW24403   0.540   2.985  15.569 -0.4390 -0.1884  0.5775
 4314SOL    HW124404   0.610   2.938  15.524 -0.8059 -1.8409  1.7326
 4314SOL    HW224405   0.472   2.920  15.585  0.7731 -0.6272  4.1469
 4315SOL     OW24406   2.467   1.260   7.421 -0.1425 -0.0313  0.1244
 4315SOL    HW124407   2.462   1.322   7.494  1.3601  0.1166  0.1082
 4315SOL    HW224408   2.377   1.263   7.387 -0.3542 -2.4253  0.5108
 4316SOL     OW24409   2.080   0.144   2.660 -0.4637 -0.1339  0.4022
 4316SOL    HW124410   2.021   0.162   2.733 -0.4806  0.5351  0.2206
 4316SOL    HW224411   2.057   0.225   2.616 -0.7026 -0.7489 -0.6098
 4317SOL     OW24412   0.261   0.216   7.282  0.0457 -0.1283  0.1151
 4317SOL    HW124413   0.206   0.187   7.355 -0.2349  0.1663  0.0164
 4317SOL    HW224414   0.214   0.186   7.205 -0.4828 -0.5981  0.6180
 4318SOL     OW24415   3.070   0.388  10.155 -0.4274 -0.1683  0.8921
 4318SOL    HW124416   3.049   0.372  10.063  0.8220  1.8600  0.2463
 4318SOL    HW224417   3.030   0.475  10.163  1.2245  0.5552  1.1730
 4319SOL     OW24418   4.207   0.193   8.356  0.0366 -0.7569  0.5166
 4319SOL    HW124419   4.204   0.138   8.435  0.7757 -1.4314  0.0726
 4319SOL    HW224420   4.120   0.232   8.359  0.2908 -0.1840  0.2315
 4320SOL     OW24421   4.179   2.926   6.031 -0.5119  0.5252 -0.2711
 4320SOL    HW124422   4.186   3.004   6.086 -1.2317  0.7081 -0.4361
 4320SOL    HW224423   4.271   2.909   6.010 -1.0617 -0.2793 -2.0216
 4321SOL     OW24424   1.538   0.515   8.752  0.2912 -0.6147 -0.2270
 4321SOL    HW124425   1.615   0.501   8.697  1.6111  1.8003  1.0224
 4321SOL    HW224426   1.518   0.425   8.781  0.0370 -0.7104 -0.6987
 4322SOL     OW24427   0.299   2.261   6.295 -0.1831  0.5061 -0.0186
 4322SOL    HW124428   0.297   2.170   6.266  0.4337  0.1758  0.9669
 4322SOL    HW224429   0.295   2.313   6.215  1.8471  0.2151 -0.3004
 4323SOL     OW24430   1.651   1.729  13.909 -0.0293  0.9105 -0.1314
 4323SOL    HW124431   1.696   1.656  13.951  1.1904  1.7725  0.0513
 4323SOL    HW224432   1.689   1.733  13.821 -0.0807 -2.7230 -0.3158
 4324SOL     OW24433   3.734   4.190   7.497 -0.0339 -0.0414  0.2771
 4324SOL    HW124434   3.683   4.190   7.578  0.2218  0.1083  0.4362
 4324SOL    HW224435   3.826   4.200   7.521 -0.0032  0.4710 -0.0572
 4325SOL     OW24436   1.404   1.694  13.974 -0.0985 -0.0447  0.3897
 4325SOL    HW124437   1.393   1.599  13.967  1.9606 -0.4372  2.4147
 4325SOL    HW224438   1.478   1.715  13.916 -0.0546 -1.4782 -0.0852
 4326SOL     OW24439   3.524   3.514  13.338  0.3755 -0.5727 -0.4225
 4326SOL    HW124440   3.536   3.555  13.253 -1.5761  0.8243 -0.0220
 4326SOL    HW224441   3.441   3.549  13.372  0.0994  0.1539 -1.8708
 4327SOL     OW24442   1.319   1.292   1.741  0.4522 -0.5872 -0.2294
 4327SOL    HW124443   1.357   1.350   1.807  2.5416 -0.3546 -1.6273
 4327SOL    HW224444   1.334   1.205   1.778  3.0865  0.0527  0.2102
 4328SOL     OW24445   2.457   2.486   3.905 -0.5204 -0.4626  0.4896
 4328SOL    HW124446   2.490   2.565   3.862  0.1014 -1.1753 -0.3541
 4328SOL    HW224447   2.401   2.449   3.837 -1.1056 -0.9208  1.2191
 4329SOL     OW24448   2.904   1.775   0.865 -0.1520  0.1407 -0.4556
 4329SOL    HW124449   2.897   1.780   0.960  0.6756 -2.5976 -0.2371
 4329SOL    HW224450   2.951   1.849   0.828  1.6476 -1.3761 -1.1835
 4330SOL     OW24451   3.530   1.079   6.281  0.2441 -0.0265  0.2921
 4330SOL    HW124452   3.577   1.019   6.223 -0.5015  0.7321 -1.0888
 4330SOL    HW224453   3.501   1.149   6.224  0.3776 -0.1277  0.1015
 4331SOL     OW24454   2.180   0.702   1.533 -0.3400 -0.3289  0.2499
 4331SOL    HW124455   2.183   0.692   1.438  3.2321 -1.5202  0.4791
 4331SOL    HW224456   2.087   0.718   1.549 -0.9444 -0.5671 -3.0842
 4332SOL     OW24457   3.194   0.572   8.576 -0.2064  0.0783 -0.0725
 4332SOL    HW124458   3.134   0.621   8.521  0.0381 -0.1807 -0.5718
 4332SOL    HW224459   3.134   0.499   8.594 -2.1222  2.1920  1.9386
 4333SOL     OW24460   1.415   3.921  17.668 -0.0432  0.3977  0.1076
 4333SOL    HW124461   1.327   3.937  17.633  0.8220  1.3440 -1.6400
 4333SOL    HW224462   1.460   3.878  17.596  0.3421 -0.2367  0.7335
 4334SOL     OW24463   1.112   2.729  17.368 -0.2997 -0.0684 -0.2376
 4334SOL    HW124464   1.107   2.658  17.304 -0.6584  0.1948 -0.5070
 4334SOL    HW224465   1.045   2.699  17.430  0.7383 -1.8198  0.0270
 4335SOL     OW24466   3.495   3.377   2.283 -0.5235 -1.0990  0.1335
 4335SOL    HW124467   3.438   3.432   2.336 -0.6264 -1.1492  0.0759
 4335SOL    HW224468   3.553   3.338   2.348  0.0694 -0.4231  0.0054
 4336SOL     OW24469   4.620   0.863   8.758 -0.0556 -0.0589 -0.5223
 4336SOL    HW124470   4.638   0.956   8.751 -1.6502  0.3009  0.1397
 4336SOL    HW224471   4.609   0.844   8.851  1.5189 -1.6694 -0.6578
 4337SOL     OW24472   3.290   1.863   3.555 -0.1300 -0.0591  0.2163
 4337SOL    HW124473   3.258   1.872   3.644  0.0130 -2.7576  0.5493
 4337SOL    HW224474   3.227   1.807   3.509  0.0482  2.2485 -2.8399
 4338SOL     OW24475   0.761   0.407   0.327  0.1173  0.5700  0.2112
 4338SOL    HW124476   0.801   0.339   0.273 -1.5122 -2.0400  2.3365
 4338SOL    HW224477   0.847   0.449   0.339 -0.3936  2.2773 -2.2811
 4339SOL     OW24478   3.602   3.442   3.694 -0.2785  0.1343  0.5972
 4339SOL    HW124479   3.610   3.537   3.704 -0.3837 -0.1962  4.0106
 4339SOL    HW224480   3.560   3.438   3.608  0.0603 -0.7896  0.4769
 4340SOL     OW24481   2.928   0.517  14.310  0.0545  0.2858  0.1724
 4340SOL    HW124482   2.957   0.522  14.401  3.6370 -0.8731 -0.8872
 4340SOL    HW224483   2.914   0.611  14.300  0.2172  0.0054 -2.9425
 4341SOL     OW24484   2.782   3.331   9.041 -0.5620  0.7820 -0.2489
 4341SOL    HW124485   2.813   3.395   8.978 -0.3176  1.6391  0.7438
 4341SOL    HW224486   2.690   3.327   9.015  0.3595  1.2120 -3.5477
 4342SOL     OW24487   1.056   1.146  16.323  0.2316 -0.2890 -1.6337
 4342SOL    HW124488   1.111   1.128  16.247 -0.3349 -2.4223 -1.5341
 4342SOL    HW224489   1.009   1.222  16.288  0.3086 -0.5682 -2.3314
 4343SOL     OW24490   2.307   0.187   3.430 -0.1294  0.0798 -0.2572
 4343SOL    HW124491   2.388   0.170   3.479 -0.7101  0.3146  0.7998
 4343SOL    HW224492   2.309   0.282   3.421 -1.4666  0.1092 -0.1701
 4344SOL     OW24493   2.676   4.236  13.202 -0.3522 -0.1910  0.3472
 4344SOL    HW124494   2.593   4.280  13.184 -0.4439 -0.3772  0.3154
 4344SOL    HW224495   2.730   4.274  13.132 -0.2105  3.3977  2.4334
 4345SOL     OW24496   4.618   1.684   0.388 -0.2246 -0.4385 -0.1510
 4345SOL    HW124497   4.632   1.771   0.350  0.0729 -0.7843 -0.8351
 4345SOL    HW224498   4.522   1.679   0.382 -0.2843  1.9785 -1.1633
 4346SOL     OW24499   3.121   0.576   9.076  0.3912  0.4388  0.0456
 4346SOL    HW124500   3.168   0.497   9.050 -0.2232  0.0526  0.0996
 4346SOL    HW224501   3.063   0.589   9.001  3.3995  0.2097 -2.3388
 4347SOL     OW24502   3.066   3.872   2.669  0.2944 -0.0054 -0.0270
 4347SOL    HW124503   2.997   3.876   2.736  1.8882  0.4747  1.5690
 4347SOL    HW224504   3.015   3.853   2.590  2.3971  0.8400 -1.5932
 4348SOL     OW24505   4.536   0.580   4.620 -0.0692 -0.2848  0.3268
 4348SOL    HW124506   4.524   0.578   4.715  0.3487  0.4190  0.3922
 4348SOL    HW224507   4.492   0.498   4.597 -1.7919  1.1059 -1.3254
 4349SOL     OW24508   1.537   2.857   5.402  0.0585  0.6700 -0.2289
 4349SOL    HW124509   1.605   2.913   5.439 -0.4838  0.6876  0.7484
 4349SOL    HW224510   1.476   2.851   5.476  0.3945  1.0103  0.0772
 4350SOL     OW24511   2.180   2.393   3.332 -0.2706  0.0451  0.2835
 4350SOL    HW124512   2.178   2.332   3.405  0.8535  0.9280  1.0384
 4350SOL    HW224513   2.098   2.385   3.282 -0.5881 -0.8665  0.9704
 4351SOL     OW24514   1.930   3.716  14.497 -0.4269  0.1278 -0.0961
 4351SOL    HW124515   1.899   3.626  14.512  0.9925 -0.1387  1.2471
 4351SOL    HW224516   2.015   3.720  14.541 -0.5444 -1.8979  0.3161
 4352SOL     OW24517   1.730   4.318   2.861  0.7650  0.4311 -0.7215
 4352SOL    HW124518   1.796   4.350   2.799  1.1614 -0.1896 -0.6197
 4352SOL    HW224519   1.650   4.332   2.811  0.0439  1.0079  0.5830
 4353SOL     OW24520   0.991   4.134   4.439 -0.1040 -1.1333  0.0699
 4353SOL    HW124521   1.066   4.098   4.393 -1.3035 -0.7771 -2.1696
 4353SOL    HW224522   0.940   4.054   4.451 -1.7961 -0.0396  0.2159
 4354SOL     OW24523   2.127   0.486   7.935  0.0427  0.3752 -0.1946
 4354SOL    HW124524   2.081   0.405   7.956  1.2953 -0.1337  0.5584
 4354SOL    HW224525   2.168   0.519   8.015  0.6075 -0.8446  0.0183
 4355SOL     OW24526   4.404   3.431   4.337  0.7638  0.1101  0.6248
 4355SOL    HW124527   4.367   3.390   4.259  2.6903  1.5527 -1.0312
 4355SOL    HW224528   4.376   3.367   4.403 -2.3880  1.1962  0.3121
 4356SOL     OW24529   3.169   0.996   1.019  0.1384  0.4227 -0.3422
 4356SOL    HW124530   3.110   0.983   0.945 -1.6466  3.2596  0.6008
 4356SOL    HW224531   3.256   0.992   0.978 -0.2331  0.4456 -1.1443
 4357SOL     OW24532   2.738   4.619   8.700 -0.7140  0.7396  0.0141
 4357SOL    HW124533   2.750   4.565   8.622  0.3034  1.6690 -0.4688
 4357SOL    HW224534   2.682   4.562   8.753  1.0768  0.6852  1.8853
 4358SOL     OW24535   2.285   2.387   3.704 -0.4388 -0.1425 -0.4595
 4358SOL    HW124536   2.325   2.428   3.628 -0.5486 -1.3082 -1.1412
 4358SOL    HW224537   2.218   2.326   3.674 -0.7428  0.7331 -1.5403
 4359SOL     OW24538   0.968   3.274   7.945  0.0993  0.2986  0.0443
 4359SOL    HW124539   0.899   3.341   7.946 -1.9792 -1.8585 -1.0526
 4359SOL    HW224540   0.934   3.224   8.019 -1.6353 -0.1685 -1.0626
 4360SOL     OW24541   2.561   2.465  13.328 -0.7044 -0.4681  0.5498
 4360SOL    HW124542   2.585   2.491  13.239 -0.2676 -1.4306  0.3883
 4360SOL    HW224543   2.526   2.548  13.358 -0.4550 -0.0194 -0.3812
 4361SOL     OW24544   0.417   0.172   4.680 -0.5160  0.1074  0.0429
 4361SOL    HW124545   0.455   0.196   4.765 -1.0285  1.8893 -0.2286
 4361SOL    HW224546   0.326   0.200   4.676 -0.4174  0.2984 -0.7934
 4362SOL     OW24547   2.356   0.960   0.459  0.0749 -0.4514 -0.6316
 4362SOL    HW124548   2.335   1.050   0.434  2.3401 -0.0305 -1.0476
 4362SOL    HW224549   2.437   0.943   0.412 -0.8020 -1.1137 -1.8785
 4363SOL     OW24550   0.454   0.304   6.630  0.4358 -0.0059  0.1960
 4363SOL    HW124551   0.424   0.366   6.696 -3.8321 -1.1057 -0.6957
 4363SOL    HW224552   0.430   0.340   6.545 -2.7054 -0.3718  0.9243
 4364SOL     OW24553   4.659   0.452  15.807 -0.0759  0.2301 -0.6749
 4364SOL    HW124554   4.601   0.523  15.837  0.5078 -0.3378  1.8222
 4364SOL    HW224555   0.014   0.492  15.839 -1.1829  3.0330 -1.3342
 4365SOL     OW24556   4.082   1.681   3.530  0.2715 -0.0262  0.2458
 4365SOL    HW124557   3.994   1.716   3.516 -0.2646 -2.0232 -1.3856
 4365SOL    HW224558   4.081   1.672   3.625  1.2794 -0.2706  0.2370
 4366SOL     OW24559   2.090   0.300  11.941  0.1844 -0.3610  0.1474
 4366SOL    HW124560   2.048   0.355  12.007 -0.8068 -2.1864  1.0224
 4366SOL    HW224561   2.070   0.209  11.961  0.3392 -0.2188  0.9316
 4367SOL     OW24562   2.366   3.521   7.195  0.6824 -0.5301  0.1612
 4367SOL    HW124563   2.431   3.579   7.154  1.8860 -1.0108  1.3745
 4367SOL    HW224564   2.418   3.442   7.213 -1.1055 -1.6954  0.1823
 4368SOL     OW24565   2.743   2.289   6.357 -0.4757  0.1259 -0.3587
 4368SOL    HW124566   2.719   2.292   6.450 -2.8833 -0.6709 -0.9795
 4368SOL    HW224567   2.657   2.274   6.319 -0.5854 -0.4170  0.0960
 4369SOL     OW24568   0.760   0.810   0.419 -0.5480  0.2315  0.2916
 4369SOL    HW124569   0.719   0.739   0.468  1.4209 -1.8078 -1.0155
 4369SOL    HW224570   0.716   0.803   0.334  1.6153  1.2129 -0.9149
 4370SOL     OW24571   4.546   0.321   2.517  0.5922  0.3200 -0.5353
 4370SOL    HW124572   4.587   0.236   2.536 -1.3748 -0.4969  0.0785
 4370SOL    HW224573   4.539   0.309   2.422 -1.0251  0.7332 -0.4645
 4371SOL     OW24574   4.239   0.228   1.094 -0.4490 -0.3850 -0.0181
 4371SOL    HW124575   4.259   0.148   1.142  1.3647 -0.8710 -1.6216
 4371SOL    HW224576   4.300   0.293   1.131 -0.9976 -0.2588  0.6697
 4372SOL     OW24577   4.626   1.059   6.816 -0.0360  0.5193  0.2725
 4372SOL    HW124578   4.673   1.007   6.750 -0.5397  0.5721 -0.1246
 4372SOL    HW224579   4.552   1.082   6.760  0.5866 -0.3792 -0.9277
 4373SOL     OW24580   1.193   4.282   6.032  0.7678 -0.4556 -0.1535
 4373SOL    HW124581   1.243   4.273   5.951  0.6775  1.9258 -0.4926
 4373SOL    HW224582   1.198   4.200   6.081 -3.0047 -0.3916  0.2783
 4374SOL     OW24583   0.826   3.017   4.673  0.0006  0.3410  0.6548
 4374SOL    HW124584   0.762   3.063   4.727  0.1844  0.0577  1.1165
 4374SOL    HW224585   0.893   3.077   4.638  0.3100 -0.2487  0.2237
 4375SOL     OW24586   0.642   2.431   5.805 -0.2987 -0.1333  0.5801
 4375SOL    HW124587   0.707   2.493   5.838 -0.2423  0.6669 -1.0315
 4375SOL    HW224588   0.694   2.366   5.757  1.5287  1.3701  0.5300
 4376SOL     OW24589   0.423   4.591   2.422 -0.2899 -0.3287 -0.2912
 4376SOL    HW124590   0.425   4.532   2.346 -0.5125  1.7977 -1.9265
 4376SOL    HW224591   0.328   4.600   2.421 -0.3147 -0.6009 -0.8498
 4377SOL     OW24592   4.191   4.303   2.492  0.9245 -0.5444  0.0275
 4377SOL    HW124593   4.105   4.338   2.469  0.3878 -0.8397  1.5812
 4377SOL    HW224594   4.167   4.216   2.459 -0.6975  0.1911 -0.6922
 4378SOL     OW24595   3.574   1.853   4.695  0.7108  0.0153  0.7618
 4378SOL    HW124596   3.599   1.794   4.766 -1.3397 -2.1855 -0.3383
 4378SOL    HW224597   3.643   1.918   4.698 -0.1453  0.9466  0.0453
 4379SOL     OW24598   0.538   3.572   7.036  0.1000 -0.5161 -0.1120
 4379SOL    HW124599   0.541   3.478   7.053  0.7129 -0.3823  0.5375
 4379SOL    HW224600   0.476   3.600   7.103  1.5021 -1.4724  1.5836
 4380SOL     OW24601   2.857   4.114   5.775  0.5982 -0.5005  0.0033
 4380SOL    HW124602   2.868   4.184   5.839  1.9820 -0.2375 -0.5088
 4380SOL    HW224603   2.914   4.043   5.806 -0.0553 -0.1795  1.9097
 4381SOL     OW24604   1.498   4.339   3.227 -0.2929  0.3377 -0.6555
 4381SOL    HW124605   1.534   4.407   3.171 -0.4667  2.2040  1.5092
 4381SOL    HW224606   1.407   4.349   3.198 -0.3715 -0.3140 -0.6399
 4382SOL     OW24607   3.210   1.773  12.004 -0.4849  0.1497  0.1201
 4382SOL    HW124608   3.274   1.829  11.961 -1.9053  1.7615  0.1018
 4382SOL    HW224609   3.131   1.805  11.960 -0.7781 -0.0970  0.4651
 4383SOL     OW24610   4.025   1.741  16.477  0.9815  0.3271  0.2961
 4383SOL    HW124611   3.948   1.797  16.463 -0.2750 -1.1660  1.2273
 4383SOL    HW224612   3.994   1.697  16.556 -0.8767 -0.1593 -0.6972
 4384SOL     OW24613   4.164   2.675  13.602 -0.2332  0.0925 -0.0849
 4384SOL    HW124614   4.079   2.679  13.647 -0.0750  2.1900  0.0162
 4384SOL    HW224615   4.165   2.586  13.566 -0.2838  1.2252 -2.8941
 4385SOL     OW24616   1.482   1.274   7.490  0.4356 -0.9504  0.2761
 4385SOL    HW124617   1.410   1.236   7.441 -1.4312  0.9196  1.5714
 4385SOL    HW224618   1.552   1.243   7.433  1.4717 -0.0308  1.0527
 4386SOL     OW24619   4.347   4.602   9.167  0.1360  0.2208 -0.0354
 4386SOL    HW124620   4.383   4.576   9.252 -1.1308 -0.1726  0.3733
 4386SOL    HW224621   4.269   4.649   9.195 -1.0082 -1.1642 -0.8828
 4387SOL     OW24622   2.131   2.078  11.804 -0.5639 -0.7755  0.3704
 4387SOL    HW124623   2.106   1.986  11.806 -0.9458 -0.7058 -1.1517
 4387SOL    HW224624   2.145   2.093  11.898  1.8831 -2.1190  0.2099
 4388SOL     OW24625   0.099   3.482   1.499 -0.1438  0.3182  0.2044
 4388SOL    HW124626   0.113   3.397   1.458  2.8208  0.8535  0.0928
 4388SOL    HW224627   0.018   3.461   1.545  0.8576 -2.0604  0.8441
 4389SOL     OW24628   2.474   2.029   7.315 -0.7795 -0.3968 -0.0369
 4389SOL    HW124629   2.510   1.945   7.289  1.0518  0.6079 -0.7228
 4389SOL    HW224630   2.405   2.009   7.379 -2.8474  0.7418 -1.9082
 4390SOL     OW24631   4.580   0.907   5.436 -0.0502  0.3892  0.9478
 4390SOL    HW124632   4.654   0.902   5.376 -0.1726  0.6335  0.7776
 4390SOL    HW224633   4.610   0.978   5.492 -0.3568  0.8364  0.5469
 4391SOL     OW24634   2.533   1.235   1.626  0.3054 -0.2699 -0.0286
 4391SOL    HW124635   2.620   1.260   1.658  0.4259  0.4474 -0.9012
 4391SOL    HW224636   2.540   1.205   1.535  1.6688 -0.8315  0.2770
 4392SOL     OW24637   3.309   0.808   6.613 -0.0907 -0.1134 -0.4270
 4392SOL    HW124638   3.227   0.822   6.661  0.1852  1.7975 -0.5415
 4392SOL    HW224639   3.365   0.787   6.687 -2.6983  0.7576  1.7714
 4393SOL     OW24640   4.361   4.652   6.267 -0.0859  0.0034  0.5520
 4393SOL    HW124641   4.334   4.611   6.349 -1.4392  1.8452  1.0318
 4393SOL    HW224642   4.278   4.689   6.237  0.6570  1.8665  0.7951
 4394SOL     OW24643   4.502   1.829   6.183 -0.1733 -0.0018  0.5758
 4394SOL    HW124644   4.553   1.752   6.210 -0.3796  0.0048  0.9962
 4394SOL    HW224645   4.491   1.876   6.265 -0.0928 -1.3311  1.3600
 4395SOL     OW24646   3.796   4.624  10.655 -0.2743 -0.2514  0.1571
 4395SOL    HW124647   3.763   4.712  10.639  0.4048  0.0337  0.3390
 4395SOL    HW224648   3.890   4.641  10.647  0.5458 -4.0814  1.3461
 4396SOL     OW24649   0.475   0.949   5.019  0.3674  0.1011 -0.7084
 4396SOL    HW124650   0.472   0.862   5.060  0.5471  0.2896 -0.2986
 4396SOL    HW224651   0.495   1.003   5.095 -3.2867  1.7976 -0.9605
 4397SOL     OW24652   3.193   3.513   3.395 -0.3962  0.4802 -0.2853
 4397SOL    HW124653   3.222   3.430   3.356 -1.9565  0.3274 -1.0988
 4397SOL    HW224654   3.254   3.568   3.347 -0.6883 -0.3391 -1.5864
 4398SOL     OW24655   2.265   1.349  10.881 -0.4540 -0.0060  0.4444
 4398SOL    HW124656   2.344   1.386  10.844  0.2324  0.0279  1.9263
 4398SOL    HW224657   2.236   1.414  10.946 -0.5801  0.2136  0.1655
 4399SOL     OW24658   1.986   1.124   2.119 -0.3064 -0.4395 -0.4471
 4399SOL    HW124659   2.037   1.079   2.052 -0.0311  0.3038 -0.7364
 4399SOL    HW224660   2.058   1.154   2.173 -1.0386 -2.4634  1.6667
 4400SOL     OW24661   2.838   2.874  10.449  0.0531 -0.2127  0.2901
 4400SOL    HW124662   2.785   2.867  10.369 -0.1811  2.4126  0.2092
 4400SOL    HW224663   2.871   2.963  10.438  0.0694 -0.2918 -0.2974
 4401SOL     OW24664   3.510   3.739  10.833  0.4751  0.3963 -0.0915
 4401SOL    HW124665   3.522   3.666  10.895  1.2762  1.1339  0.6161
 4401SOL    HW224666   3.542   3.812  10.886 -2.6860  1.2277  0.6311
 4402SOL     OW24667   3.183   3.709   7.913  0.4620  0.2494  0.2268
 4402SOL    HW124668   3.218   3.706   7.824 -0.4209 -0.6615 -0.0945
 4402SOL    HW224669   3.248   3.644   7.939  0.6101  1.2928  2.4668
 4403SOL     OW24670   3.166   0.001   6.514 -0.2249 -0.8230  1.3022
 4403SOL    HW124671   3.232   0.060   6.552 -0.4079 -1.5079  2.6803
 4403SOL    HW224672   3.217   4.648   6.495 -1.2248 -0.5806 -2.3681
 4404SOL     OW24673   3.122   0.902   6.854 -0.2976 -0.2079 -0.2555
 4404SOL    HW124674   3.057   0.842   6.817  0.0706 -0.5211 -0.3923
 4404SOL    HW224675   3.125   0.866   6.943  0.4683 -0.9631 -0.5937
 4405SOL     OW24676   3.396   2.583   7.389  0.6168 -0.8038 -0.3522
 4405SOL    HW124677   3.444   2.539   7.459 -0.4468 -0.7599  0.4037
 4405SOL    HW224678   3.363   2.663   7.429  2.1491 -0.6984  0.6730
 4406SOL     OW24679   1.028   4.656   7.006  0.3769  0.0191  0.4219
 4406SOL    HW124680   1.106   4.642   6.952  0.4549  0.0199  0.5340
 4406SOL    HW224681   1.020   0.026   7.002 -1.7921 -0.2060 -0.7746
 4407SOL     OW24682   3.446   1.922  15.762  0.2177 -0.0539 -0.0741
 4407SOL    HW124683   3.366   1.922  15.710  0.0544 -3.4148  0.1279
 4407SOL    HW224684   3.444   1.837  15.806  0.3390 -0.1834 -0.3200
 4408SOL     OW24685   3.923   2.899  15.426  0.4603  0.0223  0.1324
 4408SOL    HW124686   3.863   2.925  15.495  1.5405 -0.3745  1.2165
 4408SOL    HW224687   3.880   2.955  15.361 -1.3137  0.2607  1.5216
 4409SOL     OW24688   1.293   0.872   0.579 -0.6782 -0.5195  0.1713
 4409SOL    HW124689   1.300   0.967   0.573 -1.3475 -0.4451  0.6363
 4409SOL    HW224690   1.388   0.863   0.589 -0.4659 -2.3401 -3.2842
 4410SOL     OW24691   1.500   0.288   7.441 -0.1895 -0.2827  0.1810
 4410SOL    HW124692   1.492   0.248   7.527  1.0613 -0.5346  0.1708
 4410SOL    HW224693   1.493   0.382   7.454  0.9280 -0.0817 -0.7010
 4411SOL     OW24694   3.915   4.536   2.839 -0.1356 -0.2392  0.2399
 4411SOL    HW124695   3.868   4.469   2.789  1.1647 -0.1854 -1.0477
 4411SOL    HW224696   3.986   4.552   2.777 -1.4419  2.8177 -0.4811
 4412SOL     OW24697   2.614   3.534   4.759 -0.7036 -0.4802  0.1730
 4412SOL    HW124698   2.558   3.478   4.706  0.0191  2.1211 -3.3373
 4412SOL    HW224699   2.583   3.536   4.850  0.1946 -1.4250  0.5032
 4413SOL     OW24700   4.270   0.762   7.849 -0.3581 -0.0518 -0.1581
 4413SOL    HW124701   4.236   0.755   7.939  0.8384 -0.1970  0.2855
 4413SOL    HW224702   4.202   0.712   7.805  0.2284 -0.5418 -0.5002
 4414SOL     OW24703   3.947   4.514   6.774  0.3837  0.1776 -0.0660
 4414SOL    HW124704   3.959   4.420   6.759  2.0941 -0.2667  3.9457
 4414SOL    HW224705   4.035   4.544   6.752  0.5440 -1.2312 -1.3526
 4415SOL     OW24706   0.706   2.196   8.555 -0.4187  0.6119  0.2749
 4415SOL    HW124707   0.743   2.110   8.572  2.1129  1.8426  1.0118
 4415SOL    HW224708   0.693   2.219   8.647 -1.5070  4.6666 -0.9005
 4416SOL     OW24709   3.031   1.250   9.502 -0.2549  0.1361 -0.1709
 4416SOL    HW124710   3.091   1.234   9.576 -2.2627 -0.2834  1.3616
 4416SOL    HW224711   3.040   1.345   9.504  2.9643 -0.1586 -0.7641
 4417SOL     OW24712   1.161   1.900   5.955 -0.1552  0.1045  0.1304
 4417SOL    HW124713   1.227   1.831   5.955 -0.2571  0.0074 -0.5025
 4417SOL    HW224714   1.083   1.863   5.912  1.3311 -1.2510 -1.3941
 4418SOL     OW24715   1.829   0.734  11.944  0.3402  0.4170 -0.4601
 4418SOL    HW124716   1.919   0.718  11.974  0.0056 -2.5179 -1.0735
 4418SOL    HW224717   1.788   0.758  12.028  0.6759 -0.6168  0.0038
 4419SOL     OW24718   0.305   1.410  10.185  0.0246  0.2999  0.3093
 4419SOL    HW124719   0.374   1.448  10.239  0.7833  1.5102 -1.5024
 4419SOL    HW224720   0.232   1.470  10.201 -0.7682 -1.1713  2.1435
 4420SOL     OW24721   2.063   1.838   6.004 -0.1445 -0.1604 -0.2626
 4420SOL    HW124722   2.031   1.806   5.920  2.8995 -0.3474 -1.3449
 4420SOL    HW224723   1.983   1.880   6.037 -1.5519 -2.1602 -1.1462
 4421SOL     OW24724   1.567   1.658   2.628 -0.1749  0.2440  0.4806
 4421SOL    HW124725   1.589   1.629   2.540 -0.2349 -0.0801  0.5739
 4421SOL    HW224726   1.564   1.577   2.679 -0.9372  1.2230  2.0054
 4422SOL     OW24727   4.502   0.664  10.769 -0.5195 -0.1716  0.0630
 4422SOL    HW124728   4.562   0.715  10.715  0.3691  0.4440  1.6553
 4422SOL    HW224729   4.428   0.724  10.769 -0.0618  0.4204 -2.4727
 4423SOL     OW24730   1.424   1.392   1.969 -0.1636 -0.1522 -0.2192
 4423SOL    HW124731   1.351   1.443   2.005  0.7723  1.6651 -0.8852
 4423SOL    HW224732   1.485   1.394   2.043  1.5804 -0.4006 -1.6476
 4424SOL     OW24733   4.601   2.511   2.340 -0.3668 -0.1172  0.1947
 4424SOL    HW124734   4.621   2.586   2.284 -2.7852  0.0832 -0.3968
 4424SOL    HW224735   4.506   2.503   2.341 -0.3607 -0.1639  0.3892
 4425SOL     OW24736   0.392   4.047   6.782 -0.1810  0.1668  0.1791
 4425SOL    HW124737   0.444   3.983   6.734  0.8164  2.8048 -2.2482
 4425SOL    HW224738   0.355   3.982   6.842 -0.2498 -0.0297 -0.0798
 4426SOL     OW24739   3.654   4.602   1.430  0.0190  0.2866 -0.4269
 4426SOL    HW124740   3.581   4.582   1.372  2.0045 -0.7624 -2.5534
 4426SOL    HW224741   3.633   4.695   1.438  2.9211  0.8392  0.5403
 4427SOL     OW24742   1.795   1.752   6.392  0.5605 -0.1975  0.7532
 4427SOL    HW124743   1.794   1.693   6.467  0.6209 -1.4360 -0.2308
 4427SOL    HW224744   1.769   1.700   6.316 -1.4603  0.9429  0.6570
 4428SOL     OW24745   1.876   2.484  16.789 -0.6007  0.2051  0.9061
 4428SOL    HW124746   1.814   2.551  16.820  0.5748  1.9419 -0.4621
 4428SOL    HW224747   1.932   2.466  16.864 -0.8957 -0.4487  0.9717
 4429SOL     OW24748   1.929   0.283   6.336 -0.7078  0.1046  0.1922
 4429SOL    HW124749   1.906   0.346   6.404  1.4155  0.1556  0.8504
 4429SOL    HW224750   1.998   0.236   6.382 -1.6772 -1.8538 -0.3347
 4430SOL     OW24751   0.224   1.216   5.883  0.0775 -0.2298  0.5900
 4430SOL    HW124752   0.132   1.192   5.885 -0.1201  0.4511 -0.2899
 4430SOL    HW224753   0.227   1.252   5.971  1.3207 -2.2346  1.3800
 4431SOL     OW24754   1.641   2.181   7.449  0.2347 -0.3804  0.1145
 4431SOL    HW124755   1.563   2.224   7.413  0.2850 -1.9540 -1.9033
 4431SOL    HW224756   1.620   2.090   7.425 -0.3501 -0.5068  1.0864
 4432SOL     OW24757   4.486   1.747   5.787  0.1464 -0.1946 -0.0553
 4432SOL    HW124758   4.415   1.776   5.730 -0.5524 -3.0115 -0.6447
 4432SOL    HW224759   4.529   1.830   5.806 -2.5787  0.3699  3.6279
 4433SOL     OW24760   2.398   1.120   0.710 -0.8839  0.4751  0.0807
 4433SOL    HW124761   2.422   1.143   0.800 -0.3285  0.7475 -0.1363
 4433SOL    HW224762   2.486   1.127   0.673 -1.4269  1.5933 -0.9679
 4434SOL     OW24763   4.237   0.352   3.904  0.0132 -0.4385 -0.0812
 4434SOL    HW124764   4.150   0.321   3.878 -0.0422 -0.0030 -0.4148
 4434SOL    HW224765   4.294   0.313   3.838 -2.6695 -2.5765 -1.1638
 4435SOL     OW24766   2.145   1.938  16.353 -0.1077  0.3513  0.7821
 4435SOL    HW124767   2.117   2.016  16.401 -1.3229 -0.4036  1.3056
 4435SOL    HW224768   2.236   1.961  16.335  0.1742 -1.3886  0.0120
 4436SOL     OW24769   2.585   3.975  16.694 -0.4612 -0.0886 -0.0192
 4436SOL    HW124770   2.542   4.000  16.776  1.2926  2.4754  0.1002
 4436SOL    HW224771   2.504   3.967  16.644  0.3767 -0.1370 -1.3492
 4437SOL     OW24772   4.176   0.180   6.871 -0.6392  0.0164  0.4233
 4437SOL    HW124773   4.266   0.202   6.894 -0.8183 -0.7783  1.8819
 4437SOL    HW224774   4.138   0.257   6.828 -0.8347 -0.7540 -0.7822
 4438SOL     OW24775   3.456   2.756   5.213  0.0852 -0.1483  0.0904
 4438SOL    HW124776   3.377   2.713   5.247 -1.3173  0.8843 -1.8588
 4438SOL    HW224777   3.512   2.772   5.288  0.5526 -0.6628 -0.1426
 4439SOL     OW24778   2.004   0.415  15.508 -0.3076  1.0314  0.3564
 4439SOL    HW124779   1.962   0.332  15.486 -0.6611  0.8104  1.8547
 4439SOL    HW224780   2.033   0.446  15.422  1.1896 -1.8838 -0.1941
 4440SOL     OW24781   3.331   1.074   2.956  0.1920  0.1725 -0.2589
 4440SOL    HW124782   3.283   1.032   2.884 -1.0064  0.9543  0.0883
 4440SOL    HW224783   3.345   1.004   3.020  0.8056  1.4593  0.9857
 4441SOL     OW24784   4.149   3.708   5.333  0.1993 -0.1644 -0.6356
 4441SOL    HW124785   4.182   3.747   5.253 -0.3222 -0.0684 -0.7962
 4441SOL    HW224786   4.058   3.684   5.318 -0.8211  2.5392  1.1795
 4442SOL     OW24787   1.861   1.410   5.552  0.2102 -0.6269 -0.4724
 4442SOL    HW124788   1.824   1.483   5.600  1.4016 -0.4139  0.1391
 4442SOL    HW224789   1.782   1.379   5.508 -0.2934 -0.1989  0.1459
 4443SOL     OW24790   1.227   4.546   0.035 -0.2416  0.2323 -0.6955
 4443SOL    HW124791   1.238   4.580   0.124 -3.9763  1.4882 -0.7380
 4443SOL    HW224792   1.227   4.620  17.678 -0.1309 -0.1496 -1.1601
 4444SOL     OW24793   2.720   1.569   1.119 -0.5804  0.0969 -0.0582
 4444SOL    HW124794   2.778   1.642   1.101 -0.3948  0.4095  1.8593
 4444SOL    HW224795   2.727   1.571   1.214 -1.6118  1.1714 -0.0158
 4445SOL     OW24796   3.965   2.436   6.298 -0.0482 -0.3817  0.5662
 4445SOL    HW124797   3.966   2.353   6.250 -0.5911  0.8167 -1.5680
 4445SOL    HW224798   3.983   2.507   6.235  1.2198 -1.4947 -0.3139
 4446SOL     OW24799   4.278   1.751   8.684  0.2761  0.3059  0.2323
 4446SOL    HW124800   4.282   1.710   8.598 -1.4627 -0.2835  0.4337
 4446SOL    HW224801   4.215   1.693   8.728 -1.2019  2.3028  0.7443
 4447SOL     OW24802   3.380   0.284   1.042  0.9200 -0.6027 -0.1218
 4447SOL    HW124803   3.387   0.212   1.105  0.1685 -0.9879 -0.4841
 4447SOL    HW224804   3.424   0.357   1.085 -0.4165  0.1946 -0.1092
 4448SOL     OW24805   0.988   3.819   0.588 -0.6955 -0.1236 -0.0956
 4448SOL    HW124806   1.065   3.876   0.580  0.1074 -1.1022  0.5806
 4448SOL    HW224807   1.028   3.737   0.560 -0.0988 -0.0971  0.6506
 4449SOL     OW24808   1.307   1.450   2.516 -0.4440 -0.1695 -1.1497
 4449SOL    HW124809   1.376   1.385   2.526 -1.1643 -0.7849 -0.1704
 4449SOL    HW224810   1.345   1.523   2.468  1.8725 -1.1322 -0.7888
 4450SOL     OW24811   0.544   4.468   3.457  0.4686 -0.7660 -0.1868
 4450SOL    HW124812   0.498   4.511   3.385 -0.9039  0.6861  1.5624
 4450SOL    HW224813   0.566   4.380   3.427  1.0681 -0.3310 -1.0274
 4451SOL     OW24814   0.661   0.358   2.745 -0.1166  0.3184  0.3860
 4451SOL    HW124815   0.718   0.321   2.678  1.9569  2.9307  0.7009
 4451SOL    HW224816   0.638   0.445   2.712  0.4403  0.1954 -0.3266
 4452SOL     OW24817   0.965   2.626   8.039 -0.3411 -0.0661 -0.4089
 4452SOL    HW124818   0.994   2.625   7.948 -1.2673 -1.7776 -0.6929
 4452SOL    HW224819   1.021   2.553   8.066  1.2571  1.1479 -0.4200
 4453SOL     OW24820   2.675   2.496   5.854 -0.7140 -0.4267  0.2159
 4453SOL    HW124821   2.732   2.425   5.882  2.0231  1.3497 -0.8119
 4453SOL    HW224822   2.650   2.458   5.770 -1.9864  2.9682 -0.9445
 4454SOL     OW24823   0.788   0.055  12.716 -0.2246  0.1113  0.2304
 4454SOL    HW124824   0.853   4.711  12.710 -1.5687 -1.1254  0.0205
 4454SOL    HW224825   0.807   0.099  12.798 -2.0293  0.4869  0.4412
 4455SOL     OW24826   2.318   4.635   7.690 -0.3421  0.8735  0.2653
 4455SOL    HW124827   2.367   4.570   7.639  0.1442  1.1534  0.3724
 4455SOL    HW224828   2.364   4.626   7.774 -0.3536  0.4499  0.2243
 4456SOL     OW24829   1.292   1.414   3.862 -0.3707  0.6333 -0.2147
 4456SOL    HW124830   1.331   1.422   3.775 -0.0725 -1.3687 -0.2579
 4456SOL    HW224831   1.197   1.422   3.849 -1.0216 -1.6867  3.1668
 4457SOL     OW24832   2.268   1.211  11.371  0.4049 -0.2658  0.4788
 4457SOL    HW124833   2.246   1.126  11.333  0.3232 -0.1063  0.1653
 4457SOL    HW224834   2.344   1.233  11.317 -0.5939 -1.4406 -1.4202
 4458SOL     OW24835   2.612   3.024   2.267 -0.2418  0.5945  0.0147
 4458SOL    HW124836   2.591   3.111   2.301  0.3685  0.3102  1.0976
 4458SOL    HW224837   2.534   3.022   2.211 -0.6661  1.8983  0.5547
 4459SOL     OW24838   4.003   4.297   9.352  0.1548  0.1231 -0.4766
 4459SOL    HW124839   3.958   4.376   9.382 -2.6731 -1.3453 -0.9141
 4459SOL    HW224840   4.043   4.270   9.435 -1.0217  2.2745  0.7845
 4460SOL     OW24841   3.657   3.295  12.125  0.0358 -0.3202  0.0939
 4460SOL    HW124842   3.719   3.223  12.109 -2.3137 -2.2387 -0.4232
 4460SOL    HW224843   3.591   3.258  12.184  0.1297 -1.5984 -0.5909
 4461SOL     OW24844   0.827   0.190   2.978  0.2583 -0.6719  0.1990
 4461SOL    HW124845   0.888   0.225   3.043  0.6749 -0.9066 -0.0717
 4461SOL    HW224846   0.865   0.219   2.895 -0.2856 -2.4420 -0.6598
 4462SOL     OW24847   3.447   0.632   8.594  0.4467  0.4866  0.6931
 4462SOL    HW124848   3.353   0.610   8.595 -0.3479  3.7547 -1.9925
 4462SOL    HW224849   3.455   0.703   8.657 -0.1226  0.0891  1.2251
 4463SOL     OW24850   4.092   0.784  13.459  0.6395  0.2456 -0.4872
 4463SOL    HW124851   4.024   0.799  13.525 -0.1402 -0.3872 -1.1439
 4463SOL    HW224852   4.068   0.701  13.419 -0.3682 -0.3479  1.3835
 4464SOL     OW24853   3.280   0.370   9.001 -0.0895  0.1303  0.0262
 4464SOL    HW124854   3.257   0.307   8.933 -1.1542  1.7163 -1.0932
 4464SOL    HW224855   3.366   0.403   8.977  0.6501 -3.1686 -1.9123
 4465SOL     OW24856   4.687   1.912   9.973  0.2394 -0.2356  0.0779
 4465SOL    HW124857   4.652   1.853  10.040  1.4036 -0.3050  0.6146
 4465SOL    HW224858   0.039   1.864   9.946  1.5882  2.7979 -1.3665
 4466SOL     OW24859   1.379   4.607  14.401 -0.3826 -0.1026 -0.2701
 4466SOL    HW124860   1.311   4.544  14.380 -3.0189  2.8223 -0.5053
 4466SOL    HW224861   1.355   4.653  14.481  1.3345  1.5798 -0.6996
 4467SOL     OW24862   3.502   1.114   8.471 -0.0945 -0.3460  0.1429
 4467SOL    HW124863   3.468   1.061   8.399  2.4587 -2.8777  0.8352
 4467SOL    HW224864   3.578   1.154   8.429 -0.5642 -0.1632 -0.5329
 4468SOL     OW24865   3.123   2.248   5.692 -0.0651  0.0206  0.6647
 4468SOL    HW124866   3.205   2.207   5.719  1.8408  2.1726 -1.8599
 4468SOL    HW224867   3.094   2.186   5.626  0.5844  0.0474  0.3591
 4469SOL     OW24868   3.209   3.568   6.286  0.0097  0.0966  0.2461
 4469SOL    HW124869   3.253   3.647   6.256  0.3423  0.0337  0.5602
 4469SOL    HW224870   3.277   3.510   6.319  0.5943  1.5841  1.6433
 4470SOL     OW24871   4.256   1.583   6.683 -0.2449 -0.5468  0.6268
 4470SOL    HW124872   4.210   1.638   6.620  2.3166 -0.8722 -1.5244
 4470SOL    HW224873   4.207   1.501   6.678  0.5908 -1.0116  0.0697
 4471SOL     OW24874   2.994   1.521   6.121  0.6889 -0.2711 -0.1369
 4471SOL    HW124875   3.029   1.468   6.050 -0.7369  0.1661 -1.1651
 4471SOL    HW224876   2.915   1.564   6.088 -1.1935 -1.1141  3.2780
 4472SOL     OW24877   1.894   1.454   0.054  0.3870 -0.3104 -0.0521
 4472SOL    HW124878   1.967   1.511   0.033  0.5201 -0.6713 -0.5707
 4472SOL    HW224879   1.828   1.475  17.691 -1.5105  1.0853  2.2664
 4473SOL     OW24880   0.379   4.037   1.177  0.0851 -0.0298  0.2455
 4473SOL    HW124881   0.362   4.021   1.084 -0.7744  0.9549  0.2281
 4473SOL    HW224882   0.465   4.080   1.179  0.1317 -0.1632  1.0457
 4474SOL     OW24883   2.682   1.715   1.553 -0.3572 -0.3796 -0.3206
 4474SOL    HW124884   2.642   1.644   1.503  1.6354 -1.0868 -0.9164
 4474SOL    HW224885   2.609   1.777   1.549  0.5549  0.5299 -3.2485
 4475SOL     OW24886   2.891   1.169  16.953 -0.1865 -0.1288 -0.1277
 4475SOL    HW124887   2.880   1.120  17.034 -1.5767  0.0565 -0.2103
 4475SOL    HW224888   2.926   1.249  16.993  0.7352 -1.4658  1.7104
 4476SOL     OW24889   2.295   0.478  11.802 -0.3106 -0.2884  0.2146
 4476SOL    HW124890   2.248   0.418  11.860 -0.1609 -1.2275 -0.6294
 4476SOL    HW224891   2.231   0.484  11.732  1.4898  1.0104 -1.3319
 4477SOL     OW24892   1.168   1.416  13.839  0.4436 -0.2006 -0.3050
 4477SOL    HW124893   1.186   1.493  13.893 -0.5090 -0.2798  0.1170
 4477SOL    HW224894   1.262   1.398  13.829  0.4336 -1.8033  2.3425
 4478SOL     OW24895   0.621   1.169   5.699 -0.5507 -0.3722 -0.6101
 4478SOL    HW124896   0.564   1.162   5.776 -1.7664  3.0313 -1.2059
 4478SOL    HW224897   0.710   1.168   5.735 -1.2237 -1.3317  1.0518
 4479SOL     OW24898   4.206   4.542   5.985 -0.3342  0.1091 -0.5733
 4479SOL    HW124899   4.186   4.628   5.948 -1.8027  0.1905  0.4220
 4479SOL    HW224900   4.241   4.499   5.907 -3.0613 -3.5062  0.1974
 4480SOL     OW24901   2.330   0.797   3.413 -0.0297  0.0591  0.0395
 4480SOL    HW124902   2.330   0.846   3.495  0.4581  0.2861 -0.0982
 4480SOL    HW224903   2.418   0.812   3.378  0.0708 -0.3413  0.1218
 4481SOL     OW24904   3.723   3.538   8.196  0.3279  0.3154 -0.1048
 4481SOL    HW124905   3.633   3.510   8.212  0.4173 -0.1974 -0.5354
 4481SOL    HW224906   3.735   3.501   8.109 -2.0048 -1.0334  0.1791
 4482SOL     OW24907   0.912   2.803  11.229  0.4160  0.0748  0.1750
 4482SOL    HW124908   0.866   2.807  11.313  0.6944  4.3184  0.1121
 4482SOL    HW224909   0.943   2.712  11.226 -1.6269 -0.5677 -1.1939
 4483SOL     OW24910   3.713   4.689  12.975  0.0877  0.0763  0.1853
 4483SOL    HW124911   3.681   4.607  12.938  2.5018 -1.9225  2.5536
 4483SOL    HW224912   3.658   4.677  13.052  0.7520  2.8007  1.1028
 4484SOL     OW24913   2.026   1.774   3.048 -0.2780  0.7735  0.2849
 4484SOL    HW124914   1.992   1.829   2.978 -0.5976 -3.0810 -2.5698
 4484SOL    HW224915   2.112   1.814   3.057  0.5732 -0.7115 -1.1753
 4485SOL     OW24916   3.137   2.545   7.574  0.6570 -0.2906 -0.2962
 4485SOL    HW124917   3.051   2.565   7.613  0.1094 -0.9239 -1.1851
 4485SOL    HW224918   3.130   2.570   7.482  1.2166  1.0738  0.0335
 4486SOL     OW24919   1.367   1.016  10.900  0.2092  0.2544 -0.0359
 4486SOL    HW124920   1.411   0.933  10.917 -0.0927 -0.0594 -0.7726
 4486SOL    HW224921   1.326   1.004  10.814  3.9665  0.1062 -1.8012
 4487SOL     OW24922   0.840   0.213   7.740  0.4394 -0.2320  0.0220
 4487SOL    HW124923   0.859   0.252   7.655  0.5317  1.7023  0.9356
 4487SOL    HW224924   0.890   0.132   7.730 -0.6975 -0.9200 -0.0982
 4488SOL     OW24925   1.148   4.323   4.949  0.6676 -0.1050 -0.3431
 4488SOL    HW124926   1.124   4.263   4.878 -1.5467  2.1603 -1.5149
 4488SOL    HW224927   1.208   4.382   4.904  1.3966  0.0533  0.8481
 4489SOL     OW24928   3.136   0.447  16.594  0.4477 -0.2333  0.2695
 4489SOL    HW124929   3.067   0.462  16.530 -0.4037 -1.9849  0.7922
 4489SOL    HW224930   3.199   0.388  16.552  1.1142 -0.2481  1.3029
 4490SOL     OW24931   0.130   1.616   4.691  0.0749  0.1648 -0.7919
 4490SOL    HW124932   0.172   1.632   4.607 -0.9523  4.0338 -0.5713
 4490SOL    HW224933   0.037   1.610   4.668  0.4548 -0.7967 -2.0715
 4491SOL     OW24934   4.520   1.695  11.083 -0.1037  0.2696  0.4635
 4491SOL    HW124935   4.595   1.712  11.026  0.9600 -1.0400  1.4849
 4491SOL    HW224936   4.469   1.640  11.024 -0.1114 -1.1635  1.8198
 4492SOL     OW24937   2.251   0.344   5.173  0.1336  0.1139 -0.2289
 4492SOL    HW124938   2.212   0.359   5.259 -2.7924 -1.8770 -1.2060
 4492SOL    HW224939   2.340   0.340   5.207  1.0321 -2.1840 -2.8170
 4493SOL     OW24940   4.574   4.579  12.775 -0.0476 -0.2922  0.0180
 4493SOL    HW124941   4.594   4.574  12.682 -1.1949 -0.3156 -0.2261
 4493SOL    HW224942   4.492   4.627  12.779 -0.6323 -1.1633 -1.5957
 4494SOL     OW24943   3.005   0.717   8.450  0.0047 -0.2510  0.6578
 4494SOL    HW124944   2.926   0.729   8.397 -0.4146  1.4689  1.6629
 4494SOL    HW224945   2.972   0.763   8.527  0.7887  0.1484  0.7475
 4495SOL     OW24946   0.134   4.547  13.863 -0.0877  0.0434  0.1707
 4495SOL    HW124947   0.113   4.466  13.818  2.5358  0.0941 -1.1087
 4495SOL    HW224948   0.176   4.505  13.938 -2.1997 -0.2313  1.2127
 4496SOL     OW24949   2.405   1.323   7.998  0.3027 -0.1894 -0.2603
 4496SOL    HW124950   2.428   1.286   8.084 -3.7838  1.5513  1.5801
 4496SOL    HW224951   2.491   1.358   7.974  0.6560  0.9998  2.6859
 4497SOL     OW24952   4.602   1.522   8.862  0.4414 -0.2017  0.0742
 4497SOL    HW124953   4.692   1.492   8.877 -0.2537 -1.4720  1.7709
 4497SOL    HW224954   4.584   1.487   8.775 -1.2457  0.7652  0.0326
 4498SOL     OW24955   1.590   1.552   5.934  0.3648  0.1876 -0.8027
 4498SOL    HW124956   1.676   1.543   5.892 -0.2182  0.0356 -1.9723
 4498SOL    HW224957   1.553   1.469   5.904 -1.5280 -0.3872  3.1218
 4499SOL     OW24958   3.937   1.282   3.809  0.3562  0.2284 -0.1687
 4499SOL    HW124959   4.016   1.330   3.832  1.8000 -1.0774 -2.3521
 4499SOL    HW224960   3.975   1.206   3.764  2.2653  0.7469  0.5829
 4500SOL     OW24961   3.459   1.212   5.502  0.6535  0.1205 -0.3601
 4500SOL    HW124962   3.549   1.215   5.470  0.9020  0.3582  0.3530
 4500SOL    HW224963   3.420   1.242   5.420 -1.5534  1.8171  1.3083
 4501SOL     OW24964   3.504   3.938   8.823  0.4343  0.0330 -0.1540
 4501SOL    HW124965   3.572   3.945   8.891  0.0963 -2.9665  0.4827
 4501SOL    HW224966   3.428   3.949   8.881 -0.4274 -1.2831 -1.0440
 4502SOL     OW24967   3.536   1.736   6.219 -0.6698  0.2361  0.5335
 4502SOL    HW124968   3.522   1.642   6.209  1.8789 -0.3529  2.4704
 4502SOL    HW224969   3.611   1.756   6.163  0.6974  1.4922  2.8076
 4503SOL     OW24970   3.749   2.983   5.552  0.2973  0.6247  0.0853
 4503SOL    HW124971   3.809   2.925   5.598 -2.1224  1.0231  3.7833
 4503SOL    HW224972   3.818   3.037   5.513 -0.7029  2.2976  0.6111
 4504SOL     OW24973   1.884   3.615  17.409 -0.4135 -0.5722  0.1477
 4504SOL    HW124974   1.834   3.677  17.356 -1.4478 -0.2480  1.5373
 4504SOL    HW224975   1.824   3.541  17.421 -1.7651  0.4657 -0.2042
 4505SOL     OW24976   4.368   0.488   9.887  0.5173  0.1659  0.0109
 4505SOL    HW124977   4.455   0.526   9.874 -0.5909  1.8319 -2.4569
 4505SOL    HW224978   4.326   0.547   9.949  2.7383  1.4679  0.2727
 4506SOL     OW24979   1.821   4.474   4.286  0.1293  0.2937 -0.3488
 4506SOL    HW124980   1.830   4.389   4.242  3.5358  0.3168  0.3142
 4506SOL    HW224981   1.725   4.480   4.287  0.1574  0.4313  1.9478
 4507SOL     OW24982   4.160   1.570  13.116  0.1426  0.7900  0.0774
 4507SOL    HW124983   4.203   1.644  13.073 -1.6760  1.9175  0.1906
 4507SOL    HW224984   4.209   1.503  13.067 -1.4369 -0.7050  0.5594
 4508SOL     OW24985   2.184   2.792   3.689 -0.0679 -0.4055  0.2066
 4508SOL    HW124986   2.210   2.773   3.599  2.0429  0.5851  0.6140
 4508SOL    HW224987   2.090   2.806   3.691  0.0151  0.1916 -0.0312
 4509SOL     OW24988   1.901   3.194  11.537  0.2336  0.2471 -0.0890
 4509SOL    HW124989   1.930   3.124  11.595  0.0887  0.7992  0.6472
 4509SOL    HW224990   1.884   3.257  11.607 -0.7888  0.6907 -0.7385
 4510SOL     OW24991   3.157   2.918   4.024  0.0034 -0.0235  0.0561
 4510SOL    HW124992   3.150   2.942   3.932 -0.5965  0.7850  0.3091
 4510SOL    HW224993   3.218   2.845   4.017  0.5562  0.5593 -1.1931
 4511SOL     OW24994   4.471   4.311  12.016  0.0410  0.2686  0.0642
 4511SOL    HW124995   4.545   4.258  11.987 -0.1974  0.6806 -1.3261
 4511SOL    HW224996   4.461   4.372  11.943 -1.1098  1.1821  0.9999
 4512SOL     OW24997   0.085   3.237  11.922  0.1340  0.1417 -0.5549
 4512SOL    HW124998   0.122   3.153  11.896  0.4542  0.5688 -1.5113
 4512SOL    HW224999   0.163   3.291  11.932  0.4438 -0.6169  1.0790
 4513SOL     OW25000   3.571   0.834   5.369 -0.8465 -0.2568 -0.4401
 4513SOL    HW125001   3.599   0.844   5.277  1.6535  0.3067  0.3676
 4513SOL    HW225002   3.655   0.826   5.414 -0.7243 -3.0317 -1.2086
 4514SOL     OW25003   2.657   2.857  12.732  0.1662 -0.2675 -0.4922
 4514SOL    HW125004   2.736   2.848  12.679  0.5965 -0.7979  0.2321
 4514SOL    HW225005   2.605   2.787  12.692 -0.9991 -0.2551  0.9835
 4515SOL     OW25006   1.033   4.242   1.058  0.2505  0.3279  0.2669
 4515SOL    HW125007   0.981   4.219   0.981  2.1778 -0.2456 -0.8428
 4515SOL    HW225008   1.061   4.330   1.032  0.6228 -0.5460 -2.1985
 4516SOL     OW25009   4.410   3.885  14.129 -0.2871 -0.1761  0.0080
 4516SOL    HW125010   4.465   3.931  14.193  1.1896 -0.7105 -0.8739
 4516SOL    HW225011   4.363   3.961  14.095 -1.3958 -1.7797 -2.0114
 4517SOL     OW25012   3.930   1.819  16.172  0.5725 -0.5673 -0.7221
 4517SOL    HW125013   3.956   1.898  16.125 -1.4470  1.8907  2.2566
 4517SOL    HW225014   3.835   1.819  16.161  0.3515 -1.2431  1.0946
 4518SOL     OW25015   4.589   3.528   2.644 -0.0048  0.3114 -0.3366
 4518SOL    HW125016   4.669   3.478   2.663 -1.7394 -2.0544  0.8460
 4518SOL    HW225017   4.608   3.618   2.671 -0.6342  0.4305 -0.2894
 4519SOL     OW25018   1.704   3.835   7.141  0.0472  0.0683 -0.1254
 4519SOL    HW125019   1.708   3.930   7.134 -0.2823 -0.0093 -1.4170
 4519SOL    HW225020   1.746   3.806   7.060  0.0412 -0.2748 -0.0076
 4520SOL     OW25021   0.768   3.714   7.932 -0.8480  0.1390 -0.2188
 4520SOL    HW125022   0.762   3.805   7.961 -2.8113  0.0014 -0.2264
 4520SOL    HW225023   0.863   3.701   7.921 -0.7645  1.6149 -1.2260
 4521SOL     OW25024   4.000   0.973   1.982  0.1595 -0.3906  0.0691
 4521SOL    HW125025   4.078   0.918   1.989  1.0577  1.0489  1.3754
 4521SOL    HW225026   4.011   1.027   1.904  1.6271  1.6586  1.6727
 4522SOL     OW25027   0.968   4.350   8.600 -0.1238 -0.3453 -0.2354
 4522SOL    HW125028   1.045   4.367   8.655 -1.3010  0.0205  1.2873
 4522SOL    HW225029   0.914   4.305   8.665 -0.3793 -0.6542 -0.6656
 4523SOL     OW25030   0.084   1.031  10.028 -0.6078  0.4866 -0.8744
 4523SOL    HW125031   0.053   0.942  10.016 -1.7549  0.4441  2.2289
 4523SOL    HW225032   0.111   1.050   9.938  1.1519  2.4316  0.0793
 4524SOL     OW25033   2.105   4.492   2.767 -0.0611  0.0501  0.1853
 4524SOL    HW125034   2.027   4.531   2.806 -1.0152 -1.3584 -0.2843
 4524SOL    HW225035   2.163   4.567   2.759 -0.1322  0.2446  1.5197
 4525SOL     OW25036   4.534   0.655   8.267  0.5167  0.0005 -0.2431
 4525SOL    HW125037   4.539   0.632   8.360 -0.6930 -1.7009 -0.5941
 4525SOL    HW225038   4.483   0.736   8.264 -0.3916 -0.6108 -1.3029
 4526SOL     OW25039   0.614   0.135   8.417  0.3072 -0.2292  0.3463
 4526SOL    HW125040   0.558   0.190   8.362  2.0994  1.0722 -0.1873
 4526SOL    HW225041   0.605   0.052   8.371 -2.4182  0.9350 -1.1792
 4527SOL     OW25042   3.307   3.178   8.972 -0.0608 -0.9645 -0.2053
 4527SOL    HW125043   3.245   3.160   9.042 -0.3333  3.2856  0.6172
 4527SOL    HW225044   3.347   3.091   8.975  1.6078 -0.2312 -1.2278
 4528SOL     OW25045   0.495   4.623   1.862 -0.1630  0.3369  0.7002
 4528SOL    HW125046   0.556   4.674   1.916  0.9622 -2.0907  1.7194
 4528SOL    HW225047   0.479   4.691   1.796  2.3971  0.4409  0.2084
 4529SOL     OW25048   3.990   1.249   0.372 -0.7694 -0.4050  0.6549
 4529SOL    HW125049   4.032   1.205   0.297 -0.1495  1.8634 -0.3265
 4529SOL    HW225050   3.896   1.244   0.353 -0.1462  2.9145 -3.2793
 4530SOL     OW25051   4.256   2.253  14.191  0.0049  0.3715  0.0732
 4530SOL    HW125052   4.203   2.173  14.188  0.8585 -0.3495  3.7069
 4530SOL    HW225053   4.219   2.299  14.266 -0.3447  1.5441 -0.8237
 4531SOL     OW25054   1.388   0.183   4.374 -0.5720  0.0462 -0.1432
 4531SOL    HW125055   1.392   0.151   4.285  0.5342 -1.7384  0.5549
 4531SOL    HW225056   1.450   0.131   4.425  0.2184  1.6721  0.5849
 4532SOL     OW25057   2.900   2.240   3.904 -0.1558  0.2746 -0.4233
 4532SOL    HW125058   2.932   2.316   3.855 -0.7199  0.4716 -0.4875
 4532SOL    HW225059   2.812   2.233   3.868 -1.5700  0.7402  2.9834
 4533SOL     OW25060   0.689   2.152   8.289 -0.0504  1.0048  0.0413
 4533SOL    HW125061   0.767   2.207   8.280  0.2908  0.6458  0.7833
 4533SOL    HW225062   0.683   2.139   8.383 -1.4122 -1.1945 -0.3317
 4534SOL     OW25063   4.506   3.641   8.819 -0.1612  0.6332  0.7405
 4534SOL    HW125064   4.588   3.598   8.845 -0.0532  0.2516 -0.2615
 4534SOL    HW225065   4.458   3.653   8.901  0.4641 -0.2944  1.2437
 4535SOL     OW25066   3.364   1.869  17.042  0.2230 -0.4810 -0.5068
 4535SOL    HW125067   3.314   1.789  17.054  1.8866 -1.2029  1.5486
 4535SOL    HW225068   3.448   1.858  17.087 -0.3230  0.8585  0.8299
 4536SOL     OW25069   0.738   2.735  12.643  0.6595 -0.3013  0.2217
 4536SOL    HW125070   0.800   2.762  12.576 -0.9889  0.7969 -0.8485
 4536SOL    HW225071   0.725   2.644  12.615 -1.6036 -0.1936  0.8825
 4537SOL     OW25072   2.243   1.295  12.878 -0.0608  0.0903  0.0169
 4537SOL    HW125073   2.277   1.325  12.794  1.2905  0.6732  0.7694
 4537SOL    HW225074   2.324   1.311  12.926  0.2029  1.6413 -0.9628
 4538SOL     OW25075   2.681   3.016   8.664  0.6903  0.2665 -0.3575
 4538SOL    HW125076   2.660   2.991   8.754 -0.1244  0.8182 -0.3933
 4538SOL    HW225077   2.689   3.111   8.675 -1.5574  0.6742 -2.3289
 4539SOL     OW25078   1.321   2.981   5.239  0.2367  0.0960  0.2468
 4539SOL    HW125079   1.406   2.940   5.255 -0.1557 -1.2376 -1.0475
 4539SOL    HW225080   1.274   2.908   5.198  2.3629 -0.2732 -1.5862
 4540SOL     OW25081   3.512   3.071   2.609 -0.6359  0.0124 -0.3998
 4540SOL    HW125082   3.586   3.059   2.549 -1.3612  2.1668 -1.7177
 4540SOL    HW225083   3.447   3.021   2.560  0.5637 -1.5572 -0.3927
 4541SOL     OW25084   4.174   2.735   7.282  0.0441 -0.2830 -0.7425
 4541SOL    HW125085   4.205   2.767   7.367 -1.0451  0.5193 -0.6525
 4541SOL    HW225086   4.120   2.805   7.247  0.9092  0.4048 -0.6963
 4542SOL     OW25087   0.223   4.004   2.392 -0.1207 -0.1251 -0.5329
 4542SOL    HW125088   0.298   3.950   2.415 -1.6006 -1.6564  0.7070
 4542SOL    HW225089   0.174   3.936   2.345 -0.2893 -0.3866  0.0295
 4543SOL     OW25090   1.430   4.020   4.112  0.6219 -0.1210 -0.0163
 4543SOL    HW125091   1.408   3.975   4.030  1.6169 -0.4546 -0.0933
 4543SOL    HW225092   1.525   4.016   4.105  0.6748  2.1660 -0.6868
 4544SOL     OW25093   1.976   3.206  12.064  0.5447 -0.0149 -0.2946
 4544SOL    HW125094   1.887   3.171  12.071  0.6876 -0.2503  0.3141
 4544SOL    HW225095   2.024   3.129  12.034  1.6416  1.1115 -1.4022
 4545SOL     OW25096   3.366   0.350   9.311 -0.1719  0.1189 -0.0823
 4545SOL    HW125097   3.360   0.376   9.219 -1.4351  0.6979  0.1623
 4545SOL    HW225098   3.330   0.426   9.356  0.3564  0.5713 -0.4168
 4546SOL     OW25099   1.480   3.573   6.131  0.0159 -0.1060  0.6295
 4546SOL    HW125100   1.488   3.522   6.050  1.4629  0.8052  0.2052
 4546SOL    HW225101   1.398   3.542   6.170 -1.1907  1.4376 -0.6931
 4547SOL     OW25102   3.069   4.344   5.961 -0.2883 -0.5485 -0.4053
 4547SOL    HW125103   3.163   4.326   5.964 -0.2030  0.0938  0.5364
 4547SOL    HW225104   3.051   4.417   6.020 -1.1994 -0.3711 -0.8872
 4548SOL     OW25105   1.883   3.695   7.599  0.3094 -0.0589 -0.3867
 4548SOL    HW125106   1.806   3.641   7.614 -0.8552  1.2237 -1.7809
 4548SOL    HW225107   1.873   3.711   7.505 -1.2983 -2.5583 -0.6177
 4549SOL     OW25108   2.437   1.747  16.076  0.4544  0.2855  0.0551
 4549SOL    HW125109   2.411   1.691  16.004  1.5480 -0.6093  0.3491
 4549SOL    HW225110   2.531   1.730  16.086  1.1389  3.7173 -0.4100
 4550SOL     OW25111   3.509   4.024   9.228 -0.3571  0.0917 -0.1100
 4550SOL    HW125112   3.584   4.083   9.217  0.5388 -0.9976  0.1926
 4550SOL    HW225113   3.436   4.086   9.231  0.0130  0.4550  1.5337
 4551SOL     OW25114   3.713   1.928  14.697 -0.0780 -0.0511 -0.1121
 4551SOL    HW125115   3.688   1.898  14.784 -0.6303  1.8333  0.3658
 4551SOL    HW225116   3.804   1.955  14.706  0.3712 -1.8847  0.8376
 4552SOL     OW25117   1.625   0.945   5.895 -0.1629  0.4171 -0.4534
 4552SOL    HW125118   1.550   0.911   5.847 -1.3215  2.1990  0.0991
 4552SOL    HW225119   1.698   0.967   5.837 -0.0986 -0.7551 -0.8127
 4553SOL     OW25120   2.449   3.431  12.911  0.7378 -0.2690  0.2403
 4553SOL    HW125121   2.404   3.358  12.869 -0.8628 -0.8422  2.9550
 4553SOL    HW225122   2.540   3.402  12.901  0.8869  0.1999  0.2244
 4554SOL     OW25123   1.709   3.108   5.720  0.3541 -0.2343  0.0555
 4554SOL    HW125124   1.773   3.044   5.752  1.1667  0.8068  0.5068
 4554SOL    HW225125   1.714   3.164   5.797 -0.4331  0.2149 -0.2121
 4555SOL     OW25126   1.039   1.889   0.938 -0.6299 -0.4387 -0.0459
 4555SOL    HW125127   0.983   1.812   0.937  0.2040 -1.0524 -0.0886
 4555SOL    HW225128   1.002   1.942   1.008 -0.4006  0.4766 -0.6060
 4556SOL     OW25129   0.350   0.618  10.273  0.3052 -0.2692 -0.3123
 4556SOL    HW125130   0.312   0.593  10.356  1.6137 -0.4349  0.2354
 4556SOL    HW225131   0.327   0.711  10.279 -1.4278 -0.6266 -1.4647
 4557SOL     OW25132   2.356   0.916  12.384  0.0617  0.2869  0.2304
 4557SOL    HW125133   2.280   0.893  12.438  0.1574  1.2489  0.7691
 4557SOL    HW225134   2.307   0.960  12.314 -0.3635 -1.2473 -0.4375
 4558SOL     OW25135   1.247   2.975   5.817  0.3946 -0.9313  0.1736
 4558SOL    HW125136   1.324   2.979   5.761  0.9291 -1.9021  0.8356
 4558SOL    HW225137   1.196   2.921   5.757 -1.4976  1.7882 -0.6673
 4559SOL     OW25138   0.092   2.639   6.195  0.6444 -0.0481  0.2144
 4559SOL    HW125139   0.060   2.576   6.259  1.0847 -1.6409 -1.1030
 4559SOL    HW225140   0.186   2.618   6.194  0.7938  0.6107  1.3244
 4560SOL     OW25141   0.484   4.326   0.457 -0.1450 -0.3817 -0.8646
 4560SOL    HW125142   0.438   4.310   0.374 -0.0840 -0.2387 -0.9271
 4560SOL    HW225143   0.574   4.321   0.423 -0.1315 -3.3862 -0.3368
 4561SOL     OW25144   2.848   1.071   4.487  0.4350  0.0086  0.2376
 4561SOL    HW125145   2.766   1.030   4.459 -0.3650  1.3626  0.6295
 4561SOL    HW225146   2.841   1.161   4.457 -1.4139 -0.6183 -1.1954
 4562SOL     OW25147   4.331   2.703   0.227  0.4782 -0.0862  0.1104
 4562SOL    HW125148   4.281   2.782   0.209 -0.6063 -1.0960 -1.2883
 4562SOL    HW225149   4.322   2.650   0.148  0.7436 -0.9858  0.6868
 4563SOL     OW25150   2.278   2.982   3.305 -0.6636  0.2739 -0.3704
 4563SOL    HW125151   2.264   2.888   3.296 -0.4671 -0.0390  2.6464
 4563SOL    HW225152   2.191   3.018   3.323 -0.7311  0.1416 -0.4335
 4564SOL     OW25153   3.046   0.193  16.635  0.4615 -0.1310  0.1395
 4564SOL    HW125154   3.051   0.103  16.667 -0.9738 -0.7382 -1.2948
 4564SOL    HW225155   3.112   0.237  16.687  0.2283  1.8499 -1.2480
 4565SOL     OW25156   4.323   1.996   8.068  0.3476 -0.6729 -0.4766
 4565SOL    HW125157   4.389   2.010   7.999  0.3337  0.0268 -0.3486
 4565SOL    HW225158   4.348   2.049   8.144 -0.2600 -2.4848  0.9771
 4566SOL     OW25159   1.981   3.429   2.108  0.2481  0.0925  0.5348
 4566SOL    HW125160   1.976   3.346   2.061  0.5032  0.4657 -0.1601
 4566SOL    HW225161   1.999   3.390   2.193 -0.4484  0.2615  0.7537
 4567SOL     OW25162   3.777   2.308   9.745  0.0535  0.1425 -0.2997
 4567SOL    HW125163   3.798   2.231   9.692 -2.6787 -0.3396 -0.6582
 4567SOL    HW225164   3.702   2.277   9.795  0.5215  1.9260  1.5204
 4568SOL     OW25165   0.400   3.229   3.068  0.2317  0.3324  0.4598
 4568SOL    HW125166   0.411   3.313   3.023  3.2725  0.1709  0.8807
 4568SOL    HW225167   0.462   3.239   3.141 -1.1400 -2.4089  1.9994
 4569SOL     OW25168   2.042   3.186  15.732 -0.5182 -0.4684 -0.2449
 4569SOL    HW125169   2.118   3.204  15.677 -2.2855  2.7238 -1.6547
 4569SOL    HW225170   1.987   3.263  15.719 -1.4354 -1.2992 -1.3522
 4570SOL     OW25171   4.203   4.327   5.610 -0.1075 -0.3002 -0.7046
 4570SOL    HW125172   4.149   4.251   5.633 -0.0547  0.0502  0.5901
 4570SOL    HW225173   4.244   4.297   5.530 -2.6345 -2.3514 -1.2445
 4571SOL     OW25174   2.249   0.686  11.573  0.2760  0.0083  0.2991
 4571SOL    HW125175   2.307   0.638  11.514 -0.1472  0.3838 -0.4208
 4571SOL    HW225176   2.171   0.630  11.574  1.1939 -1.2809 -0.1539
 4572SOL     OW25177   3.808   0.685  15.563  0.3672 -0.2671 -0.3460
 4572SOL    HW125178   3.727   0.735  15.567 -0.9164 -2.5016  2.0605
 4572SOL    HW225179   3.785   0.629  15.489 -0.8898  0.5962 -0.6040
 4573SOL     OW25180   0.722   2.668   3.085 -0.2329 -0.1880 -0.0824
 4573SOL    HW125181   0.639   2.621   3.078 -1.1072  1.5191 -1.2083
 4573SOL    HW225182   0.716   2.731   3.157 -2.8462 -0.3077 -0.1934
 4574SOL     OW25183   4.430   1.590  17.364 -0.2408 -0.0594 -0.1664
 4574SOL    HW125184   4.469   1.649  17.429 -0.4460  1.6542 -1.6072
 4574SOL    HW225185   4.375   1.532  17.417 -0.1600 -0.4730 -0.5426
 4575SOL     OW25186   4.395   1.351   8.262 -0.1168 -0.1921 -0.3133
 4575SOL    HW125187   4.432   1.267   8.235  1.1845  0.1094  0.5709
 4575SOL    HW225188   4.343   1.337   8.341  1.4315 -0.0884  0.7132
 4576SOL     OW25189   2.253   4.450   5.214 -0.0875 -0.4602  0.5362
 4576SOL    HW125190   2.345   4.474   5.205 -0.7933  0.9965 -2.8847
 4576SOL    HW225191   2.255   4.411   5.301 -0.6655 -1.3796  0.1507
 4577SOL     OW25192   4.635   1.507   3.968  0.0350  0.2977 -0.6192
 4577SOL    HW125193   4.633   1.433   4.030 -1.0247  2.6499  2.1329
 4577SOL    HW225194   4.642   1.456   3.887 -3.8049  0.6483 -1.1631
 4578SOL     OW25195   3.903   3.587   3.280 -0.6678 -0.0929 -0.0598
 4578SOL    HW125196   3.928   3.523   3.346  1.3907  0.2304 -0.5252
 4578SOL    HW225197   3.944   3.665   3.317  1.9071 -0.8934 -1.2662
 4579SOL     OW25198   1.672   2.174  11.292  0.5868  0.3735  0.1160
 4579SOL    HW125199   1.723   2.104  11.252 -2.3450 -2.9657  2.2417
 4579SOL    HW225200   1.711   2.246  11.242 -1.0805 -0.7376 -2.8247
 4580SOL     OW25201   0.300   1.524   3.696 -0.1672  0.3124 -0.2380
 4580SOL    HW125202   0.277   1.533   3.788  0.3716 -0.4615 -0.0289
 4580SOL    HW225203   0.311   1.614   3.667 -0.1813  0.3650 -0.0772
 4581SOL     OW25204   1.298   4.243   4.164  0.1956 -0.2050  0.7204
 4581SOL    HW125205   1.302   4.151   4.137  0.8357  0.7230 -2.2857
 4581SOL    HW225206   1.368   4.248   4.229 -0.1784 -2.0742  1.2723
 4582SOL     OW25207   3.670   3.836   8.487  0.6933 -0.2894 -0.1118
 4582SOL    HW125208   3.664   3.743   8.508  1.6908  0.2396  2.4673
 4582SOL    HW225209   3.742   3.856   8.547  2.1864  0.8752 -2.2855
 4583SOL     OW25210   2.776   0.326  14.970  0.6596 -0.2517 -0.1041
 4583SOL    HW125211   2.778   0.284  14.884  0.5505 -0.8092  0.1615
 4583SOL    HW225212   2.684   0.311  14.992 -0.1124  2.2516 -1.7109
 4584SOL     OW25213   3.330   3.613  11.130  0.3066  1.1396 -0.0984
 4584SOL    HW125214   3.242   3.639  11.103 -0.1103  0.7180  0.8676
 4584SOL    HW225215   3.336   3.658  11.215 -2.0589 -0.3088  0.8400
 4585SOL     OW25216   2.176   2.804   2.331  0.4187 -0.7180 -0.6956
 4585SOL    HW125217   2.124   2.735   2.289  0.9748 -0.6843 -1.4315
 4585SOL    HW225218   2.141   2.875   2.277 -0.6410  0.0464  0.9648
 4586SOL     OW25219   0.806   1.928  12.629 -0.3228  0.0815  0.0954
 4586SOL    HW125220   0.796   2.006  12.683 -0.3415  1.1648 -1.4679
 4586SOL    HW225221   0.802   1.968  12.542  0.2352  2.0152  0.9569
 4587SOL     OW25222   3.910   0.306   3.953 -0.2778  0.5545 -0.3922
 4587SOL    HW125223   3.873   0.305   3.864 -1.5566 -1.2517  0.1540
 4587SOL    HW225224   3.885   0.215   3.969  1.2360  0.7620  3.0319
 4588SOL     OW25225   1.362   4.568   9.513 -0.8897 -0.0393 -0.4649
 4588SOL    HW125226   1.327   4.536   9.596 -2.4364  0.0253 -1.0889
 4588SOL    HW225227   1.294   4.628   9.482 -1.0080  0.5372  0.8991
 4589SOL     OW25228   3.349   1.670  12.777  0.1166 -0.4301 -0.1404
 4589SOL    HW125229   3.293   1.629  12.711  0.2761 -1.3074  0.2665
 4589SOL    HW225230   3.411   1.726  12.729  0.2730 -1.1123 -0.7388
 4590SOL     OW25231   1.389   1.068   8.157  0.1281  0.5025  0.5832
 4590SOL    HW125232   1.304   1.100   8.188  0.4656 -1.6120  3.6871
 4590SOL    HW225233   1.418   1.020   8.234  0.6724  1.0714  0.7357
 4591SOL     OW25234   0.494   1.114   3.098 -0.4801  0.2974 -0.4647
 4591SOL    HW125235   0.446   1.114   3.016 -2.9512  2.5884  0.9522
 4591SOL    HW225236   0.534   1.200   3.087 -0.4730  0.1727 -1.4090
 4592SOL     OW25237   2.696   2.637   7.784 -0.0815  0.2494  0.3340
 4592SOL    HW125238   2.776   2.655   7.834 -0.5201 -0.0635  1.1415
 4592SOL    HW225239   2.737   2.608   7.703 -0.1977  0.0429  0.3497
 4593SOL     OW25240   4.647   0.804   3.111 -0.8405 -0.3152  0.1335
 4593SOL    HW125241   4.618   0.895   3.122 -0.4236 -0.2018  0.2759
 4593SOL    HW225242   0.017   0.804   3.108 -0.8222  0.6597  0.8637
 4594SOL     OW25243   3.048   2.121   6.034  0.0530 -0.5429 -0.3016
 4594SOL    HW125244   3.124   2.155   5.988 -0.3288 -0.3537 -0.7923
 4594SOL    HW225245   3.031   2.196   6.091  0.4076 -0.3218 -0.4884
 4595SOL     OW25246   1.374   1.723   7.930 -0.7624  0.1626 -0.0733
 4595SOL    HW125247   1.458   1.724   7.974 -0.0243  2.1029 -1.5146
 4595SOL    HW225248   1.344   1.813   7.946  1.3074  0.7021  0.6617
 4596SOL     OW25249   1.130   0.313   3.014  0.8546 -0.0548  0.1672
 4596SOL    HW125250   1.197   0.276   2.957  0.6764 -0.2554  0.0871
 4596SOL    HW225251   1.145   0.263   3.094  1.4068 -1.8186 -1.0355
 4597SOL     OW25252   1.003   0.636   6.697 -0.4877  0.2067  0.2485
 4597SOL    HW125253   1.078   0.589   6.735  0.0717 -0.2359 -1.3839
 4597SOL    HW225254   1.030   0.650   6.607  0.2415  0.1010  0.4469
 4598SOL     OW25255   0.554   2.271   2.167  0.1248 -0.7580  0.0077
 4598SOL    HW125256   0.538   2.337   2.234  5.0428 -0.3543  0.7610
 4598SOL    HW225257   0.475   2.278   2.112  1.1944  2.6471 -1.1085
 4599SOL     OW25258   2.063   0.693   7.476 -0.3164  0.1310 -0.6620
 4599SOL    HW125259   2.134   0.754   7.497 -0.5262 -0.5191  1.9207
 4599SOL    HW225260   2.067   0.635   7.552  0.2545  0.0111 -0.7891
 4600SOL     OW25261   2.518   4.439   5.145  0.2049  0.1908  0.1984
 4600SOL    HW125262   2.541   4.349   5.165 -0.5289 -0.2976 -1.1364
 4600SOL    HW225263   2.599   4.490   5.153  0.5866  0.0019 -2.2624
 4601SOL     OW25264   0.381   2.619   6.754  0.2985  0.8240 -0.0889
 4601SOL    HW125265   0.317   2.666   6.807  0.0886  0.5622 -0.1055
 4601SOL    HW225266   0.365   2.529   6.783  1.4424  0.1257 -1.6051
 4602SOL     OW25267   0.914   0.668   4.241 -0.5215 -0.3527 -0.2635
 4602SOL    HW125268   0.908   0.647   4.334  0.4810  1.1023  0.1352
 4602SOL    HW225269   0.937   0.761   4.241 -2.3197  0.0909 -0.3990
 4603SOL     OW25270   2.697   0.082   0.282 -0.0090 -0.2654  0.1076
 4603SOL    HW125271   2.681   4.713   0.275 -0.2474 -0.0555 -2.2408
 4603SOL    HW225272   2.636   0.118   0.218 -1.0652  0.0038  1.2600
 4604SOL     OW25273   3.666   4.231   9.086 -0.0961  0.7590 -0.6607
 4604SOL    HW125274   3.697   4.321   9.096 -2.6577  1.7359 -1.4301
 4604SOL    HW225275   3.589   4.232   9.029  0.5257 -0.0030 -1.5124
 4605SOL     OW25276   4.169   0.387   6.234  0.8865 -0.4967 -0.1707
 4605SOL    HW125277   4.244   0.355   6.285  0.1349 -1.2347  0.4728
 4605SOL    HW225278   4.211   0.418   6.154 -1.4484  0.9595 -0.7947
 4606SOL     OW25279   3.369   0.459   8.285  0.1444  0.3512  0.4345
 4606SOL    HW125280   3.275   0.477   8.277  0.3959  1.2012 -0.6942
 4606SOL    HW225281   3.368   0.400   8.210 -1.3657 -0.8023  1.3703
 4607SOL     OW25282   0.228   1.085   4.646 -0.3924 -0.2093 -0.1924
 4607SOL    HW125283   0.297   1.105   4.710  0.4734 -1.5455 -0.7065
 4607SOL    HW225284   0.179   1.167   4.641  0.5613  0.3917  0.3410
 4608SOL     OW25285   3.979   3.579  16.457  0.3959 -0.6643 -0.2650
 4608SOL    HW125286   4.001   3.661  16.412  0.2275  0.3028  1.4270
 4608SOL    HW225287   4.065   3.578  16.500  1.4182 -1.4299 -2.2922
 4609SOL     OW25288   2.215   3.209   3.802 -0.2449 -0.3127 -0.2268
 4609SOL    HW125289   2.292   3.155   3.782  0.0368  0.0652 -0.1671
 4609SOL    HW225290   2.248   3.299   3.790 -0.4145 -0.1842  0.2598
 4610SOL     OW25291   4.515   2.353   6.894 -0.5019  0.3301  0.7020
 4610SOL    HW125292   4.535   2.401   6.975  0.5398  4.2232 -1.8589
 4610SOL    HW225293   4.458   2.288   6.935  2.6229 -1.6402  1.8925
 4611SOL     OW25294   2.687   0.694  16.660  0.2175  0.0263 -0.8022
 4611SOL    HW125295   2.673   0.673  16.567 -2.1070  2.2848 -0.9438
 4611SOL    HW225296   2.768   0.744  16.651 -0.3490  1.3233  1.4568
 4612SOL     OW25297   3.585   1.006   8.719  0.2371  0.0944 -0.3766
 4612SOL    HW125298   3.585   1.033   8.627 -0.5637  2.2009  0.2228
 4612SOL    HW225299   3.625   0.920   8.724 -0.5081 -0.2454 -0.3116
 4613SOL     OW25300   2.669   0.881   0.522 -0.2323  0.1110 -0.0990
 4613SOL    HW125301   2.667   0.966   0.567 -0.0453 -0.1383  0.3689
 4613SOL    HW225302   2.750   0.844   0.555 -1.2181 -0.5283  1.5702
 4614SOL     OW25303   3.128   4.237  15.423  0.3990 -0.1330  0.3140
 4614SOL    HW125304   3.057   4.301  15.415  1.9884  1.3991 -1.4842
 4614SOL    HW225305   3.134   4.211  15.331 -0.2259 -0.5364  0.3825
 4615SOL     OW25306   0.621   0.744  15.410  0.0006  0.1667 -0.2368
 4615SOL    HW125307   0.679   0.717  15.340  2.0999  1.0767  1.1468
 4615SOL    HW225308   0.682   0.778  15.476  1.9134  0.9362 -2.4077
 4616SOL     OW25309   4.024   0.652  11.987 -0.2676 -0.4204 -0.1704
 4616SOL    HW125310   4.094   0.621  11.929  0.2986  1.1143 -0.3211
 4616SOL    HW225311   3.974   0.571  11.991 -0.5500 -0.1495  1.9070
 4617SOL     OW25312   0.618   4.148  11.017 -0.0750 -0.3442 -0.3873
 4617SOL    HW125313   0.596   4.239  10.996 -0.4340 -0.2522  0.3848
 4617SOL    HW225314   0.557   4.102  10.960  1.6596  1.2262 -3.5469
 4618SOL     OW25315   3.713   3.946  16.858 -0.2358  0.2469 -0.1645
 4618SOL    HW125316   3.624   3.981  16.856 -0.7564 -1.0788 -0.6504
 4618SOL    HW225317   3.717   3.913  16.947  1.9487  0.8141 -0.0508
 4619SOL     OW25318   3.271   3.736   5.553 -0.2690  0.5138 -0.2924
 4619SOL    HW125319   3.257   3.710   5.644 -1.2230  0.5015 -0.4475
 4619SOL    HW225320   3.353   3.787   5.553 -0.0982  0.2376  0.2047
 4620SOL     OW25321   3.338   4.211   5.154  0.1940  0.3017 -0.1806
 4620SOL    HW125322   3.386   4.232   5.074  0.0839  1.4071  0.0366
 4620SOL    HW225323   3.384   4.263   5.220 -0.4206  0.7957 -0.1356
 4621SOL     OW25324   0.837   4.464   3.090 -0.2741 -0.4752 -0.2460
 4621SOL    HW125325   0.746   4.449   3.067 -0.6627  0.2453  0.8081
 4621SOL    HW225326   0.871   4.393   3.036  1.3562 -0.1105  0.2925
 4622SOL     OW25327   3.988   1.245   4.161  0.2395 -0.0637  0.5776
 4622SOL    HW125328   4.000   1.337   4.185  0.7172  0.1311 -0.4041
 4622SOL    HW225329   3.902   1.254   4.120 -0.5721 -2.0227  1.8297
 4623SOL     OW25330   2.591   0.110   7.942  0.1079 -0.4509 -0.0832
 4623SOL    HW125331   2.582   0.015   7.939 -0.2315 -0.3897 -0.9530
 4623SOL    HW225332   2.656   0.135   8.008  2.2058 -0.9142 -1.9898
 4624SOL     OW25333   2.591   2.174  15.957 -0.6612 -0.3102 -1.1485
 4624SOL    HW125334   2.648   2.106  15.920 -0.5607 -0.4210 -0.7893
 4624SOL    HW225335   2.530   2.130  16.016 -1.3316  1.0201 -0.8648
 4625SOL     OW25336   4.461   2.232   1.954  0.3931 -0.1993 -0.1328
 4625SOL    HW125337   4.417   2.231   1.869 -0.8716  1.6103  0.4827
 4625SOL    HW225338   4.544   2.268   1.925  0.0219  0.6973 -0.1176
 4626SOL     OW25339   4.717   1.354   3.750 -0.5535 -0.2856 -0.0307
 4626SOL    HW125340   4.680   1.311   3.672  0.8089 -0.7043 -0.4516
 4626SOL    HW225341   0.084   1.329   3.746 -0.1743  0.8747  1.4909
 4627SOL     OW25342   3.465   1.064  15.278  0.0770 -0.0972  0.0221
 4627SOL    HW125343   3.465   1.057  15.183 -0.7638 -1.9337  0.1605
 4627SOL    HW225344   3.399   1.133  15.293  0.6921  0.1481  1.5530
 4628SOL     OW25345   3.704   0.813   8.993 -0.0524  0.3434  0.0974
 4628SOL    HW125346   3.640   0.845   8.929  0.1687 -0.8102 -0.6789
 4628SOL    HW225347   3.669   0.839   9.079 -0.5185 -0.9090  0.2796
 4629SOL     OW25348   3.657   3.867   4.344  0.8807  0.0782 -0.2986
 4629SOL    HW125349   3.740   3.831   4.314  1.5031  1.7179 -0.5602
 4629SOL    HW225350   3.680   3.960   4.342 -0.2427  0.3971  1.3786
 4630SOL     OW25351   2.579   2.176  16.861  0.2825  0.4567 -0.8995
 4630SOL    HW125352   2.658   2.202  16.909  1.1548 -1.4543 -1.2752
 4630SOL    HW225353   2.594   2.220  16.778  1.1719 -0.9624 -1.4909
 4631SOL     OW25354   1.522   3.006   9.160 -0.4109  0.0346  0.0194
 4631SOL    HW125355   1.522   3.074   9.228 -3.5082  0.8373 -0.8114
 4631SOL    HW225356   1.430   2.983   9.156 -0.8073  1.5296  0.4335
 4632SOL     OW25357   1.258   0.553   2.625 -0.9536 -0.3479 -0.5054
 4632SOL    HW125358   1.262   0.467   2.584  0.1984 -0.2621 -0.5605
 4632SOL    HW225359   1.167   0.575   2.647 -1.2560 -0.1197 -1.9943
 4633SOL     OW25360   2.949   2.733   2.868  0.0462  0.2942  0.3464
 4633SOL    HW125361   3.027   2.782   2.891 -0.4671 -0.0375  2.8416
 4633SOL    HW225362   2.941   2.671   2.941  0.4767  1.0996  1.0804
 4634SOL     OW25363   4.545   3.087   7.222  0.0989  0.3053  0.0568
 4634SOL    HW125364   4.515   3.010   7.173 -1.0515  0.0311  1.1979
 4634SOL    HW225365   4.590   3.137   7.154 -1.6989  0.0929 -1.2642
 4635SOL     OW25366   1.617   0.481   7.734  0.5455  0.1606  0.5087
 4635SOL    HW125367   1.651   0.566   7.760  0.6695  0.7936 -1.7201
 4635SOL    HW225368   1.701   0.436   7.722  0.5273  0.3331 -0.2859
 4636SOL     OW25369   1.626   0.248   5.651 -0.0506  0.2833 -0.1434
 4636SOL    HW125370   1.587   0.214   5.570  2.4603 -0.7205 -0.9167
 4636SOL    HW225371   1.667   0.177   5.700  0.6957  0.7128 -0.1543
 4637SOL     OW25372   1.551   2.409   0.903  0.0038  0.9780 -0.4959
 4637SOL    HW125373   1.547   2.377   0.813 -0.4929 -0.8529  0.1645
 4637SOL    HW225374   1.550   2.323   0.946 -2.7040  1.3846  0.2436
 4638SOL     OW25375   0.219   1.212   6.161  0.1938 -0.3767 -0.0546
 4638SOL    HW125376   0.186   1.125   6.182 -2.1203  0.7168  0.7374
 4638SOL    HW225377   0.313   1.194   6.172  0.4024 -0.9014 -2.8683
 4639SOL     OW25378   0.875   0.619   4.914  0.2338 -0.1613 -0.1305
 4639SOL    HW125379   0.947   0.616   4.850 -0.4059 -2.2168 -0.7493
 4639SOL    HW225380   0.846   0.528   4.908  0.6224 -0.2995  0.1073
 4640SOL     OW25381   1.897   3.162   6.976 -0.0181 -0.6691 -0.4569
 4640SOL    HW125382   1.833   3.131   7.039 -1.9042 -0.1384 -2.0896
 4640SOL    HW225383   1.971   3.106   6.999 -1.2703 -1.6174  1.2296
 4641SOL     OW25384   3.090   1.160   7.576 -0.4391 -0.2528  0.9209
 4641SOL    HW125385   3.089   1.187   7.484 -0.0663 -0.9891  0.6951
 4641SOL    HW225386   3.098   1.066   7.561 -0.6909 -0.3301  1.2895
 4642SOL     OW25387   0.094   3.063   5.524  0.0858 -0.3637  0.2851
 4642SOL    HW125388   0.148   3.119   5.468  0.0642  0.4446  1.0776
 4642SOL    HW225389   0.048   3.012   5.458  1.9435  0.1687 -1.4476
 4643SOL     OW25390   0.303   1.152   1.338 -0.5911  0.2050  0.2937
 4643SOL    HW125391   0.293   1.226   1.398 -0.3871 -1.4717  2.3951
 4643SOL    HW225392   0.283   1.084   1.402  2.8204  0.0950  1.2199
 4644SOL     OW25393   0.675   2.017  14.609 -0.0888 -0.2462 -0.4394
 4644SOL    HW125394   0.610   2.077  14.645 -0.8378 -0.1275 -2.0011
 4644SOL    HW225395   0.755   2.032  14.659 -0.4942  0.6788 -0.0721
 4645SOL     OW25396   4.235   1.888   4.859 -0.1118 -0.1033 -0.2611
 4645SOL    HW125397   4.253   1.795   4.846  0.1432 -0.0972  0.0457
 4645SOL    HW225398   4.146   1.894   4.825  0.0019 -1.1225 -0.7386
 4646SOL     OW25399   1.841   0.591   5.137  0.7422  0.1302  0.0881
 4646SOL    HW125400   1.772   0.541   5.095 -0.1292 -0.0900  1.7886
 4646SOL    HW225401   1.924   0.554   5.108 -0.4463 -1.0329 -1.8157
 4647SOL     OW25402   4.037   1.139   7.242 -0.5180  0.2674 -0.0013
 4647SOL    HW125403   3.991   1.081   7.181 -1.4155  0.5048  0.4502
 4647SOL    HW225404   3.971   1.201   7.271 -0.9111 -1.2260  2.2826
 4648SOL     OW25405   1.174   2.386   6.013  0.1287 -0.0942  0.4706
 4648SOL    HW125406   1.150   2.462   5.961  0.6327 -1.3570 -1.6371
 4648SOL    HW225407   1.253   2.412   6.061  0.9491  0.4763 -1.2027
 4649SOL     OW25408   3.076   3.546   6.028  0.0973  0.4118  0.2231
 4649SOL    HW125409   3.138   3.553   6.100  0.1744  2.1476  0.0083
 4649SOL    HW225410   2.999   3.591   6.062 -0.3721 -0.4450  0.2975
 4650SOL     OW25411   3.470   1.301   0.943 -0.1507 -0.3883 -0.0755
 4650SOL    HW125412   3.468   1.272   1.034  2.4145 -1.3347 -0.3133
 4650SOL    HW225413   3.390   1.256   0.915 -0.5967 -0.0386  0.6414
 4651SOL     OW25414   2.511   4.296  11.542 -0.2082 -0.4614 -0.1615
 4651SOL    HW125415   2.439   4.353  11.516 -1.1146 -0.9983  1.1263
 4651SOL    HW225416   2.594   4.338  11.520  1.1903 -2.0579  2.0020
 4652SOL     OW25417   2.737   1.996   4.266  0.0257  0.4360 -0.3054
 4652SOL    HW125418   2.747   2.074   4.320 -2.8333  0.1783  0.6313
 4652SOL    HW225419   2.774   1.942   4.336  0.4106  0.2776 -0.6334
 4653SOL     OW25420   0.951   2.380  12.559  0.5567 -0.1902 -0.6036
 4653SOL    HW125421   0.873   2.422  12.596  0.8054  1.2019 -1.6437
 4653SOL    HW225422   0.972   2.330  12.638 -1.0776  0.8218  0.4728
 4654SOL     OW25423   1.390   0.649  12.923  0.2393 -0.1083  0.6143
 4654SOL    HW125424   1.472   0.678  12.884  0.4339 -0.2855  0.8971
 4654SOL    HW225425   1.392   0.705  13.001 -1.3425 -0.6577  1.0637
 4655SOL     OW25426   1.918   0.984   7.478  0.1110  0.3370  0.3003
 4655SOL    HW125427   1.836   1.028   7.454  0.9101  1.7249  0.1324
 4655SOL    HW225428   1.901   0.895   7.446 -0.5386  0.0796  1.3313
 4656SOL     OW25429   4.322   1.115  17.464 -0.5253 -0.0445 -0.1694
 4656SOL    HW125430   4.309   1.175  17.538  1.2223 -0.3832  0.4172
 4656SOL    HW225431   4.293   1.032  17.499  3.2817 -1.5088 -0.4598
 4657SOL     OW25432   0.438   4.096  13.455 -0.4172  0.1600  0.9026
 4657SOL    HW125433   0.387   4.172  13.430  1.2301  0.0519 -2.7990
 4657SOL    HW225434   0.485   4.075  13.374 -1.3078  0.7926  0.2378
 4658SOL     OW25435   2.052   3.327   2.375 -0.4723  0.3095 -0.1520
 4658SOL    HW125436   2.093   3.299   2.457 -0.4521 -1.4593 -0.7775
 4658SOL    HW225437   2.095   3.260   2.323  0.9394 -0.3825  1.9153
 4659SOL     OW25438   1.274   4.233   2.602  0.0940 -0.5237  0.4771
 4659SOL    HW125439   1.238   4.237   2.691 -2.6261  1.7939 -0.7149
 4659SOL    HW225440   1.207   4.176   2.564  0.1616  0.5917 -1.3122
 4660SOL     OW25441   4.560   1.373   4.579 -0.3081 -0.2094 -0.1890
 4660SOL    HW125442   4.649   1.346   4.600 -0.0815  2.3458  2.1398
 4660SOL    HW225443   4.568   1.460   4.617  0.7845 -1.1027  1.6007
 4661SOL     OW25444   2.823   0.670   6.033  0.5099 -0.1051 -0.1151
 4661SOL    HW125445   2.873   0.748   6.055  0.3104  0.2215 -0.8214
 4661SOL    HW225446   2.822   0.634   6.121  0.6416  1.4200  0.4974
 4662SOL     OW25447   2.285   3.609   7.442 -0.1475  0.1000 -0.1751
 4662SOL    HW125448   2.200   3.566   7.453 -0.3718  0.0534 -2.0185
 4662SOL    HW225449   2.310   3.582   7.353  0.4633  0.6635 -0.1772
 4663SOL     OW25450   0.976   0.809   8.262 -0.0396 -0.5268 -0.4327
 4663SOL    HW125451   0.975   0.714   8.252  0.5614 -0.6388  0.6729
 4663SOL    HW225452   1.017   0.833   8.345 -0.1508 -1.0391 -0.2285
 4664SOL     OW25453   0.301   2.341   5.213  0.5831 -0.2511  0.1944
 4664SOL    HW125454   0.379   2.293   5.185 -0.3059 -2.2477  1.1505
 4664SOL    HW225455   0.288   2.397   5.136 -1.4933 -0.9828  0.0090
 4665SOL     OW25456   2.006   4.367  12.394  0.3973 -0.2840  0.2064
 4665SOL    HW125457   2.033   4.283  12.358  2.3614  0.8242 -0.9109
 4665SOL    HW225458   2.079   4.415  12.355  0.1619  0.8433  1.1562
 4666SOL     OW25459   4.046   0.391   6.736  0.1579 -0.3765  0.4387
 4666SOL    HW125460   3.986   0.356   6.670 -0.1074  2.3168 -0.7333
 4666SOL    HW225461   4.091   0.456   6.682 -0.0707 -0.5891 -0.0082
 4667SOL     OW25462   3.049   1.643   1.846 -0.0960  0.4445  0.1546
 4667SOL    HW125463   3.116   1.593   1.893 -2.7414 -3.0323  0.2419
 4667SOL    HW225464   3.068   1.733   1.874  0.4800  0.9004 -1.6842
 4668SOL     OW25465   0.149   2.129  10.076 -0.2916  0.0149 -0.0723
 4668SOL    HW125466   0.087   2.070  10.034 -1.3551  2.2894 -1.6991
 4668SOL    HW225467   0.177   2.195  10.012  1.2032 -1.3596 -0.8403
 4669SOL     OW25468   4.597   4.071  12.318 -0.0074 -0.2079 -0.0973
 4669SOL    HW125469   4.504   4.092  12.310 -0.3978 -1.5652  0.8585
 4669SOL    HW225470   4.617   4.085  12.226 -2.1734  1.0297 -0.3755
 4670SOL     OW25471   3.342   1.386  10.243  0.4153 -0.4195 -0.6973
 4670SOL    HW125472   3.427   1.343  10.233  0.7351 -0.2178  1.1746
 4670SOL    HW225473   3.324   1.358  10.333  0.0032 -1.1857 -1.0196
 4671SOL     OW25474   1.401   3.827   7.597 -0.0268 -0.0489  0.0485
 4671SOL    HW125475   1.458   3.886   7.646  1.2551  0.8696 -2.5520
 4671SOL    HW225476   1.318   3.874   7.591 -0.1300 -0.3928 -1.2098
 4672SOL     OW25477   2.397   3.998   3.958  0.1632  0.6504  0.4997
 4672SOL    HW125478   2.338   4.071   3.941 -0.5033 -0.0380 -0.1818
 4672SOL    HW225479   2.464   4.043   4.009 -0.2314 -0.2632  1.8096
 4673SOL     OW25480   1.637   1.293   5.060  0.2187  0.1485  0.1741
 4673SOL    HW125481   1.608   1.339   4.981 -2.1958 -2.4590 -0.4817
 4673SOL    HW225482   1.701   1.231   5.025  1.5091  0.9148  1.2063
 4674SOL     OW25483   3.042   2.013   5.530  0.0738  0.1547  0.0665
 4674SOL    HW125484   2.974   1.972   5.477  0.9472 -0.1947 -0.7921
 4674SOL    HW225485   3.110   2.037   5.467  1.8313  1.1183  2.3515
 4675SOL     OW25486   2.367   0.537   2.903 -0.0486  0.2989  0.1232
 4675SOL    HW125487   2.449   0.541   2.854  0.1590 -0.4922  0.4100
 4675SOL    HW225488   2.320   0.456   2.884 -1.5648  1.1558  0.2072
 4676SOL     OW25489   3.157   4.425  16.676 -0.7854  0.2654 -0.0209
 4676SOL    HW125490   3.169   4.469  16.592 -0.5248  1.2240  0.5219
 4676SOL    HW225491   3.079   4.377  16.649  1.0609 -1.8598 -1.6116
 4677SOL     OW25492   0.491   3.896  14.650 -0.5511 -0.0061  0.1414
 4677SOL    HW125493   0.474   3.990  14.642  1.4304  0.1533 -2.0515
 4677SOL    HW225494   0.416   3.871  14.704 -0.5135 -2.7872 -1.1032
 4678SOL     OW25495   3.025   2.662  11.876  0.1608  0.2657  0.6982
 4678SOL    HW125496   3.084   2.726  11.917  1.0383  1.3641 -2.2962
 4678SOL    HW225497   3.000   2.615  11.955  1.8385 -1.2389  0.3409
 4679SOL     OW25498   3.873   3.601   9.060 -0.1300 -0.0627 -0.4099
 4679SOL    HW125499   3.792   3.607   9.009  1.3314 -0.0090 -2.7441
 4679SOL    HW225500   3.837   3.600   9.149 -3.0726 -0.4804 -1.5730
 4680SOL     OW25501   3.780   1.030   6.867 -0.1099  0.4385  0.1583
 4680SOL    HW125502   3.687   1.043   6.889 -0.2704 -2.0653  0.9767
 4680SOL    HW225503   3.771   0.977   6.788  1.2974 -1.6524  1.4183
 4681SOL     OW25504   1.452   0.652   5.467 -0.2695 -0.2378 -0.0334
 4681SOL    HW125505   1.523   0.594   5.441  0.7817 -0.0431  2.3352
 4681SOL    HW225506   1.480   0.737   5.432  1.1256 -1.0190 -0.7860
 4682SOL     OW25507   3.549   4.117   5.913 -0.6038  0.4115 -1.0724
 4682SOL    HW125508   3.541   4.047   5.848 -0.2990 -0.8663  0.2772
 4682SOL    HW225509   3.644   4.123   5.918 -0.7152 -0.5797  2.0355
 4683SOL     OW25510   1.600   4.139   0.836 -0.1403 -0.0415 -0.4166
 4683SOL    HW125511   1.626   4.047   0.842 -0.7923 -0.1546  0.5895
 4683SOL    HW225512   1.535   4.143   0.906 -1.5244 -0.3084 -1.7070
 4684SOL     OW25513   3.863   1.955   8.992 -0.6233 -0.5774 -0.1945
 4684SOL    HW125514   3.856   1.860   8.980 -1.6078 -0.5276 -0.0335
 4684SOL    HW225515   3.769   1.973   8.994 -0.3752  0.6801  0.0906
 4685SOL     OW25516   1.140   2.104  11.772  0.4995 -0.0316 -0.4824
 4685SOL    HW125517   1.062   2.080  11.821 -0.2848  2.1159 -0.6796
 4685SOL    HW225518   1.115   2.195  11.756  0.0502  0.6247  4.0779
 4686SOL     OW25519   0.879   4.429   6.929 -0.1419 -0.1093  0.5160
 4686SOL    HW125520   0.929   4.510   6.922 -0.1733 -0.3209 -2.5543
 4686SOL    HW225521   0.817   4.444   7.000 -0.5513  0.4806  0.0368
 4687SOL     OW25522   0.657   0.407   1.255 -0.1853 -0.4149 -1.0442
 4687SOL    HW125523   0.724   0.470   1.280  0.7175 -1.6526 -0.2967
 4687SOL    HW225524   0.602   0.477   1.220 -0.5427  0.5253  1.4267
 4688SOL     OW25525   2.602   4.182   5.119 -0.1162  0.8347 -0.3176
 4688SOL    HW125526   2.574   4.184   5.027 -0.3626 -1.9041 -0.2996
 4688SOL    HW225527   2.697   4.188   5.103  0.0031 -2.4401 -0.8884
 4689SOL     OW25528   1.559   1.903  10.998 -0.4708  0.0722 -0.4548
 4689SOL    HW125529   1.640   1.858  11.019  0.3757  1.1656 -1.4264
 4689SOL    HW225530   1.517   1.831  10.949 -0.6867  0.6103 -1.0577
 4690SOL     OW25531   1.871   2.004   2.899 -0.2095  0.4267  0.4250
 4690SOL    HW125532   1.794   1.976   2.949  1.1752  1.6190  3.2036
 4690SOL    HW225533   1.857   1.958   2.816 -0.4974  2.0540 -0.4312
 4691SOL     OW25534   2.624   2.994  16.393  0.1832 -0.0357  0.1985
 4691SOL    HW125535   2.533   2.980  16.419  0.3238  1.6621  1.5842
 4691SOL    HW225536   2.646   2.915  16.344 -0.1792 -0.1842  0.2815
 4692SOL     OW25537   0.765   4.253   6.478  0.7918 -0.0366 -0.0567
 4692SOL    HW125538   0.730   4.278   6.393 -0.8507 -0.9192  0.3452
 4692SOL    HW225539   0.832   4.191   6.453  1.1513  0.3656 -0.0934
 4693SOL     OW25540   3.387   3.105   8.012  0.6783 -0.0610 -0.4536
 4693SOL    HW125541   3.418   3.081   7.924  0.2768  0.5133 -0.7547
 4693SOL    HW225542   3.472   3.113   8.055  1.1377  1.6985 -1.6911
 4694SOL     OW25543   2.137   0.132   7.705  0.3525  0.1967  0.2211
 4694SOL    HW125544   2.200   0.190   7.748 -2.4862  1.6186  2.4151
 4694SOL    HW225545   2.180   0.047   7.714  3.0859  1.7106  1.5479
 4695SOL     OW25546   4.594   1.599   4.685  0.1180  0.5440  0.1059
 4695SOL    HW125547   4.590   1.599   4.780  0.1822  0.7693  0.1082
 4695SOL    HW225548   4.574   1.692   4.675  1.8248  0.5863 -3.0962
 4696SOL     OW25549   4.698   4.055   7.512 -0.0242 -0.4010  0.3581
 4696SOL    HW125550   4.622   4.047   7.454  0.6995  0.3305 -0.6804
 4696SOL    HW225551   4.663   4.076   7.599 -2.6663 -0.0050 -0.7893
 4697SOL     OW25552   0.455   3.187  16.657  0.0406  0.2607 -0.2723
 4697SOL    HW125553   0.491   3.268  16.695  2.0589 -1.1055  0.7366
 4697SOL    HW225554   0.407   3.152  16.733 -0.9431 -0.3751 -1.1858
 4698SOL     OW25555   3.095   0.088  10.000  0.7076  0.3535  0.0405
 4698SOL    HW125556   3.158   0.021   9.973 -0.9024 -1.7815  1.5882
 4698SOL    HW225557   3.010   0.045   9.990  0.9219  0.2119 -1.1529
 4699SOL     OW25558   3.609   2.967   3.563  0.2003  0.3964 -0.7412
 4699SOL    HW125559   3.530   2.977   3.616  0.1203 -0.5786 -0.6833
 4699SOL    HW225560   3.671   3.040   3.565 -0.0793  0.6317 -0.5898
 4700SOL     OW25561   1.097   1.220   3.180  0.1269 -0.6654  0.1024
 4700SOL    HW125562   1.116   1.153   3.114 -0.0289 -0.5948 -0.0138
 4700SOL    HW225563   1.172   1.223   3.239 -0.7453 -1.4515  1.2579
 4701SOL     OW25564   2.453   1.886   1.808 -0.3275 -0.4272  0.1138
 4701SOL    HW125565   2.360   1.869   1.821 -0.4294 -1.1647 -1.5900
 4701SOL    HW225566   2.454   1.884   1.712 -1.5546 -2.5677  0.1571
 4702SOL     OW25567   3.902   3.855   3.658  0.2062 -0.0585  0.0969
 4702SOL    HW125568   3.947   3.825   3.737 -0.3057  0.5021  0.6012
 4702SOL    HW225569   3.893   3.946   3.686  4.4200 -0.1164  1.6114
 4703SOL     OW25570   1.606   0.059   3.205  0.2228 -0.6223 -0.2740
 4703SOL    HW125571   1.652   4.701   3.204  3.7038  1.2830  0.1166
 4703SOL    HW225572   1.667   0.133   3.202 -1.3066  0.6458  0.1393
 4704SOL     OW25573   0.135   0.026   0.715  0.4686  0.0818  0.2682
 4704SOL    HW125574   0.065   0.062   0.770 -0.1356  0.2346 -0.6083
 4704SOL    HW225575   0.120   0.072   0.632 -0.7927  0.1042  0.5036
 4705SOL     OW25576   3.862   3.781  16.186 -0.1666  0.1295 -0.3293
 4705SOL    HW125577   3.905   3.851  16.138  0.2239  0.0798 -0.0585
 4705SOL    HW225578   3.893   3.806  16.274 -0.5979  2.4514 -0.8471
 4706SOL     OW25579   2.282   0.922   4.604 -0.0236 -0.2017  0.0194
 4706SOL    HW125580   2.224   0.873   4.547  0.4314 -1.6009  0.7627
 4706SOL    HW225581   2.305   0.853   4.667 -0.0402 -0.8816 -0.7325
 4707SOL     OW25582   4.207   4.111   7.154 -0.2221 -0.0339  0.4575
 4707SOL    HW125583   4.208   4.139   7.246 -0.4863 -1.5922  0.9277
 4707SOL    HW225584   4.254   4.028   7.159  1.1770  0.9003  2.6364
 4708SOL     OW25585   2.207   1.411  11.559 -0.3147 -0.1831  0.2777
 4708SOL    HW125586   2.294   1.440  11.588  0.5604 -1.4820 -1.0554
 4708SOL    HW225587   2.226   1.322  11.529  1.4162  0.6829 -1.1966
 4709SOL     OW25588   0.627   1.517  11.098  0.3328 -0.5027 -0.1861
 4709SOL    HW125589   0.597   1.471  11.020 -1.4761  0.8116 -0.2804
 4709SOL    HW225590   0.579   1.467  11.164 -1.2158 -1.8837 -2.3666
 4710SOL     OW25591   3.630   1.746   6.561 -1.1320  0.7205 -0.3239
 4710SOL    HW125592   3.560   1.683   6.582 -1.3239  0.3862 -1.9374
 4710SOL    HW225593   3.654   1.704   6.478  1.0890 -0.4453  0.9126
 4711SOL     OW25594   1.105   4.540   6.131  0.3604  0.6456  0.1329
 4711SOL    HW125595   1.024   4.529   6.181  0.1553  1.1171 -0.0968
 4711SOL    HW225596   1.127   4.449   6.109  2.1481  0.6607  1.7642
 4712SOL     OW25597   2.702   1.991  13.504  0.1593  0.3116  0.3689
 4712SOL    HW125598   2.743   1.921  13.555  0.8701  0.9265  0.6451
 4712SOL    HW225599   2.780   2.041  13.480  0.6620 -0.3926  0.5320
 4713SOL     OW25600   1.924   3.390   0.518  0.0259  0.2292 -0.4420
 4713SOL    HW125601   1.863   3.322   0.488 -2.1454  0.9764  2.2563
 4713SOL    HW225602   1.946   3.421   0.430 -0.3709 -1.7149 -1.2518
 4714SOL     OW25603   0.728   3.786   3.608 -0.5159 -0.6148 -0.0561
 4714SOL    HW125604   0.760   3.831   3.529  2.3079 -1.8382  0.4125
 4714SOL    HW225605   0.806   3.782   3.662 -0.9289 -0.9476  0.5114
 4715SOL     OW25606   2.015   3.531   4.282 -0.0748 -0.8160  0.0335
 4715SOL    HW125607   2.056   3.506   4.200  1.6241  0.8153  0.3970
 4715SOL    HW225608   1.963   3.452   4.298  0.6033 -1.4497 -0.9452
 4716SOL     OW25609   2.278   1.992  14.981  0.1162 -0.9154  0.5252
 4716SOL    HW125610   2.363   1.959  14.951  0.4698  0.6415 -0.1329
 4716SOL    HW225611   2.228   1.914  14.957  0.3082 -1.0555  0.5787
 4717SOL     OW25612   1.261   1.312  10.881 -0.3808 -0.0365  0.3046
 4717SOL    HW125613   1.168   1.337  10.876 -0.9714 -1.8508  2.5178
 4717SOL    HW225614   1.254   1.221  10.851  0.9236  0.6257 -1.9875
 4718SOL     OW25615   4.504   4.349   0.668  0.0085 -0.6708  0.1039
 4718SOL    HW125616   4.576   4.403   0.702 -0.4993 -0.4985  0.9107
 4718SOL    HW225617   4.438   4.418   0.665  2.3457  1.6483  1.1827
 4719SOL     OW25618   3.833   0.734   5.413  0.2372  0.4609 -0.1980
 4719SOL    HW125619   3.863   0.663   5.355  0.2390  1.2577 -1.1827
 4719SOL    HW225620   3.905   0.794   5.430  0.8918 -0.3141 -0.2064
 4720SOL     OW25621   3.104   1.882   8.508 -0.7232  0.0480 -0.0960
 4720SOL    HW125622   3.114   1.938   8.585  0.0074 -0.1973 -0.0197
 4720SOL    HW225623   3.097   1.805   8.564 -0.5877 -0.5764 -0.9373
 4721SOL     OW25624   1.903   1.611   1.496 -0.0243 -0.0273 -0.3200
 4721SOL    HW125625   1.850   1.543   1.539  0.5819  0.7778  1.6911
 4721SOL    HW225626   1.849   1.644   1.424 -2.7379 -0.5263  1.4704
 4722SOL     OW25627   4.190   3.806   2.459  0.1610 -0.0173  0.5907
 4722SOL    HW125628   4.149   3.833   2.541 -0.0756 -0.2123  0.5360
 4722SOL    HW225629   4.148   3.869   2.401 -2.0121 -0.3053  1.8379
 4723SOL     OW25630   0.846   3.441   7.175 -0.5699  0.0204  0.1327
 4723SOL    HW125631   0.883   3.524   7.204 -0.9905  1.0272 -2.1960
 4723SOL    HW225632   0.795   3.429   7.255  1.8810  1.3172  1.8773
 4724SOL     OW25633   3.560   2.863   7.186 -0.7314 -0.5157 -0.2522
 4724SOL    HW125634   3.517   2.943   7.156 -0.1123  0.1941  0.7522
 4724SOL    HW225635   3.485   2.805   7.176  0.5521 -2.0930 -0.7896
 4725SOL     OW25636   2.123   2.315   5.782  0.2860  0.2681  0.1648
 4725SOL    HW125637   2.105   2.328   5.689  2.4743  0.9198 -0.1541
 4725SOL    HW225638   2.213   2.284   5.774  0.4032  0.8013 -0.5348
 4726SOL     OW25639   1.539   2.786  10.531 -0.2543 -0.3950  0.5406
 4726SOL    HW125640   1.625   2.747  10.518  0.1781  0.2178  1.6099
 4726SOL    HW225641   1.505   2.726  10.464  0.0335 -1.2793  1.1948
 4727SOL     OW25642   4.286   3.620   5.118  0.0644  0.1531  0.3595
 4727SOL    HW125643   4.309   3.599   5.028  1.4448 -0.2223  0.7992
 4727SOL    HW225644   4.370   3.652   5.150 -0.2403  3.2904 -1.9725
 4728SOL     OW25645   4.386   1.466   1.809  0.1495  1.0043 -0.1141
 4728SOL    HW125646   4.340   1.417   1.742 -1.7715  0.5915  1.5145
 4728SOL    HW225647   4.473   1.467   1.769 -0.2600 -0.8039 -1.0342
 4729SOL     OW25648   4.036   2.009   2.286 -0.3156  0.0576 -0.4681
 4729SOL    HW125649   4.096   2.030   2.214  0.5452 -0.3734  0.1239
 4729SOL    HW225650   4.066   1.921   2.308  0.0955  0.6773  1.4151
 4730SOL     OW25651   2.597   3.367   7.806 -0.0330 -0.3549  0.1590
 4730SOL    HW125652   2.552   3.446   7.834 -0.1189 -0.0118 -0.9774
 4730SOL    HW225653   2.685   3.378   7.844  0.5283  1.2464 -1.6035
 4731SOL     OW25654   0.083   0.091  17.370 -0.3857 -0.1398  0.5211
 4731SOL    HW125655   0.111   0.024  17.431  2.0437 -1.1011 -1.6485
 4731SOL    HW225656   0.126   0.168  17.408  0.0153  0.1405 -0.4943
 4732SOL     OW25657   2.437   3.185   8.474  0.3548 -0.1448 -0.9461
 4732SOL    HW125658   2.382   3.113   8.505  0.6729  0.4153  0.9303
 4732SOL    HW225659   2.462   3.222   8.559  2.4710  0.0283 -1.6332
 4733SOL     OW25660   0.588   3.294  11.676  0.3633 -0.1269 -0.1741
 4733SOL    HW125661   0.676   3.257  11.675  0.4784  0.1594 -0.9949
 4733SOL    HW225662   0.585   3.339  11.591 -0.6528 -1.5549 -0.8883
 4734SOL     OW25663   3.863   1.879   7.979  0.1542  0.0369  0.4097
 4734SOL    HW125664   3.813   1.804   7.945  0.1512  0.3696 -0.3219
 4734SOL    HW225665   3.814   1.950   7.938 -2.8217 -2.2346  0.0076
 4735SOL     OW25666   0.374   3.571   2.637 -0.3766  0.0095  1.1166
 4735SOL    HW125667   0.315   3.613   2.699  0.0772  1.4780  0.5542
 4735SOL    HW225668   0.349   3.478   2.643  0.4007 -0.2998 -0.4862
 4736SOL     OW25669   1.793   1.150   2.400  0.3222 -0.2597 -0.3471
 4736SOL    HW125670   1.770   1.066   2.439 -0.4900  0.9260  1.7112
 4736SOL    HW225671   1.765   1.146   2.308 -1.3751  2.0839  0.0747
 4737SOL     OW25672   1.097   1.178   5.032 -0.1849 -0.0888  0.3609
 4737SOL    HW125673   1.157   1.105   5.021 -0.3200  0.1130 -1.7921
 4737SOL    HW225674   1.016   1.147   4.991  0.1053  0.8954 -0.9486
 4738SOL     OW25675   3.440   4.034  16.827  0.0175  0.4861 -0.0550
 4738SOL    HW125676   3.433   4.040  16.732  1.3497  0.0331 -0.1794
 4738SOL    HW225677   3.390   4.110  16.857  0.5176  0.8778 -0.2280
 4739SOL     OW25678   2.573   3.589   5.026  0.1218  0.0252 -0.3422
 4739SOL    HW125679   2.500   3.601   5.086  1.7498  1.7297  1.2689
 4739SOL    HW225680   2.594   3.682   5.013  1.2740 -0.0962  0.6090
 4740SOL     OW25681   2.101   3.587   7.152  0.5671  0.2965  0.4234
 4740SOL    HW125682   2.189   3.562   7.179  1.0603 -0.3898 -1.8323
 4740SOL    HW225683   2.069   3.520   7.091  2.1974  0.4126 -0.5350
 4741SOL     OW25684   3.742   0.071   3.693  0.1609  0.2276  0.2583
 4741SOL    HW125685   3.791   0.132   3.638  0.4278 -1.0980 -0.9730
 4741SOL    HW225686   3.741   4.717   3.640  0.6910  0.4188 -0.0375
 4742SOL     OW25687   0.393   3.703  10.613 -0.6417  0.3869 -0.7244
 4742SOL    HW125688   0.364   3.688  10.704 -0.9127 -1.1461 -1.0690
 4742SOL    HW225689   0.478   3.744  10.625  0.3232 -1.9542  0.3925
 4743SOL     OW25690   3.507   2.641  14.711 -0.0183  0.2359  0.2552
 4743SOL    HW125691   3.472   2.701  14.777 -0.3745 -0.5574  0.7799
 4743SOL    HW225692   3.519   2.707  14.642  1.1107 -0.3988 -0.1487
 4744SOL     OW25693   0.687   0.080   7.401  0.1081  0.1807 -0.2483
 4744SOL    HW125694   0.621   0.042   7.343 -0.3135 -0.6771  0.7875
 4744SOL    HW225695   0.760   0.058   7.344  1.2765 -1.7407  1.9710
 4745SOL     OW25696   1.046   0.577   6.404  0.3654  0.2264  0.1070
 4745SOL    HW125697   1.139   0.560   6.393  0.0272 -0.3151 -1.8126
 4745SOL    HW225698   1.026   0.638   6.334  1.1736  0.8453  0.4209
 4746SOL     OW25699   4.558   3.838   3.400 -0.0638  0.0052  0.3437
 4746SOL    HW125700   4.581   3.746   3.387  0.9610  0.0661  1.8600
 4746SOL    HW225701   4.615   3.873   3.331  0.1149  1.6092  1.3071
 4747SOL     OW25702   0.672   2.263  11.641  0.1692 -0.0235  0.0254
 4747SOL    HW125703   0.587   2.265  11.597  0.8339  1.4085 -1.1743
 4747SOL    HW225704   0.709   2.178  11.616 -1.3783 -1.6536  3.1733
 4748SOL     OW25705   2.637   3.169   1.141 -0.2165  0.2900  0.2283
 4748SOL    HW125706   2.717   3.184   1.190 -1.3991  0.6160  2.0739
 4748SOL    HW225707   2.666   3.193   1.053  0.8780 -1.1193  0.2118
 4749SOL     OW25708   3.544   1.496  11.353  0.3478  0.1345 -0.7619
 4749SOL    HW125709   3.602   1.506  11.428 -1.6448  1.2325  0.6125
 4749SOL    HW225710   3.466   1.465  11.399  1.9130 -2.4587  0.1086
 4750SOL     OW25711   3.202   1.212   9.701 -0.0314  0.4414  0.4655
 4750SOL    HW125712   3.204   1.225   9.795 -0.4540  0.0457  0.5303
 4750SOL    HW225713   3.279   1.158   9.681 -3.4189 -3.5787 -1.7591
 4751SOL     OW25714   2.670   3.767  17.025 -0.3734  0.2235 -0.4191
 4751SOL    HW125715   2.669   3.679  16.986 -0.7716 -0.1188  0.3558
 4751SOL    HW225716   2.708   3.816  16.952  0.2446 -0.0852 -0.3046
 4752SOL     OW25717   1.995   3.358   6.017 -0.1907 -0.4456  0.4930
 4752SOL    HW125718   1.974   3.298   5.945 -0.9964  1.3207 -0.7392
 4752SOL    HW225719   1.909   3.383   6.049  0.4656 -1.6422  3.1728
 4753SOL     OW25720   4.404   3.152   8.867  0.1560  0.4404 -0.6154
 4753SOL    HW125721   4.400   3.211   8.942  1.2048 -2.1641  1.4950
 4753SOL    HW225722   4.316   3.165   8.830  0.1367  1.8283 -0.0713
 4754SOL     OW25723   0.246   4.038   3.997  0.7756  0.3754 -0.0040
 4754SOL    HW125724   0.331   4.038   4.042  0.9269 -1.3701 -0.3133
 4754SOL    HW225725   0.250   4.123   3.953  1.1965  1.3971  1.9917
 4755SOL     OW25726   3.352   2.702   5.678 -0.0742 -0.5697  0.7077
 4755SOL    HW125727   3.396   2.674   5.759  0.1587 -0.1949  0.7109
 4755SOL    HW225728   3.302   2.623   5.656  1.0547 -0.7614 -1.1792
 4756SOL     OW25729   3.922   0.306  11.362  0.1430  0.4499  0.2058
 4756SOL    HW125730   3.925   0.393  11.402  0.9406  0.2351  0.6198
 4756SOL    HW225731   3.828   0.290  11.371  0.6353 -1.4458  2.0717
 4757SOL     OW25732   1.228   1.055   5.998 -0.1616 -0.0494  0.3565
 4757SOL    HW125733   1.207   1.067   5.905  1.1118 -2.6765 -0.2505
 4757SOL    HW225734   1.249   0.963   6.013  0.6009  0.3597  1.7677
 4758SOL     OW25735   4.662   1.008   6.317  0.0386  0.0245 -0.3729
 4758SOL    HW125736   4.644   0.952   6.393  1.3727 -0.2339 -0.2549
 4758SOL    HW225737   4.582   0.998   6.265 -1.4270 -0.0980  1.8830
 4759SOL     OW25738   2.710   2.855   2.830 -0.1395  0.0464  0.0544
 4759SOL    HW125739   2.647   2.783   2.826 -0.8168  0.5652  1.8703
 4759SOL    HW225740   2.791   2.815   2.861  0.1021  1.1049  0.7612
 4760SOL     OW25741   0.115   1.339   4.640  0.1187 -0.0890  0.0626
 4760SOL    HW125742   0.189   1.326   4.579  0.7883  0.1376  0.8293
 4760SOL    HW225743   0.135   1.429   4.667 -1.1902 -0.4222  2.0637
 4761SOL     OW25744   1.644   0.957  12.614  0.3795 -0.6064  0.2041
 4761SOL    HW125745   1.581   1.024  12.587  1.6880 -0.0280 -1.3545
 4761SOL    HW225746   1.672   0.937  12.525 -4.3256 -0.5412 -1.3060
 4762SOL     OW25747   2.419   4.559   8.171 -0.3462 -0.3915 -0.1664
 4762SOL    HW125748   2.334   4.526   8.199 -1.0036 -0.9635 -2.7615
 4762SOL    HW225749   2.433   4.505   8.093  1.1637 -0.1049 -0.0917
 4763SOL     OW25750   0.153   0.043  10.203 -0.1407 -0.4966  0.3600
 4763SOL    HW125751   0.140   0.122  10.151  0.0454 -0.9612 -0.4024
 4763SOL    HW225752   0.235   0.009  10.168 -0.4493 -1.6720  0.7898
 4764SOL     OW25753   0.373   1.975  16.637  0.4030  0.4751 -0.2720
 4764SOL    HW125754   0.426   2.019  16.571 -0.7674  0.2873 -1.3254
 4764SOL    HW225755   0.306   1.939  16.579  1.3591 -0.7073 -0.6343
 4765SOL     OW25756   0.043   2.031  10.976 -0.0693 -0.5260 -0.1991
 4765SOL    HW125757   4.718   1.959  10.939 -0.0574 -0.7768  0.2763
 4765SOL    HW225758   0.126   2.006  10.935  0.6537  0.4199  0.6698
 4766SOL     OW25759   2.531   2.032   4.824 -0.2338 -0.3850  0.0159
 4766SOL    HW125760   2.447   2.077   4.828 -0.7974 -1.4444 -0.0084
 4766SOL    HW225761   2.581   2.114   4.825  1.8035 -1.5736 -2.3270
 4767SOL     OW25762   1.493   4.017   5.854 -0.3498 -0.0535 -0.3398
 4767SOL    HW125763   1.460   3.984   5.938  0.9555  0.9852  0.5954
 4767SOL    HW225764   1.571   3.962   5.856 -0.2206  0.1537  0.3457
 4768SOL     OW25765   2.393   1.644   2.802 -0.0038  0.7262  0.3296
 4768SOL    HW125766   2.417   1.693   2.880 -0.4068 -2.4976  2.4430
 4768SOL    HW225767   2.400   1.713   2.735  0.2863 -0.7463 -1.1687
 4769SOL     OW25768   2.628   2.084   7.631  0.3917  0.1811  0.0963
 4769SOL    HW125769   2.560   2.144   7.600 -1.1960 -1.0376  1.2541
 4769SOL    HW225770   2.587   2.036   7.703  1.1458 -0.2751  0.2200
 4770SOL     OW25771   2.245   0.314   5.839 -0.3321 -0.0331  0.3160
 4770SOL    HW125772   2.162   0.282   5.875 -0.2566 -0.5981 -0.0178
 4770SOL    HW225773   2.288   0.235   5.809  1.5305  1.4158 -0.8614
 4771SOL     OW25774   1.244   2.256  13.965  0.2957 -0.1897 -0.9093
 4771SOL    HW125775   1.194   2.201  14.025  0.2457  1.4268  0.5374
 4771SOL    HW225776   1.180   2.266  13.894  0.5452  0.8662 -0.9874
 4772SOL     OW25777   3.652   2.730   8.746 -0.3360 -0.3584 -0.0303
 4772SOL    HW125778   3.747   2.716   8.740 -0.8995 -3.4396 -1.5469
 4772SOL    HW225779   3.618   2.642   8.731 -1.2728 -0.2815  1.6367
 4773SOL     OW25780   0.623   4.351   5.089  0.1255  0.0449 -0.0774
 4773SOL    HW125781   0.651   4.439   5.065 -1.5507  1.1724  2.1531
 4773SOL    HW225782   0.529   4.368   5.079  0.0558 -0.3515 -0.1093
 4774SOL     OW25783   2.093   4.060   9.972 -0.2816 -0.2906  0.4645
 4774SOL    HW125784   2.131   4.149   9.972 -0.3111 -0.2863  1.9565
 4774SOL    HW225785   2.153   3.999  10.014  0.3526  0.8939  1.2875
 4775SOL     OW25786   1.955   0.658  10.578  0.3211 -0.0416  0.6576
 4775SOL    HW125787   2.006   0.738  10.589  1.3905 -1.0171  2.8570
 4775SOL    HW225788   2.012   0.610  10.639  0.5553 -0.4493  0.1207
 4776SOL     OW25789   4.324   2.088  17.261  0.0839  0.5543  0.4455
 4776SOL    HW125790   4.388   2.017  17.254 -1.5139 -0.8643  0.1868
 4776SOL    HW225791   4.302   2.101  17.353 -2.5072  1.5470 -0.2884
 4777SOL     OW25792   2.978   1.668   1.546  0.0819  0.8709 -0.5363
 4777SOL    HW125793   2.884   1.647   1.546 -0.0325  1.3791  0.1675
 4777SOL    HW225794   3.007   1.656   1.637 -1.6933 -0.7758 -0.1684
 4778SOL     OW25795   0.603   0.591  12.584 -0.7983  0.9234 -0.4712
 4778SOL    HW125796   0.657   0.560  12.657 -1.9610 -0.3012 -0.1460
 4778SOL    HW225797   0.644   0.545  12.511 -1.7246  1.6764 -1.4557
 4779SOL     OW25798   3.059   2.896  13.504 -0.2296 -0.2441  0.8336
 4779SOL    HW125799   3.147   2.873  13.473  0.1455  1.0340  0.9444
 4779SOL    HW225800   2.995   2.908  13.434 -0.5452 -0.3630  1.1077
 4780SOL     OW25801   1.553   3.196  16.983 -0.4514  0.3455  0.4103
 4780SOL    HW125802   1.558   3.165  17.073 -1.1938  1.8335  0.9606
 4780SOL    HW225803   1.476   3.253  16.988 -0.9073 -0.2819  0.4293
 4781SOL     OW25804   1.831   0.517  11.769 -0.0206  0.4065  0.0857
 4781SOL    HW125805   1.820   0.596  11.822 -2.7263  1.2076 -1.7065
 4781SOL    HW225806   1.859   0.462  11.843  0.0036 -1.4247 -1.2990
 4782SOL     OW25807   1.812   0.198   9.807  0.0849 -0.2132 -0.3607
 4782SOL    HW125808   1.886   0.181   9.749 -1.6043 -2.2983 -1.9332
 4782SOL    HW225809   1.823   0.122   9.864  1.8215  1.5326  1.6351
 4783SOL     OW25810   2.128   3.145   5.169  0.0513 -0.4709 -0.6924
 4783SOL    HW125811   2.184   3.187   5.234 -1.4273 -0.0605  0.3266
 4783SOL    HW225812   2.177   3.183   5.096  1.4702  2.2725  1.7241
 4784SOL     OW25813   3.539   1.441   7.097  0.3503 -0.3856  0.0295
 4784SOL    HW125814   3.477   1.388   7.147  1.4641 -2.1108 -0.4173
 4784SOL    HW225815   3.518   1.527   7.133  1.1506 -0.8617  1.6093
 4785SOL     OW25816   1.123   2.387  11.732 -0.2349 -0.2491 -0.0400
 4785SOL    HW125817   1.200   2.403  11.787 -1.3428 -0.6992  1.6345
 4785SOL    HW225818   1.161   2.420  11.650  2.1810 -0.8669  0.8487
 4786SOL     OW25819   0.787   3.896   6.720  0.1507 -0.1320 -0.4896
 4786SOL    HW125820   0.816   3.807   6.698  1.3538 -0.0362  0.7006
 4786SOL    HW225821   0.759   3.882   6.810  1.0632  1.2382  0.0008
 4787SOL     OW25822   1.690   3.547   8.281 -0.4540  0.0192  0.0108
 4787SOL    HW125823   1.670   3.599   8.203  0.5371  0.4966  0.0824
 4787SOL    HW225824   1.781   3.574   8.286 -1.0601  1.9907  0.5603
 4788SOL     OW25825   1.320   4.239   8.312  0.1667 -0.0423  0.1828
 4788SOL    HW125826   1.306   4.179   8.385  1.3180  0.5752  0.9052
 4788SOL    HW225827   1.231   4.273   8.302 -0.0989 -0.6784  0.3927
 4789SOL     OW25828   2.202   1.661  16.284 -0.4498 -0.4554  0.0760
 4789SOL    HW125829   2.298   1.662  16.278 -0.6848 -0.9445 -3.5073
 4789SOL    HW225830   2.174   1.752  16.278  0.6929  0.0053  1.4909
 4790SOL     OW25831   4.453   1.428  13.932  0.8518  0.1131  0.3892
 4790SOL    HW125832   4.514   1.492  13.897  0.7152  1.1583  2.1028
 4790SOL    HW225833   4.520   1.369  13.966 -0.5052 -1.1495  0.8827
 4791SOL     OW25834   2.845   0.099  11.562  0.4473 -0.2764  0.2467
 4791SOL    HW125835   2.930   0.085  11.519  0.2757  0.5110 -0.3587
 4791SOL    HW225836   2.846   0.195  11.568  1.9856 -0.4539  2.7295
 4792SOL     OW25837   4.076   0.447  14.727  0.4142  0.0510 -0.3798
 4792SOL    HW125838   4.042   0.507  14.793  1.1388  0.3791 -0.3079
 4792SOL    HW225839   4.106   0.381  14.790 -0.6681 -0.8579 -0.8186
 4793SOL     OW25840   0.510   3.801   2.913 -0.0225 -0.1043 -0.0656
 4793SOL    HW125841   0.561   3.874   2.950  0.2422  0.3685 -1.3805
 4793SOL    HW225842   0.455   3.790   2.991  0.3497  0.0162  0.2195
 4794SOL     OW25843   0.762   2.864  15.929 -0.4020 -0.3870 -0.2385
 4794SOL    HW125844   0.854   2.840  15.925 -0.0690  0.8572  0.0498
 4794SOL    HW225845   0.722   2.788  15.886 -2.0933 -0.0355  0.6874
 4795SOL     OW25846   4.427   4.616  16.846  0.7058  0.5107  0.3171
 4795SOL    HW125847   4.493   4.621  16.777 -0.5911 -1.2439 -1.0537
 4795SOL    HW225848   4.393   4.705  16.851 -2.9762 -0.8294 -1.1424
 4796SOL     OW25849   1.078   2.109   8.171  0.0758  1.0220 -0.3440
 4796SOL    HW125850   1.027   2.069   8.242  0.6599 -1.2196 -1.1681
 4796SOL    HW225851   1.078   2.031   8.116 -0.1001  0.1303  0.9117
 4797SOL     OW25852   2.422   2.247   4.332  0.0692  0.0964  0.5240
 4797SOL    HW125853   2.381   2.189   4.267  0.6070 -2.2452  2.2842
 4797SOL    HW225854   2.407   2.337   4.301 -0.4580 -0.0215  0.4513
 4798SOL     OW25855   3.171   4.088   7.541  0.5118 -0.8337  0.1929
 4798SOL    HW125856   3.137   4.156   7.599  1.0835 -1.6719  1.5191
 4798SOL    HW225857   3.260   4.075   7.572  0.5911  1.0604  0.7632
 4799SOL     OW25858   2.818   0.325   3.143  0.3169 -0.2414 -0.1212
 4799SOL    HW125859   2.788   0.382   3.214 -1.3839 -0.1848 -0.8848
 4799SOL    HW225860   2.738   0.301   3.096  0.3724 -0.3140 -0.1777
 4800SOL     OW25861   2.860   3.320   6.988  0.1254 -0.6268  0.1947
 4800SOL    HW125862   2.882   3.234   6.953 -1.0711 -1.3151  1.1426
 4800SOL    HW225863   2.795   3.310   7.057  0.3846 -0.0621  0.5243
 4801SOL     OW25864   4.610   3.519   7.231 -0.2186 -0.2209  0.2890
 4801SOL    HW125865   4.523   3.492   7.201 -1.0250  0.6428  1.8242
 4801SOL    HW225866   4.596   3.605   7.191  0.6008 -0.2245  0.0011
 4802SOL     OW25867   0.390   2.000  10.695 -0.1049 -0.7976  0.5214
 4802SOL    HW125868   0.370   2.007  10.601 -1.9589  3.3889  1.2390
 4802SOL    HW225869   0.450   2.073  10.706 -0.3462 -0.4393 -0.5131
 4803SOL     OW25870   1.560   1.810   4.279 -0.2087  0.1598  0.1366
 4803SOL    HW125871   1.510   1.881   4.240 -1.2419 -0.0193  1.1307
 4803SOL    HW225872   1.623   1.853   4.337  0.2893 -1.3326  0.7181
 4804SOL     OW25873   1.387   1.331   4.097  0.1438  0.3857  0.0566
 4804SOL    HW125874   1.466   1.296   4.055 -1.1562 -0.7403 -1.4902
 4804SOL    HW225875   1.356   1.379   4.020 -0.3939 -0.6119 -0.3655
 4805SOL     OW25876   1.679   2.691   8.052 -0.1849 -0.7503 -0.0858
 4805SOL    HW125877   1.714   2.765   8.003 -0.3088  0.5322  1.8065
 4805SOL    HW225878   1.661   2.734   8.135 -0.2719 -1.9898  0.5372
 4806SOL     OW25879   1.193   3.552   5.932 -0.6013 -0.2069  0.2791
 4806SOL    HW125880   1.183   3.642   5.963  1.4111 -0.6940  2.3342
 4806SOL    HW225881   1.099   3.535   5.919 -0.4797  0.0877 -0.9611
 4807SOL     OW25882   0.956   3.873   4.521  0.1621 -0.3073  0.1042
 4807SOL    HW125883   1.050   3.891   4.520  0.3365 -1.1735  0.3683
 4807SOL    HW225884   0.951   3.845   4.612  1.8080 -1.3980 -0.1183
 4808SOL     OW25885   1.049   0.272   3.815 -0.4060  0.0676 -0.1720
 4808SOL    HW125886   1.011   0.317   3.891  0.7372  1.0990 -0.2136
 4808SOL    HW225887   0.982   0.204   3.805  1.9297 -1.6875 -3.8537
 4809SOL     OW25888   3.305   0.748   8.002  0.2999 -0.3370 -0.6557
 4809SOL    HW125889   3.383   0.693   8.011 -1.3513 -2.2714  1.7577
 4809SOL    HW225890   3.305   0.769   7.908  2.6392 -2.1868 -1.0798
 4810SOL     OW25891   1.754   4.030   7.949  0.1802  0.4499  0.2763
 4810SOL    HW125892   1.827   4.091   7.956 -0.0573  0.9106 -1.2725
 4810SOL    HW225893   1.799   3.950   7.976 -0.1586 -1.2427 -4.0508
 4811SOL     OW25894   2.902   2.112  11.470  0.4893 -0.3004  0.1009
 4811SOL    HW125895   2.896   2.108  11.374 -0.8209 -2.8890  0.3067
 4811SOL    HW225896   2.996   2.111  11.488  0.5605 -2.0491 -0.3879
 4812SOL     OW25897   4.139   3.192   4.003  0.3079  0.2214  0.0728
 4812SOL    HW125898   4.198   3.265   4.023  0.5870 -0.7108  2.6078
 4812SOL    HW225899   4.128   3.155   4.091  0.2962 -1.1496 -0.5045
 4813SOL     OW25900   2.789   0.416   9.826 -0.1907  0.1035  0.6508
 4813SOL    HW125901   2.824   0.463   9.901 -0.0008  0.3026  0.4367
 4813SOL    HW225902   2.711   0.375   9.865  0.8085 -0.5939  1.8842
 4814SOL     OW25903   1.548   0.811  11.404  0.6703  0.2022 -0.0901
 4814SOL    HW125904   1.606   0.854  11.341 -0.4598  0.6128 -0.8657
 4814SOL    HW225905   1.609   0.746  11.436  0.7060 -0.0777 -0.7206
 4815SOL     OW25906   3.069   2.738   3.303  0.0462  0.6918 -0.0709
 4815SOL    HW125907   3.160   2.738   3.273  0.6159  0.1319  1.6806
 4815SOL    HW225908   3.080   2.722   3.397 -0.4549 -1.0640 -0.3043
 4816SOL     OW25909   0.342   1.599   4.219 -0.2401  0.2086  0.9852
 4816SOL    HW125910   0.402   1.673   4.212  2.0521 -1.6288  1.2004
 4816SOL    HW225911   0.403   1.533   4.184 -1.8924 -0.9743  0.3427
 4817SOL     OW25912   4.318   1.344   6.172  0.3412  0.3564 -0.0951
 4817SOL    HW125913   4.296   1.284   6.243 -1.7895 -0.2816 -1.2597
 4817SOL    HW225914   4.233   1.389   6.162 -1.1476 -2.1868  1.2133
 4818SOL     OW25915   1.232   1.800   4.397 -1.0217  0.3831  0.0053
 4818SOL    HW125916   1.248   1.802   4.492 -3.5862 -3.2554  0.5369
 4818SOL    HW225917   1.286   1.869   4.358 -1.0687 -1.1650 -2.7821
 4819SOL     OW25918   3.086   1.281   7.227 -0.4419  0.0117 -0.2871
 4819SOL    HW125919   3.022   1.350   7.245 -1.1715 -0.9380  0.8195
 4819SOL    HW225920   3.029   1.214   7.190 -0.8550  1.0725 -1.5691
 4820SOL     OW25921   2.732   1.400   9.646 -0.4321  0.3114  0.2818
 4820SOL    HW125922   2.809   1.454   9.627 -2.0499  2.1030 -1.1759
 4820SOL    HW225923   2.710   1.435   9.732  0.2731 -0.5574  0.8150
 4821SOL     OW25924   1.024   0.099   8.936  0.4239 -0.5181  0.3665
 4821SOL    HW125925   0.967   0.023   8.948 -0.4092  0.2079  1.0544
 4821SOL    HW225926   1.045   0.101   8.843  1.8730 -1.3452  0.6858
 4822SOL     OW25927   4.142   2.612   2.757  0.2015 -0.0478  0.1056
 4822SOL    HW125928   4.153   2.676   2.687  0.5137  0.4175  0.5822
 4822SOL    HW225929   4.210   2.643   2.816  2.3422 -2.2026 -1.2388
 4823SOL     OW25930   0.082   1.440  10.813  0.4576 -0.1247  0.4558
 4823SOL    HW125931   0.013   1.373  10.815 -0.1454  0.5428  1.7190
 4823SOL    HW225932   0.157   1.388  10.840  2.1593  1.8930 -0.3875
 4824SOL     OW25933   1.488   4.685   7.690  0.0641 -0.0937 -0.1793
 4824SOL    HW125934   1.580   4.666   7.672  0.0537  1.0847 -1.4250
 4824SOL    HW225935   1.483   4.689   7.786  0.6144  0.1919 -0.1645
 4825SOL     OW25936   3.410   2.000  12.643 -0.0899 -0.4822 -0.0336
 4825SOL    HW125937   3.449   1.917  12.671 -1.2857 -0.7601  0.8150
 4825SOL    HW225938   3.481   2.061  12.664  1.1583 -2.1532  0.5545
 4826SOL     OW25939   2.723   0.166   5.456 -0.1003 -0.2335 -0.1703
 4826SOL    HW125940   2.641   0.195   5.416 -2.0401 -1.5896  2.7674
 4826SOL    HW225941   2.685   0.150   5.543 -1.9451  0.5895 -0.8360
 4827SOL     OW25942   3.207   0.901   7.319 -0.0225  0.3971  0.1742
 4827SOL    HW125943   3.140   0.889   7.386  0.0248  0.2324  0.1906
 4827SOL    HW225944   3.162   0.876   7.238 -0.5811 -0.2884  0.7031
 4828SOL     OW25945   1.373   4.618   6.958  0.3585 -0.1647 -0.1735
 4828SOL    HW125946   1.430   4.585   7.027  1.3356  2.1751  0.1302
 4828SOL    HW225947   1.354   4.533   6.919  0.6104 -0.2845 -0.0341
 4829SOL     OW25948   1.764   2.202  13.586  0.0274  0.2708 -0.7358
 4829SOL    HW125949   1.770   2.106  13.591  0.9753  0.3914  0.3307
 4829SOL    HW225950   1.687   2.221  13.640 -0.1681 -2.5036 -0.0458
 4830SOL     OW25951   1.963   4.394   7.757  0.5839 -0.1127  0.3384
 4830SOL    HW125952   2.022   4.424   7.825  0.4044 -1.8166  1.2366
 4830SOL    HW225953   1.945   4.306   7.789  2.2150 -0.2343  0.8975
 4831SOL     OW25954   3.761   4.001   6.892 -0.3986 -0.0910 -0.1083
 4831SOL    HW125955   3.733   4.071   6.952  0.3463  2.6958 -2.9964
 4831SOL    HW225956   3.696   3.999   6.822 -0.6831 -2.8474  0.2401
 4832SOL     OW25957   0.777   0.340   0.959  0.2584 -0.6520  0.4525
 4832SOL    HW125958   0.798   0.434   0.955  1.8725 -0.9817  1.2985
 4832SOL    HW225959   0.767   0.327   0.864 -1.1917  0.5030  0.4339
 4833SOL     OW25960   0.591   3.912   9.469 -0.3284 -0.4043  0.1250
 4833SOL    HW125961   0.635   3.992   9.497 -1.2962  0.8309 -1.9144
 4833SOL    HW225962   0.500   3.938   9.456  0.2907  2.0874  0.7894
 4834SOL     OW25963   0.804   1.586   2.546  0.4607 -0.5775 -0.2778
 4834SOL    HW125964   0.877   1.524   2.549  0.2997 -0.6902  1.9804
 4834SOL    HW225965   0.780   1.579   2.454 -1.8008  0.0267  0.2625
 4835SOL     OW25966   3.762   1.360   2.655  0.2236 -0.2188  0.2824
 4835SOL    HW125967   3.822   1.421   2.612 -0.2152 -0.6181 -0.8833
 4835SOL    HW225968   3.781   1.366   2.749 -2.0006  0.2865  0.6988
 4836SOL     OW25969   1.188   0.697   0.724  0.3158  0.4645 -0.7873
 4836SOL    HW125970   1.241   0.618   0.710  1.3228  0.8257  1.0973
 4836SOL    HW225971   1.229   0.761   0.666  1.7865 -0.5919 -0.9191
 4837SOL     OW25972   1.947   3.932   4.910  0.4775  0.3759  0.3804
 4837SOL    HW125973   1.876   3.869   4.895  2.1412 -1.1154 -1.2128
 4837SOL    HW225974   1.895   4.012   4.901 -2.0268 -1.4799 -2.0801
 4838SOL     OW25975   1.134   2.748  15.049  0.5036  0.4241  0.0326
 4838SOL    HW125976   1.098   2.671  15.005  0.6025  0.9419 -0.9423
 4838SOL    HW225977   1.229   2.739  15.035  0.2211 -2.3151 -0.1002
 4839SOL     OW25978   0.643   1.143   8.375 -0.2768  0.0810 -0.2751
 4839SOL    HW125979   0.653   1.065   8.321 -0.9583  0.5843 -1.1327
 4839SOL    HW225980   0.725   1.144   8.424  0.5964  0.4508 -1.7326
 4840SOL     OW25981   2.093   3.068  11.212  0.0640  0.2779 -0.4028
 4840SOL    HW125982   2.111   2.976  11.232  1.6767  1.3145  2.9051
 4840SOL    HW225983   2.144   3.126  11.269  0.9004 -2.0833  1.2311
 4841SOL     OW25984   0.203   0.534  14.487 -0.0876 -0.4535  0.0802
 4841SOL    HW125985   0.170   0.585  14.414 -0.6288 -0.1884  0.5116
 4841SOL    HW225986   0.134   0.534  14.553 -0.6135  3.4710 -0.5173
 4842SOL     OW25987   4.169   0.686   3.609  0.7531  0.4643 -0.4245
 4842SOL    HW125988   4.123   0.713   3.529 -0.7274 -1.7222 -0.3103
 4842SOL    HW225989   4.246   0.731   3.574  2.5061 -0.9899  1.6114
 4843SOL     OW25990   3.094   0.965   4.354 -0.3723  0.0778  0.1858
 4843SOL    HW125991   3.136   0.941   4.437  0.2609 -0.4475 -0.2966
 4843SOL    HW225992   3.041   1.037   4.389  0.0771  0.6011 -0.2068
 4844SOL     OW25993   1.757   3.032   4.587  0.5682  0.0831 -0.7630
 4844SOL    HW125994   1.690   3.101   4.583  2.2360  1.6832 -0.8584
 4844SOL    HW225995   1.704   2.952   4.588 -0.2516  0.6118 -1.1845
 4845SOL     OW25996   4.429   2.176   4.333  0.7551  0.5547 -0.5951
 4845SOL    HW125997   4.503   2.135   4.287  2.4537  1.2509  1.5268
 4845SOL    HW225998   4.443   2.266   4.305 -0.7932  1.2573  0.9316
 4846SOL     OW25999   0.314   0.107   3.146 -0.2915  0.1966 -0.5115
 4846SOL    HW126000   0.278   0.080   3.061  0.1105 -0.5143 -0.4572
 4846SOL    HW226001   0.237   0.141   3.191 -0.5891  0.2788 -1.0776
 4847SOL     OW26002   3.251   1.180   0.779 -0.1265 -0.3006 -0.2280
 4847SOL    HW126003   3.178   1.218   0.828  0.8459 -1.5457  2.2205
 4847SOL    HW226004   3.249   1.086   0.798  2.2079 -0.5687 -1.3805
 4848SOL     OW26005   3.241   3.784   1.643 -0.0820 -0.5127  0.1315
 4848SOL    HW126006   3.334   3.762   1.651 -0.0226 -0.7189 -1.0314
 4848SOL    HW226007   3.235   3.868   1.688  0.9131 -0.0813 -0.5460
 4849SOL     OW26008   1.456   2.546   7.071 -0.1798  0.3416  0.5603
 4849SOL    HW126009   1.432   2.499   7.151  0.4130 -2.4103 -0.8881
 4849SOL    HW226010   1.371   2.562   7.029 -0.3318  1.8017  1.4208
 4850SOL     OW26011   2.605   4.141   4.023 -0.2909 -0.3570  0.0720
 4850SOL    HW126012   2.583   4.146   4.116 -1.0956  1.1299 -0.1914
 4850SOL    HW226013   2.700   4.125   4.017 -0.2079  0.1489 -0.0033
 4851SOL     OW26014   0.192   0.369   4.670  0.1085 -0.1706  0.1409
 4851SOL    HW126015   0.232   0.419   4.741  0.7152  0.6190 -0.7569
 4851SOL    HW226016   0.219   0.423   4.595 -0.8232  0.5431  0.3110
 4852SOL     OW26017   3.370   0.062  10.295 -0.5307 -0.1693  0.3216
 4852SOL    HW126018   3.320   0.059  10.377  1.4153  2.5052  1.6052
 4852SOL    HW226019   3.355   0.156  10.282  2.9276  0.3382  0.1088
 4853SOL     OW26020   2.902   1.136   7.106 -0.2744 -0.2740  0.3689
 4853SOL    HW126021   2.894   1.125   7.012 -0.1399  3.3310 -0.0973
 4853SOL    HW226022   2.814   1.155   7.139 -0.4742 -0.2074 -0.1949
 4854SOL     OW26023   3.888   0.378   1.833 -0.0602  0.4557 -0.4454
 4854SOL    HW126024   3.810   0.423   1.798 -0.8116  0.9505  1.8944
 4854SOL    HW226025   3.951   0.451   1.833  2.4691 -1.7303 -0.1161
 4855SOL     OW26026   4.377   0.662  13.147 -0.1111  0.2544 -0.2228
 4855SOL    HW126027   4.371   0.612  13.229  0.4650 -0.0258 -0.3494
 4855SOL    HW226028   4.429   0.731  13.187  0.8295 -0.0833 -0.8469
 4856SOL     OW26029   1.508   1.408   8.336 -0.5674 -0.2660  0.0589
 4856SOL    HW126030   1.570   1.359   8.282 -0.1256 -1.0970  1.3238
 4856SOL    HW226031   1.449   1.337   8.363 -0.6794  0.1261  0.8430
 4857SOL     OW26032   3.451   4.064  17.468 -0.0860  0.1386  0.0061
 4857SOL    HW126033   3.433   4.066  17.562 -1.6775  0.8769 -0.3249
 4857SOL    HW226034   3.420   3.978  17.442  3.6089 -1.2978  0.2515
 4858SOL     OW26035   4.636   2.464   8.721  0.1202 -0.1581  0.6668
 4858SOL    HW126036   4.630   2.548   8.676  0.1966 -0.0751  0.8107
 4858SOL    HW226037   4.564   2.409   8.687 -0.0746  2.0740 -2.4989
 4859SOL     OW26038   4.631   0.192  15.713  0.2913  0.5482 -0.3232
 4859SOL    HW126039   4.662   0.275  15.750  0.9458 -0.1073  0.5917
 4859SOL    HW226040   4.599   0.151  15.793  0.1345  1.4219  0.0651
 4860SOL     OW26041   1.182   0.132  14.452  0.5601 -0.1338  0.2057
 4860SOL    HW126042   1.188   0.206  14.391  1.2938  2.1608  3.0286
 4860SOL    HW226043   1.115   0.083  14.405 -1.0253  2.2579 -0.0567
 4861SOL     OW26044   3.104   4.465   2.646 -0.2675  0.1093 -0.1158
 4861SOL    HW126045   3.067   4.493   2.562  2.2612 -1.8838 -1.8638
 4861SOL    HW226046   3.071   4.375   2.647  0.3682 -0.1164  0.6319
 4862SOL     OW26047   3.215   0.182   5.058 -0.2802  0.2584  0.1007
 4862SOL    HW126048   3.150   0.231   5.108 -0.4379 -0.5524  0.6819
 4862SOL    HW226049   3.252   0.246   4.996 -0.3598  0.2506  0.0459
 4863SOL     OW26050   2.256   0.268   2.110 -0.2154 -1.2166  0.2106
 4863SOL    HW126051   2.166   0.292   2.086  0.4077  1.0590  0.1162
 4863SOL    HW226052   2.289   0.234   2.027 -1.4603 -2.5720  0.2676
 4864SOL     OW26053   1.065   2.359  10.648 -0.0283 -0.1613 -0.3180
 4864SOL    HW126054   1.102   2.284  10.695 -0.6486 -0.2866 -0.0359
 4864SOL    HW226055   1.029   2.417  10.715  1.2140 -2.6861  2.4969
 4865SOL     OW26056   2.147   1.569   8.856  0.2043 -0.4164  0.2277
 4865SOL    HW126057   2.173   1.574   8.764 -0.2477 -1.3113  0.0513
 4865SOL    HW226058   2.227   1.601   8.897  1.6698 -2.0478 -1.3532
 4866SOL     OW26059   0.273   3.111   3.683  0.0867 -0.1419  0.3520
 4866SOL    HW126060   0.287   3.154   3.599  0.8851 -0.9831  0.0564
 4866SOL    HW226061   0.249   3.185   3.740 -0.0742 -1.6932  2.2877
 4867SOL     OW26062   1.259   0.655   8.494  0.3281  0.1267 -0.5918
 4867SOL    HW126063   1.184   0.693   8.539  0.5087 -0.1542 -0.0561
 4867SOL    HW226064   1.320   0.645   8.568  0.0103 -0.3889 -0.4021
 4868SOL     OW26065   1.373   4.654   0.869  0.0388 -0.0285 -0.0516
 4868SOL    HW126066   1.425   4.719   0.916  2.6294 -1.9848 -0.2153
 4868SOL    HW226067   1.441   4.615   0.814 -0.5757 -1.2717  0.0809
 4869SOL     OW26068   2.642   2.038  10.446 -0.1643 -0.3257 -0.4630
 4869SOL    HW126069   2.683   2.033  10.532  0.5075 -1.0191 -0.8283
 4869SOL    HW226070   2.657   2.128  10.415  2.3034  0.1349  2.0425
 4870SOL     OW26071   3.189   1.250   2.602  0.1263 -0.3089 -0.3294
 4870SOL    HW126072   3.097   1.225   2.594 -0.7207  1.9162  2.3618
 4870SOL    HW226073   3.224   1.163   2.623 -1.2453 -0.6995  0.3516
 4871SOL     OW26074   2.308   2.746   4.787  0.2953  0.1465  0.2453
 4871SOL    HW126075   2.251   2.822   4.772  0.9526  0.8596  1.4147
 4871SOL    HW226076   2.309   2.715   4.696  0.7202 -1.5581  0.8428
 4872SOL     OW26077   4.421   4.451   8.576  0.0982 -0.1902 -0.3105
 4872SOL    HW126078   4.474   4.423   8.651 -1.5293  1.1110  1.3270
 4872SOL    HW226079   4.348   4.397   8.608 -0.4737  0.2029 -0.9527
 4873SOL     OW26080   1.760   4.272   4.469  0.5780 -0.0130 -0.0056
 4873SOL    HW126081   1.735   4.309   4.553  1.3037 -1.0605  0.6692
 4873SOL    HW226082   1.846   4.234   4.485 -0.1201 -1.5044  0.1518
 4874SOL     OW26083   0.642   1.755  14.736  0.4903 -0.0284 -0.5210
 4874SOL    HW126084   0.614   1.828  14.681 -1.9284 -0.3192  0.3201
 4874SOL    HW226085   0.737   1.760  14.733  0.4476  1.1434  0.4423
 4875SOL     OW26086   4.189   3.658  14.774 -0.3797  0.1969  0.3842
 4875SOL    HW126087   4.119   3.710  14.813  0.0483  0.0570  1.3290
 4875SOL    HW226088   4.256   3.726  14.777  0.4586 -0.4924 -2.5526
 4876SOL     OW26089   3.698   1.812   3.113  0.3601 -0.1911  0.2799
 4876SOL    HW126090   3.710   1.827   3.206  1.7781 -0.8650  0.2010
 4876SOL    HW226091   3.658   1.896   3.087 -0.6343 -0.1311  1.9944
 4877SOL     OW26092   1.223   1.925   5.557  0.4250  0.0499 -0.1073
 4877SOL    HW126093   1.275   1.961   5.629  1.6747 -0.5406 -0.7048
 4877SOL    HW226094   1.138   1.938   5.597  0.6589 -2.4320  1.1854
 4878SOL     OW26095   3.159   2.458   4.704 -0.3522 -0.1007  0.3273
 4878SOL    HW126096   3.241   2.495   4.738 -1.9736  0.7671  3.2576
 4878SOL    HW226097   3.112   2.541   4.699 -1.9301 -0.8035  3.5972
 4879SOL     OW26098   3.381   1.050  10.142  0.5922  0.4746 -0.4668
 4879SOL    HW126099   3.403   0.957  10.142 -0.2812  0.2774 -2.4229
 4879SOL    HW226100   3.461   1.092  10.173  0.8217  1.4265 -2.3844
 4880SOL     OW26101   3.011   1.589   7.843 -0.5772 -0.6231  0.6018
 4880SOL    HW126102   3.002   1.549   7.756 -0.8060 -0.7011  0.6619
 4880SOL    HW226103   3.011   1.680   7.814 -2.6619 -0.0865  2.3325
 4881SOL     OW26104   0.005   3.261  11.471 -0.0950 -0.2035  0.1579
 4881SOL    HW126105   0.054   3.302  11.541  2.9682  0.3012 -2.2872
 4881SOL    HW226106   0.079   3.245  11.412 -0.4482  3.6767 -1.3545
 4882SOL     OW26107   1.871   2.825   4.833  0.4751 -1.2223 -0.2412
 4882SOL    HW126108   1.846   2.736   4.860  1.8334 -1.3845  0.4591
 4882SOL    HW226109   1.898   2.799   4.744  1.0588  2.1382 -1.0241
 4883SOL     OW26110   2.714   1.005   5.045  0.5474  0.3435 -0.2042
 4883SOL    HW126111   2.772   1.018   5.119  2.0099 -1.8699 -0.9671
 4883SOL    HW226112   2.642   1.066   5.065  0.6811  0.0285  1.2357
 4884SOL     OW26113   1.273   3.129   7.506 -0.9305  0.1795  0.2043
 4884SOL    HW126114   1.278   3.152   7.414 -1.3474 -2.5743 -0.5173
 4884SOL    HW226115   1.356   3.165   7.538 -0.2830 -0.1667 -1.0579
 4885SOL     OW26116   1.346   4.699   3.346 -0.1143  0.0079  0.0263
 4885SOL    HW126117   1.328   0.037   3.276 -2.4844  0.4191  1.0292
 4885SOL    HW226118   1.441   4.686   3.351  0.0178  0.3386 -1.4299
 4886SOL     OW26119   3.571   1.660   3.606  0.1347 -0.3310  0.3390
 4886SOL    HW126120   3.518   1.650   3.527 -1.1945  1.8719  0.9517
 4886SOL    HW226121   3.500   1.691   3.663  0.1232 -1.6886  1.0516
 4887SOL     OW26122   4.320   4.144  13.874  0.4609  0.2237  0.6095
 4887SOL    HW126123   4.371   4.210  13.826 -1.6883  1.0409 -0.5597
 4887SOL    HW226124   4.347   4.167  13.963 -0.3808  0.6536  0.7610
 4888SOL     OW26125   1.044   1.131   7.000  0.2954 -0.0489 -0.4212
 4888SOL    HW126126   1.082   1.060   6.947  2.7227  1.1617 -0.2934
 4888SOL    HW226127   1.011   1.195   6.937  2.1933  1.6186  0.2800
 4889SOL     OW26128   0.322   2.290  11.078  0.5004 -0.3494 -0.1610
 4889SOL    HW126129   0.268   2.369  11.081  3.5204  1.7577 -0.9388
 4889SOL    HW226130   0.277   2.248  11.151 -1.2004 -0.2346 -1.1389
 4890SOL     OW26131   3.807   3.823   2.702 -0.1622 -0.0808 -0.2765
 4890SOL    HW126132   3.755   3.902   2.688  0.8213  0.9681  2.0652
 4890SOL    HW226133   3.818   3.801   2.609 -0.6868  0.8775 -0.5660
 4891SOL     OW26134   2.077   1.221   4.265 -0.0129  0.0721  0.3346
 4891SOL    HW126135   2.127   1.302   4.264 -1.8917  1.2321  0.4305
 4891SOL    HW226136   2.006   1.233   4.203  0.9017  1.0762 -0.5162
 4892SOL     OW26137   1.120   0.235   7.597  0.1237  0.3927 -0.0596
 4892SOL    HW126138   1.143   0.167   7.534 -2.4601 -0.6588  0.1576
 4892SOL    HW226139   1.136   0.187   7.679 -3.1589 -1.3990 -0.4998
 4893SOL     OW26140   0.324   1.524  11.008 -0.1768  0.0859 -0.6628
 4893SOL    HW126141   0.328   1.460  10.937 -2.2880 -1.4399  0.5765
 4893SOL    HW226142   0.343   1.461  11.077  1.5651  2.1928  0.7823
 4894SOL     OW26143   4.238   0.560  12.912  0.4942  0.2639 -0.2594
 4894SOL    HW126144   4.270   0.601  12.832  2.4185 -2.6867 -1.0038
 4894SOL    HW226145   4.286   0.603  12.983  2.4454 -0.6878 -1.0270
 4895SOL     OW26146   3.947   4.291   6.583  0.0803 -0.4135  0.6148
 4895SOL    HW126147   4.018   4.255   6.636  1.5533  0.0217 -1.0581
 4895SOL    HW226148   3.995   4.367   6.550 -0.3322 -0.4930 -0.1487
 4896SOL     OW26149   4.326   4.531   4.072  0.4589 -0.1612  0.7999
 4896SOL    HW126150   4.354   4.493   4.155  0.9787  2.6338  1.8735
 4896SOL    HW226151   4.379   4.477   4.013  0.2973  1.8120 -1.1737
 4897SOL     OW26152   1.366   3.950   2.206 -0.7878  1.0159 -0.3235
 4897SOL    HW126153   1.324   3.864   2.214  1.1340 -0.1184 -2.5798
 4897SOL    HW226154   1.294   4.002   2.170 -1.5550 -0.7814 -1.4070
 4898SOL     OW26155   0.604   0.512  14.513 -0.0368 -0.0153 -0.1838
 4898SOL    HW126156   0.568   0.425  14.493 -1.9321  0.1826  2.3628
 4898SOL    HW226157   0.696   0.499  14.492 -0.5887 -1.6250 -1.6194
 4899SOL     OW26158   3.445   2.720  12.978 -0.0741  0.4468 -0.5706
 4899SOL    HW126159   3.417   2.810  12.997 -0.4143 -0.4009  3.0192
 4899SOL    HW226160   3.362   2.674  12.982 -0.0424  0.2501 -2.2476
 4900SOL     OW26161   3.938   0.388   4.725  0.1829 -0.0065 -0.3902
 4900SOL    HW126162   3.958   0.456   4.789 -1.1217  0.4723 -0.5043
 4900SOL    HW226163   3.844   0.375   4.731  0.0901  0.8445 -0.1005
 4901SOL     OW26164   2.313   1.301   4.757  0.2188 -0.6494  0.3445
 4901SOL    HW126165   2.221   1.326   4.746  0.0002 -1.2262  0.9099
 4901SOL    HW226166   2.306   1.261   4.843 -2.3546  1.6805  1.2094
 4902SOL     OW26167   3.287   3.296   8.726 -0.1697 -0.1072  0.6354
 4902SOL    HW126168   3.314   3.271   8.815 -2.3721 -0.3671  1.2117
 4902SOL    HW226169   3.202   3.252   8.722  0.3739 -0.9588 -1.5184
 4903SOL     OW26170   0.201   4.254   3.358  0.7121  0.4314 -0.7582
 4903SOL    HW126171   0.162   4.328   3.312  0.6770 -0.9743 -3.0158
 4903SOL    HW226172   0.210   4.286   3.448  1.4971  2.6816 -1.6384
 4904SOL     OW26173   4.202   3.034  11.304 -0.6484 -0.3923  0.2578
 4904SOL    HW126174   4.135   3.047  11.371 -0.2190 -0.4094  0.6899
 4904SOL    HW226175   4.190   3.112  11.250  0.4846  0.1318  0.7429
 4905SOL     OW26176   2.544   0.436  11.674 -0.5416 -0.1558  0.2180
 4905SOL    HW126177   2.474   0.461  11.734 -2.3869  0.9416 -2.4223
 4905SOL    HW226178   2.501   0.453  11.590 -1.5638 -0.0549  0.7623
 4906SOL     OW26179   0.608   1.392   3.055 -0.5440  0.3920 -0.6664
 4906SOL    HW126180   0.548   1.464   3.035  2.2993  2.8315 -0.4239
 4906SOL    HW226181   0.697   1.423   3.037 -0.3644  1.4283  2.0949
 4907SOL     OW26182   3.270   0.851  15.347 -0.8085 -0.4004  0.2291
 4907SOL    HW126183   3.313   0.767  15.361  1.9428  0.7853 -1.0132
 4907SOL    HW226184   3.349   0.902  15.330 -1.0358 -0.2798 -0.4552
 4908SOL     OW26185   4.326   2.488   4.434 -0.5177 -0.1123  0.1727
 4908SOL    HW126186   4.392   2.446   4.489 -0.0017  1.4971  0.7702
 4908SOL    HW226187   4.376   2.479   4.353 -0.2175  0.6398  0.2851
 4909SOL     OW26188   2.640   1.165   6.428  0.8869 -0.5893  0.0483
 4909SOL    HW126189   2.664   1.241   6.376  0.6219 -2.1063 -2.3188
 4909SOL    HW226190   2.728   1.133   6.451  0.5484 -2.3027 -1.0785
 4910SOL     OW26191   1.166   1.519   6.284  0.1408 -0.0369  0.3246
 4910SOL    HW126192   1.232   1.559   6.227 -0.2961 -0.1697 -0.2737
 4910SOL    HW226193   1.197   1.547   6.370 -0.3053  0.2256  0.3995
 4911SOL     OW26194   0.489   3.326   1.027 -0.4159 -0.5469 -0.1360
 4911SOL    HW126195   0.531   3.392   1.083 -0.2752 -1.1604  0.4827
 4911SOL    HW226196   0.446   3.382   0.962 -1.3010 -0.9916  0.0686
 4912SOL     OW26197   1.885   2.631   0.396  0.2344  0.1841 -0.5606
 4912SOL    HW126198   1.924   2.553   0.356  0.7687 -0.9273  2.1613
 4912SOL    HW226199   1.917   2.611   0.484 -2.1657  0.6572  0.4143
 4913SOL     OW26200   3.108   1.498   9.245  0.8520  0.4844  0.2741
 4913SOL    HW126201   3.048   1.572   9.255 -0.1599 -0.1521 -1.0404
 4913SOL    HW226202   3.065   1.470   9.164 -0.2577 -2.4549  1.8916
 4914SOL     OW26203   1.210   3.492   7.548 -0.2269 -0.2266  0.2770
 4914SOL    HW126204   1.183   3.432   7.618  1.3399 -1.5781 -0.2683
 4914SOL    HW226205   1.306   3.502   7.550 -0.3035  0.1760  2.0344
 4915SOL     OW26206   1.290   2.403  10.500  0.1117 -0.4274  0.0436
 4915SOL    HW126207   1.218   2.367  10.552 -2.0797  2.8940 -0.6906
 4915SOL    HW226208   1.338   2.454  10.564 -0.4688 -0.0994  0.2118
 4916SOL     OW26209   0.784   1.208   8.992 -0.5780 -0.4799 -0.7753
 4916SOL    HW126210   0.764   1.141   9.057 -2.4808  0.6415 -0.2130
 4916SOL    HW226211   0.878   1.192   8.986 -0.4681 -0.5703  1.1707
 4917SOL     OW26212   1.551   4.324   3.522 -0.0304 -0.4844  0.3599
 4917SOL    HW126213   1.516   4.349   3.437 -1.7426 -3.2673  0.2601
 4917SOL    HW226214   1.560   4.229   3.513 -0.4288 -0.3825 -1.1135
 4918SOL     OW26215   1.184   0.368   4.547  0.0966  0.2154 -0.7095
 4918SOL    HW126216   1.241   0.395   4.475  1.0494 -0.0658 -0.0617
 4918SOL    HW226217   1.203   0.274   4.546  0.6976  0.3042  3.4496
 4919SOL     OW26218   2.458   0.552  16.868 -0.1296 -0.6811  0.2159
 4919SOL    HW126219   2.423   0.633  16.903  0.7180 -0.4916  0.6156
 4919SOL    HW226220   2.507   0.590  16.795  0.2571  1.4195  1.5735
 4920SOL     OW26221   1.335   0.113   3.728  0.0162  0.0049 -0.0775
 4920SOL    HW126222   1.425   0.146   3.718  0.5297 -1.5254 -0.3916
 4920SOL    HW226223   1.314   0.141   3.817 -2.0104 -0.4511 -0.4295
 4921SOL     OW26224   3.918   0.283   5.128  0.1802 -0.7573 -0.6209
 4921SOL    HW126225   3.869   0.232   5.062 -0.8451  0.6478 -0.9380
 4921SOL    HW226226   3.853   0.276   5.198 -0.1335 -2.1080 -1.0412
 4922SOL     OW26227   1.689   3.850   2.461 -0.4099  0.0068  0.2429
 4922SOL    HW126228   1.627   3.795   2.413 -0.9035  0.5989  0.1966
 4922SOL    HW226229   1.628   3.919   2.488 -1.6330 -1.8851  2.4337
 4923SOL     OW26230   0.404   4.311  13.018  0.5209  0.1631 -0.6351
 4923SOL    HW126231   0.400   4.406  13.015  0.2272  0.1581 -0.4070
 4923SOL    HW226232   0.483   4.289  13.067  0.8411 -0.2195 -1.3237
 4924SOL     OW26233   2.835   1.186   9.328 -0.2174  0.1536  0.7323
 4924SOL    HW126234   2.805   1.270   9.294 -1.6409 -0.9484 -0.7238
 4924SOL    HW226235   2.907   1.218   9.382 -1.1116  0.3978  1.7653
 4925SOL     OW26236   4.423   1.355   6.498  0.6738  0.1392 -0.1883
 4925SOL    HW126237   4.370   1.421   6.453 -4.9587 -2.3656  2.6543
 4925SOL    HW226238   4.483   1.347   6.424 -1.6332 -2.4663 -1.7959
 4926SOL     OW26239   0.574   1.001   4.038 -0.0665 -1.0274 -0.0811
 4926SOL    HW126240   0.514   1.015   4.111  0.2834 -0.6644  0.1338
 4926SOL    HW226241   0.540   1.052   3.965  0.9287 -1.8171 -1.0924
 4927SOL     OW26242   0.537   3.799   3.914  0.0071  0.9180  0.7503
 4927SOL    HW126243   0.604   3.743   3.953  0.8430 -0.0700 -2.0933
 4927SOL    HW226244   0.554   3.888   3.946  2.1497  0.4262  1.0043
 4928SOL     OW26245   3.232   1.316  16.072  0.1534 -0.7033 -0.3989
 4928SOL    HW126246   3.209   1.318  16.165  2.5772  1.7359  0.1448
 4928SOL    HW226247   3.255   1.406  16.051 -2.5420  0.0995  0.1304
 4929SOL     OW26248   1.831   3.536  13.424 -0.5850  0.2503  0.7308
 4929SOL    HW126249   1.905   3.479  13.399 -0.3872  0.2679  1.2901
 4929SOL    HW226250   1.836   3.598  13.351  0.3147 -0.0871  0.5030
 4930SOL     OW26251   0.003   4.207   4.352 -0.0607  0.4032 -0.7763
 4930SOL    HW126252   4.690   4.178   4.269 -1.6387  3.0706 -0.9830
 4930SOL    HW226253   4.648   4.228   4.399 -0.1118 -2.1565  0.2486
 4931SOL     OW26254   2.320   3.464   1.428 -0.8323  0.7959 -0.6007
 4931SOL    HW126255   2.396   3.521   1.436  0.2783 -0.4567 -2.0961
 4931SOL    HW226256   2.356   3.398   1.368 -0.2465 -0.7092  1.4043
 4932SOL     OW26257   2.407   1.080  11.665 -0.1165  0.5605  0.2764
 4932SOL    HW126258   2.370   1.055  11.581 -2.8065  0.9961  1.3438
 4932SOL    HW226259   2.436   0.997  11.704 -3.7577 -0.4998  0.7215
 4933SOL     OW26260   3.819   2.287   1.597 -0.7084 -0.1546 -0.3622
 4933SOL    HW126261   3.749   2.222   1.593 -1.1640  0.3510 -0.5849
 4933SOL    HW226262   3.866   2.255   1.519  0.4300 -2.9057  1.4550
 4934SOL     OW26263   3.424   4.288  17.123  0.3777  0.1878  0.3542
 4934SOL    HW126264   3.365   4.284  17.048  1.0492  0.6501 -0.2001
 4934SOL    HW226265   3.442   4.195  17.134  0.6295  0.2406  0.3851
 4935SOL     OW26266   3.932   1.745   5.039 -0.3642  0.3906 -0.2204
 4935SOL    HW126267   3.997   1.684   5.006 -0.5812  0.7723 -1.3531
 4935SOL    HW226268   3.884   1.682   5.093  1.1684  0.3231  1.0663
 4936SOL     OW26269   3.638   2.095   1.587 -0.0133 -0.3655  0.3020
 4936SOL    HW126270   3.683   2.017   1.619 -2.6188 -1.4715  1.2060
 4936SOL    HW226271   3.561   2.086   1.642  0.3899 -0.6304  0.8161
 4937SOL     OW26272   0.635   1.626   8.311  0.4052 -0.2440 -0.1596
 4937SOL    HW126273   0.599   1.664   8.391  0.3779 -3.0125  1.1686
 4937SOL    HW226274   0.716   1.588   8.345  0.2801 -1.8930 -1.6825
 4938SOL     OW26275   2.289   0.600  15.491 -0.6743 -0.0338 -0.1844
 4938SOL    HW126276   2.285   0.505  15.476  0.1640  0.0092 -0.7169
 4938SOL    HW226277   2.363   0.631  15.439 -1.3425  0.1884 -1.0142
 4939SOL     OW26278   0.843   4.646   7.233 -0.0879  0.2600  0.2560
 4939SOL    HW126279   0.891   4.654   7.151  3.8257  0.0295  2.5152
 4939SOL    HW226280   0.904   4.606   7.295 -0.5295  1.7201  1.6647
 4940SOL     OW26281   1.944   3.866   8.166  0.1349 -0.4154  0.0526
 4940SOL    HW126282   1.941   3.826   8.254  1.2083  2.1271  1.2281
 4940SOL    HW226283   1.989   3.797   8.116  0.8020  0.5657 -0.6959
 4941SOL     OW26284   2.152   4.550   3.980 -0.3488 -0.1066  0.7824
 4941SOL    HW126285   2.241   4.537   4.012 -0.2767  0.5156  0.8292
 4941SOL    HW226286   2.113   4.465   4.002  0.9766 -1.0374 -0.4659
 4942SOL     OW26287   4.014   2.828   8.961  0.1410 -0.0883 -0.0892
 4942SOL    HW126288   3.968   2.814   9.043  0.2602 -2.7987 -0.4890
 4942SOL    HW226289   4.044   2.917   8.978  2.3204 -1.0226  0.9631
 4943SOL     OW26290   0.577   3.895  16.901  0.5688  0.2944 -0.2285
 4943SOL    HW126291   0.575   3.924  16.992 -1.6049  0.1722 -0.2365
 4943SOL    HW226292   0.664   3.927  16.876  0.8255  1.0423  1.6631
 4944SOL     OW26293   3.446   4.573   6.562  0.5510 -0.3794  0.2555
 4944SOL    HW126294   3.405   4.543   6.643  0.4255  1.3547  0.8427
 4944SOL    HW226295   3.506   4.636   6.604 -0.4927 -0.6452  2.1382
 4945SOL     OW26296   2.900   4.213  14.879 -0.0744  0.1210 -0.4289
 4945SOL    HW126297   2.927   4.168  14.799  0.9664 -0.5097  0.2892
 4945SOL    HW226298   2.883   4.143  14.941 -0.7965  0.5880 -0.0993
 4946SOL     OW26299   0.864   0.734   2.874 -0.4350 -0.1147  0.2478
 4946SOL    HW126300   0.887   0.706   2.963 -1.5501 -0.5147  0.4075
 4946SOL    HW226301   0.954   0.749   2.845 -0.5053 -1.0442 -0.4259
 4947SOL     OW26302   1.557   0.159   3.542  0.2487  0.3855  0.2934
 4947SOL    HW126303   1.534   0.074   3.579  0.3813 -0.3763 -1.3458
 4947SOL    HW226304   1.644   0.138   3.508 -0.2774  0.6473 -1.2468
 4948SOL     OW26305   1.933   0.780  17.674 -0.2782  0.4034 -0.0309
 4948SOL    HW126306   1.902   0.727   0.044  0.2580  0.4302  0.2133
 4948SOL    HW226307   1.969   0.715  17.614  1.2294  0.3912  0.8851
 4949SOL     OW26308   1.496   2.212   8.364 -0.0538 -0.1326  0.1688
 4949SOL    HW126309   1.413   2.237   8.323  1.3572  0.9782 -2.0104
 4949SOL    HW226310   1.472   2.214   8.456 -2.4350  0.0766 -0.4351
 4950SOL     OW26311   2.797   4.473   5.159 -0.8041 -0.5172 -0.3119
 4950SOL    HW126312   2.871   4.482   5.220 -0.3761  1.0903 -1.0613
 4950SOL    HW226313   2.824   4.413   5.089 -1.3008  0.3434 -1.2592
 4951SOL     OW26314   0.847   4.271   0.843 -0.1715 -0.1891  0.0112
 4951SOL    HW126315   0.759   4.247   0.870 -0.0397 -0.8953 -0.1933
 4951SOL    HW226316   0.874   4.342   0.903 -2.2987  1.1276 -0.5924
 4952SOL     OW26317   1.695   0.721   6.060 -0.0072  0.0995  0.0422
 4952SOL    HW126318   1.770   0.687   6.011 -2.1427 -0.8945 -2.5703
 4952SOL    HW226319   1.676   0.804   6.017 -1.8202 -0.2860  0.0758
 4953SOL     OW26320   4.539   4.167  13.344 -0.5039  0.0706 -0.4184
 4953SOL    HW126321   4.601   4.151  13.415  2.4478 -0.4969 -3.0947
 4953SOL    HW226322   4.516   4.258  13.362 -3.1029 -0.4299 -1.2269
 4954SOL     OW26323   3.445   1.843   2.736  0.6278 -0.1163 -0.1220
 4954SOL    HW126324   3.366   1.887   2.705  0.8121 -0.7824 -1.4892
 4954SOL    HW226325   3.496   1.855   2.656 -0.9512  2.1438 -0.7969
 4955SOL     OW26326   2.165   0.538   0.861 -0.1817 -0.2674  0.0683
 4955SOL    HW126327   2.134   0.492   0.939 -2.3707  2.0328  0.5625
 4955SOL    HW226328   2.161   0.631   0.885  1.2956 -0.1647 -0.1068
 4956SOL     OW26329   2.744   2.990   4.350  0.0932 -0.1383  0.0105
 4956SOL    HW126330   2.820   2.935   4.328 -0.0578 -0.8061  1.1478
 4956SOL    HW226331   2.685   2.919   4.373 -0.2364 -0.4531 -1.7629
 4957SOL     OW26332   3.855   4.205   4.887  0.1145 -0.3007  0.0329
 4957SOL    HW126333   3.874   4.285   4.936  1.2324 -0.4983 -0.0750
 4957SOL    HW226334   3.766   4.218   4.856  0.4809 -1.1844 -1.4245
 4958SOL     OW26335   0.112   0.959   5.433  0.1277  0.2013 -0.0246
 4958SOL    HW126336   0.164   0.890   5.475  1.0411  0.6543 -0.3920
 4958SOL    HW226337   0.154   1.036   5.471  2.2273 -0.6745 -0.5625
 4959SOL     OW26338   3.253   4.211   8.648 -0.3443 -0.4339  0.1013
 4959SOL    HW126339   3.348   4.199   8.645 -0.5655 -2.2759  1.0299
 4959SOL    HW226340   3.239   4.230   8.555 -0.6092  1.4248  0.5118
 4960SOL     OW26341   1.497   2.025   2.321 -0.1730  0.6154 -0.0781
 4960SOL    HW126342   1.461   2.010   2.409 -0.7548 -0.9634 -0.5988
 4960SOL    HW226343   1.589   2.002   2.335 -0.2944  1.1506  1.6118
 4961SOL     OW26344   2.983   4.113   3.990 -0.2160  0.4217  0.3196
 4961SOL    HW126345   2.923   4.039   3.998 -1.4478  1.4965  1.0909
 4961SOL    HW226346   3.039   4.086   4.062  1.9912 -2.8706 -2.6634
 4962SOL     OW26347   3.217   1.746   4.533  0.2027  0.1228  0.3197
 4962SOL    HW126348   3.239   1.839   4.543  0.2837  0.1951 -0.5315
 4962SOL    HW226349   3.279   1.721   4.464  0.0588 -0.8154  0.5359
 4963SOL     OW26350   0.772   2.951  11.031  0.1207  0.0903 -0.0049
 4963SOL    HW126351   0.822   2.923  11.107 -0.1227  0.6168  0.3469
 4963SOL    HW226352   0.808   3.039  11.018 -0.5900  0.3580 -0.1585
 4964SOL     OW26353   4.420   2.375   4.740  0.5518 -0.2332  0.3357
 4964SOL    HW126354   4.471   2.422   4.674  0.9652  0.6025  1.2601
 4964SOL    HW226355   4.476   2.299   4.752  3.2923  1.5569 -0.9964
 4965SOL     OW26356   2.890   1.601   2.747 -0.0493 -0.0127 -0.1724
 4965SOL    HW126357   2.858   1.677   2.698  0.8520  0.4480 -0.0344
 4965SOL    HW226358   2.979   1.599   2.713 -0.7923  0.7524 -2.1428
 4966SOL     OW26359   2.424   3.794   5.658  0.0793 -0.1313  0.1305
 4966SOL    HW126360   2.486   3.723   5.673 -0.7390 -1.0112 -0.6529
 4966SOL    HW226361   2.474   3.839   5.589 -1.5293 -1.8184 -2.1139
 4967SOL     OW26362   2.191   3.803   3.380 -0.1263  0.5874  0.0589
 4967SOL    HW126363   2.152   3.890   3.390  0.4882  0.8124  0.5048
 4967SOL    HW226364   2.281   3.833   3.395 -0.3296  1.2564 -0.0388
 4968SOL     OW26365   0.928   3.780   9.838 -0.0539  0.2536 -0.3243
 4968SOL    HW126366   0.891   3.800   9.752 -0.7821 -2.4073 -0.6181
 4968SOL    HW226367   1.021   3.756   9.832  0.0478  0.6850 -0.5120
 4969SOL     OW26368   0.176   2.956   2.629 -0.2033 -0.7422  0.1937
 4969SOL    HW126369   0.262   2.993   2.650 -0.4810 -0.0913  0.1966
 4969SOL    HW226370   0.123   3.022   2.675  0.5276 -0.2862  0.3924
 4970SOL     OW26371   3.448   4.311  17.404 -0.6775  0.2136 -0.1587
 4970SOL    HW126372   3.443   4.217  17.420 -0.5838  0.3207  0.5142
 4970SOL    HW226373   3.432   4.318  17.310 -1.6082 -2.5378 -0.2053
 4971SOL     OW26374   1.285   0.895  11.245 -0.3896 -0.0891  0.0452
 4971SOL    HW126375   1.329   0.931  11.168  2.6874 -1.9484  0.9541
 4971SOL    HW226376   1.209   0.855  11.202 -0.4013  0.2394 -0.2479
 4972SOL     OW26377   2.624   2.917  10.276  0.0895 -0.4397  0.0296
 4972SOL    HW126378   2.577   2.999  10.290  2.6900  1.7804 -4.4848
 4972SOL    HW226379   2.618   2.910  10.181  0.4449  0.2520 -0.0442
 4973SOL     OW26380   2.140   1.485   4.390 -0.1052 -0.0751  0.0162
 4973SOL    HW126381   2.055   1.528   4.381  0.2819  0.6375 -0.2515
 4973SOL    HW226382   2.145   1.503   4.484 -0.8796 -1.5256  0.3413
 4974SOL     OW26383   0.757   3.028   5.441  0.4848  0.1149 -0.3102
 4974SOL    HW126384   0.675   3.073   5.418 -0.3958 -1.9562 -1.2016
 4974SOL    HW226385   0.769   3.046   5.534  0.9534  1.1727 -0.5680
 4975SOL     OW26386   1.829   0.606   7.125 -0.0649  0.4068 -0.0437
 4975SOL    HW126387   1.867   0.649   7.048 -0.1105  1.1517  0.3524
 4975SOL    HW226388   1.803   0.519   7.094 -0.3270  0.8305 -1.0340
 4976SOL     OW26389   4.721   4.461   5.159  0.1003 -0.1009 -0.3283
 4976SOL    HW126390   4.665   4.481   5.235  0.7884 -0.9676  0.4029
 4976SOL    HW226391   0.084   4.466   5.196 -0.3073 -3.9123  1.1495
 4977SOL     OW26392   2.173   1.283   7.806 -0.0124 -0.5044 -0.3586
 4977SOL    HW126393   2.235   1.261   7.876  2.7556  2.5225 -1.8999
 4977SOL    HW226394   2.217   1.356   7.763 -0.2990  0.6095  1.2111
 4978SOL     OW26395   4.627   0.224   7.335  0.2890 -0.0653 -0.1078
 4978SOL    HW126396   4.565   0.260   7.272 -0.7827 -0.6034  0.6319
 4978SOL    HW226397   4.594   0.134   7.344  0.1520  0.0603  0.6210
 4979SOL     OW26398   2.595   0.445  14.174  0.1450 -0.3409 -1.1398
 4979SOL    HW126399   2.643   0.473  14.252 -2.0558  0.4996 -0.0853
 4979SOL    HW226400   2.652   0.374  14.143  1.8502  0.9825 -1.0628
 4980SOL     OW26401   3.839   2.399   1.182  0.6595  0.2037  0.3176
 4980SOL    HW126402   3.786   2.478   1.170  1.3535  0.3422 -1.7529
 4980SOL    HW226403   3.908   2.436   1.238 -0.1743  0.4219  1.2008
 4981SOL     OW26404   1.136   0.598  12.898 -0.2401 -0.1415 -0.1473
 4981SOL    HW126405   1.140   0.576  12.805 -1.6097 -0.5877 -0.1049
 4981SOL    HW226406   1.226   0.626  12.909 -0.9920  0.2800  5.1285
 4982SOL     OW26407   1.854   4.046   6.933 -0.2213 -0.3680 -0.4001
 4982SOL    HW126408   1.816   3.966   6.897 -1.3190  0.5175 -1.2010
 4982SOL    HW226409   1.930   4.055   6.875 -1.1523 -0.0558 -1.5682
 4983SOL     OW26410   2.186   4.412  11.658 -0.3054 -0.5189  0.3757
 4983SOL    HW126411   2.108   4.412  11.603 -2.5176 -2.0343  3.4507
 4983SOL    HW226412   2.251   4.459  11.606 -1.7817 -0.4555 -1.4143
 4984SOL     OW26413   2.300   0.305  15.453  0.0195 -0.2339  0.4751
 4984SOL    HW126414   2.232   0.320  15.388  0.9223 -1.8506 -0.8685
 4984SOL    HW226415   2.377   0.318  15.397 -0.3492  1.5303  0.3791
 4985SOL     OW26416   0.855   3.929  14.554 -0.0138 -0.1183 -0.3607
 4985SOL    HW126417   0.813   3.981  14.486  0.2013  0.6753  0.1124
 4985SOL    HW226418   0.940   3.908  14.516 -1.0596 -2.3803 -1.4566
 4986SOL     OW26419   0.697   2.600   6.388  0.5969  0.1648 -0.8008
 4986SOL    HW126420   0.762   2.568   6.326 -0.0787 -1.7132 -0.5590
 4986SOL    HW226421   0.737   2.684   6.412 -0.9803  0.3373  1.2545
 4987SOL     OW26422   2.227   0.182  15.679 -0.3284  0.0121 -0.1158
 4987SOL    HW126423   2.314   0.156  15.711  1.4895  2.6411 -2.9453
 4987SOL    HW226424   2.251   0.212  15.592 -2.0025  0.1601 -0.5233
 4988SOL     OW26425   2.502   0.310  16.626 -0.2241 -1.0651 -0.1188
 4988SOL    HW126426   2.555   0.320  16.705  0.7946  2.5783 -1.2718
 4988SOL    HW226427   2.554   0.347  16.554  0.2596 -0.6603  0.4454
 4989SOL     OW26428   4.031   0.224  12.724 -0.1294 -0.0336 -0.1386
 4989SOL    HW126429   3.996   0.311  12.745  0.2719  0.1087 -0.0452
 4989SOL    HW226430   4.098   0.211  12.792 -0.6940  0.3279  0.4875
 4990SOL     OW26431   0.299   0.191  11.433  0.4106 -0.8173  0.8528
 4990SOL    HW126432   0.350   0.269  11.456  2.4476 -0.9875 -3.1018
 4990SOL    HW226433   0.212   0.220  11.460 -0.5223 -1.9542 -0.9347
 4991SOL     OW26434   0.964   3.754   9.212  0.6397  0.1113  0.5789
 4991SOL    HW126435   0.906   3.694   9.259 -0.4536  2.4182  2.1664
 4991SOL    HW226436   0.987   3.691   9.144  0.9874 -1.3428  2.0560
 4992SOL     OW26437   4.307   4.519   0.591  0.2055  0.7349 -0.4758
 4992SOL    HW126438   4.347   4.548   0.509 -0.1525  1.3547 -0.4262
 4992SOL    HW226439   4.255   4.446   0.557 -1.9553  1.4226  1.4331
 4993SOL     OW26440   1.048   0.871   4.967 -0.3693 -0.1442 -0.1428
 4993SOL    HW126441   1.071   0.854   5.058 -2.6194 -3.0560 -0.1356
 4993SOL    HW226442   0.956   0.853   4.949  0.3813 -1.4971 -2.6834
 4994SOL     OW26443   3.160   2.214   6.908  0.3230 -0.5924 -0.1498
 4994SOL    HW126444   3.133   2.126   6.881  2.1995 -1.3258  0.3419
 4994SOL    HW226445   3.185   2.182   6.995 -1.9869  1.2347  1.1789
 4995SOL     OW26446   1.748   4.531   6.189 -0.8723 -0.0582 -0.3504
 4995SOL    HW126447   1.658   4.504   6.172 -0.8536  0.0859 -0.6571
 4995SOL    HW226448   1.777   4.553   6.101 -1.8592 -0.2707 -0.7305
 4996SOL     OW26449   0.761   2.155   2.433 -0.1456 -0.6101 -0.0944
 4996SOL    HW126450   0.725   2.179   2.347  1.0991 -1.3988 -0.8319
 4996SOL    HW226451   0.759   2.241   2.476  0.8945 -0.3392 -0.5914
 4997SOL     OW26452   0.407   3.091   8.592  0.1575  0.4266  0.0364
 4997SOL    HW126453   0.375   3.018   8.644  1.9845  0.0835  0.6868
 4997SOL    HW226454   0.494   3.112   8.626 -0.0410  0.2246  0.6734
 4998SOL     OW26455   2.119   2.468  10.664 -0.5504  0.8928 -0.3176
 4998SOL    HW126456   2.079   2.552  10.640 -1.1484  0.4546 -0.8588
 4998SOL    HW226457   2.210   2.498  10.659  0.3160 -1.7070 -0.1314
 4999SOL     OW26458   4.347   1.333  11.936  0.7099 -0.0147 -0.5126
 4999SOL    HW126459   4.337   1.260  11.997 -0.9857 -0.2621 -1.0775
 4999SOL    HW226460   4.418   1.384  11.976 -0.0636  0.7302 -0.0790
 5000SOL     OW26461   3.180   2.873   9.349  0.3172 -0.4959 -0.5311
 5000SOL    HW126462   3.144   2.924   9.422  3.3597  3.2781 -1.6977
 5000SOL    HW226463   3.129   2.909   9.276 -0.5874  0.8729  0.7894
 5001SOL     OW26464   3.943   0.900   3.834  0.1254  0.5028  0.4267
 5001SOL    HW126465   3.975   0.945   3.756  0.3045 -1.6005 -0.6860
 5001SOL    HW226466   3.992   0.939   3.906  0.2785  0.7876  0.1667
 5002SOL     OW26467   0.011   2.806   7.741  0.0392 -0.7839 -0.1763
 5002SOL    HW126468   4.653   2.844   7.768  0.4468  0.1133 -0.1845
 5002SOL    HW226469   0.047   2.866   7.676  0.8031 -1.1616 -0.1082
 5003SOL     OW26470   1.528   0.245   8.831  0.4416 -0.1120  0.2050
 5003SOL    HW126471   1.444   0.228   8.875 -0.4756  1.8150 -0.8155
 5003SOL    HW226472   1.584   0.186   8.882  0.3219 -0.5017 -0.1149
 5004SOL     OW26473   2.651   4.703   2.843 -0.4084 -0.4508  0.0792
 5004SOL    HW126474   2.590   4.636   2.874  1.2354 -1.1904  1.7939
 5004SOL    HW226475   2.736   4.677   2.879 -1.0162 -2.5377  0.0195
 5005SOL     OW26476   2.310   3.042   8.004  0.0382 -0.4369  0.1452
 5005SOL    HW126477   2.225   2.998   8.013  1.5861 -3.2461  1.1503
 5005SOL    HW226478   2.289   3.112   7.942  0.7248 -0.1610  0.2242
 5006SOL     OW26479   0.188   1.353   1.479 -0.0983  0.3033  0.2663
 5006SOL    HW126480   0.133   1.424   1.513 -0.0554  0.4189  0.0954
 5006SOL    HW226481   0.140   1.286   1.527 -0.9225  1.0486  0.4941
 5007SOL     OW26482   2.204   3.482   4.066 -0.3195 -0.0946 -0.1712
 5007SOL    HW126483   2.226   3.462   3.975  0.1166 -0.1678 -0.0480
 5007SOL    HW226484   2.240   3.571   4.068  1.5933 -0.8677 -0.0932
 5008SOL     OW26485   3.677   3.575   6.339  0.1830  0.4995 -0.1488
 5008SOL    HW126486   3.701   3.482   6.345  1.4138  0.8340  0.0859
 5008SOL    HW226487   3.660   3.592   6.432 -0.9797 -0.7077 -0.1358
 5009SOL     OW26488   2.641   4.353  11.083  0.1264 -0.7755 -0.0643
 5009SOL    HW126489   2.566   4.410  11.064  0.3515 -0.7692 -0.9462
 5009SOL    HW226490   2.704   4.411  11.125  1.3401 -3.7390  2.1642
 5010SOL     OW26491   3.121   3.079   4.890 -0.0567 -0.2605 -0.0835
 5010SOL    HW126492   3.212   3.095   4.914 -0.4416 -2.5566  2.8670
 5010SOL    HW226493   3.073   3.131   4.955 -0.8053  0.3470 -1.1085
 5011SOL     OW26494   4.679   4.584   9.502  0.3714  0.1714 -0.7308
 5011SOL    HW126495   0.048   4.600   9.505  0.4909 -0.8269  0.5477
 5011SOL    HW226496   4.678   4.552   9.592  1.9597  0.2897 -0.6631
 5012SOL     OW26497   2.791   0.356  15.292 -0.1638  0.7048  0.2855
 5012SOL    HW126498   2.707   0.394  15.265 -0.9337 -1.5089 -0.3756
 5012SOL    HW226499   2.849   0.399  15.229  1.4187 -0.5243  0.9102
 5013SOL     OW26500   1.906   3.717   8.380 -0.1885 -0.0152  0.4024
 5013SOL    HW126501   1.848   3.720   8.456  0.1104 -1.9297  0.7084
 5013SOL    HW226502   1.977   3.665   8.418 -0.3733  0.1549  0.9844
 5014SOL     OW26503   3.099   1.753  12.869 -0.1390 -0.1528  0.1385
 5014SOL    HW126504   3.188   1.729  12.844  0.1318  2.8698 -1.7417
 5014SOL    HW226505   3.107   1.759  12.965  1.3781 -3.1444  0.1766
 5015SOL     OW26506   2.052   0.199  15.872  0.1899 -0.0948  0.1433
 5015SOL    HW126507   2.090   0.143  15.940 -0.8871  0.1983  0.9729
 5015SOL    HW226508   2.113   0.193  15.798 -0.6531  2.0148 -0.7146
 5016SOL     OW26509   2.894   1.896   5.337 -0.6371 -0.2367 -0.4549
 5016SOL    HW126510   2.910   1.806   5.306 -1.2632 -0.3876 -0.3262
 5016SOL    HW226511   2.816   1.924   5.290 -0.9979  0.6920  0.7128
 5017SOL     OW26512   1.087   2.257   8.480 -0.2447 -0.1165 -0.7927
 5017SOL    HW126513   1.155   2.315   8.515 -0.4220 -0.9242  0.8648
 5017SOL    HW226514   1.131   2.177   8.508 -0.0226  0.2796  0.0023
 5018SOL     OW26515   2.704   1.593   3.801 -0.6839  0.1005  0.3398
 5018SOL    HW126516   2.662   1.585   3.716 -1.6897 -0.1660  0.8582
 5018SOL    HW226517   2.721   1.500   3.818  1.3231  0.3366 -0.3776
 5019SOL     OW26518   3.805   2.938   7.053 -0.3728 -0.6324 -0.3686
 5019SOL    HW126519   3.749   2.881   7.000  1.5894 -3.6522  0.8036
 5019SOL    HW226520   3.738   2.985   7.102  0.5416  0.7203 -0.4329
 5020SOL     OW26521   4.039   1.873   2.674 -0.4351 -0.5434 -0.5004
 5020SOL    HW126522   4.079   1.881   2.588 -4.2158 -1.8537 -2.3778
 5020SOL    HW226523   4.060   1.955   2.719 -4.0248  0.2171 -0.1512
 5021SOL     OW26524   0.365   0.147   9.389  0.1002 -0.0131 -0.0915
 5021SOL    HW126525   0.320   0.070   9.354 -1.0334  1.0841 -1.0823
 5021SOL    HW226526   0.304   0.217   9.365  0.3899  0.9142  1.9032
 5022SOL     OW26527   1.522   0.169   6.077 -0.4793 -0.2786  0.1851
 5022SOL    HW126528   1.518   0.151   6.171 -0.1546 -0.1755  0.2195
 5022SOL    HW226529   1.462   0.101   6.047 -0.4228 -0.1109 -0.3010
 5023SOL     OW26530   1.575   1.980   4.002  0.3314  0.4495 -0.5530
 5023SOL    HW126531   1.498   1.971   4.059  0.2935  3.8580 -0.0730
 5023SOL    HW226532   1.553   2.064   3.960  3.2912  0.6579 -1.7109
 5024SOL     OW26533   0.565   0.475   8.737  0.2337  0.1104  0.3683
 5024SOL    HW126534   0.507   0.551   8.732 -0.7976 -0.6690  0.4647
 5024SOL    HW226535   0.523   0.406   8.686 -0.0469  1.2829 -0.9799
 5025SOL     OW26536   0.677   4.135   8.638  0.2871 -0.6724 -0.0447
 5025SOL    HW126537   0.624   4.060   8.665 -1.2642  0.0763 -1.0058
 5025SOL    HW226538   0.745   4.142   8.704  1.6218  0.0400 -1.5027
 5026SOL     OW26539   3.520   3.961   3.569 -0.1848  0.5302  0.1055
 5026SOL    HW126540   3.435   3.926   3.544  0.4006 -1.2276  0.5880
 5026SOL    HW226541   3.556   3.968   3.480  2.6553  0.0975  1.2156
 5027SOL     OW26542   1.832   0.120  14.444 -0.1469  0.4593  0.4041
 5027SOL    HW126543   1.820   0.055  14.375 -0.3153  0.4802  0.4140
 5027SOL    HW226544   1.739   0.123  14.466  0.2162 -2.0241  2.3281
 5028SOL     OW26545   2.226   0.394   1.289  0.3879  0.3806  0.7271
 5028SOL    HW126546   2.147   0.359   1.331 -0.8941  1.3250 -0.8755
 5028SOL    HW226547   2.200   0.481   1.257  1.2791 -0.4550 -2.2888
 5029SOL     OW26548   1.670   1.827  12.198 -0.0007  0.0957 -0.0502
 5029SOL    HW126549   1.727   1.875  12.139  0.4880  0.5427  0.7853
 5029SOL    HW226550   1.588   1.834  12.149  0.0616 -0.6316 -0.2614
 5030SOL     OW26551   1.563   0.840   7.623  0.2598  0.2543  0.2174
 5030SOL    HW126552   1.627   0.802   7.684  0.2316 -1.1675 -0.6442
 5030SOL    HW226553   1.487   0.852   7.680 -1.0423 -0.8917 -1.2864
 5031SOL     OW26554   2.446   0.059   6.009 -0.3566 -0.2020 -0.6336
 5031SOL    HW126555   2.510   0.112   6.057 -0.7400  2.1486 -2.7122
 5031SOL    HW226556   2.411   0.004   6.079 -2.0751  2.4360  0.5728
 5032SOL     OW26557   0.640   0.193   9.459  0.3667 -0.3582 -0.4593
 5032SOL    HW126558   0.565   0.136   9.440 -1.7264  2.4217 -0.4537
 5032SOL    HW226559   0.587   0.272   9.452  0.1318 -0.5790 -1.1721
 5033SOL     OW26560   0.761   4.540  14.331  0.2520  0.0065 -0.6334
 5033SOL    HW126561   0.751   4.455  14.373 -3.9718  1.2171  0.8793
 5033SOL    HW226562   0.855   4.552  14.347 -0.2332 -1.0074  2.8681
 5034SOL     OW26563   2.468   1.271   1.252  0.3070  0.1929 -0.0595
 5034SOL    HW126564   2.501   1.189   1.289 -1.3491 -0.4917 -0.1366
 5034SOL    HW226565   2.534   1.296   1.186  0.1653  1.3414  0.2314
 5035SOL     OW26566   4.706   4.525   2.702  0.0788  0.0724  0.1386
 5035SOL    HW126567   0.046   4.591   2.724  0.1660 -0.6392  1.9534
 5035SOL    HW226568   4.641   4.532   2.772 -0.8858 -0.3453 -0.7179
 5036SOL     OW26569   1.989   1.625  17.492  0.4747 -0.0650  0.0027
 5036SOL    HW126570   1.953   1.668  17.415  0.7489 -0.4213 -0.3260
 5036SOL    HW226571   1.994   1.531  17.472 -2.5051 -0.7869  2.6917
 5037SOL     OW26572   3.535   3.819   5.851 -0.2802 -0.3332  0.2251
 5037SOL    HW126573   3.516   3.794   5.941  1.0171 -2.6098 -0.1359
 5037SOL    HW226574   3.606   3.761   5.823 -1.1500 -0.6934 -1.2381
 5038SOL     OW26575   3.798   1.646   5.470  0.4816 -0.3328 -0.0579
 5038SOL    HW126576   3.819   1.605   5.554 -0.6870 -1.6483 -0.4056
 5038SOL    HW226577   3.703   1.653   5.485  0.5636  0.8090 -0.0825
 5039SOL     OW26578   4.384   0.661   6.175 -0.1105  0.3158 -0.8145
 5039SOL    HW126579   4.347   0.587   6.127  0.4367 -1.3478  1.3424
 5039SOL    HW226580   4.424   0.701   6.097  1.7538 -1.1997 -0.6218
 5040SOL     OW26581   1.428   2.974   3.286 -0.4364 -0.0547  0.0605
 5040SOL    HW126582   1.451   3.050   3.233  1.2193 -0.4188  0.2431
 5040SOL    HW226583   1.337   2.968   3.259 -0.1575  1.8281 -1.2389
 5041SOL     OW26584   1.328   1.850   2.465  0.2393  0.0056 -0.1728
 5041SOL    HW126585   1.238   1.819   2.455  1.0183 -2.0204 -0.8821
 5041SOL    HW226586   1.332   1.847   2.561 -0.4867 -1.7410 -0.2071
 5042SOL     OW26587   2.403   4.204  10.440 -0.8620 -0.0240  1.0690
 5042SOL    HW126588   2.318   4.161  10.449  0.1908 -1.8731  2.2595
 5042SOL    HW226589   2.376   4.288  10.403 -2.0666  0.6196  3.4241
 5043SOL     OW26590   2.889   4.618  14.285 -0.1276  0.0403  0.2315
 5043SOL    HW126591   2.954   4.548  14.278 -0.6694 -0.4714  0.2919
 5043SOL    HW226592   2.903   4.667  14.204 -1.5743  2.0815  1.2104
 5044SOL     OW26593   0.952   1.344   9.416 -0.6885 -0.0455  0.1089
 5044SOL    HW126594   0.923   1.427   9.453 -0.8266  0.1043 -0.3332
 5044SOL    HW226595   0.949   1.284   9.490 -0.0803 -2.2946 -1.7026
 5045SOL     OW26596   2.658   4.462  14.039 -0.5667 -0.6321  0.1879
 5045SOL    HW126597   2.702   4.423  13.963  0.1559  1.8023 -0.6183
 5045SOL    HW226598   2.685   4.415  14.118  0.4672  2.3218  1.5594
 5046SOL     OW26599   1.622   3.072   7.092  0.3109  0.1142 -0.1126
 5046SOL    HW126600   1.623   2.977   7.081 -3.2120 -0.2898  2.9836
 5046SOL    HW226601   1.599   3.107   7.006  1.2294 -0.2127 -0.4911
 5047SOL     OW26602   4.700   3.117   3.942  0.6991 -0.3139  0.2948
 5047SOL    HW126603   0.038   3.046   3.946  0.1643 -0.7453  1.0285
 5047SOL    HW226604   0.018   3.194   3.979  0.4931 -0.1316  0.1595
 5048SOL     OW26605   3.697   3.308   2.435  0.4770  0.1330  0.2076
 5048SOL    HW126606   3.699   3.395   2.474 -1.5906 -0.1295  0.9229
 5048SOL    HW226607   3.781   3.286   2.476  0.0251 -2.4783 -0.2564
 5049SOL     OW26608   1.073   0.796   3.793 -0.3305 -0.5735  0.3009
 5049SOL    HW126609   1.028   0.777   3.711  0.0315  0.4098 -0.1205
 5049SOL    HW226610   1.005   0.781   3.859 -1.1893 -0.1698 -0.5032
 5050SOL     OW26611   1.734   1.712  12.902  0.8639  0.0249  0.2016
 5050SOL    HW126612   1.770   1.730  12.815 -1.9834  1.7889 -0.6035
 5050SOL    HW226613   1.706   1.623  12.882 -0.0644  0.0678  1.2967
 5051SOL     OW26614   1.460   3.997   7.939  0.0967  0.1078 -0.2344
 5051SOL    HW126615   1.549   4.024   7.960 -0.2690  1.1402 -0.0538
 5051SOL    HW226616   1.475   3.902   7.936  1.7361  0.3209  1.1721
 5052SOL     OW26617   2.737   3.414  14.471  0.3409  0.1635 -0.1079
 5052SOL    HW126618   2.676   3.341  14.480  0.7885 -0.1857  0.1064
 5052SOL    HW226619   2.797   3.374  14.409  1.6380  0.6082  0.8491
 5053SOL     OW26620   2.548   3.564   9.033 -0.6824 -0.0929 -0.2039
 5053SOL    HW126621   2.485   3.625   9.071 -0.3971 -1.0249  1.7493
 5053SOL    HW226622   2.628   3.591   9.076  0.0311  1.0042 -2.2233
 5054SOL     OW26623   4.066   4.490   8.742  0.9095  0.3695 -0.0037
 5054SOL    HW126624   4.059   4.435   8.820  1.0840 -0.3462 -0.4939
 5054SOL    HW226625   4.110   4.567   8.779  0.3190  0.5640  0.2981
 5055SOL     OW26626   4.576   3.625   9.717 -0.2080  0.2180 -0.0287
 5055SOL    HW126627   4.614   3.608   9.631  1.7105 -0.8780  1.0428
 5055SOL    HW226628   4.589   3.719   9.728  0.4424 -0.1069  1.9929
 5056SOL     OW26629   0.094   0.487   6.709 -0.0780  0.2046 -0.4525
 5056SOL    HW126630   0.179   0.523   6.734  0.5331 -1.4327 -0.1488
 5056SOL    HW226631   0.036   0.509   6.782  1.1670 -1.9517  1.1715
 5057SOL     OW26632   3.759   1.886   3.363  0.7242  0.5779 -0.2810
 5057SOL    HW126633   3.781   1.870   3.455  0.4037  0.7305 -0.1782
 5057SOL    HW226634   3.805   1.967   3.343 -1.3347  1.5487 -1.1004
 5058SOL     OW26635   1.773   2.559   5.819 -0.2120  0.4628  0.0171
 5058SOL    HW126636   1.841   2.626   5.827 -1.4494  1.5068  1.8849
 5058SOL    HW226637   1.768   2.525   5.909  2.7289 -1.4540 -0.5451
 5059SOL     OW26638   1.474   3.515   9.621  0.0792  0.2888 -0.0701
 5059SOL    HW126639   1.438   3.536   9.708  1.1438  0.8816  0.2306
 5059SOL    HW226640   1.562   3.483   9.641  0.2919  0.7971 -0.1925
 5060SOL     OW26641   1.139   0.902   5.237  0.2230  0.1872  0.0757
 5060SOL    HW126642   1.175   0.859   5.315 -1.6722 -0.0418  0.8173
 5060SOL    HW226643   1.219   0.951   5.216  0.0645  0.9078  1.1461
 5061SOL     OW26644   2.473   0.060   8.318 -0.1799  0.4650  0.1373
 5061SOL    HW126645   2.522   0.053   8.400 -0.9418 -0.5846  0.5012
 5061SOL    HW226646   2.485   4.703   8.273  1.1239  1.9737 -2.2916
 5062SOL     OW26647   2.328   4.661  11.220  0.0951  0.2934  0.2932
 5062SOL    HW126648   2.337   4.592  11.286  1.1372 -0.3248 -0.4985
 5062SOL    HW226649   2.239   4.691  11.237 -0.1298  0.8131 -1.9092
 5063SOL     OW26650   2.297   0.872   6.796  0.5927 -0.2080  0.4424
 5063SOL    HW126651   2.277   0.963   6.771  0.7628 -0.8260 -1.9172
 5063SOL    HW226652   2.230   0.857   6.863 -0.2607 -0.8344 -0.5612
 5064SOL     OW26653   0.447   1.529  10.409  0.4566  0.0658 -0.4454
 5064SOL    HW126654   0.461   1.438  10.437  0.4135  0.3024  0.3307
 5064SOL    HW226655   0.454   1.563  10.498  0.2284  0.9197 -0.7607
 5065SOL     OW26656   0.127   3.968   1.866 -0.5060 -0.3678  0.7600
 5065SOL    HW126657   0.126   3.963   1.770  0.7871 -0.5196  0.7574
 5065SOL    HW226658   0.219   3.951   1.882 -0.6185  1.0473  2.9511
 5066SOL     OW26659   2.949   1.200   7.982  0.2910 -0.2606 -0.0226
 5066SOL    HW126660   2.922   1.131   8.043  0.2285 -0.0292  0.2111
 5066SOL    HW226661   2.958   1.275   8.040 -2.7443 -0.5500  0.8733
 5067SOL     OW26662   1.437   3.481   5.871  0.0030  0.2376 -0.4993
 5067SOL    HW126663   1.451   3.387   5.859  3.1114  0.3872  1.8597
 5067SOL    HW226664   1.344   3.480   5.891 -0.1419 -1.6789 -1.2506
 5068SOL     OW26665   4.175   0.586  14.966  0.5281 -0.4821  0.3754
 5068SOL    HW126666   4.261   0.582  14.926 -0.1417 -0.0824 -1.0895
 5068SOL    HW226667   4.178   0.518  15.034  0.1019 -1.1561 -0.2837
 5069SOL     OW26668   2.410   3.630  14.042  0.1976  0.3523  0.1576
 5069SOL    HW126669   2.335   3.582  14.078 -1.3209  1.4696 -1.4554
 5069SOL    HW226670   2.368   3.669  13.965  0.3647 -1.9408 -1.0800
 5070SOL     OW26671   1.388   4.332   5.479 -0.0318 -0.0558  0.2905
 5070SOL    HW126672   1.402   4.239   5.461 -1.7723 -0.4595  1.0350
 5070SOL    HW226673   1.456   4.360   5.540  1.1217 -1.3213 -0.4017
 5071SOL     OW26674   3.595   2.188   5.221 -0.2872 -0.3592 -0.0136
 5071SOL    HW126675   3.683   2.225   5.227 -0.5515  0.2990 -0.2736
 5071SOL    HW226676   3.601   2.134   5.142 -0.1324  0.1896 -0.3736
 5072SOL     OW26677   2.397   0.291   0.993 -0.4989  0.2606 -0.0298
 5072SOL    HW126678   2.444   0.374   0.992 -0.7430  0.3906 -2.3373
 5072SOL    HW226679   2.350   0.297   0.909 -0.6981 -0.6250  0.0100
 5073SOL     OW26680   1.197   3.354  10.425 -0.4096 -0.3116 -0.1430
 5073SOL    HW126681   1.246   3.390  10.350 -2.3371  1.0131 -0.7513
 5073SOL    HW226682   1.164   3.436  10.461 -0.3971 -0.5391  0.3776
 5074SOL     OW26683   2.944   2.722   1.892  0.0111  0.3499 -0.2755
 5074SOL    HW126684   3.029   2.737   1.850 -0.4312 -1.1695 -1.7220
 5074SOL    HW226685   2.894   2.753   1.817  0.1144  0.5054 -0.2795
 5075SOL     OW26686   0.896   1.809   3.901  0.0749  0.0721  0.6703
 5075SOL    HW126687   0.910   1.832   3.993 -0.1965 -0.5679  0.8726
 5075SOL    HW226688   0.937   1.880   3.852 -0.5118 -0.3037 -0.3556
 5076SOL     OW26689   2.165   4.194   2.527  0.1731 -0.1332 -0.1715
 5076SOL    HW126690   2.178   4.285   2.502  1.5712 -0.3590 -0.2791
 5076SOL    HW226691   2.074   4.186   2.499  0.1754  1.5158 -0.6534
 5077SOL     OW26692   3.898   2.656   0.966  0.0875 -0.2186  0.1064
 5077SOL    HW126693   3.900   2.646   0.871  0.4302  0.4877  0.0385
 5077SOL    HW226694   3.984   2.619   0.985  0.2158  0.1158  0.1785
 5078SOL     OW26695   0.029   0.678  15.961 -0.2762  0.4291  0.2546
 5078SOL    HW126696   0.049   0.723  16.043  0.0219  0.5721  0.1022
 5078SOL    HW226697   4.707   0.748  15.916 -0.4856  0.8297  1.1009
 5079SOL     OW26698   3.771   4.718   6.735 -0.1912  0.0337  0.2261
 5079SOL    HW126699   3.833   4.645   6.740 -0.3764 -0.1917 -1.0101
 5079SOL    HW226700   3.766   0.003   6.640  3.4119  2.3710  0.3119
 5080SOL     OW26701   1.451   1.814   2.059  0.1581  0.3367  0.2355
 5080SOL    HW126702   1.512   1.819   2.132  0.8413  0.1556 -0.3177
 5080SOL    HW226703   1.504   1.807   1.979  0.5989 -0.1083  0.5646
 5081SOL     OW26704   4.492   2.616   3.817  0.1586  0.7175  0.1248
 5081SOL    HW126705   4.560   2.643   3.756 -2.3037 -1.1278 -3.4898
 5081SOL    HW226706   4.412   2.644   3.771 -0.9894 -0.7188  1.2537
 5082SOL     OW26707   2.940   0.774  10.273  0.2826 -0.2429 -0.4000
 5082SOL    HW126708   2.914   0.867  10.268 -2.4391 -1.0220 -0.8292
 5082SOL    HW226709   2.879   0.739  10.208 -0.2544 -0.4498  0.2261
 5083SOL     OW26710   2.251   3.072   6.523 -0.1076 -0.1476 -0.2920
 5083SOL    HW126711   2.259   3.025   6.606 -0.6427 -0.8390 -0.6315
 5083SOL    HW226712   2.167   3.116   6.527  0.6669  1.2496  0.6241
 5084SOL     OW26713   3.476   2.165   1.376 -0.3167 -0.0420  0.0543
 5084SOL    HW126714   3.423   2.221   1.432 -0.5617 -0.6901  0.4728
 5084SOL    HW226715   3.558   2.159   1.424 -0.5834  0.4406  0.5664
 5085SOL     OW26716   2.699   3.806   5.723  0.1516  0.3168 -0.1195
 5085SOL    HW126717   2.699   3.711   5.737 -2.8540  0.7766  3.0986
 5085SOL    HW226718   2.777   3.816   5.669 -0.1992 -0.1005 -0.7084
 5086SOL     OW26719   1.232   1.449   4.277 -0.5424 -0.3975 -0.1555
 5086SOL    HW126720   1.269   1.406   4.354 -1.5728  1.8835  1.6383
 5086SOL    HW226721   1.278   1.403   4.207 -1.4028 -2.1652  0.4446
 5087SOL     OW26722   2.786   2.459   8.639  0.2659  0.3213  0.4219
 5087SOL    HW126723   2.754   2.549   8.640 -1.1370 -0.1577 -0.8850
 5087SOL    HW226724   2.735   2.434   8.562 -1.2092  1.9849  0.8642
 5088SOL     OW26725   0.508   0.683   2.905 -0.4443  0.1618 -0.8330
 5088SOL    HW126726   0.576   0.749   2.890 -1.5659  1.3330 -0.8375
 5088SOL    HW226727   0.468   0.679   2.818 -1.3700 -2.5354 -0.2633
 5089SOL     OW26728   4.700   4.160   1.568  0.4094  0.0625 -0.4632
 5089SOL    HW126729   4.621   4.106   1.580  2.8075 -2.6852  3.0095
 5089SOL    HW226730   0.041   4.093   1.584  1.0063  0.3241 -1.8899
 5090SOL     OW26731   0.802   0.521   5.162  0.2287 -0.6693  0.2684
 5090SOL    HW126732   0.815   0.586   5.093  0.4008 -1.1692 -0.1671
 5090SOL    HW226733   0.782   0.576   5.238  1.1709 -1.6136  1.2033
 5091SOL     OW26734   3.120   4.654   8.914  0.2800 -0.2312 -0.0213
 5091SOL    HW126735   3.081   4.571   8.886  0.2673 -0.7991  1.6500
 5091SOL    HW226736   3.056   4.674   8.981 -1.3927 -0.4976 -1.5424
 5092SOL     OW26737   1.287   4.041   5.243 -0.2428  0.2704 -0.6386
 5092SOL    HW126738   1.355   4.097   5.205 -1.3418  0.9204 -1.6605
 5092SOL    HW226739   1.288   3.964   5.187  0.5816  0.2714 -0.6221
 5093SOL     OW26740   1.714   1.620   6.171 -0.0977  0.4544 -0.0517
 5093SOL    HW126741   1.677   1.600   6.085  0.7249  0.1951 -0.3406
 5093SOL    HW226742   1.700   1.532   6.206 -1.3611  0.7726  0.2642
 5094SOL     OW26743   4.525   3.671   5.500 -0.0513 -0.3082 -0.5229
 5094SOL    HW126744   4.590   3.690   5.433  0.0745  1.3071  0.0795
 5094SOL    HW226745   4.541   3.745   5.557  0.2006 -1.1995  0.5638
 5095SOL     OW26746   1.601   0.952   4.556  0.3621  0.2648  0.7768
 5095SOL    HW126747   1.640   0.878   4.509  2.7540  2.2185 -0.3119
 5095SOL    HW226748   1.525   0.906   4.590  1.8946  0.0817  3.9229
 5096SOL     OW26749   2.298   0.291   4.323  0.1581 -0.5858  0.6071
 5096SOL    HW126750   2.328   0.244   4.401  0.1089  0.9667  1.5644
 5096SOL    HW226751   2.335   0.377   4.343  0.2171 -1.0380  2.4348
 5097SOL     OW26752   3.509   3.741  10.529 -0.3106 -0.1892  0.2987
 5097SOL    HW126753   3.539   3.820  10.484  1.2137 -1.6996 -1.3036
 5097SOL    HW226754   3.545   3.761  10.616  0.2347  0.9554 -0.1950
 5098SOL     OW26755   4.152   1.699   6.471  0.2584 -0.1169 -0.2680
 5098SOL    HW126756   4.230   1.662   6.430  0.9045 -0.8840  1.6483
 5098SOL    HW226757   4.105   1.730   6.394  2.1403 -0.5845 -1.6184
 5099SOL     OW26758   1.958   3.991   4.283  0.2048 -0.1711 -0.2492
 5099SOL    HW126759   1.942   3.897   4.271  2.4938 -0.4267 -1.3214
 5099SOL    HW226760   2.050   3.986   4.309  0.2361 -2.1582 -0.7583
 5100SOL     OW26761   1.309   4.595   8.440  0.0114  0.2571 -0.2769
 5100SOL    HW126762   1.336   4.631   8.525 -0.3514  1.0442 -0.4915
 5100SOL    HW226763   1.232   4.646   8.414 -1.6920 -2.4685 -0.5958
 5101SOL     OW26764   3.985   0.581   6.254 -0.9422  0.1767  0.0342
 5101SOL    HW126765   4.037   0.504   6.276 -0.4967  0.0246 -1.5655
 5101SOL    HW226766   3.957   0.615   6.339  0.9158 -0.7966  1.0411
 5102SOL     OW26767   2.944   1.732  17.256 -0.6224 -0.0835  0.6105
 5102SOL    HW126768   2.999   1.797  17.299  0.0817 -1.3726  1.6597
 5102SOL    HW226769   2.908   1.788  17.188  2.6114  1.5888  0.2853
 5103SOL     OW26770   3.531   2.521   6.093  0.6223 -0.3731  0.2226
 5103SOL    HW126771   3.564   2.595   6.144 -0.5847  2.4070 -3.1067
 5103SOL    HW226772   3.610   2.467   6.083 -0.0048 -0.9925 -1.2628
 5104SOL     OW26773   3.785   3.158  11.303  0.2635 -0.0299 -0.2228
 5104SOL    HW126774   3.739   3.182  11.384  2.0690  5.6921 -0.8374
 5104SOL    HW226775   3.719   3.095  11.277  0.4988  0.3946 -1.8515
 5105SOL     OW26776   0.684   1.901  17.308 -0.0078 -0.3692 -0.1167
 5105SOL    HW126777   0.639   1.908  17.224  1.8896  0.8561 -1.0355
 5105SOL    HW226778   0.691   1.985  17.353  0.1726 -0.5355  0.1653
 5106SOL     OW26779   4.392   0.591   3.793  0.3346 -0.2575 -0.4035
 5106SOL    HW126780   4.335   0.532   3.842 -0.8832  2.0788  0.9765
 5106SOL    HW226781   4.326   0.640   3.744  1.5402  0.4086 -1.3635
 5107SOL     OW26782   4.718   1.477   0.753 -0.0724 -0.2510  0.0167
 5107SOL    HW126783   4.693   1.451   0.664 -2.0107 -2.8964  1.3250
 5107SOL    HW226784   4.689   1.401   0.804 -2.1674  0.6960  0.2208
 5108SOL     OW26785   1.293   1.873  12.333  0.0142 -0.4183 -0.6842
 5108SOL    HW126786   1.331   1.838  12.414  0.2151 -0.1526 -0.6621
 5108SOL    HW226787   1.370   1.912  12.290 -0.2378  0.7729 -0.0571
 5109SOL     OW26788   0.565   2.519   3.950  0.6420  0.1327 -0.3747
 5109SOL    HW126789   0.638   2.485   3.899 -0.0165 -2.2602  0.2728
 5109SOL    HW226790   0.593   2.498   4.039  0.2472 -0.0891 -0.3029
 5110SOL     OW26791   1.335   0.168   7.982 -0.4651  0.0769 -0.5784
 5110SOL    HW126792   1.381   0.085   7.970 -0.3040  0.1380 -0.3819
 5110SOL    HW226793   1.271   0.171   7.911 -2.2320 -1.3690  0.9589
 5111SOL     OW26794   4.661   2.329   8.170  0.2618  0.0774 -0.4038
 5111SOL    HW126795   4.705   2.245   8.173  2.3057  1.1018 -2.1209
 5111SOL    HW226796   4.596   2.310   8.103  0.6733  1.7323 -1.2674
 5112SOL     OW26797   1.705   2.501   3.748 -0.6769 -0.2087 -0.5610
 5112SOL    HW126798   1.642   2.536   3.811 -0.5697 -1.1351  0.0617
 5112SOL    HW226799   1.682   2.410   3.765 -0.3713  0.2295  2.1503
 5113SOL     OW26800   3.771   0.737   4.354 -0.0566  0.1573  0.4840
 5113SOL    HW126801   3.800   0.650   4.380  1.7156  1.0979  1.7097
 5113SOL    HW226802   3.786   0.731   4.260  0.5166  0.5395  0.5471
 5114SOL     OW26803   3.353   1.368   7.293 -0.1403 -0.3245  0.1971
 5114SOL    HW126804   3.325   1.446   7.341 -1.0810 -1.0286  0.7864
 5114SOL    HW226805   3.274   1.345   7.243 -0.7498  1.3345  0.4179
 5115SOL     OW26806   2.162   2.245   4.126  0.2004  0.1672  0.1662
 5115SOL    HW126807   2.223   2.244   4.052 -0.8602  0.0105 -0.7137
 5115SOL    HW226808   2.163   2.337   4.153  3.2252  1.3012 -3.8283
 5116SOL     OW26809   2.745   2.661   1.497 -0.7491 -0.3599 -0.0978
 5116SOL    HW126810   2.710   2.713   1.569  1.6265  0.2090  0.6586
 5116SOL    HW226811   2.765   2.589   1.556 -3.7934 -0.2275  1.0904
 5117SOL     OW26812   0.046   4.280   7.755  0.1166  0.3966  0.0989
 5117SOL    HW126813   4.713   4.205   7.752  0.5558  0.2155 -4.2577
 5117SOL    HW226814   4.708   4.351   7.753 -0.1177  0.1812 -0.0340
 5118SOL     OW26815   0.616   0.843   9.632 -0.1212 -0.1073 -0.4356
 5118SOL    HW126816   0.691   0.897   9.605 -0.4653  0.6709  0.1740
 5118SOL    HW226817   0.609   0.866   9.725  0.9852  1.7490 -0.7998
 5119SOL     OW26818   4.016   4.159   9.842 -0.0226 -0.7045  0.7851
 5119SOL    HW126819   4.027   4.110   9.923  0.0044 -1.1449  0.5102
 5119SOL    HW226820   4.000   4.246   9.879  0.4410 -1.9614  3.9645
 5120SOL     OW26821   3.250   0.928   4.581 -0.2973 -0.0558 -0.6374
 5120SOL    HW126822   3.257   0.858   4.646  1.0596  0.0198 -0.6911
 5120SOL    HW226823   3.336   0.927   4.537 -0.0161  0.7924 -0.0998
 5121SOL     OW26824   0.339   2.717  13.740  0.5539  0.3005  0.2014
 5121SOL    HW126825   0.335   2.650  13.809 -2.2747 -2.6844 -2.8833
 5121SOL    HW226826   0.263   2.692  13.687  0.4696 -0.9034  0.8955
 5122SOL     OW26827   2.395   2.812   5.899 -0.4687 -0.2445  0.7655
 5122SOL    HW126828   2.384   2.907   5.912 -0.6772 -0.4380  2.0082
 5122SOL    HW226829   2.491   2.810   5.899 -0.5024 -1.9131 -0.7699
 5123SOL     OW26830   2.213   0.004   6.444 -0.0006 -0.3053  0.4025
 5123SOL    HW126831   2.147   4.660   6.450 -0.4203 -0.1469 -2.2822
 5123SOL    HW226832   2.263   4.706   6.522 -0.9246  2.2074  1.7531
 5124SOL     OW26833   0.816   0.698  11.042 -0.2086 -0.0215  0.4161
 5124SOL    HW126834   0.785   0.753  10.969  0.7568 -2.0102 -1.4671
 5124SOL    HW226835   0.852   0.625  10.993 -3.9342 -1.9883  0.6133
 5125SOL     OW26836   1.851   4.239  11.712 -0.0279 -0.7776  0.8362
 5125SOL    HW126837   1.886   4.304  11.651 -0.2620 -0.8538  0.6191
 5125SOL    HW226838   1.906   4.162  11.699  0.7599 -0.1756  0.6173
 5126SOL     OW26839   3.848   2.635   8.045  0.6799 -0.4114  0.4504
 5126SOL    HW126840   3.907   2.604   7.977  0.1375 -2.0343  0.7044
 5126SOL    HW226841   3.775   2.575   8.027  1.5302 -1.5038  0.6193
 5127SOL     OW26842   1.845   1.992  11.180 -0.4439 -0.1601 -0.0513
 5127SOL    HW126843   1.931   2.026  11.155 -0.9559  0.0257 -1.5633
 5127SOL    HW226844   1.842   1.903  11.144 -1.4081 -0.6990  1.3911
 5128SOL     OW26845   3.246   0.216   8.162  0.2142  0.0739 -0.1604
 5128SOL    HW126846   3.222   0.138   8.112  1.4346 -0.1126 -0.4492
 5128SOL    HW226847   3.256   0.178   8.249  0.2473 -1.7283 -0.9483
 5129SOL     OW26848   1.026   4.594  14.335  0.3446  0.4831 -0.7691
 5129SOL    HW126849   1.078   4.562  14.409 -0.9177  1.5239  0.5828
 5129SOL    HW226850   1.081   4.597  14.257 -0.3111  2.0502 -1.1692
 5130SOL     OW26851   1.133   3.120   4.382 -0.3949  0.8688 -0.2381
 5130SOL    HW126852   1.210   3.155   4.338 -1.2008 -0.4549 -2.6855
 5130SOL    HW226853   1.162   3.147   4.469 -0.0113  0.6354 -0.2929
 5131SOL     OW26854   2.246   2.033   4.786  0.0844 -0.1203 -0.2440
 5131SOL    HW126855   2.253   2.047   4.692  3.7049  1.9837  0.3859
 5131SOL    HW226856   2.193   1.953   4.792  0.5883 -0.5409 -1.4290
 5132SOL     OW26857   4.579   3.893   5.619 -0.1795  0.4371 -0.7454
 5132SOL    HW126858   4.573   3.985   5.591 -0.0198  0.6077 -0.2097
 5132SOL    HW226859   4.669   3.886   5.650 -0.8968  0.3598  1.2997
 5133SOL     OW26860   0.375   3.723   5.779  0.0186  0.6803 -0.1251
 5133SOL    HW126861   0.332   3.786   5.721  0.2533  0.3038 -0.7092
 5133SOL    HW226862   0.325   3.644   5.759  1.0782  0.2354 -0.9940
 5134SOL     OW26863   3.824   1.915   2.093  0.1382 -0.3151  0.2118
 5134SOL    HW126864   3.846   1.954   2.177  1.5344  1.4709 -0.9711
 5134SOL    HW226865   3.819   1.987   2.030 -0.0774  0.9163  1.6537
 5135SOL     OW26866   2.392   4.442  11.015 -0.4447 -0.2157 -0.2153
 5135SOL    HW126867   2.318   4.385  11.038 -1.2231  0.4563 -1.0468
 5135SOL    HW226868   2.364   4.519  11.065  0.8849  0.8022 -1.0534
 5136SOL     OW26869   2.862   1.866   4.482 -0.3124 -0.2076 -0.3940
 5136SOL    HW126870   2.866   1.931   4.552 -0.0554 -2.7450  1.9395
 5136SOL    HW226871   2.861   1.787   4.537 -1.3321  0.0676 -0.0314
 5137SOL     OW26872   4.595   1.204  17.553  0.0970  0.2533  0.2042
 5137SOL    HW126873   4.591   1.130  17.491  0.1585  2.1692 -2.0989
 5137SOL    HW226874   4.572   1.171  17.640  1.4022  0.4831  0.6305
 5138SOL     OW26875   0.737   2.206  12.121 -0.6470 -0.6069 -0.8490
 5138SOL    HW126876   0.752   2.113  12.141 -0.4797 -0.0838  1.3969
 5138SOL    HW226877   0.642   2.203  12.138 -0.5682  0.5108 -0.2485
 5139SOL     OW26878   4.529   0.097   3.985 -0.0413  0.4204  0.2748
 5139SOL    HW126879   4.523   0.085   3.890 -1.6137  0.6814  0.3423
 5139SOL    HW226880   4.589   0.025   4.006  0.8522  0.9546 -0.4340
 5140SOL     OW26881   4.054   0.418   8.270 -0.1924  0.2341 -0.4181
 5140SOL    HW126882   3.989   0.482   8.300 -1.7645 -1.8690  0.5925
 5140SOL    HW226883   4.003   0.375   8.202 -2.3361  2.3970 -0.1856
 5141SOL     OW26884   4.362   4.375   5.800  0.5351  0.0644 -0.6281
 5141SOL    HW126885   4.309   4.362   5.722  0.7086  0.9043 -0.8789
 5141SOL    HW226886   4.381   4.285   5.827  2.9611  1.0706  1.0014
 5142SOL     OW26887   3.803   4.009   0.788 -0.2560  0.0665 -0.2008
 5142SOL    HW126888   3.780   4.102   0.800 -3.0653 -0.6258 -0.1154
 5142SOL    HW226889   3.721   3.977   0.826 -0.7734  1.0125 -0.5010
 5143SOL     OW26890   3.201   0.126  11.164  0.7469 -0.6369  0.0933
 5143SOL    HW126891   3.211   0.203  11.108 -1.1248  1.7804  3.0922
 5143SOL    HW226892   3.286   0.126  11.209  0.7055 -0.0125  0.1737
 5144SOL     OW26893   0.131   3.192   2.267  0.1247 -0.5817 -0.1404
 5144SOL    HW126894   0.120   3.281   2.301 -0.7538 -1.3711  1.6558
 5144SOL    HW226895   0.077   3.196   2.188  0.5211  0.4852 -0.3512
 5145SOL     OW26896   4.195   0.327  13.023  0.0255 -0.4310  0.8091
 5145SOL    HW126897   4.195   0.409  12.973  0.2146 -0.5158  0.6713
 5145SOL    HW226898   4.175   0.374  13.105  0.0402  0.2752  0.4100
 5146SOL     OW26899   2.588   0.901   3.332  0.0253 -0.1668  0.3989
 5146SOL    HW126900   2.667   0.955   3.329  0.9433 -1.6440 -1.9984
 5146SOL    HW226901   2.526   0.967   3.300 -0.6247 -1.6696 -1.4679
 5147SOL     OW26902   2.431   0.706   3.109  0.0563 -0.1331  0.1190
 5147SOL    HW126903   2.417   0.788   3.063 -0.8233  0.5131  1.5608
 5147SOL    HW226904   2.401   0.641   3.045 -0.1412  0.4479 -0.3745
 5148SOL     OW26905   2.188   3.894   8.946  0.3354  0.2072  0.8185
 5148SOL    HW126906   2.204   3.968   9.004  2.8504  0.6163 -0.4084
 5148SOL    HW226907   2.092   3.894   8.939  0.2700 -0.9629  1.7359
 5149SOL     OW26908   1.423   2.525   4.783 -0.0366 -0.2977  0.2318
 5149SOL    HW126909   1.438   2.464   4.856  0.5833  1.7124  1.7564
 5149SOL    HW226910   1.345   2.575   4.809  0.6176  1.2160 -0.7586
 5150SOL     OW26911   4.031   1.376   6.711 -0.1119 -0.2230 -0.2290
 5150SOL    HW126912   4.025   1.320   6.787 -0.8123 -0.2757 -0.3248
 5150SOL    HW226913   4.007   1.321   6.636 -0.0281 -1.5976  0.7657
 5151SOL     OW26914   3.170   3.343   2.518 -0.8939  0.2335 -0.1522
 5151SOL    HW126915   3.152   3.361   2.611  2.9863 -1.3116  0.8976
 5151SOL    HW226916   3.259   3.375   2.508  0.2511 -2.9761 -0.2525
 5152SOL     OW26917   1.342   2.207   5.388 -0.0811 -0.3794 -0.3871
 5152SOL    HW126918   1.298   2.193   5.304  3.5047 -3.0924 -1.8200
 5152SOL    HW226919   1.263   2.194   5.441  0.2569  1.1930  0.4887
 5153SOL     OW26920   4.240   4.088   3.446  0.7102 -0.4165  0.4694
 5153SOL    HW126921   4.256   3.998   3.474  0.3118 -1.1127 -1.4925
 5153SOL    HW226922   4.144   4.093   3.451  0.8962 -0.0265  3.3496
 5154SOL     OW26923   1.487   2.356   6.849 -0.2252  0.0217  0.3136
 5154SOL    HW126924   1.576   2.338   6.880 -0.1995  0.3794  0.4436
 5154SOL    HW226925   1.470   2.418   6.919 -3.5699  0.5087 -0.9536
 5155SOL     OW26926   1.892   4.331  12.974 -0.3614 -0.0775  0.3000
 5155SOL    HW126927   1.947   4.290  12.908 -0.6829 -0.1327  0.0684
 5155SOL    HW226928   1.936   4.297  13.052  2.4376  0.8391 -0.8813
 5156SOL     OW26929   0.101   1.082  16.904  0.5342  0.6172  0.2177
 5156SOL    HW126930   0.107   1.173  16.931  2.3778 -0.4729  3.5542
 5156SOL    HW226931   0.034   1.089  16.836 -1.1796  1.3660  1.9995
 5157SOL     OW26932   0.947   0.787   0.180 -0.1280  0.4896  0.4796
 5157SOL    HW126933   0.864   0.780   0.226 -0.3569 -0.7160 -0.1290
 5157SOL    HW226934   0.922   0.872   0.144  2.5803  0.7591 -0.8325
 5158SOL     OW26935   2.063   2.378   5.513 -0.6255  0.0557 -0.2512
 5158SOL    HW126936   2.067   2.292   5.471  1.8197  0.5812 -1.1166
 5158SOL    HW226937   2.025   2.427   5.439 -0.6911 -0.1630 -0.3611
 5159SOL     OW26938   2.069   4.280   6.685 -0.0571  0.2067 -0.0900
 5159SOL    HW126939   2.059   4.221   6.610 -2.3998 -0.3007  0.6192
 5159SOL    HW226940   2.032   4.359   6.646 -0.6233 -0.2417 -0.4647
 5160SOL     OW26941   4.557   3.647  11.013  0.2086  0.0354  0.3359
 5160SOL    HW126942   4.575   3.708  11.085 -3.0825  0.9369  0.3923
 5160SOL    HW226943   4.585   3.697  10.937  0.6500 -0.0133  0.4622
 5161SOL     OW26944   1.518   1.074  12.321 -0.1235  0.2906 -0.6330
 5161SOL    HW126945   1.529   1.037  12.234 -0.3111 -2.4981  0.5432
 5161SOL    HW226946   1.586   1.018  12.359 -0.4498  0.5110  0.2906
 5162SOL     OW26947   2.580   4.617   7.541  0.0893  0.0942 -0.2450
 5162SOL    HW126948   2.606   4.568   7.619  0.3992  3.1352  1.5579
 5162SOL    HW226949   2.652   4.593   7.483 -1.2949 -1.7553 -1.1981
 5163SOL     OW26950   4.602   0.840  16.802 -0.1706  0.3839 -0.3818
 5163SOL    HW126951   4.666   0.875  16.739 -0.8249  2.2958  0.0165
 5163SOL    HW226952   4.590   0.903  16.873  0.2045  2.1339 -1.8811
 5164SOL     OW26953   1.999   1.347   2.733  0.5189  0.4571  0.2625
 5164SOL    HW126954   1.977   1.434   2.765  2.1013  1.1271 -0.4604
 5164SOL    HW226955   2.015   1.300   2.815 -0.6660  1.9026  1.3215
 5165SOL     OW26956   1.771   4.560   2.648  0.0049 -0.1854 -0.1524
 5165SOL    HW126957   1.685   4.585   2.614 -0.5098 -2.0376 -0.2127
 5165SOL    HW226958   1.815   4.571   2.564  2.2357  0.6657  1.1283
 5166SOL     OW26959   2.217   2.831   5.183  0.1444 -0.0769  0.0846
 5166SOL    HW126960   2.157   2.780   5.130  0.3131 -0.2832  0.0929
 5166SOL    HW226961   2.174   2.917   5.180  0.7295  0.2005 -0.6579
 5167SOL     OW26962   4.483   0.671  12.318  0.2184  0.3015 -0.1519
 5167SOL    HW126963   4.468   0.736  12.386  1.7754 -0.5463  1.0086
 5167SOL    HW226964   4.426   0.694  12.244  0.0038 -0.6333 -0.2802
 5168SOL     OW26965   1.922   4.227   7.424 -0.5160 -0.1605  0.3172
 5168SOL    HW126966   2.002   4.175   7.429  1.2462  2.6514  0.8885
 5168SOL    HW226967   1.860   4.176   7.476 -1.7511 -0.9749 -1.9269
 5169SOL     OW26968   3.209   1.044   5.379  0.1956  0.0754  0.2962
 5169SOL    HW126969   3.232   0.964   5.426  1.8301  0.7034  0.5767
 5169SOL    HW226970   3.257   1.035   5.296  0.0533  2.9299 -0.0987
 5170SOL     OW26971   2.393   2.178   3.963 -0.8883 -0.8571  0.1057
 5170SOL    HW126972   2.444   2.113   4.012 -0.7660 -1.0638 -0.2939
 5170SOL    HW226973   2.452   2.217   3.899 -0.3851 -1.0085  0.4768
 5171SOL     OW26974   4.378   1.601  16.865 -0.1320 -0.2143  0.0803
 5171SOL    HW126975   4.397   1.512  16.896  0.2008 -0.2128 -0.1242
 5171SOL    HW226976   4.460   1.643  16.888 -0.5611  0.7336 -0.1380
 5172SOL     OW26977   2.673   3.561  10.515  0.2442  0.2426  0.1088
 5172SOL    HW126978   2.579   3.575  10.526  0.4475 -0.0832  2.3579
 5172SOL    HW226979   2.706   3.627  10.455 -0.2471 -0.5263 -0.9944
 5173SOL     OW26980   0.047   4.558   4.680 -0.2230  0.1173  0.1467
 5173SOL    HW126981   4.700   4.618   4.663  1.5584  2.1428 -0.3348
 5173SOL    HW226982   0.082   4.545   4.592 -0.0499 -0.2873  0.2752
 5174SOL     OW26983   0.007   1.357   8.035 -0.3434  0.7908  0.3897
 5174SOL    HW126984   0.002   1.448   8.065  2.6391  0.8168  0.7410
 5174SOL    HW226985   0.091   1.348   7.991 -0.6497 -2.6718  0.5335
 5175SOL     OW26986   0.739   3.832  16.268  0.4347 -0.2375  0.7528
 5175SOL    HW126987   0.718   3.745  16.234 -2.0488  0.4911  0.3771
 5175SOL    HW226988   0.663   3.855  16.322  1.2518  1.5020  1.1646
 5176SOL     OW26989   0.479   0.502  15.365 -0.2235  0.7917 -0.0783
 5176SOL    HW126990   0.516   0.587  15.388  2.2075 -0.6249  1.3113
 5176SOL    HW226991   0.396   0.498  15.412 -0.3356 -2.5317 -0.5506
 5177SOL     OW26992   3.915   1.401   4.782  0.6551 -0.3219  0.1947
 5177SOL    HW126993   3.906   1.331   4.847 -1.4392 -2.0488 -1.9625
 5177SOL    HW226994   3.824   1.406   4.755  0.6292 -0.8643  0.1685
 5178SOL     OW26995   1.383   1.727  10.352 -0.1424  0.1008 -0.0878
 5178SOL    HW126996   1.464   1.774  10.370 -0.3080  0.0055  0.8670
 5178SOL    HW226997   1.399   1.709  10.259 -2.8445  1.1594 -0.7446
 5179SOL     OW26998   1.860   0.193   9.190  0.2509 -0.5914  0.3822
 5179SOL    HW126999   1.820   0.156   9.269  1.9662 -0.0762  1.4840
 5179SOL    HW227000   1.781   0.241   9.165 -1.1116 -2.1116  1.7910
 5180SOL     OW27001   3.352   0.839   7.045 -0.7735 -0.0263  0.2959
 5180SOL    HW127002   3.288   0.801   7.106 -1.6514 -0.2081 -0.7454
 5180SOL    HW227003   3.358   0.927   7.081  1.0036 -0.1373  0.2612
 5181SOL     OW27004   3.838   1.588   5.763 -0.0746  0.1625  0.6587
 5181SOL    HW127005   3.766   1.538   5.801 -0.5138 -0.0793 -0.4708
 5181SOL    HW227006   3.894   1.522   5.723  0.8107  0.2247  1.8032
 5182SOL     OW27007   3.470   3.094   7.750  0.2868 -0.3393  0.0991
 5182SOL    HW127008   3.512   3.068   7.668 -2.1476 -2.1444 -0.5660
 5182SOL    HW227009   3.398   3.146   7.714  0.9202  2.1604  2.4446
 5183SOL     OW27010   0.025   1.221   3.169 -0.0266 -0.3358  0.5155
 5183SOL    HW127011   0.055   1.168   3.243  1.6299  0.1526  0.1976
 5183SOL    HW227012   0.105   1.258   3.131 -1.1835  1.5471 -0.0705
 5184SOL     OW27013   1.566   0.144   5.418  0.2004  0.0226  0.3816
 5184SOL    HW127014   1.608   0.125   5.334  0.4885 -0.3432  0.6095
 5184SOL    HW227015   1.565   0.058   5.460 -1.7154  0.5620  1.4587
 5185SOL     OW27016   4.530   1.786   8.792 -0.1607  0.0422  0.2620
 5185SOL    HW127017   4.454   1.760   8.739  1.6295 -1.2314 -1.6910
 5185SOL    HW227018   4.554   1.700   8.826  2.8432  0.6984 -0.2410
 5186SOL     OW27019   2.967   4.040  14.642  0.0140  0.5493 -0.0991
 5186SOL    HW127020   2.935   3.964  14.594  0.5747  0.9734 -1.1429
 5186SOL    HW227021   3.059   4.017  14.625  0.0269 -0.7957  1.7746
 5187SOL     OW27022   3.386   2.955   3.220  0.6418  0.2408 -0.1862
 5187SOL    HW127023   3.452   2.974   3.153  2.4506 -0.1348  1.4931
 5187SOL    HW227024   3.360   3.042   3.251  0.6014 -1.0941  3.5415
 5188SOL     OW27025   1.384   4.135  12.882  0.1440  0.6507 -0.2374
 5188SOL    HW127026   1.407   4.079  12.808 -1.3746  3.1638 -2.6152
 5188SOL    HW227027   1.424   4.213  12.844  1.7787  0.4244  0.9932
 5189SOL     OW27028   1.280   4.662   5.063 -0.0560  0.0694 -0.6932
 5189SOL    HW127029   1.194   4.686   5.029  0.4980  3.9106  0.6634
 5189SOL    HW227030   1.262   4.605   5.138  1.5793  1.6785  0.9507
 5190SOL     OW27031   1.679   4.698   2.259  0.5057  0.3670 -0.3919
 5190SOL    HW127032   1.657   4.701   2.166 -0.7761  2.7406 -0.0044
 5190SOL    HW227033   1.698   0.064   2.279  0.1557 -0.0278  1.8026
 5191SOL     OW27034   1.863   4.093  15.053  0.5415  0.4297 -0.0714
 5191SOL    HW127035   1.940   4.130  15.008  0.9141 -2.0693 -1.4843
 5191SOL    HW227036   1.815   4.173  15.073 -0.6527 -0.6150  1.2399
 5192SOL     OW27037   1.540   2.252   3.494 -0.4558 -0.2063  0.0176
 5192SOL    HW127038   1.544   2.175   3.551  3.3280 -0.1128 -0.1133
 5192SOL    HW227039   1.592   2.225   3.418  1.8460 -1.2404  1.9608
 5193SOL     OW27040   3.695   1.425   6.676 -0.3297  0.1899  0.4569
 5193SOL    HW127041   3.709   1.332   6.695 -1.3152 -0.1894 -0.5932
 5193SOL    HW227042   3.760   1.452   6.611 -1.8723  0.7087 -0.8751
 5194SOL     OW27043   2.492   0.184   3.875 -0.2927  0.1624  0.4604
 5194SOL    HW127044   2.514   0.180   3.968  1.4310  1.1318  0.0870
 5194SOL    HW227045   2.516   0.097   3.845  1.5036  1.0028 -0.5434
 5195SOL     OW27046   0.768   0.536  15.120  0.2606  0.3727  0.5133
 5195SOL    HW127047   0.791   0.493  15.202  0.6018  0.2318  0.3462
 5195SOL    HW227048   0.685   0.492  15.106  0.0904  1.4619 -1.9198
 5196SOL     OW27049   4.417   2.866  15.377  0.3661 -0.0920  0.0189
 5196SOL    HW127050   4.389   2.863  15.468 -0.3301 -1.6600 -0.2384
 5196SOL    HW227051   4.461   2.780  15.375 -0.8110 -0.6661 -0.8832
 5197SOL     OW27052   4.345   3.022   4.315 -0.0706  0.7229  0.6457
 5197SOL    HW127053   4.406   2.985   4.251  0.0073 -0.9699  1.7024
 5197SOL    HW227054   4.263   2.987   4.279  0.3441 -0.3798  0.7744
 5198SOL     OW27055   4.451   1.956   9.846 -0.2841  0.2614  0.2378
 5198SOL    HW127056   4.524   1.964   9.908 -0.3246  0.3389  0.2757
 5198SOL    HW227057   4.382   1.990   9.903 -1.0185 -2.5220  1.0024
 5199SOL     OW27058   1.343   0.693   8.788 -0.3399 -0.0920 -0.5101
 5199SOL    HW127059   1.409   0.742   8.837  0.4011 -1.4703 -0.1350
 5199SOL    HW227060   1.400   0.624   8.755  0.7942 -0.6408  2.6510
 5200SOL     OW27061   2.901   3.661  14.856  0.3279  0.2035  0.6642
 5200SOL    HW127062   2.819   3.641  14.811 -0.4321  1.4912  1.4991
 5200SOL    HW227063   2.889   3.608  14.934 -0.1696  1.6288  1.5589
 5201SOL     OW27064   0.305   4.575   6.863  0.3954  0.3849  0.3606
 5201SOL    HW127065   0.264   4.661   6.870  1.7752  1.1860 -1.5089
 5201SOL    HW227066   0.339   4.562   6.952  0.3100 -0.2033  0.3106
 5202SOL     OW27067   4.641   0.901   8.083  0.1328  0.1712 -0.0671
 5202SOL    HW127068   4.717   0.879   8.029  0.0787  0.8767 -0.4392
 5202SOL    HW227069   4.568   0.853   8.045  1.2574 -1.9440  0.4767
 5203SOL     OW27070   3.132   2.027   8.961  0.1637  0.3222 -0.8474
 5203SOL    HW127071   3.072   1.962   8.925  1.2435 -0.6275 -0.8881
 5203SOL    HW227072   3.093   2.028   9.049 -1.9891  0.0171 -1.7959
 5204SOL     OW27073   2.068   0.401  10.020  0.8413 -0.6815  0.0177
 5204SOL    HW127074   2.141   0.339  10.015 -0.3756 -2.1319  0.2036
 5204SOL    HW227075   2.093   0.449   9.941  1.3444 -0.2191  0.4479
 5205SOL     OW27076   4.256   3.251   4.459 -0.0043  0.1050 -0.4967
 5205SOL    HW127077   4.278   3.176   4.403  1.6395  1.6868 -1.9806
 5205SOL    HW227078   4.200   3.206   4.521 -0.8288  2.7077  0.6614
 5206SOL     OW27079   0.131   0.100   7.089 -0.1089  0.4180 -0.3977
 5206SOL    HW127080   0.053   0.046   7.096 -0.0070  0.3213  0.0092
 5206SOL    HW227081   0.089   0.180   7.056  0.4614  0.9529  0.1707
 5207SOL     OW27082   0.436   2.037   9.869 -0.8029 -0.0734  0.5066
 5207SOL    HW127083   0.378   2.030   9.793 -0.9584 -1.3191  0.7482
 5207SOL    HW227084   0.378   1.994   9.931 -0.9425  0.2093  0.5706
 5208SOL     OW27085   3.940   0.276   7.586  0.1845  0.3293  0.3329
 5208SOL    HW127086   4.028   0.289   7.620 -1.3443  0.3998  4.2387
 5208SOL    HW227087   3.884   0.343   7.626  0.6617  0.2371  1.1475
 5209SOL     OW27088   0.006   2.779   3.366  0.0827 -0.4360 -0.0980
 5209SOL    HW127089   4.688   2.778   3.281  1.1554 -1.2704 -0.6253
 5209SOL    HW227090   0.002   2.867   3.405  0.3724  0.6193 -2.4878
 5210SOL     OW27091   3.750   4.478   0.540 -0.7115  0.5550  0.3016
 5210SOL    HW127092   3.740   4.494   0.446  1.9013 -2.5070 -0.5118
 5210SOL    HW227093   3.842   4.497   0.555 -0.8815  0.8058  1.0217
 5211SOL     OW27094   4.711   0.178   4.619  0.2853  0.5359  0.6138
 5211SOL    HW127095   4.651   0.209   4.687  0.8765 -0.0816  1.4153
 5211SOL    HW227096   0.057   0.241   4.622 -0.8858  1.8747  0.1959
 5212SOL     OW27097   3.699   3.607   7.056 -0.2023  0.2152  0.1998
 5212SOL    HW127098   3.676   3.608   7.149  0.6326  1.1258  0.4006
 5212SOL    HW227099   3.644   3.677   7.022  0.5727  1.0149  0.5723
 5213SOL     OW27100   1.929   2.664   6.760 -0.2281 -0.0915 -1.0036
 5213SOL    HW127101   1.877   2.636   6.836 -1.9117  0.7750 -1.8493
 5213SOL    HW227102   2.015   2.628   6.783 -0.0545  0.5074 -0.7029
 5214SOL     OW27103   2.175   0.951   4.147 -0.3362  0.5071  0.1649
 5214SOL    HW127104   2.178   0.864   4.186 -0.0718  0.8828  0.9992
 5214SOL    HW227105   2.116   1.005   4.200  0.2599  1.6016 -0.2807
 5215SOL     OW27106   3.834   2.816   3.981  0.2787 -0.2322  0.0506
 5215SOL    HW127107   3.785   2.778   3.908 -0.2049 -1.5293  1.0559
 5215SOL    HW227108   3.823   2.910   3.968 -2.0596 -0.6303 -0.8303
 5216SOL     OW27109   0.125   0.029   3.897  0.2335  0.4249  0.2334
 5216SOL    HW127110   0.210   4.713   3.881  0.8790  1.4447  1.0389
 5216SOL    HW227111   0.133   0.123   3.882 -0.4713  0.4530  0.0325
 5217SOL     OW27112   2.302   4.381   3.321  0.3041  0.1622  0.4753
 5217SOL    HW127113   2.329   4.417   3.236 -1.2344 -2.6726 -1.2249
 5217SOL    HW227114   2.214   4.417   3.328 -0.2664 -1.3124  0.8657
 5218SOL     OW27115   0.008   3.223  15.101 -0.0427 -0.1312  0.4277
 5218SOL    HW127116   0.081   3.203  15.043  0.2148 -1.7683  1.3276
 5218SOL    HW227117   4.696   3.136  15.115 -0.8004  0.0393 -0.5839
 5219SOL     OW27118   2.857   1.398   3.054  0.2090 -0.9374  0.2692
 5219SOL    HW127119   2.886   1.490   3.058  0.6246 -1.1137  1.4517
 5219SOL    HW227120   2.766   1.398   3.023  0.0881 -0.7076  0.6253
 5220SOL     OW27121   2.799   4.049   4.699 -0.2888 -0.0992  0.3651
 5220SOL    HW127122   2.812   3.955   4.692 -1.5749 -0.2811  0.5189
 5220SOL    HW227123   2.885   4.084   4.723  0.3761 -1.4417 -0.1080
 5221SOL     OW27124   1.331   1.010   5.542 -0.0092  0.2623  0.4041
 5221SOL    HW127125   1.271   1.052   5.481  0.8208  1.0746  0.1471
 5221SOL    HW227126   1.406   1.070   5.536  0.7147 -0.9028 -2.2337
 5222SOL     OW27127   0.956   1.989   5.626  0.1380  0.3486 -0.3427
 5222SOL    HW127128   0.975   2.039   5.547 -1.4431  0.5219 -0.6050
 5222SOL    HW227129   0.930   2.057   5.688 -1.2404  0.8134 -1.4202
 5223SOL     OW27130   1.713   2.939  17.330  0.0135  0.2964 -0.3412
 5223SOL    HW127131   1.774   2.869  17.352 -0.8678 -0.4237 -0.2036
 5223SOL    HW227132   1.633   2.927  17.381 -0.8077  1.7783 -1.2690
 5224SOL     OW27133   2.142   1.941   3.997 -0.7211 -0.2490 -0.1886
 5224SOL    HW127134   2.169   2.031   3.978  0.3194 -1.0424 -2.5084
 5224SOL    HW227135   2.056   1.931   3.957 -0.0891 -2.4569 -0.9599
 5225SOL     OW27136   0.089   2.146   0.800 -0.2373 -0.3503  0.0940
 5225SOL    HW127137   0.047   2.074   0.845  0.8385 -1.5533 -0.8290
 5225SOL    HW227138   0.148   2.093   0.747 -1.0778  1.0113 -2.2027
 5226SOL     OW27139   4.416   3.168   2.091  0.2359  0.0667 -0.0798
 5226SOL    HW127140   4.326   3.199   2.082  0.0443  0.2414  2.5554
 5226SOL    HW227141   4.457   3.174   2.005  0.4662  0.1677  0.0367
 5227SOL     OW27142   1.599   4.273   8.588 -0.1078  0.4082  0.3676
 5227SOL    HW127143   1.562   4.270   8.676  0.2102 -1.5068  0.4411
 5227SOL    HW227144   1.539   4.337   8.551  1.7181  1.1738 -1.3128
 5228SOL     OW27145   4.208   1.040  12.149  0.0729 -0.0115 -0.3083
 5228SOL    HW127146   4.159   1.060  12.069 -2.0659 -0.6393  0.8346
 5228SOL    HW227147   4.134   1.001  12.195  2.2015 -1.7017  1.7092
 5229SOL     OW27148   3.968   2.018   0.784  0.4079  0.1175 -0.3364
 5229SOL    HW127149   3.898   1.954   0.791 -0.2059  0.9110  0.9700
 5229SOL    HW227150   3.987   2.007   0.691 -1.3941  0.7827 -0.7814
 5230SOL     OW27151   4.351   2.017   6.542  0.1207  0.1638  0.3525
 5230SOL    HW127152   4.322   2.009   6.633 -2.1078 -2.3989 -0.5798
 5230SOL    HW227153   4.269   2.019   6.494 -0.3876 -1.5150  1.1590
 5231SOL     OW27154   0.446   0.806   8.466  0.2661 -0.0782  0.5260
 5231SOL    HW127155   0.434   0.770   8.378 -0.1335  1.3659 -0.0153
 5231SOL    HW227156   0.461   0.731   8.524  0.6530 -1.1451 -0.9543
 5232SOL     OW27157   0.427   0.275   9.897 -0.4566  0.2311 -0.2737
 5232SOL    HW127158   0.496   0.326   9.939 -2.4273  0.3486  2.8843
 5232SOL    HW227159   0.443   0.195   9.946  1.2579  1.6106  1.4197
 5233SOL     OW27160   3.807   4.212   4.082 -0.1026 -0.0602 -0.2119
 5233SOL    HW127161   3.764   4.181   4.002  0.5276  1.2888 -1.0722
 5233SOL    HW227162   3.840   4.297   4.054 -0.9646  0.4084  0.1835
 5234SOL     OW27163   4.498   0.377   5.693 -0.6470  0.7114  0.0576
 5234SOL    HW127164   4.432   0.316   5.727 -2.2108  1.3082 -1.8415
 5234SOL    HW227165   4.531   0.333   5.615  1.1548  3.6102 -0.8041
 5235SOL     OW27166   2.007   3.723   3.602  0.3472  0.1207  0.3950
 5235SOL    HW127167   1.999   3.804   3.652 -2.6071  0.0063  0.0916
 5235SOL    HW227168   2.075   3.738   3.537 -0.9180  1.1353 -0.7056
 5236SOL     OW27169   2.893   0.846   3.468 -0.3079  0.0737 -0.3192
 5236SOL    HW127170   2.860   0.764   3.433 -0.8311  0.5915 -1.0476
 5236SOL    HW227171   2.985   0.844   3.442 -0.1413  0.4016  0.2578
 5237SOL     OW27172   0.632   4.679   5.266 -0.3288 -0.1895  0.8040
 5237SOL    HW127173   0.644   4.619   5.192  0.2372  0.8336  0.0605
 5237SOL    HW227174   0.692   0.026   5.246  1.7338 -2.2957 -0.7218
 5238SOL     OW27175   0.910   0.202  10.831  0.3009 -0.2873 -0.0432
 5238SOL    HW127176   0.936   0.292  10.849  2.0514 -1.1061  1.5330
 5238SOL    HW227177   0.909   0.205  10.736 -2.3566  0.6655  0.0115
 5239SOL     OW27178   4.051   3.006   4.197  0.1916  0.4712  0.4204
 5239SOL    HW127179   4.069   2.921   4.237 -0.2472 -0.5187 -1.5126
 5239SOL    HW227180   3.992   2.974   4.129 -0.0404 -2.4307  2.0161
 5240SOL     OW27181   3.704   0.804  17.682 -0.3695 -0.2653  0.7902
 5240SOL    HW127182   3.620   0.847  17.694 -1.9382 -3.8970  2.4802
 5240SOL    HW227183   3.684   0.732  17.622 -0.3883  0.2026  0.2333
 5241SOL     OW27184   2.711   2.719  12.421 -0.1339 -0.3706 -0.5423
 5241SOL    HW127185   2.768   2.731  12.497 -0.0862  0.5002 -0.7104
 5241SOL    HW227186   2.702   2.624  12.426  0.8655 -0.4445 -0.1609
 5242SOL     OW27187   2.747   1.503   4.551  0.3744  0.0766 -0.0308
 5242SOL    HW127188   2.676   1.449   4.517  0.7933  0.3147 -1.3066
 5242SOL    HW227189   2.783   1.439   4.611 -1.9257 -2.2702 -1.1550
 5243SOL     OW27190   3.062   1.471   0.470  0.7250 -0.6473 -0.2471
 5243SOL    HW127191   3.060   1.553   0.520  2.2111 -0.1675 -0.9942
 5243SOL    HW227192   3.151   1.470   0.435  0.2958  1.8273 -1.3704
 5244SOL     OW27193   4.460   3.206   2.898 -0.3245 -0.7290 -0.3587
 5244SOL    HW127194   4.387   3.145   2.911 -0.7843 -0.3273 -1.0577
 5244SOL    HW227195   4.415   3.290   2.904  2.0132  0.5438 -0.6687
 5245SOL     OW27196   3.490   4.049   6.178  0.8259  0.0230 -0.1189
 5245SOL    HW127197   3.499   4.076   6.087 -1.5773 -0.9272 -0.6574
 5245SOL    HW227198   3.544   3.970   6.188 -3.9221 -3.1336  0.7708
 5246SOL     OW27199   4.679   3.123  14.788  0.0213  0.0024  0.2707
 5246SOL    HW127200   4.612   3.066  14.824  0.6202 -1.4768 -0.9689
 5246SOL    HW227201   4.644   3.209  14.812 -0.3440 -0.1913  0.4252
 5247SOL     OW27202   1.546   0.425   4.448  0.3986 -0.0142 -0.4519
 5247SOL    HW127203   1.519   0.377   4.370 -1.6997  1.6211 -0.7408
 5247SOL    HW227204   1.638   0.402   4.460 -0.1457 -1.3764  1.1098
 5248SOL     OW27205   4.299   4.052   4.794  0.3088  0.1406 -0.4745
 5248SOL    HW127206   4.251   3.986   4.845 -0.4759 -0.8234 -2.4613
 5248SOL    HW227207   4.330   4.108   4.865  1.1600  0.5674 -1.1793
 5249SOL     OW27208   4.490   1.841  17.229 -0.4251 -0.6037  0.1202
 5249SOL    HW127209   4.472   1.823  17.136  1.7307  1.2843 -0.6605
 5249SOL    HW227210   4.470   1.751  17.255  0.0360 -0.7936 -0.1804
 5250SOL     OW27211   2.580   3.736   3.501 -0.7775 -0.3782 -0.7869
 5250SOL    HW127212   2.607   3.648   3.528  1.4746  0.7489  0.6265
 5250SOL    HW227213   2.554   3.771   3.586  0.1310 -1.7275  0.0435
 5251SOL     OW27214   2.722   2.994  13.219  0.4011  0.3054 -0.3981
 5251SOL    HW127215   2.656   3.053  13.253 -1.7721 -0.9853 -2.3720
 5251SOL    HW227216   2.675   2.946  13.151 -0.3254 -0.6413  0.7659
 5252SOL     OW27217   0.368   4.627   4.650 -0.2497 -0.0216  0.5188
 5252SOL    HW127218   0.279   4.658   4.630 -0.2003  0.2123  0.6640
 5252SOL    HW227219   0.416   4.706   4.673  0.6961 -1.0060  1.9330
 5253SOL     OW27220   1.464   4.603   2.805 -0.4104 -0.4839 -0.1249
 5253SOL    HW127221   1.375   4.631   2.787 -0.5899  0.0630  1.5956
 5253SOL    HW227222   1.471   4.522   2.754 -1.7678 -0.4519 -0.3624
 5254SOL     OW27223   1.370   4.319   0.627 -0.2877 -0.1381 -0.1640
 5254SOL    HW127224   1.300   4.308   0.562  1.2422 -1.4258 -1.6079
 5254SOL    HW227225   1.345   4.259   0.698  1.5130 -0.0632  0.5275
 5255SOL     OW27226   3.627   0.472   0.945  0.4078 -0.3170  0.0265
 5255SOL    HW127227   3.598   0.559   0.971  1.1246 -0.3987  1.1115
 5255SOL    HW227228   3.706   0.460   0.998  0.4044 -0.6783 -0.0506
 5256SOL     OW27229   2.806   1.953  17.138 -0.4794 -0.0622  0.2912
 5256SOL    HW127230   2.850   1.979  17.057 -1.3776  3.0047  0.7523
 5256SOL    HW227231   2.714   1.968  17.118 -0.4421 -0.0137  0.1584
 5257SOL     OW27232   1.541   3.683   2.305 -0.4118 -0.3814  0.2622
 5257SOL    HW127233   1.450   3.670   2.330 -1.0790  1.3427 -1.2850
 5257SOL    HW227234   1.569   3.603   2.260 -1.1382 -1.8470  2.4125
 5258SOL     OW27235   3.500   1.008   8.173  0.3862  0.0893  0.6689
 5258SOL    HW127236   3.473   0.916   8.179  1.4274 -0.2020  0.9688
 5258SOL    HW227237   3.479   1.048   8.089  2.3760 -1.6925 -0.6648
 5259SOL     OW27238   2.641   2.794  16.211  0.1333 -0.3378  0.3172
 5259SOL    HW127239   2.717   2.817  16.157 -0.9177 -0.9386 -1.4194
 5259SOL    HW227240   2.606   2.710  16.181 -1.7729  1.1138 -1.4730
 5260SOL     OW27241   3.294   3.865   9.702  0.0438 -0.3146 -0.4789
 5260SOL    HW127242   3.268   3.869   9.610  0.8649  1.3805 -0.6375
 5260SOL    HW227243   3.381   3.905   9.704 -0.7009  1.2476  0.3938
 5261SOL     OW27244   1.668   0.653   6.421 -0.1687  0.0441 -0.5009
 5261SOL    HW127245   1.623   0.594   6.362  0.7849 -0.9976 -0.1929
 5261SOL    HW227246   1.687   0.587   6.488 -2.4829 -1.3831 -1.2675
 5262SOL     OW27247   4.335   3.836   3.567  0.2526 -0.2461 -0.0566
 5262SOL    HW127248   4.318   3.769   3.634 -0.0526  1.0795  1.1834
 5262SOL    HW227249   4.416   3.818   3.519  0.2263 -0.2888 -0.0855
 5263SOL     OW27250   2.995   2.816   0.575  0.0712  0.2209 -0.3037
 5263SOL    HW127251   2.912   2.860   0.555 -0.6915  0.1537  2.7115
 5263SOL    HW227252   2.969   2.727   0.553 -0.7009  0.6088 -0.9824
 5264SOL     OW27253   0.869   3.298   4.752 -0.5909  0.2109  0.3165
 5264SOL    HW127254   0.790   3.333   4.711 -0.8602  1.0777  1.5895
 5264SOL    HW227255   0.935   3.320   4.686  1.0058 -2.7639  0.8801
 5265SOL     OW27256   3.063   2.557   9.804  0.5267  0.2365 -0.0609
 5265SOL    HW127257   3.006   2.621   9.761  1.2835  0.2561 -1.0539
 5265SOL    HW227258   3.141   2.604   9.834  0.0874  1.1641 -0.3492
 5266SOL     OW27259   2.462   1.463   5.746  0.3305  0.0098 -1.3242
 5266SOL    HW127260   2.382   1.458   5.695 -0.2904  0.6552 -0.4126
 5266SOL    HW227261   2.451   1.551   5.782  1.0902 -0.2175 -0.5266
 5267SOL     OW27262   4.442   0.630   5.237 -0.0060  0.7846 -0.2675
 5267SOL    HW127263   4.488   0.571   5.297  0.4500  1.2794 -0.1372
 5267SOL    HW227264   4.504   0.703   5.236  0.4509  0.3990 -0.2796
 5268SOL     OW27265   4.333   4.023   9.060  0.6461  0.2995  0.6045
 5268SOL    HW127266   4.263   4.040   9.124  0.0801  0.8905 -0.1707
 5268SOL    HW227267   4.405   3.993   9.115 -0.5847 -0.0748  2.0209
 5269SOL     OW27268   4.186   3.314   1.768  0.4063 -0.3821 -0.0474
 5269SOL    HW127269   4.160   3.386   1.712  0.3300  1.2875  2.1568
 5269SOL    HW227270   4.282   3.311   1.762  0.4502  0.0492  0.4180
 5270SOL     OW27271   4.557   0.931   1.673  0.2361  0.1928  0.0111
 5270SOL    HW127272   4.527   0.924   1.764  2.7130 -0.5735  0.7681
 5270SOL    HW227273   4.583   1.023   1.674  0.7670  0.0475 -0.6345
 5271SOL     OW27274   3.757   1.791   7.434  0.3884  0.2275 -0.0599
 5271SOL    HW127275   3.740   1.777   7.527  0.0672 -0.8688 -0.2781
 5271SOL    HW227276   3.834   1.736   7.418  1.4081  1.3330  1.0812
 5272SOL     OW27277   0.791   2.890   9.308 -0.5155 -0.6295 -0.4923
 5272SOL    HW127278   0.817   2.860   9.221  1.0447 -2.5018  0.6311
 5272SOL    HW227279   0.808   2.816   9.366 -0.3411  0.6105  1.0357
 5273SOL     OW27280   1.958   4.037  12.951 -0.5364  0.3156  0.0864
 5273SOL    HW127281   1.880   4.048  12.897  0.6265  1.5544 -1.3399
 5273SOL    HW227282   2.027   4.083  12.903 -0.3801 -0.3403 -0.3034
 5274SOL     OW27283   3.694   0.389  12.834 -0.1021  0.5975 -0.1388
 5274SOL    HW127284   3.612   0.407  12.879  0.4355  0.4172  0.9325
 5274SOL    HW227285   3.738   0.320  12.885  1.7389  1.3276 -0.7541
 5275SOL     OW27286   0.044   3.565   8.919 -0.0723 -0.3340  0.5821
 5275SOL    HW127287   0.113   3.514   8.962 -2.5282 -3.3100  0.9859
 5275SOL    HW227288   0.103   3.612   8.860 -0.7007  0.0361  0.2500
 5276SOL     OW27289   1.995   1.529   6.104  0.1634  1.0140 -0.0946
 5276SOL    HW127290   1.977   1.470   6.031  1.1067  1.3018 -0.5571
 5276SOL    HW227291   1.926   1.592   6.083 -1.1272  0.5223  2.5723
 5277SOL     OW27292   3.837   1.337   2.947  0.3323 -0.2019  0.1356
 5277SOL    HW127293   3.850   1.269   3.013  0.7712 -0.5473 -0.3021
 5277SOL    HW227294   3.852   1.416   2.998 -1.4636  1.6882 -2.2312
 5278SOL     OW27295   0.617   4.625   5.530 -0.2633  0.0154  0.1486
 5278SOL    HW127296   0.523   4.645   5.531 -0.5283 -1.1818 -0.7401
 5278SOL    HW227297   0.635   4.665   5.445  0.6296  0.6288  0.6313
 5279SOL     OW27298   2.543   0.696   8.420 -0.0924 -0.4249 -0.6342
 5279SOL    HW127299   2.491   0.775   8.408 -0.2424 -0.7073 -1.7777
 5279SOL    HW227300   2.476   0.638   8.455  0.8685 -0.9769  0.3017
 5280SOL     OW27301   3.893   2.048   1.867 -0.7564  0.3486  0.1986
 5280SOL    HW127302   3.930   2.135   1.857  1.6423 -0.5598  1.1592
 5280SOL    HW227303   3.842   2.029   1.788 -0.9918 -0.6973  0.5949
 5281SOL     OW27304   3.082   4.180   0.971  0.7526  0.2001 -0.0792
 5281SOL    HW127305   2.993   4.208   0.990  0.6383  0.4309 -0.9660
 5281SOL    HW227306   3.062   4.098   0.927 -0.0100 -0.7405  2.0258
 5282SOL     OW27307   3.258   0.791   5.046 -0.1218  0.8913  0.5037
 5282SOL    HW127308   3.299   0.825   5.126  0.2310  0.3810  0.5401
 5282SOL    HW227309   3.327   0.814   4.985 -1.2970  1.6857 -0.5121
 5283SOL     OW27310   0.004   1.437  17.546  0.4398  0.2754  0.0390
 5283SOL    HW127311   4.660   1.371  17.536  0.3546  0.1616  1.4591
 5283SOL    HW227312   4.668   1.510  17.550  1.0210  0.7164  0.7731
 5284SOL     OW27313   0.928   0.443  13.013 -0.3861 -0.1481  0.9522
 5284SOL    HW127314   1.017   0.472  12.994 -1.5550  1.6996 -1.7320
 5284SOL    HW227315   0.876   0.462  12.934  0.2391  1.3906  0.9188
 5285SOL     OW27316   4.383   0.291   6.361  0.5387  0.1494  0.4648
 5285SOL    HW127317   4.430   0.267   6.281 -3.6146 -0.5739 -1.7181
 5285SOL    HW227318   4.443   0.252   6.426 -1.1528  1.4533  2.8061
 5286SOL     OW27319   4.151   2.042  14.059 -0.5640 -0.5732  0.3510
 5286SOL    HW127320   4.070   1.992  14.051 -1.1863  0.7710 -1.5777
 5286SOL    HW227321   4.208   1.966  14.068  0.8417  0.0587 -3.1930
 5287SOL     OW27322   3.365   1.721   7.831  0.0710  0.0016 -0.5865
 5287SOL    HW127323   3.338   1.697   7.742 -0.3201 -0.1862 -0.4172
 5287SOL    HW227324   3.300   1.792   7.834 -2.5099 -2.3880  0.0050
 5288SOL     OW27325   1.058   1.210  11.273  0.4906 -0.3265 -0.3600
 5288SOL    HW127326   1.040   1.192  11.180 -0.0550  0.8008 -0.4781
 5288SOL    HW227327   1.041   1.303  11.259  1.9950 -0.2192 -1.4804
 5289SOL     OW27328   3.078   1.643  14.412 -0.0003 -0.6691 -0.7114
 5289SOL    HW127329   3.062   1.553  14.440 -0.0311 -0.1079  1.0717
 5289SOL    HW227330   3.150   1.672  14.467 -1.7852 -0.0992  1.3042
 5290SOL     OW27331   3.559   1.422   0.362  0.2441 -0.5347 -0.5784
 5290SOL    HW127332   3.510   1.379   0.432  1.2095 -1.8182 -0.6799
 5290SOL    HW227333   3.605   1.341   0.339 -2.2977 -1.6209 -1.8256
 5291SOL     OW27334   1.067   2.406   6.372 -0.3872  0.5549 -0.0314
 5291SOL    HW127335   1.062   2.314   6.345  2.0182  0.1868  0.7790
 5291SOL    HW227336   1.011   2.439   6.301  2.3782  0.9404 -2.0187
 5292SOL     OW27337   4.308   2.711   4.578 -0.2379 -0.0642  0.4827
 5292SOL    HW127338   4.315   2.622   4.543 -0.5691 -0.1634  0.6625
 5292SOL    HW227339   4.257   2.702   4.659  1.8649  1.8250  2.0285
 5293SOL     OW27340   3.656   2.045   0.656 -0.0727  0.3877 -0.0377
 5293SOL    HW127341   3.661   2.068   0.748  0.1155  0.5591 -0.0889
 5293SOL    HW227342   3.685   1.954   0.652  0.2420  0.6234 -3.7118
 5294SOL     OW27343   3.617   4.275   0.162 -0.0666  0.3973 -0.0996
 5294SOL    HW127344   3.672   4.248   0.088 -0.5456  0.8863 -0.6372
 5294SOL    HW227345   3.625   4.190   0.205  3.9465  1.3360  1.0377
 5295SOL     OW27346   1.914   2.363   4.753 -0.0832  0.4811  0.5021
 5295SOL    HW127347   1.838   2.306   4.762 -0.8131  1.3180 -0.2309
 5295SOL    HW227348   1.939   2.348   4.662 -0.6368 -0.5176  0.5155
 5296SOL     OW27349   1.214   3.572   4.677  0.2781 -0.1115  0.5787
 5296SOL    HW127350   1.177   3.543   4.761 -2.2450 -0.0679 -0.4947
 5296SOL    HW227351   1.152   3.530   4.617  0.1894  0.9784 -0.0942
 5297SOL     OW27352   2.084   2.985   0.151 -0.0545 -0.0143 -0.5299
 5297SOL    HW127353   2.010   3.012   0.097  0.0261  0.1532 -0.5581
 5297SOL    HW227354   2.156   3.037   0.114 -1.3264  1.2942 -1.1547
 5298SOL     OW27355   4.411   4.676   4.760  0.1600  0.6672  0.0826
 5298SOL    HW127356   4.491   0.002   4.773  0.5318  0.3493 -0.9232
 5298SOL    HW227357   4.355   0.027   4.774  0.5198  0.7129  1.2920
 5299SOL     OW27358   2.586   0.833   0.046  0.1720  0.6450  0.0269
 5299SOL    HW127359   2.670   0.879   0.036  1.3303 -1.0125  2.1666
 5299SOL    HW227360   2.553   0.867   0.128  0.1429  1.8605 -0.4920
 5300SOL     OW27361   4.614   1.555   3.376  0.3274 -0.0066 -0.2897
 5300SOL    HW127362   4.622   1.577   3.468  0.5903 -1.7762  0.0991
 5300SOL    HW227363   4.666   1.477   3.358 -0.7767 -0.4487 -1.6428
 5301SOL     OW27364   4.425   2.042   4.980  0.5202 -0.2368  0.1799
 5301SOL    HW127365   4.352   2.007   4.930 -0.1173 -1.4005  1.8983
 5301SOL    HW227366   4.379   2.103   5.038 -2.7569 -0.9548 -1.6820
 5302SOL     OW27367   0.045   2.474  14.114 -0.2359  0.1154 -0.0510
 5302SOL    HW127368   4.706   2.535  14.077 -3.0219 -1.3647  2.4107
 5302SOL    HW227369   0.057   2.414  14.040  1.2820  3.0129 -2.1661
 5303SOL     OW27370   3.631   3.287   5.382  0.4005 -0.4404 -0.0680
 5303SOL    HW127371   3.591   3.336   5.310  0.9453 -1.5415 -1.1260
 5303SOL    HW227372   3.708   3.344   5.385 -0.7570  1.1259 -0.2129
 5304SOL     OW27373   1.080   1.272   6.017 -0.1082  0.1148 -0.3771
 5304SOL    HW127374   1.145   1.210   5.985 -0.6464 -1.2953  1.2703
 5304SOL    HW227375   1.061   1.317   5.935  2.2189  3.2670  0.7769
 5305SOL     OW27376   3.382   0.355   3.461 -0.2498 -0.2656 -0.0487
 5305SOL    HW127377   3.309   0.405   3.498  0.3776  0.8322 -0.2818
 5305SOL    HW227378   3.388   0.295   3.535  0.4028  0.7940  0.7546
 5306SOL     OW27379   0.586   3.174   8.102  1.2523  0.0247  0.1340
 5306SOL    HW127380   0.642   3.203   8.175  0.1406  0.4416  0.8321
 5306SOL    HW227381   0.653   3.177   8.033  1.5633  4.5178  0.6343
 5307SOL     OW27382   4.553   1.672  17.599  0.3183  0.0917 -0.0078
 5307SOL    HW127383   4.533   1.669  17.693 -2.5596  1.7966 -0.5591
 5307SOL    HW227384   4.520   1.758  17.573 -1.0246 -0.2373  0.5941
 5308SOL     OW27385   0.923   3.652   5.718  0.3080  0.2014 -0.3973
 5308SOL    HW127386   0.951   3.678   5.631  2.8628  0.3017  0.4431
 5308SOL    HW227387   0.893   3.736   5.754 -0.1522 -0.8032  1.6054
 5309SOL     OW27388   0.528   2.639   5.450  0.0213 -0.1954 -0.1145
 5309SOL    HW127389   0.458   2.656   5.387  0.4509  0.9281 -0.2939
 5309SOL    HW227390   0.478   2.595   5.519  1.2851 -1.9038 -0.3082
 5310SOL     OW27391   0.822   1.607   3.766 -0.3953  0.1209  0.5597
 5310SOL    HW127392   0.851   1.679   3.822  0.8991  0.1382 -0.1142
 5310SOL    HW227393   0.895   1.545   3.770 -1.9082 -1.6273  1.1525
 5311SOL     OW27394   1.423   3.152   7.252 -0.1207  0.4834 -0.7127
 5311SOL    HW127395   1.501   3.122   7.204  0.5923  0.3849  0.5139
 5311SOL    HW227396   1.468   3.227   7.290 -0.5821  0.7969 -0.7862
 5312SOL     OW27397   0.045   1.818   2.732 -0.4841 -0.4534 -0.0373
 5312SOL    HW127398   4.685   1.860   2.729 -0.1072  0.4781  2.4624
 5312SOL    HW227399   0.053   1.786   2.642  0.3206 -1.7538  0.4839
 5313SOL     OW27400   3.000   2.082   2.732 -0.2043  0.0936  0.3288
 5313SOL    HW127401   3.020   2.125   2.815  1.5660  1.4792 -0.8333
 5313SOL    HW227402   3.027   2.147   2.667 -1.7564  0.8674  0.4577
 5314SOL     OW27403   2.397   4.076   3.011 -0.0654 -0.6994 -0.5724
 5314SOL    HW127404   2.340   4.122   2.950  0.3903 -1.2025 -1.3852
 5314SOL    HW227405   2.413   3.990   2.971 -0.6132 -0.4401 -1.3415
 5315SOL     OW27406   1.802   3.163   0.396 -0.2905  0.1938 -0.7549
 5315SOL    HW127407   1.721   3.113   0.410 -1.0367  1.8458  0.7999
 5315SOL    HW227408   1.867   3.093   0.395  0.2380  0.6761  1.2633
 5316SOL     OW27409   1.338   1.786  12.604  0.0797 -0.4510  0.4585
 5316SOL    HW127410   1.292   1.790  12.688 -0.2193 -0.2528  0.2828
 5316SOL    HW227411   1.319   1.697  12.574  0.3339 -0.4616  0.3267
 5317SOL     OW27412   0.620   3.061  16.019  0.6649  0.1212 -0.0398
 5317SOL    HW127413   0.653   2.976  15.991  0.0832 -0.3552  0.7237
 5317SOL    HW227414   0.675   3.069  16.097  0.0634  0.6870  0.3341
 5318SOL     OW27415   3.991   4.130   7.721 -0.1796 -0.3028 -0.4339
 5318SOL    HW127416   3.948   4.212   7.745  1.1686  0.5205 -0.8594
 5318SOL    HW227417   3.978   4.084   7.804  0.1530 -1.0490 -0.7999
 5319SOL     OW27418   3.178   2.883   1.416  0.0934  0.2537  0.7234
 5319SOL    HW127419   3.229   2.858   1.339 -1.3934  2.7616 -1.0482
 5319SOL    HW227420   3.109   2.817   1.418  1.3594 -1.0213  2.4966
 5320SOL     OW27421   3.269   1.346   3.607  0.0418 -0.7174 -0.0451
 5320SOL    HW127422   3.301   1.432   3.633  0.1051 -1.1555  1.3740
 5320SOL    HW227423   3.235   1.304   3.686 -3.4558  3.8434  0.8716
 5321SOL     OW27424   1.795   2.870  10.674  0.1384  0.1754  0.0224
 5321SOL    HW127425   1.716   2.924  10.666 -0.1293 -0.0464  1.2495
 5321SOL    HW227426   1.765   2.787  10.637 -2.1032  0.3955  1.3781
 5322SOL     OW27427   0.739   3.824   0.872  0.1867 -0.4151  0.4602
 5322SOL    HW127428   0.726   3.852   0.962 -3.4538  0.5421 -0.3468
 5322SOL    HW227429   0.826   3.861   0.854 -0.0972  0.2514  0.4581
 5323SOL     OW27430   4.608   2.469   7.115  0.3787 -0.3610  0.1808
 5323SOL    HW127431   4.680   2.410   7.139  2.3632  1.3300 -1.7255
 5323SOL    HW227432   4.643   2.554   7.143 -0.3731  0.5609 -1.6940
 5324SOL     OW27433   0.080   1.289  15.864 -0.0479  0.2573 -0.2679
 5324SOL    HW127434   0.062   1.218  15.803 -2.1853  0.1476  0.5040
 5324SOL    HW227435   0.086   1.241  15.947 -0.6788 -0.8229 -0.8540
 5325SOL     OW27436   4.066   0.009  10.661  0.0569  0.4971  0.1887
 5325SOL    HW127437   4.040   0.063  10.735 -0.5720  0.8690 -0.3051
 5325SOL    HW227438   4.147   0.049  10.631 -0.5830  1.4383 -0.2915
 5326SOL     OW27439   4.196   2.900   2.691  0.3652 -0.5148  0.0741
 5326SOL    HW127440   4.149   2.915   2.608  0.0026  0.5850  0.4716
 5326SOL    HW227441   4.275   2.953   2.679 -0.5554  0.9783  0.5425
 5327SOL     OW27442   2.511   3.480  17.544 -0.4558 -0.2795 -0.1663
 5327SOL    HW127443   2.503   3.417  17.473 -0.3041 -0.0455 -0.3918
 5327SOL    HW227444   2.479   3.561  17.504  0.3243 -0.2393 -0.7068
 5328SOL     OW27445   1.915   1.752  11.301 -0.0793 -0.3957  0.3853
 5328SOL    HW127446   1.880   1.817  11.363  1.6833  1.7971 -0.9470
 5328SOL    HW227447   1.971   1.817  11.258 -0.0629  1.2271  2.7842
 5329SOL     OW27448   2.695   3.660   7.669  0.7987  0.0121  0.0893
 5329SOL    HW127449   2.729   3.587   7.617 -1.4854 -0.7895 -0.2672
 5329SOL    HW227450   2.707   3.736   7.612 -1.9665 -0.3775 -1.0194
 5330SOL     OW27451   1.398   4.278   5.840  0.0501  0.2088  0.1016
 5330SOL    HW127452   1.466   4.324   5.889 -0.1417  0.7695 -0.1633
 5330SOL    HW227453   1.439   4.192   5.845 -0.3502  0.0329  0.3716
 5331SOL     OW27454   0.931   0.136   1.020  0.0378  0.2783 -0.7788
 5331SOL    HW127455   0.869   0.186   0.966 -1.3889 -0.1589  0.4573
 5331SOL    HW227456   0.930   0.202   1.090 -0.6895  0.0845 -0.6001
 5332SOL     OW27457   3.880   4.502   3.284  0.4172  0.4020  0.0606
 5332SOL    HW127458   3.919   4.544   3.208  0.1524  0.7181  0.1009
 5332SOL    HW227459   3.852   4.419   3.245 -0.4541  0.3361  0.8223
 5333SOL     OW27460   1.941   0.614   9.195  0.5710 -0.1043  0.2154
 5333SOL    HW127461   1.885   0.570   9.131 -0.9887  0.0696  1.4597
 5333SOL    HW227462   1.972   0.538   9.244 -0.2080 -0.5226  0.0712
 5334SOL     OW27463   4.335   0.808  13.564  0.3252 -0.1141  0.4236
 5334SOL    HW127464   4.324   0.719  13.598  0.0377 -0.4759 -0.6023
 5334SOL    HW227465   4.255   0.821  13.512  1.3253 -1.4295 -1.4639
 5335SOL     OW27466   0.451   3.522   8.299  0.0936  0.1913  0.4011
 5335SOL    HW127467   0.383   3.490   8.357  2.3842 -3.4843  1.0148
 5335SOL    HW227468   0.414   3.481   8.221  0.6643  1.9526 -0.7997
 5336SOL     OW27469   2.530   3.743   6.720  0.0237  0.4136  0.0636
 5336SOL    HW127470   2.438   3.749   6.696  0.2171  0.1516 -0.7337
 5336SOL    HW227471   2.546   3.664   6.669  1.6428 -0.3763  1.7989
 5337SOL     OW27472   0.630   1.370   3.415  0.1027  0.0056  0.4490
 5337SOL    HW127473   0.606   1.416   3.496 -2.2996  1.1737 -0.9008
 5337SOL    HW227474   0.700   1.419   3.372 -0.5326 -0.5220 -1.1854
 5338SOL     OW27475   4.250   1.059   3.136  0.2808 -0.4431 -0.2866
 5338SOL    HW127476   4.341   1.056   3.106  0.5305 -0.6449  0.4748
 5338SOL    HW227477   4.206   1.070   3.052  0.4516  1.7508 -0.0944
 5339SOL     OW27478   1.888   0.612   5.914  0.2514 -0.0942 -0.4102
 5339SOL    HW127479   1.911   0.551   5.984 -1.0014  0.5490  0.5700
 5339SOL    HW227480   1.868   0.554   5.840 -1.2967  0.5076 -0.4827
 5340SOL     OW27481   0.867   1.507   7.589 -0.1961 -0.2495 -0.1735
 5340SOL    HW127482   0.914   1.570   7.644  1.0490  0.2626 -1.8131
 5340SOL    HW227483   0.774   1.521   7.607  0.5598 -0.7161  4.1910
 5341SOL     OW27484   3.368   4.290   5.983 -0.0423 -0.2338 -0.0725
 5341SOL    HW127485   3.429   4.222   5.954  1.1162  1.0988 -0.7835
 5341SOL    HW227486   3.348   4.251   6.068  0.5988  0.1792  0.2685
 5342SOL     OW27487   2.415   4.638   4.682  0.2033  0.7501 -0.0831
 5342SOL    HW127488   2.488   4.672   4.733  0.4329  0.8557 -0.4814
 5342SOL    HW227489   2.333   4.661   4.726  0.5702  1.4214  0.2555
 5343SOL     OW27490   3.639   1.707   8.298 -0.0531 -0.1647  0.0547
 5343SOL    HW127491   3.596   1.716   8.213 -1.7438  0.0353  0.9154
 5343SOL    HW227492   3.683   1.791   8.310  1.2508 -0.7762 -0.4453
 5344SOL     OW27493   0.276   4.363   7.644  0.3393 -0.2988 -0.1792
 5344SOL    HW127494   0.244   4.450   7.668  1.1145  0.1597 -0.8085
 5344SOL    HW227495   0.200   4.310   7.666  0.9707 -0.8827  0.5984
 5345SOL     OW27496   0.848   4.099   3.298 -0.2465 -0.0257 -0.3364
 5345SOL    HW127497   0.891   4.032   3.350  0.0822  0.9607  0.6558
 5345SOL    HW227498   0.877   4.079   3.209 -0.5709  2.4886 -1.0215
 5346SOL     OW27499   3.639   0.729   3.173  0.1604 -0.2594  0.0133
 5346SOL    HW127500   3.562   0.783   3.194 -1.1663 -1.6895 -1.1514
 5346SOL    HW227501   3.604   0.644   3.202  1.9678 -0.6262  1.1059
 5347SOL     OW27502   2.173   2.278   4.953 -0.3265  0.0074  0.1297
 5347SOL    HW127503   2.163   2.183   4.945 -0.6481  0.0125  0.4628
 5347SOL    HW227504   2.167   2.299   4.860  3.0236  4.0585  0.8469
 5348SOL     OW27505   2.623   1.439   4.050  0.1231  0.6283 -0.5981
 5348SOL    HW127506   2.550   1.454   4.110  0.4025 -0.9877  0.1474
 5348SOL    HW227507   2.678   1.510   4.081  2.1768  0.0712 -2.9252
 5349SOL     OW27508   4.239   0.463   0.700 -0.0628 -0.2876 -0.0714
 5349SOL    HW127509   4.210   0.520   0.770  2.0460 -1.4846  1.7923
 5349SOL    HW227510   4.230   0.378   0.743  1.3456 -0.9165 -0.9839
 5350SOL     OW27511   1.298   1.007   6.813  0.5232  0.5552  0.1003
 5350SOL    HW127512   1.258   0.971   6.735  1.0293 -1.0488  0.5847
 5350SOL    HW227513   1.368   0.943   6.822  1.4505  1.5481  0.0006
 5351SOL     OW27514   0.448   3.489   9.273 -0.8457 -0.2733  0.1765
 5351SOL    HW127515   0.475   3.554   9.209  1.3063 -1.0370  0.3085
 5351SOL    HW227516   0.457   3.405   9.228  1.6277  0.2935 -0.3970
 5352SOL     OW27517   0.554   2.829   1.443  0.0163 -0.7938 -0.0494
 5352SOL    HW127518   0.575   2.799   1.355 -0.8892 -0.9313 -0.2105
 5352SOL    HW227519   0.524   2.748   1.483  2.6247 -0.7355  2.0362
 5353SOL     OW27520   0.072   2.534   4.959 -0.5228 -0.3746 -0.1268
 5353SOL    HW127521   0.065   2.600   4.891 -0.3177 -1.1209 -0.8707
 5353SOL    HW227522   0.148   2.563   5.009 -0.3042  1.2390 -1.4119
 5354SOL     OW27523   0.394   1.862   6.090  0.4647 -0.0367 -0.2670
 5354SOL    HW127524   0.471   1.848   6.145  0.6247 -0.1505 -0.5220
 5354SOL    HW227525   0.328   1.810   6.136  0.8841  0.1548  0.5458
 5355SOL     OW27526   1.038   4.390   4.434  0.3105 -0.0141  0.1366
 5355SOL    HW127527   1.131   4.395   4.456 -0.3343 -0.8878  2.9907
 5355SOL    HW227528   1.029   4.295   4.433  0.8831 -0.0721  0.4708
 5356SOL     OW27529   2.678   0.737  11.769 -0.1050  0.4851 -0.0160
 5356SOL    HW127530   2.586   0.757  11.785 -0.2928 -2.5651  2.7609
 5356SOL    HW227531   2.675   0.677  11.695  3.3713 -0.9066  0.9429
 5357SOL     OW27532   0.620   3.753  10.331 -0.2543  0.9482  0.2992
 5357SOL    HW127533   0.560   3.819  10.365 -0.6082  1.5348 -1.4470
 5357SOL    HW227534   0.703   3.798  10.315 -0.1729  0.0653 -1.7453
 5358SOL     OW27535   3.250   0.331  10.606 -0.1668  0.3355 -0.0127
 5358SOL    HW127536   3.293   0.415  10.627 -0.5549  0.6516 -0.4820
 5358SOL    HW227537   3.167   0.352  10.648  0.8367  1.9470  1.2166
 5359SOL     OW27538   3.395   1.574   6.627 -0.4355 -0.1061  0.4164
 5359SOL    HW127539   3.414   1.512   6.697  0.9043 -0.9487 -0.6881
 5359SOL    HW227540   3.394   1.506   6.559 -0.7068  0.0558  0.2580
 5360SOL     OW27541   0.843   1.164   7.201  0.2861 -0.2401  0.9059
 5360SOL    HW127542   0.867   1.112   7.278  0.4079  1.9984  2.3744
 5360SOL    HW227543   0.923   1.156   7.150  0.6891 -0.0444  1.5040
 5361SOL     OW27544   2.455   3.058  12.621  0.0773 -0.1018 -0.6156
 5361SOL    HW127545   2.472   3.024  12.533 -0.0118 -0.3640 -0.5333
 5361SOL    HW227546   2.529   3.031  12.675  1.4355  0.8411 -2.0235
 5362SOL     OW27547   0.802   4.121  14.982 -0.8115 -0.1582  0.4802
 5362SOL    HW127548   0.772   4.093  15.068  0.3024  0.9210  1.2171
 5362SOL    HW227549   0.767   4.054  14.923 -0.4165 -0.3687  0.4849
 5363SOL     OW27550   0.407   2.897   3.564 -0.2085 -0.3520 -0.3719
 5363SOL    HW127551   0.435   2.846   3.640  0.7109  0.0444 -0.4422
 5363SOL    HW227552   0.374   2.978   3.602 -3.7735 -1.6571 -0.6776
 5364SOL     OW27553   3.928   3.151  11.092 -0.0255  0.3887  0.4446
 5364SOL    HW127554   3.875   3.172  11.169 -1.9667  0.7670 -1.0083
 5364SOL    HW227555   4.010   3.198  11.112 -0.1371  0.5112  0.6123
 5365SOL     OW27556   1.171   2.456  13.560  0.1722 -0.1642  0.1134
 5365SOL    HW127557   1.245   2.436  13.503 -0.6467  3.6643 -2.2760
 5365SOL    HW227558   1.200   2.541  13.594  1.4336 -0.7007  0.3791
 5366SOL     OW27559   3.756   1.107  16.759  0.1074  0.1311  0.6188
 5366SOL    HW127560   3.841   1.072  16.786  0.2897 -0.2288 -0.4093
 5366SOL    HW227561   3.693   1.041  16.788  0.4249 -1.0584 -1.4117
 5367SOL     OW27562   3.348   1.342   0.577 -0.2227  0.3811 -0.3595
 5367SOL    HW127563   3.317   1.265   0.625 -1.0774 -0.1958 -1.8506
 5367SOL    HW227564   3.347   1.411   0.643 -1.5050 -1.2815  1.3534
 5368SOL     OW27565   2.577   1.350   8.626 -0.0894 -0.1385 -0.0500
 5368SOL    HW127566   2.576   1.382   8.536 -2.0431  1.0036  0.3655
 5368SOL    HW227567   2.651   1.400   8.660 -1.2539  1.5708 -0.0056
 5369SOL     OW27568   1.575   3.124   7.951  0.2519 -0.5336  0.1737
 5369SOL    HW127569   1.561   3.109   8.044 -0.0742 -0.4535  0.1374
 5369SOL    HW227570   1.504   3.072   7.913  1.3778 -0.3146 -2.2678
 5370SOL     OW27571   4.030   3.394   3.434  0.2140 -0.7853 -0.2421
 5370SOL    HW127572   4.108   3.387   3.379 -0.4607  2.3600 -1.5852
 5370SOL    HW227573   4.014   3.308   3.471 -1.7537 -0.8852 -1.3722
 5371SOL     OW27574   2.790   1.388   6.969  0.3928  0.1697  0.2268
 5371SOL    HW127575   2.774   1.339   6.889 -0.4660  1.9769 -0.7123
 5371SOL    HW227576   2.721   1.372   7.033  0.0649  1.5695  0.2349
 5372SOL     OW27577   3.238   2.215   1.909 -0.7461  0.2006  0.4717
 5372SOL    HW127578   3.243   2.299   1.956 -2.7933  1.5384 -1.7560
 5372SOL    HW227579   3.240   2.143   1.972 -0.1062 -0.4643 -0.3042
 5373SOL     OW27580   0.529   2.076  12.551 -0.4091  0.2844  0.2999
 5373SOL    HW127581   0.610   2.120  12.528  1.3421 -1.8992  2.2054
 5373SOL    HW227582   0.522   2.015  12.478 -1.9176 -1.6678  2.0563
 5374SOL     OW27583   3.361   0.003   0.552  0.0017  0.2986 -0.2145
 5374SOL    HW127584   3.318   0.073   0.601 -0.6683 -0.3153  0.0845
 5374SOL    HW227585   3.440   4.707   0.602  1.7412 -0.4833 -3.3353
 5375SOL     OW27586   2.971   1.949   2.346 -0.7242  0.2853 -0.2914
 5375SOL    HW127587   3.035   2.018   2.361  0.6731 -1.5446  2.1611
 5375SOL    HW227588   3.029   1.873   2.347 -0.6503  0.3411 -1.1095
 5376SOL     OW27589   1.051   1.639   4.279  0.2009  0.6204 -0.5781
 5376SOL    HW127590   1.108   1.563   4.267  0.0384  0.4750 -0.4289
 5376SOL    HW227591   1.116   1.702   4.311  0.9525  0.7192 -2.2611
 5377SOL     OW27592   3.407   3.127   7.126 -0.5326  0.3162  0.3085
 5377SOL    HW127593   3.356   3.144   7.205 -1.1497 -1.4131  0.2796
 5377SOL    HW227594   3.488   3.162   7.165 -0.5486  0.2453  0.4036
 5378SOL     OW27595   1.344   1.113  15.242 -1.0282  0.7993 -0.0395
 5378SOL    HW127596   1.263   1.164  15.233 -1.5985  0.1829  1.6161
 5378SOL    HW227597   1.325   1.076  15.328 -1.2773 -0.4831 -0.6368
 5379SOL     OW27598   1.883   1.101  13.180 -0.0881  0.2660 -0.5313
 5379SOL    HW127599   1.806   1.045  13.172  0.0453 -0.1151  1.0576
 5379SOL    HW227600   1.954   1.061  13.130  0.3315 -1.5300  1.5005
 5380SOL     OW27601   4.352   4.060  14.376  0.4721 -0.5295  0.1271
 5380SOL    HW127602   4.426   4.096  14.425 -1.8871  0.4243  2.9787
 5380SOL    HW227603   4.279   4.032  14.432  1.4369  0.6523  1.9948
 5381SOL     OW27604   0.315   3.023   1.562  0.2992  0.2189  0.1900
 5381SOL    HW127605   0.370   2.979   1.497  0.7099  2.1282 -0.7499
 5381SOL    HW227606   0.364   3.003   1.641  0.5911  3.6198  0.8614
 5382SOL     OW27607   4.314   2.344   1.554  0.0428  0.1973  0.6868
 5382SOL    HW127608   4.321   2.259   1.599  2.5392  0.6744  1.2493
 5382SOL    HW227609   4.326   2.297   1.472 -2.2369 -0.5732  0.7957
 5383SOL     OW27610   2.845   0.299   5.038  0.2289  0.1559  0.0715
 5383SOL    HW127611   2.791   0.337   4.969  2.1546 -0.0101 -1.5308
 5383SOL    HW227612   2.835   0.205   5.023  2.3703 -0.4960  2.7578
 5384SOL     OW27613   4.196   2.207  13.836  0.3934  0.0818  0.4235
 5384SOL    HW127614   4.189   2.137  13.902  0.2664  0.0431  0.3694
 5384SOL    HW227615   4.289   2.200  13.812  0.6396  1.1111  1.0846
 5385SOL     OW27616   2.150   4.703   5.211 -0.4372 -0.8104 -0.3234
 5385SOL    HW127617   2.209   0.006   5.281 -2.3161 -0.7367  1.2348
 5385SOL    HW227618   2.180   4.612   5.210 -0.8980 -0.9559 -0.8492
 5386SOL     OW27619   2.653   0.438  16.447 -0.0727 -0.1158 -0.1378
 5386SOL    HW127620   2.734   0.488  16.437  0.3200 -0.8019 -0.4124
 5386SOL    HW227621   2.586   0.493  16.407  0.5407  2.6523  2.6821
 5387SOL     OW27622   4.391   2.388   7.239 -0.1108  0.1922  0.2121
 5387SOL    HW127623   4.474   2.395   7.193  0.1326 -1.3040  0.4202
 5387SOL    HW227624   4.425   2.363   7.326  1.6284 -0.2095 -0.5828
 5388SOL     OW27625   3.638   3.612   3.294 -0.1851 -0.0918  0.0424
 5388SOL    HW127626   3.600   3.555   3.359  0.6492  0.3657  0.9307
 5388SOL    HW227627   3.732   3.598   3.304  0.0453  1.2045 -0.2310
 5389SOL     OW27628   3.226   1.198   3.319  0.0558  0.5231 -0.8331
 5389SOL    HW127629   3.252   1.109   3.345 -0.3513 -0.3986 -3.6237
 5389SOL    HW227630   3.221   1.238   3.406  0.0658  0.2319 -0.6975
 5390SOL     OW27631   0.257   2.728   4.587  0.0806 -0.9775  0.2053
 5390SOL    HW127632   0.277   2.760   4.675 -1.3474 -1.4262  0.6880
 5390SOL    HW227633   0.211   2.808   4.560 -0.1538 -1.3614 -0.5166
 5391SOL     OW27634   3.027   4.255   4.618  0.2982  0.2573 -0.0871
 5391SOL    HW127635   3.097   4.193   4.638 -0.4569 -0.5797 -0.0504
 5391SOL    HW227636   3.034   4.321   4.687  0.9233  1.5876 -1.4184
 5392SOL     OW27637   3.161   4.256   8.391 -0.6545  0.8059  0.4700
 5392SOL    HW127638   3.191   4.195   8.323  0.3045  0.5189  1.1596
 5392SOL    HW227639   3.138   4.340   8.351 -0.7656  0.7514  0.4194
 5393SOL     OW27640   2.056   1.897   2.372 -0.3458  0.2044  0.3824
 5393SOL    HW127641   2.066   1.891   2.277 -1.1965 -0.4130  0.3384
 5393SOL    HW227642   2.126   1.837   2.396 -0.5443  0.0722  0.6257
 5394SOL     OW27643   3.191   3.320   5.906  0.4866  0.4545  0.1917
 5394SOL    HW127644   3.153   3.399   5.946  0.2677  0.9350 -0.9631
 5394SOL    HW227645   3.156   3.250   5.962 -2.9872  0.7518 -1.5891
 5395SOL     OW27646   1.132   3.979   6.448  0.3632 -0.0194  0.2099
 5395SOL    HW127647   1.065   4.008   6.509  0.4216  0.4612  0.0467
 5395SOL    HW227648   1.212   4.015   6.486  0.3211 -2.0013  2.2104
 5396SOL     OW27649   3.982   3.088   5.464 -0.0040  0.5119  0.6451
 5396SOL    HW127650   4.042   3.161   5.479  0.0862  0.4896  0.3974
 5396SOL    HW227651   4.018   3.057   5.381  1.1088  0.6111  1.0962
 5397SOL     OW27652   3.907   2.277   2.116  0.5156  0.0952  0.2647
 5397SOL    HW127653   3.947   2.346   2.064  0.3453  0.7790  1.0382
 5397SOL    HW227654   3.982   2.218   2.116 -2.0473 -3.1855 -1.8510
 5398SOL     OW27655   4.030   4.521   6.465 -0.2723  0.7106  0.0407
 5398SOL    HW127656   4.085   4.599   6.469 -1.5076  1.5236  1.2589
 5398SOL    HW227657   3.951   4.543   6.416  0.5026  2.9408 -0.2202
 5399SOL     OW27658   2.238   4.105   1.501 -0.3861 -0.8629 -0.7994
 5399SOL    HW127659   2.319   4.154   1.509 -0.9275 -0.1208  0.1850
 5399SOL    HW227660   2.269   4.015   1.515  2.0112 -0.0006 -0.6229
 5400SOL     OW27661   2.485   3.165   5.249  0.0029  0.0942  0.1648
 5400SOL    HW127662   2.556   3.229   5.243  0.0891 -0.1145 -1.0783
 5400SOL    HW227663   2.522   3.091   5.297  0.2646  0.9491  1.2844
 5401SOL     OW27664   0.740   1.587   9.866  0.0187  0.2245  0.2120
 5401SOL    HW127665   0.661   1.639   9.848  0.7661  0.6419 -1.8872
 5401SOL    HW227666   0.753   1.605   9.959 -0.4816 -1.2704  0.5588
 5402SOL     OW27667   0.172   0.969  16.544 -0.1619 -0.4870  0.2434
 5402SOL    HW127668   0.196   1.058  16.521 -1.1590 -0.5579 -1.0119
 5402SOL    HW227669   0.079   0.961  16.523 -0.5689  0.3912  1.7298
 5403SOL     OW27670   3.093   2.595  11.586 -0.0841 -0.1033 -0.0746
 5403SOL    HW127671   3.078   2.631  11.673  1.1938 -1.8677  0.8974
 5403SOL    HW227672   3.029   2.528  11.561 -0.6405  0.3995  0.0073
 5404SOL     OW27673   3.119   1.149   1.433  0.7373  0.4340  0.3580
 5404SOL    HW127674   3.169   1.211   1.379  0.7404  0.1840  0.0678
 5404SOL    HW227675   3.183   1.078   1.432 -0.1728 -0.3524 -2.0271
 5405SOL     OW27676   0.564   3.133   2.880  0.1712 -0.6637  0.1125
 5405SOL    HW127677   0.504   3.125   2.806 -1.1500 -2.8454  1.4396
 5405SOL    HW227678   0.508   3.169   2.949  0.3117  0.7851 -0.5289
 5406SOL     OW27679   4.045   1.561   4.578 -0.0878  0.1034 -0.2173
 5406SOL    HW127680   3.977   1.512   4.625 -1.1724  0.0322 -1.8574
 5406SOL    HW227681   3.988   1.602   4.513  1.5340  1.7223 -0.6084
 5407SOL     OW27682   0.046   4.106   4.972 -0.2834  0.1937  0.5052
 5407SOL    HW127683   0.134   4.131   5.001 -0.0842 -0.2666  0.2969
 5407SOL    HW227684   0.002   4.188   4.951 -0.2216 -0.1391 -0.9783
 5408SOL     OW27685   3.994   4.488   7.586 -0.2557  0.1701  0.1296
 5408SOL    HW127686   4.063   4.480   7.652 -0.8914  1.8825  1.0093
 5408SOL    HW227687   3.946   4.569   7.605  0.6977  1.2896 -2.2526
 5409SOL     OW27688   2.084   4.034  17.609  0.4462  0.1938 -0.5601
 5409SOL    HW127689   2.083   3.998  17.521  0.5852 -1.2510  0.0169
 5409SOL    HW227690   2.030   4.109  17.584  1.8239  1.2387 -0.4214
 5410SOL     OW27691   2.878   0.617  14.906 -0.2778 -0.5770 -0.5605
 5410SOL    HW127692   2.892   0.699  14.953 -1.3934 -1.9902  2.2398
 5410SOL    HW227693   2.828   0.569  14.972 -0.5562 -0.0414 -0.3772
 5411SOL     OW27694   3.425   3.805  16.579 -0.0675  0.0509 -0.4631
 5411SOL    HW127695   3.456   3.882  16.531  1.3390  0.3652  0.9663
 5411SOL    HW227696   3.474   3.821  16.659  0.0943 -1.4464 -0.2610
 5412SOL     OW27697   1.033   4.485   5.309  1.0979  0.0926 -0.0194
 5412SOL    HW127698   0.995   4.445   5.231 -0.9137  1.1195  0.4221
 5412SOL    HW227699   1.003   4.421   5.375  0.0926  0.1295 -0.4349
 5413SOL     OW27700   3.916   2.963   3.069  0.1400  0.8213 -0.1772
 5413SOL    HW127701   3.869   3.044   3.047  0.2595  0.7992 -0.5067
 5413SOL    HW227702   3.920   2.921   2.983 -1.8069 -0.3234  0.2972
 5414SOL     OW27703   4.092   0.385   7.934  0.0727  0.2872  0.0151
 5414SOL    HW127704   4.009   0.423   7.907 -0.2157 -1.5999 -1.8259
 5414SOL    HW227705   4.145   0.369   7.855  0.9586 -1.9774  1.0563
 5415SOL     OW27706   2.710   3.504   3.542 -0.1764  0.1199 -0.0738
 5415SOL    HW127707   2.777   3.523   3.475  2.1036 -4.5024  0.8835
 5415SOL    HW227708   2.710   3.408   3.538 -1.1558  0.1832 -1.8933
 5416SOL     OW27709   3.516   0.034   8.213  0.1406 -0.0990  0.3620
 5416SOL    HW127710   3.465   0.002   8.138 -0.0367 -2.2209  1.3806
 5416SOL    HW227711   3.497   4.697   8.283 -0.4135 -0.4958 -0.1395
 5417SOL     OW27712   0.742   0.081   5.995  0.1379 -0.1632 -0.4637
 5417SOL    HW127713   0.837   0.077   5.984  0.3993 -0.9849  2.1334
 5417SOL    HW227714   0.708   0.013   5.937 -1.1782  0.4529 -0.4198
 5418SOL     OW27715   0.154   3.837   6.027 -0.5985 -0.1944  0.3616
 5418SOL    HW127716   0.110   3.919   6.049  1.2949  1.0732 -0.5574
 5418SOL    HW227717   0.189   3.805   6.110  0.2879  0.0974  0.1044
 5419SOL     OW27718   4.267   3.386   0.588 -0.2481 -0.2514  0.0013
 5419SOL    HW127719   4.201   3.450   0.616 -1.0257  0.1840 -2.8639
 5419SOL    HW227720   4.237   3.306   0.631 -1.4923 -0.2366 -0.8142
 5420SOL     OW27721   3.784   2.212  16.602  0.8843 -0.5633 -0.5030
 5420SOL    HW127722   3.871   2.199  16.640 -0.0292 -2.5329  0.8742
 5420SOL    HW227723   3.737   2.237  16.681  3.6245  1.4637  0.5039
 5421SOL     OW27724   4.259   2.834   8.801 -0.3191  0.2404  0.3325
 5421SOL    HW127725   4.329   2.856   8.864 -0.5716  0.8051  0.4168
 5421SOL    HW227726   4.199   2.801   8.868 -2.7257  1.7841 -1.0976
 5422SOL     OW27727   1.566   3.559  17.315 -0.7168  0.2526  0.5030
 5422SOL    HW127728   1.575   3.531  17.223  3.7675 -0.3271  1.1132
 5422SOL    HW227729   1.557   3.473  17.357  1.3204 -0.4005 -0.3663
 5423SOL     OW27730   4.380   4.055   1.681  0.3288 -0.1576 -0.3411
 5423SOL    HW127731   4.297   4.101   1.689  1.6130  1.9940  0.4903
 5423SOL    HW227732   4.443   4.114   1.722 -0.4108  1.1124 -1.0695
 5424SOL     OW27733   4.493   3.880   8.688 -0.7208  0.2469 -0.4690
 5424SOL    HW127734   4.543   3.897   8.608 -0.9323 -0.7335 -0.8150
 5424SOL    HW227735   4.485   3.785   8.689 -0.3539  0.2122 -0.5520
 5425SOL     OW27736   4.578   4.334  13.130  0.0827 -0.1993  0.2274
 5425SOL    HW127737   4.591   4.243  13.157  0.1297  0.2567  1.7643
 5425SOL    HW227738   4.638   4.346  13.056 -1.4240 -0.9978 -1.1308
 5426SOL     OW27739   4.695   1.623  16.275  0.5009  0.4433  0.2300
 5426SOL    HW127740   0.038   1.607  16.210 -1.1843 -2.5265 -0.8564
 5426SOL    HW227741   4.625   1.570  16.236  0.6896  0.3569  0.0076
 5427SOL     OW27742   4.482   0.448   2.223 -0.0543 -0.1988  0.5105
 5427SOL    HW127743   4.525   0.522   2.266  1.1500  0.6288 -2.1827
 5427SOL    HW227744   4.392   0.478   2.219  0.0157 -0.0950 -0.2824
 5428SOL     OW27745   3.208   2.776   1.797 -0.3551  0.7469  0.1523
 5428SOL    HW127746   3.252   2.846   1.748  0.2652 -0.3225 -0.8322
 5428SOL    HW227747   3.259   2.699   1.774 -1.9557  0.0873 -1.1574
 5429SOL     OW27748   2.221   1.210   1.673  0.4073  0.4465 -0.6064
 5429SOL    HW127749   2.256   1.207   1.584  1.7943  1.8974 -0.1041
 5429SOL    HW227750   2.169   1.130   1.664 -2.1212  1.6466  3.2943
 5430SOL     OW27751   1.699   3.087   4.319  0.1547  0.2884 -0.1130
 5430SOL    HW127752   1.755   3.076   4.242 -1.6649  3.0107 -1.8328
 5430SOL    HW227753   1.681   2.994   4.332  1.9351  0.2121  1.7514
 5431SOL     OW27754   2.027   0.468  15.774 -0.3511  0.0027  0.0254
 5431SOL    HW127755   2.034   0.459  15.679 -0.7096 -0.7551  0.0651
 5431SOL    HW227756   2.033   0.375  15.798  0.6069 -0.0527 -0.4722
 5432SOL     OW27757   3.557   1.789   4.420 -0.3800 -0.2287  0.0310
 5432SOL    HW127758   3.484   1.798   4.359 -0.3807  3.1899  0.5411
 5432SOL    HW227759   3.526   1.830   4.501  0.1342 -2.1927  1.2204
 5433SOL     OW27760   2.363   1.959  17.230  0.5476 -0.1214 -0.0885
 5433SOL    HW127761   2.395   2.041  17.269  0.7484  0.7594 -2.1133
 5433SOL    HW227762   2.434   1.937  17.170  1.3955 -3.0872  2.0361
 5434SOL     OW27763   4.537   3.462   0.608 -0.0456 -0.1355  0.1680
 5434SOL    HW127764   4.551   3.414   0.690  0.8953  1.1764  0.7729
 5434SOL    HW227765   4.443   3.454   0.593 -0.1412 -3.3464  2.2402
 5435SOL     OW27766   1.887   1.520   1.222  0.7648  0.4072 -0.4700
 5435SOL    HW127767   1.975   1.532   1.186  1.9271 -1.2450  1.7953
 5435SOL    HW227768   1.910   1.475   1.303  0.2460 -0.0553 -0.5805
 5436SOL     OW27769   3.266   4.006   9.010 -0.0590  0.8150 -0.5082
 5436SOL    HW127770   3.258   3.937   9.075 -2.7020  0.8902 -0.7480
 5436SOL    HW227771   3.183   3.979   8.970  0.1669 -3.3836  1.7798
 5437SOL     OW27772   0.896   0.553  14.866 -0.4357 -0.6314 -0.5042
 5437SOL    HW127773   0.871   0.546  14.958  1.1302  1.2496  0.0686
 5437SOL    HW227774   0.842   0.624  14.830 -1.7646 -0.4119  1.9033
 5438SOL     OW27775   2.229   4.370   4.678  0.0199 -1.2220  0.0560
 5438SOL    HW127776   2.251   4.387   4.769 -0.1221 -2.8410  0.3900
 5438SOL    HW227777   2.294   4.306   4.649 -2.1394 -2.5076 -1.9992
 5439SOL     OW27778   1.503   1.141  11.101  0.1420  0.6214  0.1753
 5439SOL    HW127779   1.436   1.104  11.045 -0.2433  0.3732  0.8093
 5439SOL    HW227780   1.543   1.063  11.139 -3.3743 -2.2674 -2.1665
 5440SOL     OW27781   2.647   1.330  12.391 -0.2361  0.1534 -0.1166
 5440SOL    HW127782   2.658   1.312  12.298 -1.5681 -1.7896  0.1074
 5440SOL    HW227783   2.566   1.281  12.404 -2.0052  2.3760 -2.7052
 5441SOL     OW27784   3.833   2.596   4.731  0.2023 -0.7020  0.6917
 5441SOL    HW127785   3.784   2.611   4.812 -0.2153  0.1628  0.2783
 5441SOL    HW227786   3.761   2.616   4.672 -0.0704 -1.2858  0.8300
 5442SOL     OW27787   1.557   3.700   5.780  0.2281  0.6823  0.8117
 5442SOL    HW127788   1.512   3.631   5.829  1.7549 -1.3642 -0.6903
 5442SOL    HW227789   1.493   3.698   5.709  0.8864 -1.1681  0.2561
 5443SOL     OW27790   0.486   2.015   6.400  0.0658  0.4554 -0.2214
 5443SOL    HW127791   0.581   2.001   6.407  0.1672  1.7924  1.1608
 5443SOL    HW227792   0.467   2.105   6.429 -0.1176  1.0183 -2.1002
 5444SOL     OW27793   1.778   3.575   3.353 -0.1525  0.1693  0.1199
 5444SOL    HW127794   1.864   3.585   3.312  0.0645 -0.0476  0.5141
 5444SOL    HW227795   1.760   3.482   3.340  0.7616  0.0094  0.0033
 5445SOL     OW27796   1.416   0.281   9.372  0.1415  0.2171 -0.2194
 5445SOL    HW127797   1.427   0.243   9.459 -0.7283 -1.6586 -0.9395
 5445SOL    HW227798   1.324   0.262   9.353 -0.0728  0.1157  0.9410
 5446SOL     OW27799   0.752   0.987   2.342 -0.3958 -0.8149 -0.3655
 5446SOL    HW127800   0.768   0.949   2.428 -5.6040  0.6317  1.2487
 5446SOL    HW227801   0.796   1.072   2.348 -2.5242  0.4005 -1.7804
 5447SOL     OW27802   2.662   1.502  14.762  0.2591 -0.8604 -0.3317
 5447SOL    HW127803   2.588   1.479  14.818 -1.6355  1.9252 -1.6348
 5447SOL    HW227804   2.700   1.567  14.821 -1.5974 -0.2523  0.1844
 5448SOL     OW27805   4.317   3.387   4.099  0.1718 -0.4083  0.9159
 5448SOL    HW127806   4.400   3.366   4.056 -0.1001  2.8690 -1.1908
 5448SOL    HW227807   4.298   3.469   4.054 -1.2606 -0.8923  0.6248
 5449SOL     OW27808   1.238   2.247   1.870  0.1097 -0.4890  0.0618
 5449SOL    HW127809   1.299   2.174   1.858 -0.9978 -1.2803 -0.7619
 5449SOL    HW227810   1.225   2.245   1.965  0.4277  3.5124  0.1640
 5450SOL     OW27811   0.746   1.811  11.387  0.1618 -0.1539 -0.5206
 5450SOL    HW127812   0.704   1.799  11.301 -2.0698  1.0511  0.3929
 5450SOL    HW227813   0.789   1.726  11.387  0.6505  0.1119  2.8939
 5451SOL     OW27814   3.614   0.061   5.832  0.2033  0.2362 -0.2863
 5451SOL    HW127815   3.676   4.722   5.864 -0.0137  0.2947  0.2460
 5451SOL    HW227816   3.594   0.027   5.745  0.4326 -1.4670  0.3419
 5452SOL     OW27817   0.284   2.939   9.348 -0.6364  0.1123  0.2256
 5452SOL    HW127818   0.367   2.970   9.384  0.3446 -2.7552  0.4186
 5452SOL    HW227819   0.269   2.858   9.397  1.9233  0.0830  0.9695
 5453SOL     OW27820   1.625   2.449   5.141 -0.2625  0.0669  0.4021
 5453SOL    HW127821   1.543   2.434   5.094  0.8571 -0.3515 -1.4681
 5453SOL    HW227822   1.654   2.368   5.182 -0.0236 -0.2396 -0.3641
 5454SOL     OW27823   3.629   2.127  12.714 -0.5218 -0.0378  0.1944
 5454SOL    HW127824   3.713   2.097  12.678 -1.2501 -1.0826 -0.6471
 5454SOL    HW227825   3.656   2.210  12.752  0.1506  0.3105 -1.0241
 5455SOL     OW27826   3.274   3.657  13.456  0.6081 -0.1669 -0.5121
 5455SOL    HW127827   3.185   3.683  13.480  1.1797  1.4085 -0.1683
 5455SOL    HW227828   3.310   3.654  13.544 -1.6808 -0.7128  0.4159
 5456SOL     OW27829   0.718   2.976   4.083  0.3589  0.5108  1.0962
 5456SOL    HW127830   0.655   2.907   4.065  0.8698  0.5514 -0.8739
 5456SOL    HW227831   0.707   2.988   4.178  0.4545  0.9909  1.0463
 5457SOL     OW27832   2.816   4.063   5.506  0.4845  0.3661 -0.5667
 5457SOL    HW127833   2.817   4.061   5.602 -2.1848  0.5410 -0.5227
 5457SOL    HW227834   2.839   4.155   5.493  2.4377  0.1899  1.6673
 5458SOL     OW27835   0.183   4.294  15.810  0.1421  0.3134  0.6080
 5458SOL    HW127836   0.145   4.350  15.742 -1.3145  0.6634  1.6926
 5458SOL    HW227837   0.123   4.220  15.821  0.6883 -0.0883  0.8829
 5459SOL     OW27838   0.508   2.663   9.678  0.2546 -0.1052 -0.1583
 5459SOL    HW127839   0.583   2.605   9.689  0.9289  1.0143  1.1981
 5459SOL    HW227840   0.443   2.602   9.643  0.0394  1.4356 -2.4698
 5460SOL     OW27841   1.463   0.774   3.529  0.4059 -0.2564 -0.4240
 5460SOL    HW127842   1.467   0.713   3.603 -2.5347  0.6602  0.4924
 5460SOL    HW227843   1.369   0.782   3.512  0.1407 -1.5216  0.4302
 5461SOL     OW27844   2.206   0.653   6.227  0.3951  0.3557 -0.7406
 5461SOL    HW127845   2.135   0.592   6.209  1.2090 -0.1098 -2.4770
 5461SOL    HW227846   2.157   0.729   6.260  1.5492  1.2894 -1.1537
 5462SOL     OW27847   3.910   0.501  13.072  0.7701  0.3367  0.0144
 5462SOL    HW127848   3.880   0.427  13.020 -1.5421  2.5275 -1.7252
 5462SOL    HW227849   3.934   0.572  13.013  2.0759 -1.1739 -1.2563
 5463SOL     OW27850   2.197   1.190  11.939 -0.4323 -0.3147 -0.5210
 5463SOL    HW127851   2.223   1.140  11.862 -1.3286  1.9886 -2.2932
 5463SOL    HW227852   2.113   1.227  11.912  0.6074  1.7270 -0.9441
 5464SOL     OW27853   0.379   2.002   6.742  0.1476 -0.1807 -0.4843
 5464SOL    HW127854   0.322   1.958   6.678 -2.4105  0.4397  1.3612
 5464SOL    HW227855   0.399   2.089   6.707  0.2838 -0.6761 -1.6311
 5465SOL     OW27856   1.528   0.269   2.643 -0.5780 -0.1093 -0.1675
 5465SOL    HW127857   1.598   0.206   2.660 -1.1005 -0.1516  1.7515
 5465SOL    HW227858   1.538   0.285   2.549  0.2658  1.6994  0.2149
 5466SOL     OW27859   3.317   1.234  10.487  0.2387 -0.0024 -0.6303
 5466SOL    HW127860   3.297   1.141  10.477  0.7334  0.1115 -2.6493
 5466SOL    HW227861   3.346   1.228  10.578 -0.8498 -0.5306 -0.3111
 5467SOL     OW27862   2.430   2.674   7.465  0.4127  0.1263 -0.0619
 5467SOL    HW127863   2.490   2.602   7.484  1.1392  0.6428 -0.3962
 5467SOL    HW227864   2.486   2.727   7.408  2.2266 -1.3328  0.3465
 5468SOL     OW27865   3.193   1.302  16.825  0.3871  0.6106  0.1470
 5468SOL    HW127866   3.190   1.397  16.835 -3.3953  0.6880 -1.3625
 5468SOL    HW227867   3.163   1.280  16.913 -0.8677  1.2392 -0.1076
 5469SOL     OW27868   0.540   2.243   2.949  0.0775  0.0090 -0.6726
 5469SOL    HW127869   0.512   2.333   2.933  3.1539  1.0369 -0.2606
 5469SOL    HW227870   0.516   2.235   3.042 -2.1897  2.5475 -1.0597
 5470SOL     OW27871   2.881   0.963   8.139  0.2199  0.6201 -0.2409
 5470SOL    HW127872   2.969   0.927   8.127 -0.2183  0.1125 -2.0657
 5470SOL    HW227873   2.859   0.907   8.213  1.3836  1.7020  0.9127
 5471SOL     OW27874   2.238   3.663   6.291 -0.0865  0.1839 -0.1138
 5471SOL    HW127875   2.157   3.612   6.286 -0.7123  1.0357  1.0604
 5471SOL    HW227876   2.210   3.734   6.350 -2.5762 -0.8372 -0.0841
 5472SOL     OW27877   0.822   2.609   8.382 -0.2674  0.3052 -0.3837
 5472SOL    HW127878   0.902   2.662   8.382  1.2345 -1.9476  0.8299
 5472SOL    HW227879   0.791   2.639   8.467  2.0848  1.3585  0.1142
 5473SOL     OW27880   2.993   0.302   9.102  0.1743  0.0524  0.1607
 5473SOL    HW127881   2.982   0.341   9.189 -0.2013 -0.5691  0.4002
 5473SOL    HW227882   3.087   0.312   9.087 -0.2741  1.2306 -1.8024
 5474SOL     OW27883   2.854   1.891  10.972 -0.2022 -0.2559  0.2645
 5474SOL    HW127884   2.784   1.951  10.946  0.1272  0.2084  0.4463
 5474SOL    HW227885   2.920   1.919  10.908  0.7905 -2.2865  0.4055
 5475SOL     OW27886   0.022   0.088   6.529  0.1036 -0.3296 -0.4166
 5475SOL    HW127887   0.075   0.087   6.609 -0.6356  0.5922  0.0935
 5475SOL    HW227888   4.708   0.175   6.530 -3.1849 -1.8497  1.2268
 5476SOL     OW27889   2.940   0.226   5.269 -0.1148 -0.0246  0.2377
 5476SOL    HW127890   2.867   0.200   5.326  0.4977  0.6159  1.3239
 5476SOL    HW227891   2.897   0.261   5.191 -0.8109 -2.2571 -0.3775
 5477SOL     OW27892   4.285   2.192   1.313  0.3953 -0.1751 -1.0044
 5477SOL    HW127893   4.329   2.234   1.239  1.9043 -0.8043 -0.4610
 5477SOL    HW227894   4.197   2.199   1.277  0.3568 -1.8304 -1.2194
 5478SOL     OW27895   1.654   0.065  14.684 -0.0091  0.3166 -0.7221
 5478SOL    HW127896   1.561   0.057  14.664  0.0715 -0.5852 -0.7498
 5478SOL    HW227897   1.670   0.157  14.706 -0.1820  0.1520  0.0889
 5479SOL     OW27898   3.653   1.394   3.661  0.5285  0.1851 -0.8850
 5479SOL    HW127899   3.735   1.401   3.711  0.2728  0.2718 -0.4759
 5479SOL    HW227900   3.613   1.480   3.665  0.9944  0.2155  3.2547
 5480SOL     OW27901   3.138   0.231  11.763 -0.1939  0.1130 -0.1794
 5480SOL    HW127902   3.092   0.244  11.845 -0.4989 -0.5428 -0.2472
 5480SOL    HW227903   3.085   0.296  11.717  2.5945  2.6748  0.2211
 5481SOL     OW27904   0.990   4.250   7.718 -0.8437  0.3670 -0.3597
 5481SOL    HW127905   0.964   4.336   7.751  2.1861  1.3847 -0.6439
 5481SOL    HW227906   0.921   4.193   7.750  0.3347 -0.2311  1.0959
 5482SOL     OW27907   0.038   3.835   2.279  0.1255  0.0372 -0.0065
 5482SOL    HW127908   4.719   3.854   2.196 -0.6690 -0.7976  0.2356
 5482SOL    HW227909   0.021   3.742   2.290  0.3346 -0.0749 -0.6209
 5483SOL     OW27910   3.855   2.677   6.128  0.3217 -0.4437  0.1983
 5483SOL    HW127911   3.922   2.661   6.062  0.6480 -2.8797  1.1290
 5483SOL    HW227912   3.875   2.763   6.164 -0.2497  0.2652 -1.1870
 5484SOL     OW27913   3.999   1.216   6.911 -0.4667 -0.2687 -0.0497
 5484SOL    HW127914   3.948   1.137   6.898 -4.3889  2.3984 -1.0539
 5484SOL    HW227915   3.939   1.267   6.967  2.5234  2.3522  0.8076
 5485SOL     OW27916   1.054   1.484   2.642  0.1106  0.4962  0.3598
 5485SOL    HW127917   1.142   1.467   2.608 -0.4527  0.8944 -1.2735
 5485SOL    HW227918   1.074   1.471   2.735 -1.2197 -0.1526  0.5609
 5486SOL     OW27919   2.504   0.215   0.127 -0.4312 -0.1858 -0.1986
 5486SOL    HW127920   2.515   0.177   0.040  0.7514  0.8932 -0.5224
 5486SOL    HW227921   2.542   0.302   0.116  1.8532 -0.9640  1.4587
 5487SOL     OW27922   1.629   4.662   6.732 -0.1435  0.3336 -0.1072
 5487SOL    HW127923   1.626   4.579   6.779  0.3935  0.3540 -0.0329
 5487SOL    HW227924   1.621   4.721   6.807  1.1999 -0.0913  0.3631
 5488SOL     OW27925   0.244   4.257   2.339 -0.5203  0.5838 -0.2318
 5488SOL    HW127926   0.239   4.169   2.376  0.8175  0.4014 -0.4939
 5488SOL    HW227927   0.178   4.302   2.392 -3.3328 -3.9512  0.0937
 5489SOL     OW27928   3.101   3.028   9.135 -0.7390 -0.7970 -0.2143
 5489SOL    HW127929   3.031   3.011   9.072 -1.0077 -0.4782 -0.0101
 5489SOL    HW227930   3.077   3.120   9.151  0.2002 -0.4630 -0.7701
 5490SOL     OW27931   1.229   4.426  11.362  0.3542  0.2322 -0.1979
 5490SOL    HW127932   1.270   4.354  11.411 -1.1004 -0.2305  0.3321
 5490SOL    HW227933   1.226   4.492  11.431  0.2817  0.0367 -0.0124
 5491SOL     OW27934   1.675   4.078   4.770  0.2614 -0.6320 -0.3566
 5491SOL    HW127935   1.725   4.155   4.742 -0.6179  0.4401  0.9790
 5491SOL    HW227936   1.698   4.017   4.700 -0.4862 -1.2302 -0.0743
 5492SOL     OW27937   4.406   3.696   3.041  0.0979 -0.1209  0.0137
 5492SOL    HW127938   4.440   3.712   3.129  0.1478 -1.9918  0.3226
 5492SOL    HW227939   4.417   3.777   2.991  4.0380  0.6915  2.2595
 5493SOL     OW27940   0.670   1.577   4.843  0.0881 -0.4630  0.1126
 5493SOL    HW127941   0.714   1.493   4.853  2.1913  0.6596  0.3309
 5493SOL    HW227942   0.746   1.634   4.848  0.9581 -1.5237 -1.0971
 5494SOL     OW27943   3.571   4.582  15.438 -0.4863 -0.1632  0.0044
 5494SOL    HW127944   3.631   4.517  15.474  0.8139  0.5472 -0.9215
 5494SOL    HW227945   3.489   4.532  15.433  0.9220 -2.4665 -0.2809
 5495SOL     OW27946   0.963   1.784   3.174 -0.2178 -0.2619 -0.0953
 5495SOL    HW127947   0.870   1.783   3.151  0.0439 -3.4491 -0.9850
 5495SOL    HW227948   0.974   1.876   3.153 -1.8752  0.0858  0.6055
 5496SOL     OW27949   3.644   0.390   6.669 -0.0920 -0.0120  0.1902
 5496SOL    HW127950   3.595   0.415   6.591 -2.1726  1.2200  1.8789
 5496SOL    HW227951   3.616   0.299   6.680  0.8890 -0.4980 -1.3667
 5497SOL     OW27952   1.465   1.600   8.508 -0.0648  0.0102  0.3407
 5497SOL    HW127953   1.542   1.563   8.551  0.1170  1.4648  1.2734
 5497SOL    HW227954   1.469   1.551   8.427 -1.0606 -1.1037  0.9576
 5498SOL     OW27955   0.814   4.154   5.677 -0.3329  0.2122 -0.0803
 5498SOL    HW127956   0.822   4.249   5.673  0.6431  0.1231 -0.1882
 5498SOL    HW227957   0.817   4.134   5.583  1.8616 -2.6334  0.5943
 5499SOL     OW27958   0.988   0.310   1.229 -0.4145  0.4365  0.5818
 5499SOL    HW127959   1.074   0.269   1.240 -0.6124 -0.3818 -0.8654
 5499SOL    HW227960   0.944   0.282   1.309 -0.9210 -1.1773 -0.2569
 5500SOL     OW27961   1.060   2.549   0.445  0.0282 -0.1526 -0.0853
 5500SOL    HW127962   1.116   2.472   0.439 -1.6819 -1.2990 -1.2529
 5500SOL    HW227963   1.077   2.574   0.536  2.3489 -1.3596 -0.1849
 5501SOL     OW27964   0.338   3.926  11.986 -0.2423 -0.3359 -0.3484
 5501SOL    HW127965   0.289   4.006  11.967  1.2504  0.5672 -0.3952
 5501SOL    HW227966   0.416   3.939  11.933 -0.1620  2.4589  0.4911
 5502SOL     OW27967   4.241   1.859  17.078  0.2409 -0.0399 -0.3865
 5502SOL    HW127968   4.211   1.810  17.155 -0.8725 -2.0680 -2.0996
 5502SOL    HW227969   4.275   1.934  17.125  3.7930 -1.1171 -1.2751
 5503SOL     OW27970   1.726   3.515   6.879 -0.3795  0.0032  0.4716
 5503SOL    HW127971   1.669   3.473   6.943 -1.1133 -0.7661 -0.6869
 5503SOL    HW227972   1.665   3.531   6.806 -0.1691  1.4844  0.6127
 5504SOL     OW27973   0.276   0.646   4.222  0.0424 -0.0457  0.4309
 5504SOL    HW127974   0.284   0.635   4.317 -0.4960  1.0222  0.5980
 5504SOL    HW227975   0.282   0.551   4.207 -0.1095  0.0607 -0.3045
 5505SOL     OW27976   0.127   0.574   2.079  0.2267 -0.4376  0.4750
 5505SOL    HW127977   0.064   0.563   2.008  0.0311 -0.0586  0.5908
 5505SOL    HW227978   0.150   0.482   2.088  0.8046 -0.4693 -1.1751
 5506SOL     OW27979   3.763   0.741  16.315  0.0146  0.0194  0.0020
 5506SOL    HW127980   3.702   0.732  16.389 -1.3903 -2.5833 -1.4781
 5506SOL    HW227981   3.720   0.808  16.264 -2.0491 -0.3384  1.2630
 5507SOL     OW27982   3.262   1.953   1.661 -0.3935  1.0347 -0.7496
 5507SOL    HW127983   3.290   1.899   1.587 -0.8868  0.6705 -0.6687
 5507SOL    HW227984   3.242   1.887   1.727 -0.4978  0.3725 -1.4377
 5508SOL     OW27985   4.460   4.183  14.105 -0.2451  0.0626 -0.3556
 5508SOL    HW127986   4.497   4.270  14.092  0.5819 -0.4806 -1.7678
 5508SOL    HW227987   4.546   4.141  14.111 -0.9345 -1.1706  0.8785
 5509SOL     OW27988   4.009   3.742   7.616  0.2832 -0.6863  0.1512
 5509SOL    HW127989   4.078   3.769   7.554  1.3091 -0.3685  1.4436
 5509SOL    HW227990   4.060   3.716   7.693  1.3132  1.0430  0.0643
 5510SOL     OW27991   0.268   3.974   3.334  0.1141 -0.8002 -0.0136
 5510SOL    HW127992   0.229   4.061   3.323 -0.4116 -1.1509 -0.9769
 5510SOL    HW227993   0.341   3.981   3.396  0.6994 -0.1457 -0.7704
 5511SOL     OW27994   4.332   0.033  12.918 -0.0923  0.4901 -0.1342
 5511SOL    HW127995   4.350   0.063  12.828 -2.5514  0.6343 -0.5687
 5511SOL    HW227996   4.246   0.072  12.930 -1.2868 -2.3097  0.4062
 5512SOL     OW27997   3.540   1.103   4.708  0.1389  0.5645  0.2859
 5512SOL    HW127998   3.556   1.051   4.629  0.4256 -3.5062  3.0135
 5512SOL    HW227999   3.445   1.115   4.706  0.0579  0.0812  1.1234
 5513SOL     OW28000   1.617   1.703   6.989 -0.5086 -0.5295 -0.5648
 5513SOL    HW128001   1.534   1.742   6.963 -0.3889 -0.8652 -1.4342
 5513SOL    HW228002   1.684   1.769   6.969  0.2583 -0.4601  2.2656
 5514SOL     OW28003   4.399   1.751   7.555 -0.2557 -0.0232  0.4279
 5514SOL    HW128004   4.489   1.722   7.563  0.4261  2.1431  0.5940
 5514SOL    HW228005   4.358   1.713   7.632  0.1316 -0.7949  0.2513
 5515SOL     OW28006   2.566   2.564   5.438  0.2255 -0.5246 -0.0262
 5515SOL    HW128007   2.510   2.638   5.464  0.1685 -0.7239  0.4219
 5515SOL    HW228008   2.636   2.606   5.388  0.6835 -1.7842 -0.4304
 5516SOL     OW28009   3.488   2.852   4.119 -0.7406  0.0199  0.4630
 5516SOL    HW128010   3.416   2.885   4.172 -0.6989  1.8960 -0.6627
 5516SOL    HW228011   3.551   2.923   4.124  0.0209 -0.6132 -0.1984
 5517SOL     OW28012   0.911   0.220  14.597  0.0012  0.0342  0.0971
 5517SOL    HW128013   0.981   0.187  14.653  0.6848  0.0625 -0.7321
 5517SOL    HW228014   0.836   0.203  14.654  1.1673  0.4884  1.7625
 5518SOL     OW28015   4.506   4.463  17.092 -0.6044 -0.4337 -0.9576
 5518SOL    HW128016   4.471   4.553  17.098  0.7846  0.0889 -0.7582
 5518SOL    HW228017   4.573   4.470  17.024  0.2533 -0.9682 -0.1519
 5519SOL     OW28018   1.303   0.469   0.145 -0.5462  0.3684  0.3270
 5519SOL    HW128019   1.335   0.522   0.218 -0.7812  4.3910 -2.4718
 5519SOL    HW228020   1.283   0.533   0.076 -0.9754 -0.4906 -0.3411
 5520SOL     OW28021   2.324   1.405   3.356 -0.1409 -0.1862 -0.0005
 5520SOL    HW128022   2.296   1.428   3.445 -2.1619 -2.7756  0.0337
 5520SOL    HW228023   2.273   1.454   3.291  0.0306  1.4031  1.0553
 5521SOL     OW28024   1.737   0.959   3.954  0.3595 -0.2815  0.5795
 5521SOL    HW128025   1.806   1.003   3.905 -0.7500 -0.5896 -1.2709
 5521SOL    HW228026   1.776   0.872   3.965  0.7690 -0.1223  0.3792
 5522SOL     OW28027   4.677   0.545   2.603  0.2572  0.2516  0.2969
 5522SOL    HW128028   4.624   0.466   2.595 -0.8289  1.1955 -1.9446
 5522SOL    HW228029   4.630   0.595   2.536 -0.2653 -1.8009 -0.8801
 5523SOL     OW28030   3.660   0.814   5.070  0.0255  0.3059  0.1591
 5523SOL    HW128031   3.686   0.721   5.068  0.1494  0.3005  1.6098
 5523SOL    HW228032   3.609   0.817   4.989 -2.5410  2.6533  1.8731
 5524SOL     OW28033   3.526   0.506   8.929  0.6093 -0.3028  0.0826
 5524SOL    HW128034   3.597   0.549   8.880  0.9571 -0.7259  0.2134
 5524SOL    HW228035   3.562   0.418   8.941  1.4425 -0.0642 -0.6587
 5525SOL     OW28036   0.308   2.917   3.857 -0.0453 -0.1264 -0.1000
 5525SOL    HW128037   0.292   2.963   3.774  1.9030  3.7350  1.6574
 5525SOL    HW228038   0.378   2.968   3.896 -1.3619  0.3596  1.6190
 5526SOL     OW28039   0.215   3.339  13.039  0.1171 -0.2472  0.8546
 5526SOL    HW128040   0.242   3.247  13.035  1.1626  0.1062 -0.2473
 5526SOL    HW228041   0.137   3.339  13.093 -0.9808 -0.2853 -0.7305
 5527SOL     OW28042   1.416   2.520  10.939 -0.5319 -0.1531  0.3925
 5527SOL    HW128043   1.490   2.554  10.989 -0.4022 -1.4302  1.0843
 5527SOL    HW228044   1.402   2.438  10.986 -0.0954 -0.4078  0.0797
 5528SOL     OW28045   1.930   4.594  11.642 -0.2334 -0.1566  0.3785
 5528SOL    HW128046   2.018   4.590  11.680  0.1115 -0.1440 -0.4123
 5528SOL    HW228047   1.936   4.511  11.595 -0.6139  0.0937 -0.1087
 5529SOL     OW28048   2.642   0.553   2.842 -0.5935  0.5246  0.5541
 5529SOL    HW128049   2.676   0.582   2.927  0.4663 -1.0565  0.6863
 5529SOL    HW228050   2.697   0.604   2.782  0.3258 -3.3006 -1.8471
 5530SOL     OW28051   0.608   3.828   0.123 -0.2996  0.6076 -0.7757
 5530SOL    HW128052   0.677   3.774   0.161 -0.2060  1.4028  0.2122
 5530SOL    HW228053   0.547   3.819   0.196  1.0462 -1.4927  0.0663
 5531SOL     OW28054   0.344   3.623   9.708 -0.0986 -0.1083  0.2877
 5531SOL    HW128055   0.379   3.553   9.763  1.5824  1.0036  0.6230
 5531SOL    HW228056   0.418   3.621   9.647 -0.1219 -0.1344  0.2602
 5532SOL     OW28057   0.185   3.078   7.009 -0.3300  0.0430  0.1877
 5532SOL    HW128058   0.191   3.098   7.102  1.0698 -1.7170  0.4637
 5532SOL    HW228059   0.097   3.042   7.002  0.8150 -2.3693 -1.9783
 5533SOL     OW28060   0.545   4.366   9.490 -0.0028 -0.2487 -0.1233
 5533SOL    HW128061   0.516   4.424   9.560  1.4890  0.8400 -0.4302
 5533SOL    HW228062   0.474   4.379   9.427 -1.8511  0.9126  2.2269
 5534SOL     OW28063   2.410   3.917   6.962  0.7393  0.0320  0.1349
 5534SOL    HW128064   2.407   3.862   6.884 -1.6222  2.7421 -1.7065
 5534SOL    HW228065   2.503   3.939   6.972  0.7193 -0.4789  1.4446
 5535SOL     OW28066   1.734   1.690   5.177 -0.1583  0.5445  0.0127
 5535SOL    HW128067   1.747   1.600   5.204 -0.4412  0.6899  0.6401
 5535SOL    HW228068   1.765   1.693   5.086 -0.2248 -0.8139 -0.0529
 5536SOL     OW28069   2.685   0.924   1.727 -0.3905  0.4057 -0.6286
 5536SOL    HW128070   2.742   0.847   1.731 -2.3394 -1.0702 -0.9563
 5536SOL    HW228071   2.702   0.962   1.641  2.1386 -1.6551 -1.0519
 5537SOL     OW28072   0.238   1.873  10.871 -0.2315 -0.6309  0.4510
 5537SOL    HW128073   0.296   1.933  10.824 -2.8527  1.4682 -0.1225
 5537SOL    HW228074   0.232   1.795  10.815 -1.3642  1.3412 -2.1671
 5538SOL     OW28075   4.682   0.965  15.331  0.2355 -0.2808 -0.0657
 5538SOL    HW128076   4.711   0.885  15.289 -2.9753 -1.3480 -0.2332
 5538SOL    HW228077   0.024   1.025  15.299 -2.0300  1.3690 -1.8323
 5539SOL     OW28078   3.609   4.453  17.010  0.4100 -1.0230 -0.0126
 5539SOL    HW128079   3.557   4.379  17.041 -0.7959  0.8643  2.4433
 5539SOL    HW228080   3.648   4.426  16.927  1.3030 -0.7789  0.3326
 5540SOL     OW28081   1.059   1.254   4.116 -0.6771  0.0072  0.3016
 5540SOL    HW128082   1.074   1.337   4.163  1.0799 -0.1380  0.0122
 5540SOL    HW228083   1.143   1.241   4.073 -1.5340 -1.0734 -1.0430
 5541SOL     OW28084   4.719   2.433   2.884 -0.1088  0.3350 -0.4250
 5541SOL    HW128085   4.682   2.501   2.828 -1.6393 -1.4905 -1.6418
 5541SOL    HW228086   0.086   2.450   2.867  0.6612 -1.3558  2.1709
 5542SOL     OW28087   1.111   4.593  17.059 -0.3255 -0.3136 -0.2236
 5542SOL    HW128088   1.121   4.639  16.976  0.1206 -1.5406 -0.8387
 5542SOL    HW228089   1.075   4.654  17.123  0.1406  1.4710 -1.6704
 5543SOL     OW28090   0.095   2.130   2.196  0.4049 -0.3167 -0.1191
 5543SOL    HW128091   0.141   2.190   2.138 -0.3033 -0.8525 -1.2518
 5543SOL    HW228092   0.029   2.092   2.137  0.1696 -1.2837  0.7601
 5544SOL     OW28093   1.545   0.365  17.231 -0.8897  0.9249  0.2017
 5544SOL    HW128094   1.555   0.439  17.292  1.3538  1.2463 -0.5559
 5544SOL    HW228095   1.590   0.399  17.154 -3.3956 -1.3042 -2.2305
 5545SOL     OW28096   1.828   3.387   3.030  0.3526 -0.0390 -0.1590
 5545SOL    HW128097   1.788   3.378   2.944 -0.9332  1.2685  0.3145
 5545SOL    HW228098   1.847   3.480   3.034 -0.0308  0.0062  0.7584
 5546SOL     OW28099   4.201   1.824   4.519  0.2831 -0.5352 -0.1039
 5546SOL    HW128100   4.231   1.913   4.538  1.2947 -0.6608 -1.1424
 5546SOL    HW228101   4.115   1.836   4.560  1.3250  3.1508  0.9910
 5547SOL     OW28102   3.626   4.482  17.511  0.1430  0.1409  0.1613
 5547SOL    HW128103   3.562   4.417  17.483  0.2618  0.7750 -1.5887
 5547SOL    HW228104   3.611   4.479  17.606 -0.9116  0.4204  0.0017
 5548SOL     OW28105   0.760   2.365   3.829  0.0910 -0.1445  0.2160
 5548SOL    HW128106   0.729   2.391   3.742 -1.7769 -3.5951 -0.1666
 5548SOL    HW228107   0.844   2.411   3.835 -0.1895  0.1174  2.0237
 5549SOL     OW28108   1.271   3.001   8.545  0.1224  0.7239  0.1048
 5549SOL    HW128109   1.329   2.925   8.554 -1.0232 -0.3248 -1.3390
 5549SOL    HW228110   1.321   3.066   8.594  0.6856  0.9395 -0.7730
 5550SOL     OW28111   1.034   1.717   8.645  0.0911 -0.1544 -0.2432
 5550SOL    HW128112   1.124   1.691   8.664 -0.6278 -1.0747  1.8087
 5550SOL    HW228113   1.002   1.761   8.724  1.2718  1.7135 -0.8019
 5551SOL     OW28114   3.872   0.572   5.643  1.2364 -0.4235  0.1023
 5551SOL    HW128115   3.852   0.651   5.693  0.9287 -0.8199  0.6071
 5551SOL    HW228116   3.890   0.613   5.558 -3.2478 -1.6358 -1.4283
 5552SOL     OW28117   2.500   0.868   7.615 -0.4533 -0.0374  0.5841
 5552SOL    HW128118   2.564   0.799   7.601 -1.2933  0.0041 -3.3220
 5552SOL    HW228119   2.559   0.943   7.623  1.1401 -1.4187  1.8995
 5553SOL     OW28120   2.658   1.818   7.375  0.3929  0.2060 -0.0829
 5553SOL    HW128121   2.676   1.753   7.307 -1.7124  0.1119 -0.5462
 5553SOL    HW228122   2.632   1.756   7.443 -0.3583  0.0210 -0.5367
 5554SOL     OW28123   0.035   0.806   9.423  0.4488  0.2143 -0.3831
 5554SOL    HW128124   0.124   0.840   9.428 -0.2758  1.9859  0.5285
 5554SOL    HW228125   4.717   0.871   9.367  1.1456  2.1664  1.3637
 5555SOL     OW28126   0.221   3.696   4.579 -0.4009 -0.9556 -0.1119
 5555SOL    HW128127   0.126   3.696   4.570 -0.4441 -1.7989  0.3477
 5555SOL    HW228128   0.229   3.788   4.606 -0.8220 -0.4316 -1.7847
 5556SOL     OW28129   0.624   3.246  15.620  0.0426 -0.2480  0.3245
 5556SOL    HW128130   0.598   3.155  15.616 -2.4160  0.4866 -0.4195
 5556SOL    HW228131   0.572   3.266  15.699 -1.3199  0.0325 -0.6402
 5557SOL     OW28132   1.568   0.737   3.286 -0.6640  0.8450 -0.7191
 5557SOL    HW128133   1.518   0.741   3.367 -1.1007 -2.3700 -0.8565
 5557SOL    HW228134   1.508   0.688   3.230 -0.7483  0.1810 -0.0464
 5558SOL     OW28135   0.557   1.603   2.333 -0.1930 -0.5987 -0.5562
 5558SOL    HW128136   0.608   1.680   2.308 -0.5313  0.0212  0.6438
 5558SOL    HW228137   0.501   1.628   2.407 -0.8284 -1.1992 -0.8500
 5559SOL     OW28138   3.920   0.406  11.995  0.4821 -0.3591 -0.0722
 5559SOL    HW128139   3.836   0.367  11.975  0.2885 -0.9193  1.8018
 5559SOL    HW228140   3.978   0.336  11.965  0.2323 -0.5184 -0.1826
 5560SOL     OW28141   4.302   4.698   5.103  0.6103 -0.1638  0.1276
 5560SOL    HW128142   4.340   4.664   5.022 -2.3267  0.5403 -1.5520
 5560SOL    HW228143   4.258   0.043   5.056  0.2038  0.4220  1.4020
 5561SOL     OW28144   3.528   3.407   1.057 -0.1898  0.1883  0.3839
 5561SOL    HW128145   3.604   3.436   1.006  1.2414  1.0671  2.9841
 5561SOL    HW228146   3.458   3.441   1.001 -1.1806 -3.6735 -0.6913
 5562SOL     OW28147   0.335   1.570   5.634  0.3549 -0.2277 -0.1209
 5562SOL    HW128148   0.407   1.529   5.682  0.5267  0.1608 -0.0504
 5562SOL    HW228149   0.278   1.497   5.611 -1.1728  0.7435  0.5953
 5563SOL     OW28150   0.052   2.362   3.764 -0.3290  0.0205 -0.2282
 5563SOL    HW128151   0.118   2.421   3.726 -0.2528 -1.9789 -3.1506
 5563SOL    HW228152   0.103   2.285   3.788  0.8597  0.5667 -0.9992
 5564SOL     OW28153   0.239   3.564   7.373 -0.1558  0.1133 -0.4803
 5564SOL    HW128154   0.215   3.475   7.398  1.3805  0.0848  0.8866
 5564SOL    HW228155   0.178   3.616   7.425  1.3734  1.5309 -0.0879
 5565SOL     OW28156   1.960   1.296   8.023 -0.5901 -0.3199  0.2093
 5565SOL    HW128157   2.034   1.324   7.968 -2.8962  0.6182 -2.4207
 5565SOL    HW228158   1.895   1.259   7.964 -0.5951 -0.9804  0.6276
 5566SOL     OW28159   2.260   2.143   8.680  0.2217  0.1055 -0.0529
 5566SOL    HW128160   2.288   2.223   8.724  1.4872 -2.1809  3.3473
 5566SOL    HW228161   2.324   2.082   8.717 -0.7919 -0.6901  0.3779
 5567SOL     OW28162   3.604   2.700   6.314  0.2409  0.6107 -0.1388
 5567SOL    HW128163   3.693   2.690   6.281  0.0216 -1.9274  0.0476
 5567SOL    HW228164   3.597   2.622   6.370 -0.1304 -0.8431 -2.2312
 5568SOL     OW28165   3.332   4.623   8.637  0.2623  0.5274  0.1629
 5568SOL    HW128166   3.322   4.575   8.719 -0.5066 -0.1319 -0.3156
 5568SOL    HW228167   3.403   4.679   8.669  0.3297  1.1478 -1.0656
 5569SOL     OW28168   1.032   3.728   7.902  0.3208 -0.1308  0.1199
 5569SOL    HW128169   1.084   3.809   7.904 -1.3554  0.9879 -1.3065
 5569SOL    HW228170   1.091   3.678   7.845  0.6189  1.0977 -0.6639
 5570SOL     OW28171   2.700   0.689   8.643  0.2115  0.0187 -0.4535
 5570SOL    HW128172   2.694   0.779   8.674 -0.5731  0.0588 -0.7205
 5570SOL    HW228173   2.646   0.687   8.564  1.5721  0.9354 -1.3905
 5571SOL     OW28174   2.908   1.558   9.007  0.0840  0.6521  0.1625
 5571SOL    HW128175   2.854   1.619   9.057  0.6352  2.2036 -1.1157
 5571SOL    HW228176   2.837   1.494   9.013  0.0645  0.7235  0.7055
 5572SOL     OW28177   2.199   2.210   2.619 -0.1798 -0.0933 -0.3705
 5572SOL    HW128178   2.122   2.265   2.602 -0.2428 -0.2224 -0.5044
 5572SOL    HW228179   2.165   2.129   2.658  0.5432 -0.7651 -1.1363
 5573SOL     OW28180   4.496   2.837  17.003  0.4113 -0.0239  0.0904
 5573SOL    HW128181   4.556   2.897  16.959  1.0651  0.6489  1.9324
 5573SOL    HW228182   4.492   2.759  16.946 -2.0967 -0.6464  1.1389
 5574SOL     OW28183   2.044   2.975   8.306 -0.5582 -0.2874  0.4833
 5574SOL    HW128184   1.987   3.039   8.263 -0.1770  1.8020  3.0590
 5574SOL    HW228185   2.050   2.919   8.228  2.8019  0.7590 -0.0386
 5575SOL     OW28186   4.183   0.612   7.305 -0.0376  0.1202  0.2312
 5575SOL    HW128187   4.093   0.609   7.273 -0.7712  0.4747  2.2415
 5575SOL    HW228188   4.228   0.573   7.230  1.4252  0.0667  1.1161
 5576SOL     OW28189   1.311   2.089   4.726 -0.0387 -0.1980  0.0639
 5576SOL    HW128190   1.275   2.175   4.707 -1.3685 -0.7343  0.0806
 5576SOL    HW228191   1.397   2.095   4.687 -0.8664 -0.1196 -1.7335
 5577SOL     OW28192   1.137   3.127   1.902  0.6415 -0.3658 -0.5215
 5577SOL    HW128193   1.217   3.107   1.853 -0.4378 -0.8527 -2.0644
 5577SOL    HW228194   1.077   3.123   1.827 -0.0672  0.2866  0.0080
 5578SOL     OW28195   1.213   1.222   9.430  0.0837  0.5137  0.4034
 5578SOL    HW128196   1.167   1.201   9.511 -1.6688 -0.5123 -0.8346
 5578SOL    HW228197   1.217   1.133   9.393 -0.9206  0.6208  0.0541
 5579SOL     OW28198   1.054   4.312   8.341  0.3143  0.1414  0.5666
 5579SOL    HW128199   1.013   4.226   8.333  3.0928 -1.1321  0.1624
 5579SOL    HW228200   1.025   4.330   8.431 -1.9098  2.4533 -0.6125
 5580SOL     OW28201   3.197   2.608   4.361 -0.5925  0.7210 -0.0537
 5580SOL    HW128202   3.186   2.659   4.441  0.1765 -0.9452  1.1161
 5580SOL    HW228203   3.286   2.637   4.338 -0.1224  0.4649  1.4394
 5581SOL     OW28204   2.326   3.658  16.790  0.6651  0.6564  0.3572
 5581SOL    HW128205   2.314   3.728  16.854  0.6501  0.1833  0.8633
 5581SOL    HW228206   2.279   3.698  16.716 -1.7874  1.1396  2.1932
 5582SOL     OW28207   0.385   4.453   9.711  0.0887  1.0052  0.2765
 5582SOL    HW128208   0.427   4.498   9.784 -1.1740  0.3528  1.4136
 5582SOL    HW228209   0.298   4.445   9.751  0.4381  0.2854  0.9029
 5583SOL     OW28210   3.689   3.851   3.050 -0.5477 -0.2645 -0.3341
 5583SOL    HW128211   3.665   3.781   2.990 -1.1587  0.8093 -1.3358
 5583SOL    HW228212   3.740   3.908   2.993  0.0270 -0.3046  0.1383
 5584SOL     OW28213   4.451   4.550   3.656 -0.5831 -0.2749 -0.4094
 5584SOL    HW128214   4.542   4.526   3.640 -0.4148  0.4257 -0.5203
 5584SOL    HW228215   4.402   4.492   3.599 -2.4935  0.1299  0.8242
 5585SOL     OW28216   4.513   0.257  16.718  0.7348 -0.0059  0.7112
 5585SOL    HW128217   4.441   0.231  16.776  0.3807  1.0814  0.7783
 5585SOL    HW228218   4.576   0.283  16.785  1.0444  3.8009 -1.0567
 5586SOL     OW28219   0.929   4.412   5.716  0.1770 -0.2702  0.3236
 5586SOL    HW128220   0.916   4.506   5.705  0.6152 -0.1399  0.9456
 5586SOL    HW228221   1.024   4.419   5.727  0.3259 -0.8243 -0.5275
 5587SOL     OW28222   1.800   3.760   7.875 -0.5439  0.7307  0.3992
 5587SOL    HW128223   1.733   3.696   7.898  0.6690  0.1922  2.4701
 5587SOL    HW228224   1.880   3.707   7.882 -0.9613 -0.1352 -1.5332
 5588SOL     OW28225   2.432   1.628   9.750  0.4839 -0.2114 -0.1780
 5588SOL    HW128226   2.474   1.565   9.808  3.5836 -0.3806 -2.5536
 5588SOL    HW228227   2.476   1.597   9.670 -1.3186 -0.6377 -1.0020
 5589SOL     OW28228   1.761   4.532   0.804  0.5197  0.2619  0.0938
 5589SOL    HW128229   1.775   4.463   0.740 -1.7261  1.2435 -1.4315
 5589SOL    HW228230   1.687   4.503   0.857  0.2175  3.2148  1.2609
 5590SOL     OW28231   0.211   3.769   3.605 -0.0268 -0.0307 -0.5055
 5590SOL    HW128232   0.220   3.796   3.697  0.7730 -0.7392 -0.3665
 5590SOL    HW228233   0.236   3.847   3.557  2.7398 -1.9666 -2.1581
 5591SOL     OW28234   3.632   1.123   5.761 -0.1248 -0.1980  0.0937
 5591SOL    HW128235   3.573   1.149   5.691 -2.1981 -0.0890  1.8734
 5591SOL    HW228236   3.716   1.100   5.721 -0.4779 -0.8028 -0.3050
 5592SOL     OW28237   2.733   0.959   8.694  0.2848  0.0569 -0.4561
 5592SOL    HW128238   2.793   1.011   8.747  1.7006 -1.2092 -0.8283
 5592SOL    HW228239   2.659   1.013   8.666 -0.2790  0.0942  1.0912
 5593SOL     OW28240   1.746   4.127   6.659  0.2343 -0.3021  0.5304
 5593SOL    HW128241   1.841   4.125   6.653  0.2205 -1.4160  0.6974
 5593SOL    HW228242   1.716   4.086   6.577 -0.8761  1.3631  0.1048
 5594SOL     OW28243   2.690   2.646   2.576 -0.3306 -0.5515 -0.3222
 5594SOL    HW128244   2.629   2.646   2.649  2.1005  1.3907  1.6888
 5594SOL    HW228245   2.646   2.716   2.528 -2.1401 -1.0449  0.6612
 5595SOL     OW28246   3.458   0.890   2.045  0.0542  0.2447 -0.0766
 5595SOL    HW128247   3.489   0.981   2.051  0.0913  0.0897  2.3876
 5595SOL    HW228248   3.523   0.835   2.089  0.4002  1.5315  1.0346
 5596SOL     OW28249   2.352   1.614   2.055 -0.3512  0.0103 -0.1232
 5596SOL    HW128250   2.299   1.558   1.999  0.0558 -1.3317  0.8271
 5596SOL    HW228251   2.418   1.659   2.002  1.0585  0.9269  2.3673
 5597SOL     OW28252   1.048   1.473   5.057  0.6485  0.6275 -0.2895
 5597SOL    HW128253   1.100   1.550   5.079 -0.9001  1.5675  0.1035
 5597SOL    HW228254   1.084   1.434   4.978  2.4098  1.2321  0.2054
 5598SOL     OW28255   3.912   1.642  16.716 -0.0513  0.2412  0.6349
 5598SOL    HW128256   3.848   1.653  16.786 -1.0603 -0.9869 -0.0897
 5598SOL    HW228257   3.991   1.666  16.764  1.8295 -0.5689 -2.0397
 5599SOL     OW28258   1.603   4.723   9.027 -0.0652  0.1737 -0.1909
 5599SOL    HW128259   1.687   4.681   9.045 -0.4794 -0.9787 -0.8945
 5599SOL    HW228260   1.547   4.645   9.034 -0.2948  0.3854  0.3056
 5600SOL     OW28261   1.626   0.055  12.178 -0.4750 -0.3284 -0.0316
 5600SOL    HW128262   1.699   0.086  12.232 -1.5548  2.1603 -0.0045
 5600SOL    HW228263   1.570   0.028  12.251  1.9523 -0.5770  1.7565
 5601SOL     OW28264   1.408   2.701   7.711  0.3412 -0.3458 -0.2805
 5601SOL    HW128265   1.357   2.711   7.630 -0.3714  0.3693  0.2638
 5601SOL    HW228266   1.494   2.710   7.671  1.1582 -0.3452  1.4656
 5602SOL     OW28267   0.783   3.162   5.704 -0.1789  0.2264 -0.1591
 5602SOL    HW128268   0.719   3.210   5.758  0.3901 -0.0721  0.7854
 5602SOL    HW228269   0.853   3.228   5.703 -0.7278  0.7454 -3.6674
 5603SOL     OW28270   0.235   0.584   9.754  0.1016 -0.4673  0.3403
 5603SOL    HW128271   0.311   0.626   9.714 -0.8581 -1.4594 -2.5594
 5603SOL    HW228272   0.184   0.608   9.676  0.3380  0.8105  0.5703
 5604SOL     OW28273   3.734   0.854   6.634  0.4060  0.3271 -0.4464
 5604SOL    HW128274   3.658   0.813   6.676  1.3964 -0.0395  1.0001
 5604SOL    HW228275   3.698   0.910   6.565 -0.1969 -0.8400 -1.0647
 5605SOL     OW28276   0.482   3.774   6.045  0.0670 -0.3280  0.0099
 5605SOL    HW128277   0.494   3.689   6.087  0.2599  0.2391  1.0964
 5605SOL    HW228278   0.422   3.747   5.975 -0.0712  1.0417 -0.3845
 5606SOL     OW28279   4.232   2.247  15.174 -0.2033  0.2766  0.2308
 5606SOL    HW128280   4.311   2.209  15.134 -0.1667 -0.6517  1.1900
 5606SOL    HW228281   4.202   2.180  15.235 -2.2884  0.5309 -0.5312
 5607SOL     OW28282   2.605   0.472   2.138 -0.3716  0.2084  0.3324
 5607SOL    HW128283   2.687   0.448   2.096 -1.5265 -0.5895 -1.4730
 5607SOL    HW228284   2.587   0.399   2.196  1.9917  0.2468  1.1201
 5608SOL     OW28285   2.832   4.377   3.694  0.1359 -0.3888 -0.0930
 5608SOL    HW128286   2.835   4.284   3.718  1.0051 -0.2722  0.2596
 5608SOL    HW228287   2.791   4.409   3.774 -0.7448 -2.3722  0.2577
 5609SOL     OW28288   4.632   2.113   8.644  0.0514 -0.8841 -0.1065
 5609SOL    HW128289   4.627   2.118   8.739 -0.0260  3.4743 -0.3338
 5609SOL    HW228290   4.574   2.187   8.624  1.1951 -0.1618 -0.7639
 5610SOL     OW28291   1.275   0.170  17.366  0.3518  0.2110  0.0136
 5610SOL    HW128292   1.289   0.135  17.454  2.4829 -0.8744 -0.7570
 5610SOL    HW228293   1.191   0.214  17.379  0.1723  0.3287 -1.4688
 5611SOL     OW28294   1.175   4.350  15.453  0.1549  0.5796 -0.0254
 5611SOL    HW128295   1.270   4.341  15.463  0.3003  1.0956 -0.9756
 5611SOL    HW228296   1.152   4.326  15.363 -0.2829  1.2460 -0.0857
 5612SOL     OW28297   2.599   0.382  13.278  0.1243 -0.4492 -0.8051
 5612SOL    HW128298   2.577   0.445  13.346  0.7164 -1.2476  0.1393
 5612SOL    HW228299   2.664   0.433  13.229 -0.2019  1.3824  0.6868
 5613SOL     OW28300   2.316   4.460  10.362  0.3857  0.4135  0.3380
 5613SOL    HW128301   2.380   4.509  10.309  0.3768  0.0879  0.0318
 5613SOL    HW228302   2.333   4.489  10.452  0.3910 -4.2067  1.8089
 5614SOL     OW28303   0.418   4.713   0.687 -0.0033 -0.4453  0.0139
 5614SOL    HW128304   0.328   4.716   0.656  0.3249 -0.7334 -0.9771
 5614SOL    HW228305   0.412   0.004   0.781 -1.2808 -0.8968  0.0080
 5615SOL     OW28306   0.798   4.197   8.215  0.0274 -0.6867  0.1986
 5615SOL    HW128307   0.768   4.283   8.186  1.5330 -0.6550 -1.2780
 5615SOL    HW228308   0.721   4.149   8.184  0.0753  0.7823 -2.1693
 5616SOL     OW28309   2.231   0.945  17.075  0.0458 -0.2019 -0.0219
 5616SOL    HW128310   2.250   0.932  17.168 -0.1855 -0.6024 -0.0307
 5616SOL    HW228311   2.136   0.934  17.077  0.4536 -3.9137  0.1213
 5617SOL     OW28312   4.512   3.155   4.687 -0.7175  0.2616 -1.0291
 5617SOL    HW128313   4.608   3.148   4.686 -0.4373  3.5450 -0.2550
 5617SOL    HW228314   4.482   3.095   4.755 -0.5765 -1.7950 -2.7848
 5618SOL     OW28315   4.506   1.831   4.432 -0.1517 -0.6320 -0.1190
 5618SOL    HW128316   4.571   1.879   4.380  1.3267 -2.0475  0.4081
 5618SOL    HW228317   4.486   1.754   4.378 -1.9373 -1.9082  2.3816
 5619SOL     OW28318   1.869   4.502  12.130  0.1099 -0.0468 -0.0416
 5619SOL    HW128319   1.808   4.548  12.073 -1.0802 -2.0612 -0.4332
 5619SOL    HW228320   1.893   4.422  12.083 -0.3875 -0.6485  0.7148
 5620SOL     OW28321   0.416   0.090  17.557  0.3257  0.4069 -0.0375
 5620SOL    HW128322   0.396   0.092  17.651  1.2576  0.1726  0.1613
 5620SOL    HW228323   0.361   0.163  17.528  0.2445  0.6808  0.8019
 5621SOL     OW28324   1.426   0.546  13.799  0.3651  0.2209 -0.3368
 5621SOL    HW128325   1.515   0.521  13.822  0.0107 -1.6580 -0.9834
 5621SOL    HW228326   1.411   0.477  13.735  1.5719  0.1525 -0.5436
 5622SOL     OW28327   3.024   1.905   5.765 -0.8146  0.1016  0.1566
 5622SOL    HW128328   2.946   1.947   5.800 -1.6666  0.5995 -2.3141
 5622SOL    HW228329   3.028   1.953   5.682 -0.2667 -3.4761 -1.8570
 5623SOL     OW28330   2.597   3.714   3.212  0.1308 -0.3261 -0.5163
 5623SOL    HW128331   2.600   3.734   3.306 -1.9897  0.4733 -0.6072
 5623SOL    HW228332   2.530   3.647   3.202  0.0853 -0.4700  0.7227
 5624SOL     OW28333   1.016   0.767   6.219 -0.3141  0.3054  0.3560
 5624SOL    HW128334   1.090   0.827   6.207  0.1968  0.1384  2.6448
 5624SOL    HW228335   0.999   0.733   6.132  0.8258  0.8136 -0.0704
 5625SOL     OW28336   4.432   1.159   5.981  0.4384  0.2259 -0.1060
 5625SOL    HW128337   4.390   1.235   5.941  0.2264  0.3923  0.4280
 5625SOL    HW228338   4.392   1.174   6.067 -1.2657  0.1685 -0.8822
 5626SOL     OW28339   4.586   2.619  13.990  0.0863 -0.0323  0.1041
 5626SOL    HW128340   4.517   2.567  13.949 -0.1708  0.2235  0.2138
 5626SOL    HW228341   4.550   2.707  14.000 -0.8288 -0.4257  0.3170
 5627SOL     OW28342   2.766   1.013   4.784 -0.1278 -0.3618  0.3824
 5627SOL    HW128343   2.739   1.018   4.875 -0.6669  0.3721  0.1885
 5627SOL    HW228344   2.689   1.057   4.747 -0.3185 -0.8778  0.1782
 5628SOL     OW28345   3.951   0.285   6.124  0.0345  0.0182  0.4762
 5628SOL    HW128346   4.038   0.310   6.153  0.6692 -0.7773 -0.7365
 5628SOL    HW228347   3.905   0.279   6.208  0.6374 -1.3725  0.7057
 5629SOL     OW28348   4.185   0.419   7.660  0.4614 -0.2918  0.0102
 5629SOL    HW128349   4.183   0.512   7.636 -1.3732 -0.2389  0.3350
 5629SOL    HW228350   4.279   0.406   7.648 -0.0812 -2.3196 -1.9380
 5630SOL     OW28351   1.701   2.820   4.346 -0.2643 -0.4513  0.3292
 5630SOL    HW128352   1.704   2.797   4.439  1.0531  0.1997  0.4544
 5630SOL    HW228353   1.795   2.826   4.325 -0.1427  0.5943  1.1839
 5631SOL     OW28354   1.359   2.010  10.587  0.2187  0.1569  0.1686
 5631SOL    HW128355   1.282   1.955  10.573 -0.2263  0.5189  1.2372
 5631SOL    HW228356   1.423   1.943  10.612 -1.2719 -0.8478  1.2752
 5632SOL     OW28357   1.091   0.116   4.949  0.3137 -0.0508  0.6564
 5632SOL    HW128358   1.035   0.173   5.002  0.3290 -0.1663  0.7976
 5632SOL    HW228359   1.029   0.044   4.933  0.0375  0.9319 -2.6783
 5633SOL     OW28360   0.336   2.411   2.519  0.3283 -0.2859 -0.1897
 5633SOL    HW128361   0.261   2.456   2.482  0.9589  0.6365 -0.3616
 5633SOL    HW228362   0.303   2.322   2.530  0.2705 -0.4206 -1.4399
 5634SOL     OW28363   0.282   1.260   8.009 -0.3125  0.3316  0.0763
 5634SOL    HW128364   0.305   1.327   8.073  0.8889  0.5703 -0.6111
 5634SOL    HW228365   0.254   1.189   8.066  0.0075  2.4849  2.8994
 5635SOL     OW28366   0.614   3.765   8.421 -0.4427  0.5993 -0.1681
 5635SOL    HW128367   0.686   3.829   8.420 -0.9649  1.1947  0.2698
 5635SOL    HW228368   0.659   3.681   8.415  0.1383  0.8213  1.1142
 5636SOL     OW28369   0.486   1.011  17.156 -0.2502 -0.7306  0.1392
 5636SOL    HW128370   0.390   1.019  17.156 -0.0029  2.5044 -1.2408
 5636SOL    HW228371   0.503   0.938  17.214 -0.7647  0.4604  1.7866
 5637SOL     OW28372   3.195   1.172   7.831 -0.1520 -0.0260 -0.4792
 5637SOL    HW128373   3.108   1.183   7.869  1.2556  2.4432  2.0348
 5637SOL    HW228374   3.156   1.160   7.745 -1.6319 -0.0532  0.1856
 5638SOL     OW28375   2.371   2.360   5.386 -0.0187  0.0225  0.1942
 5638SOL    HW128376   2.417   2.440   5.412 -1.7432  0.4256  1.9661
 5638SOL    HW228377   2.332   2.391   5.305  0.7382 -1.0312 -0.5720
 5639SOL     OW28378   4.702   4.586   6.364  0.2047 -0.0117  0.5444
 5639SOL    HW128379   0.065   4.549   6.365 -0.1660 -0.8949  0.4334
 5639SOL    HW228380   4.702   4.656   6.430 -0.4782 -1.7594  2.3978
 5640SOL     OW28381   1.450   3.927   6.967 -0.3122 -0.0229 -0.3550
 5640SOL    HW128382   1.443   3.836   6.994 -2.2177 -0.9540 -3.8916
 5640SOL    HW228383   1.382   3.973   7.017 -1.2419 -0.0176 -1.5962
 5641SOL     OW28384   2.304   3.651   2.010  0.2588  0.5202 -0.2081
 5641SOL    HW128385   2.241   3.721   2.031  0.5557  1.1072 -1.2706
 5641SOL    HW228386   2.366   3.682   2.076 -1.3155  0.3505  1.3785
 5642SOL     OW28387   2.311   1.435  12.042  0.1333  1.1084  0.2980
 5642SOL    HW128388   2.289   1.357  11.991  1.7821  1.0400 -0.3009
 5642SOL    HW228389   2.404   1.432  12.063  0.6809  1.2115 -2.1501
 5643SOL     OW28390   0.351   2.632  10.415 -0.1989 -0.0361  0.6540
 5643SOL    HW128391   0.396   2.626  10.499 -0.3624 -1.0959  0.6586
 5643SOL    HW228392   0.334   2.725  10.400 -0.8984 -0.1751  0.6087
 5644SOL     OW28393   2.526   0.092   3.115 -0.0991  0.6299 -0.0555
 5644SOL    HW128394   2.498   0.179   3.145  0.8352  0.1670  2.1338
 5644SOL    HW228395   2.577   0.131   3.044 -1.3329  1.7547 -0.3447
 5645SOL     OW28396   3.030   0.993   4.748  0.2244 -0.1175  1.0266
 5645SOL    HW128397   3.039   1.015   4.656 -1.1774 -0.1361  0.8812
 5645SOL    HW228398   2.934   0.999   4.755  0.2265  0.6343  0.4876
 5646SOL     OW28399   2.149   4.439  15.411 -0.1418  0.0453  0.0110
 5646SOL    HW128400   2.192   4.441  15.326 -4.7381  1.7984 -2.2649
 5646SOL    HW228401   2.225   4.432  15.468 -0.7979 -2.6594  0.5494
 5647SOL     OW28402   4.074   0.050   0.499  0.5097  0.0070 -0.8518
 5647SOL    HW128403   4.140   0.017   0.439 -0.1144 -0.7806 -1.0992
 5647SOL    HW228404   4.076   0.144   0.480  0.0786 -0.4470 -3.1183
 5648SOL     OW28405   4.086   4.353   3.726  0.2078 -0.1532 -0.4985
 5648SOL    HW128406   4.152   4.314   3.783 -0.7383 -0.0729  0.6434
 5648SOL    HW228407   4.099   4.447   3.740 -1.9027 -0.1472  1.4439
 5649SOL     OW28408   4.007   3.572   2.319 -0.2672 -0.4942  0.1337
 5649SOL    HW128409   3.958   3.516   2.259 -0.5494 -0.0507 -0.0473
 5649SOL    HW228410   4.087   3.576   2.267 -0.6680  1.8673 -0.2818
 5650SOL     OW28411   3.680   0.681   1.380  0.0913  0.2388  0.8652
 5650SOL    HW128412   3.766   0.711   1.350  0.3564  1.6752  3.0954
 5650SOL    HW228413   3.622   0.754   1.360 -0.0838  0.3505  1.7705
 5651SOL     OW28414   0.145   4.234  13.517 -0.1000 -0.3001  0.1324
 5651SOL    HW128415   0.205   4.199  13.583 -0.4545 -0.4595  0.3664
 5651SOL    HW228416   0.067   4.198  13.559 -1.0692  0.0540 -1.3474
 5652SOL     OW28417   4.306   1.033   2.314 -0.1441  0.0109  0.2070
 5652SOL    HW128418   4.399   1.015   2.304 -0.2497 -0.2645 -0.2872
 5652SOL    HW228419   4.292   1.068   2.402  0.4130  0.2796  0.1877
 5653SOL     OW28420   1.610   4.689   8.625  0.7250  0.2529  0.7436
 5653SOL    HW128421   1.653   0.013   8.695 -2.8810  1.2437  2.2062
 5653SOL    HW228422   1.517   4.711   8.626  1.2271  2.4098 -1.1760
 5654SOL     OW28423   2.988   2.009   0.769  0.1031  0.0543  0.6665
 5654SOL    HW128424   2.950   2.069   0.832 -0.5895 -0.1864  0.4860
 5654SOL    HW228425   2.929   2.004   0.693  0.2061 -1.6596  0.7042
 5655SOL     OW28426   4.328   4.260   5.357  0.0338  0.2048 -0.0081
 5655SOL    HW128427   4.322   4.166   5.340 -1.4593  0.3413 -0.3029
 5655SOL    HW228428   4.276   4.297   5.285 -0.3811 -0.3648 -0.0054
 5656SOL     OW28429   3.043   2.134   6.521  0.0936  0.2896  0.4760
 5656SOL    HW128430   3.081   2.205   6.572  0.3736  1.0782 -0.8070
 5656SOL    HW228431   3.064   2.166   6.433 -0.2938  0.8510  0.5868
 5657SOL     OW28432   0.031   4.336   2.504 -0.1463 -0.1755  0.4936
 5657SOL    HW128433   4.691   4.269   2.485  0.7237 -1.0907  0.7203
 5657SOL    HW228434   4.722   4.382   2.580  1.2097 -0.9632  1.5855
 5658SOL     OW28435   4.112   2.154   4.171  0.8590 -0.3947 -0.0297
 5658SOL    HW128436   4.078   2.176   4.258  2.6417 -0.3733  0.6622
 5658SOL    HW228437   4.089   2.233   4.123 -0.2590  0.2187  1.5220
 5659SOL     OW28438   3.932   2.124  14.746  0.6862 -0.0488 -0.4442
 5659SOL    HW128439   3.921   2.189  14.676 -3.0907 -0.4893 -0.2347
 5659SOL    HW228440   3.936   2.187  14.818  0.5553 -0.6061  0.0473
 5660SOL     OW28441   0.833   2.363  11.005 -0.1212  0.3840 -0.1311
 5660SOL    HW128442   0.740   2.368  11.030 -0.4738  2.7578 -1.9503
 5660SOL    HW228443   0.862   2.280  11.042 -0.6960  0.7735  1.1885
 5661SOL     OW28444   0.329   2.586  12.416  0.5333 -0.0025 -0.0356
 5661SOL    HW128445   0.383   2.664  12.403  1.8911 -0.8708  0.3781
 5661SOL    HW228446   0.350   2.542  12.333 -0.5430 -0.5152 -0.0378
 5662SOL     OW28447   3.667   1.286  15.234  0.1963 -0.0658 -0.0470
 5662SOL    HW128448   3.611   1.309  15.160  0.0259  2.0326  0.7319
 5662SOL    HW228449   3.638   1.350  15.299  0.5603  1.0735 -1.0052
 5663SOL     OW28450   2.503   3.646   6.452 -0.1951  1.0739 -0.2968
 5663SOL    HW128451   2.419   3.620   6.414 -0.2223  2.1461 -0.9788
 5663SOL    HW228452   2.566   3.594   6.403  1.1896  2.3488  0.1366
 5664SOL     OW28453   2.829   3.409   4.620  0.0876  0.0576  0.1311
 5664SOL    HW128454   2.757   3.439   4.675  0.1238 -0.3446  0.3934
 5664SOL    HW228455   2.799   3.326   4.583 -0.3282 -0.1025  0.8249
 5665SOL     OW28456   0.870   3.626   5.056 -0.0643  0.2853 -0.0971
 5665SOL    HW128457   0.923   3.658   5.129 -0.3681  1.4412 -0.3821
 5665SOL    HW228458   0.795   3.687   5.057  0.9436  1.5385 -0.3433
 5666SOL     OW28459   2.443   1.541   0.315 -0.1667 -0.1898 -0.4164
 5666SOL    HW128460   2.384   1.617   0.308  1.1320  0.5859 -2.7855
 5666SOL    HW228461   2.417   1.493   0.237  1.0188 -1.0883 -0.2611
 5667SOL     OW28462   2.830   0.446  16.736 -0.5082 -0.1325  0.2076
 5667SOL    HW128463   2.924   0.464  16.740 -0.2573 -0.8929 -2.5809
 5667SOL    HW228464   2.804   0.504  16.664 -0.4208 -0.3424  0.0075
 5668SOL     OW28465   2.338   4.272   9.635 -0.1759  0.1883 -0.3888
 5668SOL    HW128466   2.403   4.240   9.572  1.0153  1.1849  0.3363
 5668SOL    HW228467   2.377   4.267   9.722  1.3359 -0.7849 -1.1128
 5669SOL     OW28468   2.313   4.555   3.115 -0.3168  0.1263  0.1689
 5669SOL    HW128469   2.348   4.636   3.152 -0.8996  1.1464 -1.5654
 5669SOL    HW228470   2.339   4.554   3.023  1.3776  1.7395  0.6203
 5670SOL     OW28471   3.153   1.886   7.900 -0.1527  0.8089  0.1750
 5670SOL    HW128472   3.099   1.964   7.893 -1.9981 -0.3874  0.9039
 5670SOL    HW228473   3.173   1.882   7.993  2.7848 -2.0535 -0.5869
 5671SOL     OW28474   0.593   3.377   3.875 -0.5043  0.6165  0.0555
 5671SOL    HW128475   0.520   3.439   3.868 -1.1871  0.0116  1.8685
 5671SOL    HW228476   0.543   3.297   3.891 -1.5227  0.7775 -2.3178
 5672SOL     OW28477   0.747   2.542  11.633  0.2921 -0.4469  0.0381
 5672SOL    HW128478   0.745   2.453  11.667 -0.0150 -0.7825 -0.8472
 5672SOL    HW228479   0.807   2.545  11.559  0.4319 -0.2544  0.1587
 5673SOL     OW28480   3.552   0.134   1.448 -0.0094 -0.3020  0.0246
 5673SOL    HW128481   3.593   0.211   1.489 -1.8342  0.8212 -0.2225
 5673SOL    HW228482   3.534   0.149   1.355 -1.8857  0.8053  0.5468
 5674SOL     OW28483   1.390   0.050  15.012  0.6707 -0.4852 -0.1882
 5674SOL    HW128484   1.405   0.037  15.106 -0.9829  0.5561  0.2157
 5674SOL    HW228485   1.349   0.136  15.011  3.1231  0.6705 -0.9730
 5675SOL     OW28486   4.139   3.256   8.449 -0.8587 -0.2695 -0.0991
 5675SOL    HW128487   4.199   3.328   8.428 -1.1611  0.4697  1.5697
 5675SOL    HW228488   4.078   3.263   8.376  0.6281  0.8585 -1.2296
 5676SOL     OW28489   2.286   3.421   5.101 -0.2847 -0.2193  0.3829
 5676SOL    HW128490   2.344   3.387   5.033  0.2253 -0.1328  0.7736
 5676SOL    HW228491   2.341   3.484   5.147 -0.2945 -1.0824  1.5737
 5677SOL     OW28492   2.276   4.342   4.948  0.1037  0.0781  0.0406
 5677SOL    HW128493   2.277   4.372   5.039  0.6401  2.5281 -0.7873
 5677SOL    HW228494   2.366   4.309   4.945 -0.1518 -0.5862 -0.3854
 5678SOL     OW28495   0.740   0.612   6.197 -0.4393  0.5776  0.3560
 5678SOL    HW128496   0.761   0.553   6.271 -0.9841  1.3110  1.0858
 5678SOL    HW228497   0.762   0.566   6.116 -1.2153  0.6892  0.0858
 5679SOL     OW28498   4.336   0.441  11.983  0.0649  0.2122  0.4534
 5679SOL    HW128499   4.318   0.530  12.016 -0.7393  0.0074  0.5716
 5679SOL    HW228500   4.430   0.448  11.968  0.2693 -3.2656  0.0859
 5680SOL     OW28501   1.496   4.709  12.410  0.0197  0.5580 -0.1386
 5680SOL    HW128502   1.410   4.668  12.419  1.4342 -1.9481  1.6638
 5680SOL    HW228503   1.489   0.074  12.440 -2.1428  0.2096  0.3928
 5681SOL     OW28504   0.608   0.239  15.319 -0.2426 -0.4046  0.8005
 5681SOL    HW128505   0.675   0.277  15.376  0.9979  0.6860 -1.4021
 5681SOL    HW228506   0.558   0.319  15.301  0.2568 -0.4387 -0.7057
 5682SOL     OW28507   1.157   3.321  13.206  0.3104  0.0086  0.6218
 5682SOL    HW128508   1.112   3.349  13.285 -3.5467  0.6379 -1.7843
 5682SOL    HW228509   1.245   3.304  13.240  0.3776 -2.2957 -0.6620
 5683SOL     OW28510   3.140   1.867   3.819 -1.2131  0.2746 -0.0725
 5683SOL    HW128511   3.162   1.800   3.884 -1.3831  0.1554 -0.1374
 5683SOL    HW228512   3.063   1.822   3.785 -2.1542  1.1273  0.9277
 5684SOL     OW28513   4.343   3.724   6.080  0.3288  0.0785 -0.0968
 5684SOL    HW128514   4.392   3.788   6.029  2.2521 -2.0258 -0.9045
 5684SOL    HW228515   4.412   3.662   6.103  3.1449  2.2650 -2.5879
 5685SOL     OW28516   3.479   1.141  10.924 -0.0556  0.1813 -0.2333
 5685SOL    HW128517   3.535   1.213  10.953 -1.1758  0.6607  0.7673
 5685SOL    HW228518   3.434   1.180  10.848  0.9859  1.4400 -0.1930
 5686SOL     OW28519   3.372   1.281   6.113 -0.3273 -0.1402 -0.2873
 5686SOL    HW128520   3.280   1.288   6.138 -0.7005 -2.4064 -1.0283
 5686SOL    HW228521   3.350   1.208   6.055  2.0556 -1.2700  0.2167
 5687SOL     OW28522   2.303   2.423   8.114 -0.6075  0.4595  0.2414
 5687SOL    HW128523   2.330   2.513   8.127  0.3450  0.3775 -1.1669
 5687SOL    HW228524   2.208   2.424   8.124 -0.5190 -2.1827  1.5804
 5688SOL     OW28525   3.936   2.667   7.055  0.2944  0.1922 -0.0053
 5688SOL    HW128526   3.863   2.722   7.027 -2.2177 -3.1132  0.1626
 5688SOL    HW228527   3.891   2.611   7.118 -0.0455  0.2807 -0.1718
 5689SOL     OW28528   0.379   1.914   7.737  0.2955 -0.1218 -0.0471
 5689SOL    HW128529   0.294   1.907   7.781  0.9054 -2.2581  0.7657
 5689SOL    HW228530   0.344   1.940   7.652  0.7355 -2.8112 -1.0561
 5690SOL     OW28531   2.367   2.974   8.719  0.4961  0.1969  0.1434
 5690SOL    HW128532   2.421   2.929   8.654  0.7379  2.2189 -1.0640
 5690SOL    HW228533   2.413   2.956   8.801 -0.1929  0.2603  0.5496
 5691SOL     OW28534   0.938   4.023   3.032 -0.1148  0.1163  0.2612
 5691SOL    HW128535   1.008   3.974   2.989  0.5281  1.8629 -0.6810
 5691SOL    HW228536   0.946   4.109   2.990  1.9095 -0.2323 -0.0839
 5692SOL     OW28537   2.463   1.829   2.547  0.0667 -0.6942  0.0208
 5692SOL    HW128538   2.421   1.887   2.484 -2.3284 -1.9937  0.4043
 5692SOL    HW228539   2.553   1.814   2.516 -0.0019 -2.0125  0.4614
 5693SOL     OW28540   0.266   0.996   1.563  0.5230  0.0303 -0.7488
 5693SOL    HW128541   0.233   0.936   1.630 -0.0761 -2.3411 -3.1723
 5693SOL    HW228542   0.185   1.047   1.559 -1.0401 -2.2715  1.2191
 5694SOL     OW28543   0.738   3.919  14.785  0.2739  0.4815  0.2501
 5694SOL    HW128544   0.797   3.929  14.710 -0.6374  0.0907 -0.5154
 5694SOL    HW228545   0.652   3.908  14.745  0.9614 -3.6757 -0.0904
 5695SOL     OW28546   2.677   2.276   7.308  0.6653 -0.6338 -0.1951
 5695SOL    HW128547   2.642   2.187   7.315 -3.1119  0.7251 -1.5493
 5695SOL    HW228548   2.729   2.275   7.228  2.9368 -0.2339  1.2908
 5696SOL     OW28549   2.601   3.432   6.670  0.4331  0.5327 -0.2757
 5696SOL    HW128550   2.511   3.408   6.648 -0.1869  1.1575  1.6012
 5696SOL    HW228551   2.654   3.368   6.622  0.9241 -1.9201  3.5359
 5697SOL     OW28552   2.563   0.607  11.160  0.9005  0.2745 -0.6403
 5697SOL    HW128553   2.637   0.667  11.146  2.7431 -1.6831  0.7835
 5697SOL    HW228554   2.492   0.668  11.139  1.6467  1.5650  0.5984
 5698SOL     OW28555   1.049   4.716   5.461 -0.4628  0.3915  0.0004
 5698SOL    HW128556   1.051   4.635   5.410  1.0270  0.2662  0.2552
 5698SOL    HW228557   1.139   4.716   5.493  0.4046 -2.0617 -2.3581
 5699SOL     OW28558   0.025   1.624   6.588  0.2747  1.0199  0.1448
 5699SOL    HW128559   4.692   1.614   6.663  0.5871  0.0497  0.2635
 5699SOL    HW228560   0.042   1.532   6.570  0.0073  0.9226  0.3878
 5700SOL     OW28561   4.240   1.835   3.933 -0.2216  0.4489 -0.4256
 5700SOL    HW128562   4.289   1.911   3.903  2.9504 -1.3834  0.1381
 5700SOL    HW228563   4.280   1.833   4.020  0.5500  1.4505 -0.7548
 5701SOL     OW28564   4.567   3.311   0.827  0.5524 -0.0190  0.0404
 5701SOL    HW128565   4.557   3.379   0.894  0.9030 -1.2336  1.3278
 5701SOL    HW228566   4.656   3.280   0.847 -0.1922 -1.1200  1.7290
 5702SOL     OW28567   2.816   1.304   4.377  0.7260  0.4945  0.4944
 5702SOL    HW128568   2.791   1.281   4.287 -1.8325  1.5159  0.9684
 5702SOL    HW228569   2.826   1.399   4.374  1.9121  0.3427 -0.9232
 5703SOL     OW28570   3.175   4.162   3.122 -0.0453  0.6911 -0.0808
 5703SOL    HW128571   3.159   4.086   3.067  2.6661 -0.4992  0.7675
 5703SOL    HW228572   3.088   4.174   3.159  0.0395 -1.7899  0.9045
 5704SOL     OW28573   0.137   3.384   8.689 -0.1951 -0.1410  0.0974
 5704SOL    HW128574   0.132   3.343   8.775  1.6451  1.1605  0.8162
 5704SOL    HW228575   0.194   3.460   8.701 -2.1693  1.5877 -1.4071
 5705SOL     OW28576   2.814   1.233   1.722 -0.2090 -0.4000 -0.1996
 5705SOL    HW128577   2.868   1.231   1.801  2.0515  1.2672 -1.7111
 5705SOL    HW228578   2.780   1.144   1.715  2.4202 -1.4334  0.0038
 5706SOL     OW28579   2.889   4.186  11.653 -0.0781 -0.1210 -0.1307
 5706SOL    HW128580   2.803   4.146  11.645 -0.1763 -0.2112  1.3150
 5706SOL    HW228581   2.922   4.171  11.741 -0.9323 -1.2163 -0.0028
 5707SOL     OW28582   1.412   1.725   5.340  0.1687 -0.0787 -0.1980
 5707SOL    HW128583   1.345   1.684   5.395  1.1349 -0.2506  0.8394
 5707SOL    HW228584   1.450   1.652   5.290 -0.8160 -1.0647  0.4950
 5708SOL     OW28585   4.010   4.355   7.353 -0.6903 -0.2474  0.1150
 5708SOL    HW128586   4.081   4.394   7.301 -2.5880  2.1208 -0.6977
 5708SOL    HW228587   4.024   4.399   7.436  1.1415 -0.0865 -0.2683
 5709SOL     OW28588   0.343   0.606   6.489 -0.1684  0.0425  0.1006
 5709SOL    HW128589   0.436   0.586   6.497 -0.2045 -0.9241 -2.0033
 5709SOL    HW228590   0.313   0.528   6.442 -0.0844 -0.0756  0.2428
 5710SOL     OW28591   4.196   0.326   5.540  0.4021 -0.2999  0.2515
 5710SOL    HW128592   4.205   0.239   5.502  0.2082 -0.5976  0.8899
 5710SOL    HW228593   4.144   0.305   5.617  0.4642  1.0926  0.6734
 5711SOL     OW28594   0.369   4.102  16.481 -0.0113  0.3770  0.6022
 5711SOL    HW128595   0.454   4.138  16.507  1.0472 -2.5439  1.2437
 5711SOL    HW228596   0.339   4.076  16.569 -0.5333 -1.1157 -0.0237
 5712SOL     OW28597   1.940   3.226  15.081  0.0710 -0.0025 -0.8769
 5712SOL    HW128598   2.035   3.228  15.079  0.0629  0.4785 -0.9119
 5712SOL    HW228599   1.935   3.192  15.170 -3.8817  0.4218 -0.9484
 5713SOL     OW28600   2.093   1.808   3.670 -0.2298 -0.0993 -0.6301
 5713SOL    HW128601   2.043   1.824   3.750 -1.5252  0.8232 -1.6348
 5713SOL    HW228602   2.041   1.851   3.603 -1.7594 -0.8876  0.0508
 5714SOL     OW28603   2.129   0.712  13.580 -0.1370 -0.4117 -0.0854
 5714SOL    HW128604   2.169   0.649  13.520  0.3055  0.3123 -0.5557
 5714SOL    HW228605   2.116   0.660  13.659 -1.4150 -2.9711 -1.9646
 5715SOL     OW28606   2.658   1.869   8.576 -0.1937 -0.1925 -0.5799
 5715SOL    HW128607   2.666   1.778   8.604 -1.4701 -0.0146  0.3744
 5715SOL    HW228608   2.714   1.866   8.499  0.6164 -1.0107  0.0474
 5716SOL     OW28609   2.191   3.474   3.531 -0.5017 -0.5315 -0.2961
 5716SOL    HW128610   2.237   3.392   3.516  2.2223  1.0678 -0.7551
 5716SOL    HW228611   2.097   3.468   3.514 -0.6067  0.2871 -0.0372
 5717SOL     OW28612   3.310   1.185   1.974  0.3098  0.9803 -0.0937
 5717SOL    HW128613   3.342   1.212   1.888 -0.4135 -0.3605 -0.7821
 5717SOL    HW228614   3.390   1.153   2.015 -0.6078 -0.7264  0.3727
 5718SOL     OW28615   3.332   3.551  16.570  0.6968  0.6756  0.5160
 5718SOL    HW128616   3.377   3.634  16.585  1.8798  0.1663 -0.2650
 5718SOL    HW228617   3.407   3.494  16.558 -0.2304 -0.5367  0.5314
 5719SOL     OW28618   4.308   2.526   8.731 -0.4498 -0.2702  0.0547
 5719SOL    HW128619   4.324   2.594   8.796 -2.1042 -0.4328  0.6335
 5719SOL    HW228620   4.227   2.491   8.768  0.5303 -0.4828  1.9786
 5720SOL     OW28621   3.433   3.162   3.940  0.1860  0.0279  0.2458
 5720SOL    HW128622   3.410   3.201   4.025  0.3512  0.0113  0.2983
 5720SOL    HW228623   3.500   3.223   3.909 -1.5519  1.0957 -1.4278
 5721SOL     OW28624   4.637   1.462   7.175 -0.0422  0.0313 -0.6844
 5721SOL    HW128625   4.606   1.442   7.087 -0.7261 -0.5814 -0.3037
 5721SOL    HW228626   4.571   1.525   7.203 -1.3288 -0.3548 -2.8403
 5722SOL     OW28627   1.136   3.259   3.197 -0.2847  0.1181 -0.2003
 5722SOL    HW128628   1.105   3.306   3.120  1.4432  0.8309 -0.4637
 5722SOL    HW228629   1.229   3.245   3.177 -0.2433 -1.1222  0.8247
 5723SOL     OW28630   0.379   4.566  13.062  0.3294  0.4217 -0.0706
 5723SOL    HW128631   0.402   4.550  13.154  0.6351 -0.1040 -0.2374
 5723SOL    HW228632   0.466   4.592  13.031  0.7127 -0.9569 -0.1475
 5724SOL     OW28633   3.038   1.847   4.280 -0.1479  0.2603  0.3915
 5724SOL    HW128634   3.109   1.911   4.282  0.3511 -0.2513 -0.9877
 5724SOL    HW228635   2.983   1.852   4.358  0.1594 -0.0864  0.6255
 5725SOL     OW28636   4.671   4.489   9.762 -0.8019  0.3204  0.5073
 5725SOL    HW128637   4.640   4.411   9.807 -0.2366  1.7070  3.2868
 5725SOL    HW228638   0.016   4.521   9.818  0.2015 -0.9864 -0.0094
 5726SOL     OW28639   3.798   2.592   5.239  0.1338 -0.0468  0.2319
 5726SOL    HW128640   3.883   2.551   5.224 -1.1767 -2.8680  0.6125
 5726SOL    HW228641   3.815   2.672   5.189  1.3165 -0.9201 -0.7650
 5727SOL     OW28642   4.532   1.041   7.509 -0.1019  0.3251 -0.0378
 5727SOL    HW128643   4.450   1.089   7.522 -2.0043 -2.4879 -1.5114
 5727SOL    HW228644   4.509   1.014   7.420  0.2741  0.0256 -0.0414
 5728SOL     OW28645   4.228   2.853  12.925  0.4840  0.5080 -0.2746
 5728SOL    HW128646   4.153   2.822  12.875 -0.0088 -0.9961  1.3931
 5728SOL    HW228647   4.186   2.911  12.989 -0.1034  0.2498 -0.4264
 5729SOL     OW28648   3.241   2.253   3.521 -0.1278  0.4797  0.3121
 5729SOL    HW128649   3.296   2.307   3.464  0.8638  1.0584  1.8155
 5729SOL    HW228650   3.252   2.294   3.607  0.4345  1.8934 -0.4315
 5730SOL     OW28651   0.955   4.563   4.656  0.4112 -0.0052 -0.2435
 5730SOL    HW128652   0.945   4.627   4.586  3.4865  0.8524  0.1179
 5730SOL    HW228653   0.967   4.480   4.610  0.9620  0.2736 -0.6053
 5731SOL     OW28654   0.074   0.531  16.602  0.0913 -0.6980 -0.4616
 5731SOL    HW128655   0.133   0.575  16.663 -0.8897  0.8937 -0.6502
 5731SOL    HW228656   0.118   0.446  16.599  3.0619  0.8469 -0.2945
 5732SOL     OW28657   4.546   2.847  13.489  0.5117  0.2363 -0.2526
 5732SOL    HW128658   4.470   2.869  13.434  0.5977  2.8534  0.6541
 5732SOL    HW228659   4.613   2.853  13.422  0.4442 -0.8664 -0.4196
 5733SOL     OW28660   3.965   4.424   6.063 -0.2042  0.9018  0.5603
 5733SOL    HW128661   4.046   4.474   6.057  0.4741  0.3005  5.0770
 5733SOL    HW228662   3.994   4.355   6.122 -0.4211 -0.2336 -0.6598
 5734SOL     OW28663   2.954   4.290  14.534  0.5079 -0.1459 -0.3359
 5734SOL    HW128664   2.999   4.372  14.555 -0.5061  0.8319 -1.9730
 5734SOL    HW228665   3.000   4.229  14.591 -0.2678 -0.1495  0.2838
 5735SOL     OW28666   3.293   3.253  11.024  0.7212 -0.4784 -0.1230
 5735SOL    HW128667   3.217   3.233  11.079  0.0074  1.1744 -0.5225
 5735SOL    HW228668   3.255   3.318  10.964  1.3190  0.3379  0.3983
 5736SOL     OW28669   2.327   2.759   3.941  0.0191  0.4281 -0.3483
 5736SOL    HW128670   2.310   2.772   3.847  2.8335  2.3978 -0.5907
 5736SOL    HW228671   2.421   2.772   3.954 -0.0885  0.4625  0.3598
 5737SOL     OW28672   3.441   3.061  15.728 -0.4239  0.4328  0.4578
 5737SOL    HW128673   3.361   3.020  15.697  0.6131 -0.4641 -0.9995
 5737SOL    HW228674   3.424   3.155  15.727 -0.3620  0.4277 -1.0787
 5738SOL     OW28675   2.022   1.566   5.385  0.0205 -0.0671  0.2709
 5738SOL    HW128676   1.995   1.507   5.455  1.3264 -0.1476  0.7179
 5738SOL    HW228677   1.983   1.517   5.313 -1.8021  2.7531 -0.6661
 5739SOL     OW28678   3.611   1.599   8.659 -0.8213  0.0697  0.2333
 5739SOL    HW128679   3.542   1.663   8.642  0.0075  0.7711 -0.5150
 5739SOL    HW228680   3.558   1.538   8.711 -0.5480 -2.5828 -2.6027
 5740SOL     OW28681   4.198   0.774   5.171 -0.3762  0.0842 -0.2606
 5740SOL    HW128682   4.257   0.746   5.241  2.0443 -1.4045 -2.9023
 5740SOL    HW228683   4.185   0.869   5.179  4.9293  0.8532 -0.8134
 5741SOL     OW28684   1.229   4.034  11.281  0.0011 -0.5236 -0.0425
 5741SOL    HW128685   1.183   4.091  11.219  0.4854 -1.4682 -1.2618
 5741SOL    HW228686   1.288   4.090  11.331  0.4267  0.4878 -1.6826
 5742SOL     OW28687   3.148   2.458   7.954 -0.3781 -0.2996  0.2782
 5742SOL    HW128688   3.180   2.464   8.043  1.4754 -1.3020 -0.3299
 5742SOL    HW228689   3.110   2.370   7.960 -0.8328 -0.1816 -0.7666
 5743SOL     OW28690   4.344   0.035  13.204 -0.3528  0.1066 -0.5716
 5743SOL    HW128691   4.367   4.669  13.217  0.0788  0.5631  1.8769
 5743SOL    HW228692   4.387   0.058  13.122  0.1664  0.8531 -0.0882
 5744SOL     OW28693   2.501   0.056   8.981 -0.2683  0.8065  0.3838
 5744SOL    HW128694   2.463   0.134   8.942 -2.5194 -0.4503  0.0846
 5744SOL    HW228695   2.579   0.100   9.015  1.4766 -0.1331 -2.4007
 5745SOL     OW28696   2.460   0.531   9.118 -0.7320  0.0715  0.2905
 5745SOL    HW128697   2.487   0.604   9.063 -1.6181  0.8108  0.8347
 5745SOL    HW228698   2.542   0.482   9.120  1.2060  3.3184 -0.5720
 5746SOL     OW28699   0.400   2.262   7.818  0.0485  0.1620 -0.1276
 5746SOL    HW128700   0.457   2.327   7.859  2.4949 -1.5144 -0.8186
 5746SOL    HW228701   0.329   2.256   7.881  1.1081  1.1270  1.1512
 5747SOL     OW28702   1.147   2.679   3.299  0.1589 -0.1578 -0.2601
 5747SOL    HW128703   1.093   2.709   3.226  2.3522 -0.1166 -1.8486
 5747SOL    HW228704   1.116   2.734   3.371  1.0861 -0.1925  0.1681
 5748SOL     OW28705   3.038   4.638  13.576 -0.9373 -0.3082 -0.1452
 5748SOL    HW128706   3.095   4.664  13.648  0.5036 -1.3468 -0.9181
 5748SOL    HW228707   3.061   4.706  13.512 -3.0846  0.1633 -0.4304
 5749SOL     OW28708   1.503   4.271   8.826  0.1229  0.2150 -0.2401
 5749SOL    HW128709   1.455   4.220   8.891  1.3300 -1.3895 -0.5993
 5749SOL    HW228710   1.517   4.356   8.868 -3.5820 -0.6690  2.8324
 5750SOL     OW28711   3.609   1.588   2.442  0.2027  0.0839 -0.2963
 5750SOL    HW128712   3.681   1.539   2.403  1.5687  0.4347  1.7665
 5750SOL    HW228713   3.656   1.620   2.518  0.7638 -0.9950 -0.1804
 5751SOL     OW28714   3.504   0.156   4.245  0.5005  0.3394 -0.2096
 5751SOL    HW128715   3.450   0.221   4.200  0.9206  0.3414 -0.7092
 5751SOL    HW228716   3.516   0.106   4.164 -0.9522 -1.0545  0.4174
 5752SOL     OW28717   2.612   1.800   0.236  0.1713  0.8653 -0.2650
 5752SOL    HW128718   2.630   1.707   0.221 -1.9733 -0.1178  3.4186
 5752SOL    HW228719   2.568   1.823   0.154 -1.2794 -2.7453 -0.4958
 5753SOL     OW28720   3.355   0.719   8.875  0.0647  0.3205  0.3012
 5753SOL    HW128721   3.338   0.728   8.969 -0.9081  0.7088  0.0900
 5753SOL    HW228722   3.400   0.635   8.879  0.8337  0.7359  0.3927
 5754SOL     OW28723   4.193   0.254  14.859  0.0927 -0.2238  0.1944
 5754SOL    HW128724   4.209   0.169  14.901 -0.9538 -1.2423 -1.4793
 5754SOL    HW228725   4.211   0.308  14.936  1.5582  0.5455 -0.7031
 5755SOL     OW28726   2.493   0.018   2.061 -0.5533 -0.6045 -0.4597
 5755SOL    HW128727   2.547   4.690   2.003 -2.1333  0.0286 -2.5171
 5755SOL    HW228728   2.423   0.047   2.003  0.9970  3.1523 -0.4727
 5756SOL     OW28729   1.624   2.188  12.005  0.0846 -0.2500 -1.0282
 5756SOL    HW128730   1.621   2.283  12.013 -0.1169 -0.1163 -2.6907
 5756SOL    HW228731   1.636   2.183  11.910  0.0823 -1.0645 -0.9895
 5757SOL     OW28732   0.451   0.296   8.286 -0.3459 -0.3013 -0.4791
 5757SOL    HW128733   0.488   0.338   8.208 -0.8957 -0.3842 -0.7924
 5757SOL    HW228734   0.359   0.284   8.260 -0.1109 -0.0017 -1.4543
 5758SOL     OW28735   0.013   3.860   5.107 -0.0202  0.1704  0.1496
 5758SOL    HW128736   0.011   3.805   5.029  0.1312 -0.6450  0.7197
 5758SOL    HW228737   0.017   3.948   5.071  0.0989  0.7475  1.5602
 5759SOL     OW28738   0.861   1.140   8.574 -0.3225  0.3747  0.7134
 5759SOL    HW128739   0.828   1.050   8.576 -0.0227  0.2684  0.9308
 5759SOL    HW228740   0.827   1.183   8.653  0.6023 -0.0814  1.3536
 5760SOL     OW28741   2.462   1.996   8.782 -0.1029 -0.2110  0.1336
 5760SOL    HW128742   2.525   1.974   8.714 -0.5411  2.9934 -1.3040
 5760SOL    HW228743   2.525   2.007   8.853 -1.1276  1.6103  0.7760
 5761SOL     OW28744   0.598   2.614   1.264 -0.2297 -0.2727  0.4717
 5761SOL    HW128745   0.693   2.613   1.253 -0.3882  3.0763 -1.1834
 5761SOL    HW228746   0.597   2.540   1.324 -1.0951 -0.9272 -0.3461
 5762SOL     OW28747   1.137   1.158   5.433 -0.0116  0.1087  0.1895
 5762SOL    HW128748   1.054   1.144   5.386 -0.4176  2.5263  0.1812
 5762SOL    HW228749   1.168   1.229   5.376 -0.9418  0.8847  0.6411
 5763SOL     OW28750   1.716   2.879   2.044  0.5625 -0.5476 -0.1673
 5763SOL    HW128751   1.667   2.918   1.971  1.3531 -0.9290 -0.8956
 5763SOL    HW228752   1.643   2.876   2.106 -0.4593 -1.3447 -1.3824
 5764SOL     OW28753   2.782   0.367  11.581 -0.0269 -0.1813 -0.3971
 5764SOL    HW128754   2.789   0.442  11.522  1.5519  0.4794  0.6016
 5764SOL    HW228755   2.698   0.383  11.624 -0.1073 -1.2176 -0.1659
 5765SOL     OW28756   2.427   4.062   2.621 -0.3573 -0.7233  0.6555
 5765SOL    HW128757   2.338   4.097   2.610 -0.0859 -0.8913 -1.9552
 5765SOL    HW228758   2.414   4.007   2.698  0.0898 -1.5402  0.1469
 5766SOL     OW28759   0.516   0.479   4.350 -0.4128  0.6274  0.2095
 5766SOL    HW128760   0.491   0.387   4.339 -1.1660  0.9953 -1.1393
 5766SOL    HW228761   0.453   0.527   4.404 -1.1005 -0.6496  0.5526
 5767SOL     OW28762   3.325   3.388   7.696 -0.1275  0.0199  0.1822
 5767SOL    HW128763   3.322   3.407   7.790 -1.6674 -1.5343  0.4364
 5767SOL    HW228764   3.258   3.320   7.692  0.2454 -0.4825  2.8415
 5768SOL     OW28765   2.733   1.228   5.322 -0.5710  0.3844  0.3488
 5768SOL    HW128766   2.721   1.322   5.338  1.8075  0.5462  1.1232
 5768SOL    HW228767   2.790   1.205   5.395 -0.0084  1.5554  0.2857
 5769SOL     OW28768   3.480   4.575   8.412 -0.5886  0.0287  0.0711
 5769SOL    HW128769   3.417   4.575   8.484  0.1192 -3.3913  0.6991
 5769SOL    HW228770   3.496   4.481   8.410 -2.2586 -0.2183 -1.7624
 5770SOL     OW28771   3.919   2.125   2.525 -0.3311  0.6285 -0.1200
 5770SOL    HW128772   3.945   2.217   2.524  0.8268  0.2970  0.5578
 5770SOL    HW228773   3.966   2.082   2.453 -0.2764 -1.7147  1.3140
 5771SOL     OW28774   2.752   1.870   8.316  0.3715  0.5922 -0.6398
 5771SOL    HW128775   2.680   1.897   8.260 -1.5341 -2.4030  0.3497
 5771SOL    HW228776   2.820   1.931   8.288 -0.2329  1.1624 -0.8563
 5772SOL     OW28777   1.787   0.394  14.552 -0.1265 -0.2280 -0.2297
 5772SOL    HW128778   1.850   0.460  14.526  0.6793 -0.9981 -0.2268
 5772SOL    HW228779   1.837   0.315  14.530 -0.6270 -0.2469 -1.3057
 5773SOL     OW28780   3.148   1.618   0.923 -0.0820 -0.4441  0.1396
 5773SOL    HW128781   3.061   1.652   0.903 -0.3663 -0.8866  0.6171
 5773SOL    HW228782   3.129   1.524   0.922  1.1136 -0.6991  2.2548
 5774SOL     OW28783   0.715   2.258   0.265  0.5829  0.3826  0.4753
 5774SOL    HW128784   0.743   2.349   0.277 -0.4702  0.7637  0.1420
 5774SOL    HW228785   0.783   2.220   0.320 -1.1373  1.1719  3.1285
 5775SOL     OW28786   2.570   4.355   3.633 -0.1367  0.3002 -0.2119
 5775SOL    HW128787   2.665   4.346   3.638 -0.3076 -0.9761  0.7532
 5775SOL    HW228788   2.552   4.263   3.615  1.1200 -0.3950  2.0661
 5776SOL     OW28789   2.859   2.615   7.443  0.1969  0.1274 -0.6254
 5776SOL    HW128790   2.943   2.629   7.399  0.7226 -2.6965 -0.4761
 5776SOL    HW228791   2.843   2.522   7.431 -1.0870 -0.0150  2.1982
 5777SOL     OW28792   1.945   0.897   0.332  0.0634  0.2789  0.2765
 5777SOL    HW128793   1.967   0.804   0.328 -1.7193 -0.2178  1.7079
 5777SOL    HW228794   1.855   0.898   0.365  0.4623  2.8736  1.3102
 5778SOL     OW28795   4.451   0.943   5.776 -0.1641  0.2187 -0.5883
 5778SOL    HW128796   4.430   1.013   5.838  4.1853 -1.3089  2.5892
 5778SOL    HW228797   4.366   0.941   5.731 -1.1874 -2.1961  1.4716
 5779SOL     OW28798   2.604   2.861  14.649  0.3527  0.2105  0.1936
 5779SOL    HW128799   2.529   2.802  14.657  1.2934 -1.2193 -1.6539
 5779SOL    HW228800   2.668   2.793  14.629  0.3253  0.0005  0.8091
 5780SOL     OW28801   3.985   3.691   8.638 -0.3488 -0.0447  0.7549
 5780SOL    HW128802   4.037   3.661   8.712 -0.4347 -0.7385  0.5303
 5780SOL    HW228803   3.916   3.747   8.673 -1.2237 -0.9314  0.4539
 5781SOL     OW28804   2.345   1.150  16.974  0.2081  0.8329  0.2465
 5781SOL    HW128805   2.417   1.151  17.036  0.6595 -0.0203 -0.2596
 5781SOL    HW228806   2.288   1.082  17.009 -0.7852  0.8903 -1.2253
 5782SOL     OW28807   1.525   1.111   8.608 -0.3725 -0.2395  0.3352
 5782SOL    HW128808   1.591   1.066   8.555  1.1722  1.9873  0.3757
 5782SOL    HW228809   1.564   1.197   8.624 -0.1276 -0.3262  0.2093
 5783SOL     OW28810   0.291   1.598  11.966  0.0789  0.1045 -0.1605
 5783SOL    HW128811   0.267   1.514  11.927  3.4754 -0.8752 -0.1025
 5783SOL    HW228812   0.348   1.638  11.901 -3.7064  1.0685 -2.8963
 5784SOL     OW28813   0.299   2.914   3.318 -0.0025 -0.8325  0.0534
 5784SOL    HW128814   0.313   3.004   3.347 -2.2486 -0.1573 -0.9007
 5784SOL    HW228815   0.337   2.876   3.396  0.8404  1.7549  0.9042
 5785SOL     OW28816   4.133   0.681   2.939  0.1970 -0.3381 -0.2194
 5785SOL    HW128817   4.117   0.753   2.878 -0.1331  1.7188  2.2866
 5785SOL    HW228818   4.110   0.729   3.019 -2.4255 -0.8154 -0.7008
 5786SOL     OW28819   4.547   3.054  15.229  0.3262 -0.2044 -0.1919
 5786SOL    HW128820   4.536   2.992  15.157 -4.1983  1.3850 -0.8090
 5786SOL    HW228821   4.504   3.004  15.299  0.4073 -1.3098 -0.9313
 5787SOL     OW28822   0.365   3.485   4.453  0.2185  0.0600  0.0460
 5787SOL    HW128823   0.329   3.567   4.488  0.4714  0.2159 -0.0610
 5787SOL    HW228824   0.286   3.441   4.422  0.6655 -1.0942  0.5244
 5788SOL     OW28825   4.493   0.085  17.337 -0.0765 -0.4408  1.2911
 5788SOL    HW128826   4.498   4.715  17.334 -1.2872 -0.4350 -1.0804
 5788SOL    HW228827   4.563   0.104  17.399  1.8838 -2.7441 -0.2183
 5789SOL     OW28828   1.050   2.827   0.819 -0.1650  0.0352 -0.2099
 5789SOL    HW128829   1.083   2.738   0.807  1.9169  0.7500  0.3138
 5789SOL    HW228830   1.037   2.862   0.731  0.3547  2.0060  0.4969
 5790SOL     OW28831   3.544   4.425   2.878 -0.6172  0.5087  0.2247
 5790SOL    HW128832   3.600   4.353   2.906 -0.7752  0.2861 -0.0309
 5790SOL    HW228833   3.457   4.385   2.889 -1.0311  0.4587 -3.1265
 5791SOL     OW28834   1.465   3.221   8.606  0.4415  0.1919 -0.0220
 5791SOL    HW128835   1.422   3.303   8.582 -0.6917 -0.7832 -1.3265
 5791SOL    HW228836   1.536   3.219   8.543  0.3442  1.1458 -0.1556
 5792SOL     OW28837   3.282   2.765   2.057 -0.8166  0.3440  0.0616
 5792SOL    HW128838   3.266   2.816   1.977 -1.1983  0.9256  0.5122
 5792SOL    HW228839   3.369   2.737   2.029 -0.9990 -0.2837  0.1165
 5793SOL     OW28840   0.395   0.252  16.825  0.2124  0.0345  0.8154
 5793SOL    HW128841   0.400   0.202  16.906  0.4556 -0.6472  0.3782
 5793SOL    HW228842   0.488   0.277  16.827  0.3395 -0.4852  1.3284
 5794SOL     OW28843   4.035   1.557   6.975  0.3303 -0.4552 -0.2811
 5794SOL    HW128844   4.082   1.630   6.935  0.3911 -0.7318 -0.7198
 5794SOL    HW228845   4.043   1.487   6.910  1.1820  0.5129 -1.2157
 5795SOL     OW28846   2.494   1.795   0.001 -0.3081 -0.1421  0.0855
 5795SOL    HW128847   2.528   1.708  17.682 -1.6657 -0.3815 -0.9731
 5795SOL    HW228848   2.402   1.786  17.681  0.1705 -4.2042 -0.3137
 5796SOL     OW28849   0.985   4.584   0.712 -0.6291 -0.0539 -0.0767
 5796SOL    HW128850   1.009   4.546   0.627  2.9471 -1.3191  1.4937
 5796SOL    HW228851   1.004   4.676   0.693  2.1627 -0.4386  0.7894
 5797SOL     OW28852   4.704   3.149   9.407  0.1876  0.1418 -0.4266
 5797SOL    HW128853   4.664   3.234   9.426  1.7687  0.4090  1.7869
 5797SOL    HW228854   4.635   3.108   9.356 -0.2540 -0.8634  0.9719
 5798SOL     OW28855   3.275   1.088   5.911  0.3392  0.2060  1.4873
 5798SOL    HW128856   3.212   1.017   5.900  0.7320  0.0921 -0.0099
 5798SOL    HW228857   3.310   1.100   5.823 -2.3658  1.6429  0.6121
 5799SOL     OW28858   1.010   3.836  16.357 -0.0633 -0.2928  0.0873
 5799SOL    HW128859   0.919   3.827  16.331  0.0972 -1.6552 -0.0444
 5799SOL    HW228860   0.990   3.889  16.434 -0.1148 -0.4741  0.2008
 5800SOL     OW28861   4.107   0.629   1.338  0.5299 -0.2581  0.1073
 5800SOL    HW128862   4.082   0.684   1.264 -0.5589  1.3583  1.6763
 5800SOL    HW228863   4.072   0.543   1.315 -2.5443  0.8813  0.6083
 5801SOL     OW28864   3.140   0.424   6.575 -0.0539 -0.4599  0.4446
 5801SOL    HW128865   3.119   0.512   6.544  1.2503 -1.6398 -3.8337
 5801SOL    HW228866   3.102   0.378   6.500 -1.1242 -1.8727  1.8728
 5802SOL     OW28867   0.985   0.007  12.453  0.3578 -0.6701 -0.1160
 5802SOL    HW128868   0.922   4.668  12.423  0.5922 -1.7273  1.6327
 5802SOL    HW228869   0.993   4.707  12.545 -1.2422 -1.0474 -0.0893
 5803SOL     OW28870   3.823   1.696   1.811  0.1043  0.3226 -0.0604
 5803SOL    HW128871   3.891   1.739   1.862  1.0222 -0.4210 -0.6543
 5803SOL    HW228872   3.859   1.607   1.816  0.1606  0.4352  1.7083
 5804SOL     OW28873   0.257   3.865  10.830  0.4946  0.1956  0.6294
 5804SOL    HW128874   0.164   3.844  10.816  0.3862  1.0350  0.0774
 5804SOL    HW228875   0.263   3.889  10.922 -0.2896  3.8723 -0.2593
 5805SOL     OW28876   2.815   0.448   5.620 -0.1142 -0.0416 -0.0366
 5805SOL    HW128877   2.861   0.509   5.676  0.6211  1.2748 -2.0913
 5805SOL    HW228878   2.822   0.366   5.669  0.6713 -0.9458 -1.6623
 5806SOL     OW28879   3.522   3.792   6.972 -0.2432  0.9155 -0.0288
 5806SOL    HW128880   3.501   3.810   6.880  0.0223 -2.3153 -0.7404
 5806SOL    HW228881   3.530   3.884   6.997 -1.5431  1.3655 -1.2721
 5807SOL     OW28882   0.041   3.426   4.650  0.1470 -0.3326 -0.6224
 5807SOL    HW128883   0.030   3.394   4.560 -0.2147  0.3068 -0.8054
 5807SOL    HW228884   0.051   3.521   4.642 -0.4697 -0.3964 -2.2288
 5808SOL     OW28885   2.296   3.340   4.291  0.1421 -0.2775  0.1897
 5808SOL    HW128886   2.285   3.381   4.205  1.3220 -0.2856  0.0310
 5808SOL    HW228887   2.389   3.317   4.294  0.2521  0.0982 -0.3307
 5809SOL     OW28888   0.871   1.607   8.420  0.2039  0.0144 -0.4778
 5809SOL    HW128889   0.912   1.666   8.357 -0.5005  2.5224  1.4286
 5809SOL    HW228890   0.893   1.650   8.503  0.7773 -1.1339 -0.0214
 5810SOL     OW28891   0.171   1.491  14.010  0.1988 -0.1828  0.7911
 5810SOL    HW128892   0.160   1.578  14.047 -0.7299  0.0651 -0.0977
 5810SOL    HW228893   0.149   1.427  14.078 -0.3280  1.5288  2.2161
 5811SOL     OW28894   1.507   2.033   3.675 -0.3747 -0.3275  0.3160
 5811SOL    HW128895   1.546   1.956   3.715  0.4978  0.0527  0.2042
 5811SOL    HW228896   1.419   2.000   3.654 -0.4415  2.3124 -3.5398
 5812SOL     OW28897   1.080   1.852  11.636  0.5506  0.0931  0.7361
 5812SOL    HW128898   1.017   1.814  11.697 -0.5053  1.8223  0.7310
 5812SOL    HW228899   1.117   1.924  11.688 -2.7800  2.4506 -0.1608
 5813SOL     OW28900   1.146   0.891   6.609 -0.4654  0.3986 -0.2771
 5813SOL    HW128901   1.058   0.923   6.626 -0.7254  0.1285 -1.1279
 5813SOL    HW228902   1.162   0.917   6.518 -0.1494  0.6859 -0.1425
 5814SOL     OW28903   4.406   4.189   0.467  0.0747 -0.2950  0.4298
 5814SOL    HW128904   4.438   4.243   0.539  1.6469 -0.3865 -0.1952
 5814SOL    HW228905   4.314   4.208   0.486 -0.7191 -2.5928 -1.0607
 5815SOL     OW28906   0.594   0.557   0.455 -0.5345 -0.5399  0.0468
 5815SOL    HW128907   0.537   0.588   0.385  0.1689 -0.8005 -0.6461
 5815SOL    HW228908   0.653   0.508   0.397  0.5223 -0.7847  1.3259
 5816SOL     OW28909   2.793   0.585  11.983  0.2574  0.0173  0.2180
 5816SOL    HW128910   2.735   0.522  12.026  1.2490 -1.2502 -0.2782
 5816SOL    HW228911   2.739   0.612  11.909  0.9457  1.2122  0.1506
 5817SOL     OW28912   1.523   1.011  16.618  0.0575  0.2046 -0.5253
 5817SOL    HW128913   1.460   0.947  16.651 -0.9484  1.6072  0.3095
 5817SOL    HW228914   1.608   0.968  16.612  0.0374  0.2904 -1.4971
 5818SOL     OW28915   3.674   1.025   0.882 -0.5756  0.2444  0.0762
 5818SOL    HW128916   3.713   1.061   0.802  2.3914 -1.3668  0.7781
 5818SOL    HW228917   3.752   0.978   0.913 -0.7712 -0.0027  0.2014
 5819SOL     OW28918   3.103   1.399   8.497  0.0750  0.3838  0.2076
 5819SOL    HW128919   3.173   1.337   8.519  0.3701  1.4173  2.1919
 5819SOL    HW228920   3.163   1.473   8.483 -0.6137  1.3059  2.1676
 5820SOL     OW28921   2.453   1.550   6.515  0.5678  0.1936 -0.1542
 5820SOL    HW128922   2.416   1.581   6.598 -0.0092 -0.1493 -0.2827
 5820SOL    HW228923   2.544   1.526   6.529  0.3950 -0.8954 -0.9166
 5821SOL     OW28924   1.200   0.069   6.228 -0.0085  0.1566  0.0721
 5821SOL    HW128925   1.153   4.715   6.204 -3.6059  0.9537  4.3251
 5821SOL    HW228926   1.249   0.087   6.148 -2.0778 -0.5425 -1.3351
 5822SOL     OW28927   0.748   4.620   9.990 -0.3080 -0.2119 -0.1499
 5822SOL    HW128928   0.739   4.715   9.992 -1.8690 -0.3797  0.7242
 5822SOL    HW228929   0.661   4.603   9.953 -0.8412  1.3282  0.4182
 5823SOL     OW28930   3.513   4.228   7.296 -0.0732  0.1634 -0.3896
 5823SOL    HW128931   3.575   4.231   7.369 -0.4599 -0.5131 -0.0385
 5823SOL    HW228932   3.449   4.291   7.327  0.8969 -0.1020  2.1594
 5824SOL     OW28933   2.134   4.451   7.566  0.1994 -0.4053 -0.1488
 5824SOL    HW128934   2.048   4.437   7.606 -0.8810  0.1526 -2.2708
 5824SOL    HW228935   2.163   4.520   7.626  0.1300 -1.2561  0.8692
 5825SOL     OW28936   1.766   1.346   0.454  0.1203  0.2377 -0.3320
 5825SOL    HW128937   1.801   1.317   0.370 -0.0880 -1.7297  0.2738
 5825SOL    HW228938   1.808   1.275   0.502  0.4747  0.0672 -0.8962
 5826SOL     OW28939   3.568   0.013  13.745  0.4931 -0.0511  0.7272
 5826SOL    HW128940   3.490   0.052  13.785  0.1680 -0.1848  0.2177
 5826SOL    HW228941   3.612   0.094  13.719  0.3149  0.2195  1.2515
 5827SOL     OW28942   3.938   1.566  10.443  0.0600 -0.1265 -0.2206
 5827SOL    HW128943   3.961   1.653  10.474 -0.0731 -0.3791  0.5955
 5827SOL    HW228944   3.959   1.510  10.518  0.3539  1.0729  0.5894
 5828SOL     OW28945   4.620   2.850   2.859  0.3328 -0.0302  0.5963
 5828SOL    HW128946   4.672   2.924   2.891 -0.7672  1.0405 -0.1254
 5828SOL    HW228947   4.616   2.789   2.932 -2.2526 -1.2169 -0.5593
 5829SOL     OW28948   1.615   0.137   9.635 -0.1373 -0.0754 -0.0820
 5829SOL    HW128949   1.672   0.191   9.690 -0.0987 -0.6795  0.4619
 5829SOL    HW228950   1.529   0.169   9.663 -0.1401  0.4099 -0.6333
 5830SOL     OW28951   2.230   3.680  14.907  0.3980  0.2875  0.1067
 5830SOL    HW128952   2.211   3.621  14.980  0.6504  0.6186  0.4378
 5830SOL    HW228953   2.291   3.748  14.935  2.0287 -1.6660  1.2686
 5831SOL     OW28954   1.001   2.448   3.754 -0.0356 -0.2449  0.1525
 5831SOL    HW128955   1.069   2.390   3.787 -0.8599 -0.9568  0.5931
 5831SOL    HW228956   1.033   2.450   3.664 -1.5185 -0.8843 -0.3908
 5832SOL     OW28957   4.317   0.714   6.424  0.2856 -0.0755 -0.1301
 5832SOL    HW128958   4.280   0.802   6.426  0.6574  0.1504 -2.7062
 5832SOL    HW228959   4.317   0.692   6.330 -0.5911 -3.0605  0.5780
 5833SOL     OW28960   1.741   0.388  15.657  0.6340 -0.4732  0.7025
 5833SOL    HW128961   1.694   0.460  15.700 -1.1083 -0.4827 -1.1436
 5833SOL    HW228962   1.803   0.434  15.601  0.7265 -3.0756 -1.3815
 5834SOL     OW28963   2.368   3.825   8.740  0.0631  0.0565  0.4700
 5834SOL    HW128964   2.453   3.846   8.778 -0.0149 -0.8215  1.1453
 5834SOL    HW228965   2.305   3.842   8.810 -1.0626 -0.9894 -0.2970
 5835SOL     OW28966   2.112   0.071   9.274 -0.3176  0.1536 -0.0884
 5835SOL    HW128967   2.168   0.142   9.242  0.4866  0.7649  2.6860
 5835SOL    HW228968   2.026   0.099   9.242 -0.1103  1.7548  0.7617
 5836SOL     OW28969   0.873   0.986   6.614  0.0397 -0.6043 -0.8048
 5836SOL    HW128970   0.839   0.947   6.533 -1.7015  1.1546 -0.9144
 5836SOL    HW228971   0.837   1.074   6.606 -0.4293 -0.7023  0.2384
 5837SOL     OW28972   4.290   4.104   2.284 -0.2423 -0.0828 -0.0799
 5837SOL    HW128973   4.218   4.082   2.342 -1.2220  0.1571 -1.1904
 5837SOL    HW228974   4.261   4.188   2.247  0.9761  0.4883  0.2683
 5838SOL     OW28975   2.178   2.482   2.949  0.3212 -0.1510 -0.1175
 5838SOL    HW128976   2.157   2.485   2.856 -2.6052 -1.7135  0.5000
 5838SOL    HW228977   2.159   2.570   2.982  1.5127 -0.3042  0.9847
 5839SOL     OW28978   3.325   1.808   6.799  0.7270 -0.1997  0.4746
 5839SOL    HW128979   3.287   1.782   6.883 -3.9222 -0.1390 -1.5912
 5839SOL    HW228980   3.340   1.722   6.760  2.4626  0.2927  0.0717
 5840SOL     OW28981   3.486   1.982   3.419  0.7452  0.4393  0.9332
 5840SOL    HW128982   3.545   1.907   3.424  2.6440  1.7386 -2.0469
 5840SOL    HW228983   3.401   1.957   3.456 -0.1929  1.1020 -0.7765
 5841SOL     OW28984   1.452   4.329  15.553 -0.6052 -0.0217  0.4909
 5841SOL    HW128985   1.428   4.395  15.618  1.9090  1.4875 -0.1184
 5841SOL    HW228986   1.458   4.248  15.603 -1.8348 -1.5344 -1.7728
 5842SOL     OW28987   4.706   2.104  16.207 -0.5057  0.0694 -0.3027
 5842SOL    HW128988   0.020   2.157  16.276 -1.6701  0.8169 -0.1929
 5842SOL    HW228989   4.649   2.047  16.259  2.7365 -0.1990  2.9168
 5843SOL     OW28990   4.252   0.979   0.913  0.8445  0.0385 -0.2665
 5843SOL    HW128991   4.293   1.065   0.905 -0.5179  0.8272  1.2650
 5843SOL    HW228992   4.251   0.951   0.822  0.5111 -2.5509  0.5293
 5844SOL     OW28993   1.034   3.392   7.003 -0.4913 -0.1302 -0.0736
 5844SOL    HW128994   0.967   3.411   7.069 -1.2856 -1.6060 -0.4548
 5844SOL    HW228995   1.111   3.439   7.036  0.5916 -1.1661 -1.1283
 5845SOL     OW28996   1.910   1.794   6.863 -0.1416 -0.2066  0.6083
 5845SOL    HW128997   1.954   1.711   6.885  2.3247  1.1130  0.6135
 5845SOL    HW228998   1.836   1.756   6.815 -0.7728 -2.2122  3.1633
 5846SOL     OW28999   1.213   3.033   2.730 -0.3451 -0.1808  0.2047
 5846SOL    HW129000   1.231   2.943   2.702 -1.5028 -0.3437 -0.0156
 5846SOL    HW229001   1.131   3.025   2.779 -0.8502 -0.5137 -0.7039
 5847SOL     OW29002   3.296   0.741   3.624  0.1664  0.4480  0.7230
 5847SOL    HW129003   3.387   0.732   3.594  0.1455  0.9988  0.5114
 5847SOL    HW229004   3.291   0.828   3.662  0.2991  0.5316  0.5460
 5848SOL     OW29005   1.880   4.383  15.407  0.2196 -0.0620  0.3518
 5848SOL    HW129006   1.874   4.375  15.312 -1.4386  1.7702  0.2891
 5848SOL    HW229007   1.971   4.409  15.424  0.0442  0.4667  0.4786
 5849SOL     OW29008   4.092   2.725   9.796  0.2891 -0.1606 -0.0233
 5849SOL    HW129009   4.130   2.752   9.712 -0.3587  2.4975  0.5370
 5849SOL    HW229010   4.148   2.650   9.815 -1.1370 -0.9634  1.0030
 5850SOL     OW29011   2.372   0.486   7.815  0.3793  0.0896  0.5166
 5850SOL    HW129012   2.307   0.552   7.838  1.7572  0.7809  2.3667
 5850SOL    HW229013   2.339   0.420   7.875 -1.8821 -0.2359 -1.0838
 5851SOL     OW29014   4.563   0.388   8.188  0.4945  0.0121 -0.2182
 5851SOL    HW129015   4.480   0.358   8.150  0.4655  0.5411 -0.5672
 5851SOL    HW229016   4.537   0.471   8.227  1.4773  0.7356 -1.0875
 5852SOL     OW29017   0.736   3.938   0.623  0.2116 -0.1177 -0.7692
 5852SOL    HW129018   0.830   3.929   0.613  0.1941 -1.0653 -0.1529
 5852SOL    HW229019   0.726   3.906   0.713 -3.0933  1.6538 -0.4927
 5853SOL     OW29020   2.671   1.073  15.373  0.1958  0.3753 -0.1818
 5853SOL    HW129021   2.734   1.130  15.417 -2.0559  0.8995  2.3720
 5853SOL    HW229022   2.736   1.031  15.316 -0.2985 -1.0554  0.3209
 5854SOL     OW29023   3.641   3.971   7.281  0.2872 -0.0595  0.1883
 5854SOL    HW129024   3.699   4.035   7.323 -1.0454  0.5873  1.0558
 5854SOL    HW229025   3.641   4.005   7.192 -1.9835 -1.9476 -0.5414
 5855SOL     OW29026   1.886   1.907   0.236  0.3000 -0.2273 -0.2789
 5855SOL    HW129027   1.904   1.885   0.145 -0.4108  1.6820 -0.8686
 5855SOL    HW229028   1.812   1.847   0.251  0.2338 -0.5345 -1.8830
 5856SOL     OW29029   2.184   1.559   7.734 -0.5069  0.6139 -0.0452
 5856SOL    HW129030   2.133   1.568   7.814 -1.3498 -2.4512 -0.2574
 5856SOL    HW229031   2.124   1.585   7.665 -0.1442  0.1297 -0.5443
 5857SOL     OW29032   2.638   1.211  11.575 -0.0533  0.1649  0.0782
 5857SOL    HW129033   2.677   1.125  11.560 -2.9098 -1.4888  2.0078
 5857SOL    HW229034   2.547   1.186  11.590  0.6414 -1.7900  1.0235
 5858SOL     OW29035   3.345   3.359   0.073 -0.7460 -0.1753  0.1331
 5858SOL    HW129036   3.283   3.369   0.001  1.2718  0.8594 -1.4779
 5858SOL    HW229037   3.321   3.434   0.126 -1.2910 -1.7019  2.0612
 5859SOL     OW29038   3.640   3.712   0.657 -0.6390  0.2798  0.3187
 5859SOL    HW129039   3.559   3.664   0.671 -1.3841  1.6028  0.6221
 5859SOL    HW229040   3.679   3.705   0.744  3.3829  1.2204 -1.3973
 5860SOL     OW29041   2.849   1.769  11.477 -0.0906 -0.0907  0.6291
 5860SOL    HW129042   2.850   1.815  11.561 -0.2854 -1.1942  1.2275
 5860SOL    HW229043   2.919   1.820  11.436 -2.4608  1.7390 -1.1259
 5861SOL     OW29044   4.164   2.845   1.244 -0.1152  0.1933  0.6958
 5861SOL    HW129045   4.099   2.818   1.178 -1.8434 -0.6825  2.7611
 5861SOL    HW229046   4.246   2.822   1.201 -0.8749  0.2140 -0.7646
 5862SOL     OW29047   3.841   1.749   8.667  0.9800  0.2134 -0.1381
 5862SOL    HW129048   3.910   1.683   8.670 -0.5001 -1.2979  0.9090
 5862SOL    HW229049   3.764   1.694   8.651  0.6157 -0.3117  3.5316
 5863SOL     OW29050   1.173   4.352   8.788 -0.7955  0.0101  0.0639
 5863SOL    HW129051   1.170   4.256   8.785  0.7234 -0.0139 -0.8120
 5863SOL    HW229052   1.243   4.371   8.725 -0.6921  2.2231  0.8615
 5864SOL     OW29053   4.209   4.592   3.818 -0.1125 -0.0822  0.0000
 5864SOL    HW129054   4.297   4.575   3.784  0.0739 -2.1568  1.5359
 5864SOL    HW229055   4.222   4.587   3.913 -1.8780 -0.6079  0.2050
 5865SOL     OW29056   0.609   2.521  11.950  0.1863 -0.2412 -0.7188
 5865SOL    HW129057   0.697   2.501  11.920  0.3297  0.3741 -0.7114
 5865SOL    HW229058   0.562   2.577  11.888 -0.2299 -0.8992 -0.9943
 5866SOL     OW29059   3.524   4.300   5.347 -0.4586 -0.3761  0.6699
 5866SOL    HW129060   3.485   4.387   5.360 -0.2479  0.0310 -1.4153
 5866SOL    HW229061   3.504   4.270   5.435  0.8129 -2.0608  0.3685
 5867SOL     OW29062   0.508   3.450   2.961 -0.1930  0.2154  0.1760
 5867SOL    HW129063   0.558   3.470   2.882 -2.4615  1.1328 -1.0309
 5867SOL    HW229064   0.582   3.465   3.020 -0.6607  0.9832  0.5731
 5868SOL     OW29065   4.355   1.105   9.205 -0.0961 -0.4350  0.4797
 5868SOL    HW129066   4.304   1.185   9.192  0.4301  0.0927  1.6357
 5868SOL    HW229067   4.339   1.061   9.122 -1.3688 -2.3161  1.7347
 5869SOL     OW29068   1.521   3.170   7.645 -0.4165  0.1130  0.3263
 5869SOL    HW129069   1.579   3.095   7.632 -1.7042 -0.7579 -0.3707
 5869SOL    HW229070   1.457   3.138   7.709 -1.1366  1.6966  0.3916
 5870SOL     OW29071   1.257   2.728   7.503 -0.1928  0.4074  0.6775
 5870SOL    HW129072   1.226   2.638   7.494 -0.1340  0.1926  2.6362
 5870SOL    HW229073   1.209   2.788   7.446  1.8670 -0.3218 -1.7942
 5871SOL     OW29074   0.350   2.718   1.728  0.0192 -0.3229  0.0370
 5871SOL    HW129075   0.339   2.694   1.636  1.2712  0.3988 -0.2958
 5871SOL    HW229076   0.387   2.806   1.720  0.3273 -0.5511 -0.9723
 5872SOL     OW29077   2.887   0.614  15.546 -0.3048  0.0953  0.1320
 5872SOL    HW129078   2.927   0.605  15.460  0.3676  0.6971  0.3843
 5872SOL    HW229079   2.952   0.667  15.591 -0.9314 -0.2362  1.4429
 5873SOL     OW29080   1.213   3.256   4.941 -0.0508 -0.4101  0.4252
 5873SOL    HW129081   1.154   3.318   4.898 -0.6729 -1.3558 -0.0844
 5873SOL    HW229082   1.208   3.280   5.034 -1.8300 -1.1451  0.5129
 5874SOL     OW29083   1.864   0.461  10.178 -0.2598 -0.4396  0.2850
 5874SOL    HW129084   1.833   0.378  10.214  2.3712 -1.1986  0.8033
 5874SOL    HW229085   1.928   0.429  10.114 -0.3082 -0.1231  0.0743
 5875SOL     OW29086   3.398   3.377   4.165  0.1851  0.3066 -0.1699
 5875SOL    HW129087   3.321   3.433   4.157 -0.3016 -0.0490  2.1071
 5875SOL    HW229088   3.441   3.415   4.242 -0.4293 -0.9306  0.7742
 5876SOL     OW29089   1.565   1.395   6.273 -0.3261  0.2279  0.2524
 5876SOL    HW129090   1.570   1.314   6.324 -0.0339 -0.4987 -0.9333
 5876SOL    HW229091   1.542   1.351   6.191  0.8568 -0.0210  0.0602
 5877SOL     OW29092   1.549   2.230  11.521 -0.2339  0.2257 -0.1683
 5877SOL    HW129093   1.457   2.217  11.497 -0.5806  1.9711  0.1905
 5877SOL    HW229094   1.583   2.191  11.440  0.7432 -0.3747  0.5293
 5878SOL     OW29095   3.945   1.366  16.598  0.2409  0.3043  0.2974
 5878SOL    HW129096   3.854   1.351  16.572  0.7977 -2.5586  0.0066
 5878SOL    HW229097   3.937   1.457  16.628 -2.0130 -0.1038  0.9500
 5879SOL     OW29098   1.533   0.598  11.899 -0.1325  0.1604 -0.4952
 5879SOL    HW129099   1.613   0.601  11.846 -0.0476  1.2081 -0.3134
 5879SOL    HW229100   1.472   0.555  11.838  0.9008 -1.6229 -0.2700
 5880SOL     OW29101   2.896   4.182  16.879  0.2593  0.0695 -0.5465
 5880SOL    HW129102   2.928   4.209  16.792  0.8630  0.9429 -0.0524
 5880SOL    HW229103   2.917   4.255  16.937  1.2066 -2.4645  2.2743
 5881SOL     OW29104   1.887   1.594   2.527  0.2710 -0.3081  0.0912
 5881SOL    HW129105   1.840   1.614   2.447 -3.5794  1.1978  2.7506
 5881SOL    HW229106   1.865   1.501   2.530 -0.4583 -0.0889  1.2894
 5882SOL     OW29107   4.449   2.858  13.975 -0.0108 -0.1174 -0.2230
 5882SOL    HW129108   4.407   2.856  13.889  0.5240 -2.1145 -0.4432
 5882SOL    HW229109   4.521   2.918  13.957 -0.0825  0.8166  2.6500
 5883SOL     OW29110   1.307   2.734   6.600 -0.5359  0.7315 -0.0892
 5883SOL    HW129111   1.255   2.655   6.614  2.4652 -0.5884  3.5454
 5883SOL    HW229112   1.337   2.728   6.509 -2.5054  2.0256 -0.8263
 5884SOL     OW29113   4.040   2.359  13.687  0.1572 -0.1359 -0.0862
 5884SOL    HW129114   3.991   2.410  13.752  2.1413  0.6165  0.8066
 5884SOL    HW229115   4.104   2.313  13.741  1.0806 -1.8468 -2.6080
 5885SOL     OW29116   1.536   2.162   4.586  0.1339  0.5932  0.1377
 5885SOL    HW129117   1.539   2.257   4.575  3.6319  0.2752 -1.6098
 5885SOL    HW229118   1.618   2.136   4.545 -0.3363 -0.5652 -0.0815
 5886SOL     OW29119   3.936   0.013   7.537 -0.2817  0.0529 -0.2418
 5886SOL    HW129120   3.902   0.019   7.447  0.8654 -0.3094 -0.6970
 5886SOL    HW229121   3.948   0.107   7.548  1.1450 -0.4318  2.3353
 5887SOL     OW29122   0.692   3.945  15.969 -0.6621  0.6160  0.9668
 5887SOL    HW129123   0.707   3.852  15.952  1.1682  0.9345  0.8979
 5887SOL    HW229124   0.678   3.941  16.064 -1.6227  0.2808  0.8150
 5888SOL     OW29125   1.793   1.746  11.032  0.1712  0.5903 -0.3168
 5888SOL    HW129126   1.794   1.651  11.042  0.5927  0.5406 -0.8564
 5888SOL    HW229127   1.849   1.768  10.957 -0.1121 -0.9657 -0.9811
 5889SOL     OW29128   2.612   4.271   0.335  0.0213  0.0395  0.2652
 5889SOL    HW129129   2.593   4.201   0.272  0.0847 -0.0739  0.3725
 5889SOL    HW229130   2.695   4.242   0.372 -0.2574 -3.0140 -1.5035
 5890SOL     OW29131   1.979   1.058   6.614  0.5125  0.1371 -0.3684
 5890SOL    HW129132   1.894   1.022   6.640  1.1961 -1.4652 -0.3829
 5890SOL    HW229133   1.949   1.138   6.571  0.2742  0.5061  0.5050
 5891SOL     OW29134   1.478   0.720  10.096  0.1173  0.2671 -0.4073
 5891SOL    HW129135   1.556   0.773  10.081  0.5554  0.0011  0.9122
 5891SOL    HW229136   1.512   0.648  10.042  0.8829 -0.7279  1.4138
 5892SOL     OW29137   2.502   0.032  16.390  0.0699 -0.3415  0.0215
 5892SOL    HW129138   2.537   4.671  16.368  0.5739  0.2802 -1.6358
 5892SOL    HW229139   2.561   0.048  16.464 -2.9021 -0.2033  2.3637
 5893SOL     OW29140   2.264   3.448   8.399 -0.3598 -0.6763 -0.1877
 5893SOL    HW129141   2.290   3.356   8.408  2.4522  0.1872  0.4067
 5893SOL    HW229142   2.340   3.498   8.369  0.1322 -0.8156  0.8166
 5894SOL     OW29143   3.846   0.205  12.968 -0.3612  0.2941  0.1298
 5894SOL    HW129144   3.873   0.122  12.930 -0.7295  0.8855 -1.4116
 5894SOL    HW229145   3.809   0.172  13.050  0.2440 -0.1674  0.2113
 5895SOL     OW29146   4.225   3.866   7.463  0.4867 -0.1589 -0.0746
 5895SOL    HW129147   4.231   3.959   7.442  1.7024 -0.2659 -0.1938
 5895SOL    HW229148   4.180   3.840   7.383 -1.3025  1.0949  0.5105
 5896SOL     OW29149   2.064   4.205  13.175 -0.0673  0.0572 -0.0693
 5896SOL    HW129150   2.031   4.130  13.126  0.9416 -1.5229  1.7143
 5896SOL    HW229151   2.097   4.161  13.253  1.5133  1.6434  0.1523
 5897SOL     OW29152   0.903   2.784   6.382 -0.2834  0.0085 -0.1616
 5897SOL    HW129153   0.963   2.855   6.361  0.9015 -0.5693  1.2985
 5897SOL    HW229154   0.895   2.807   6.474 -2.3217  1.0753 -0.5999
 5898SOL     OW29155   2.761   4.046  14.415 -0.0998  0.0762 -0.3270
 5898SOL    HW129156   2.758   4.035  14.510  0.5057 -0.5555 -0.3849
 5898SOL    HW229157   2.784   3.955  14.396 -0.5942 -0.7567  3.0202
 5899SOL     OW29158   0.845   1.055  10.483 -0.1176 -0.1510  0.4080
 5899SOL    HW129159   0.795   1.026  10.406  2.5718  0.4868 -1.5633
 5899SOL    HW229160   0.897   0.975  10.482  0.3531  0.1487  1.1847
 5900SOL     OW29161   1.218   4.094   7.638 -0.6779 -0.5025  0.2291
 5900SOL    HW129162   1.161   4.161   7.675 -0.4589  0.1534 -0.6213
 5900SOL    HW229163   1.302   4.139   7.643 -0.0026 -1.9495  1.7918
 5901SOL     OW29164   4.199   4.154  17.558  0.1655  0.3036  0.7447
 5901SOL    HW129165   4.106   4.146  17.577 -0.2792  2.6191 -0.4796
 5901SOL    HW229166   4.207   4.248  17.570  3.1517  0.3159 -1.4513
 5902SOL     OW29167   3.264   2.401   2.660  0.5466  0.0496 -0.3921
 5902SOL    HW129168   3.339   2.460   2.667  0.5962  0.3313 -3.1462
 5902SOL    HW229169   3.206   2.437   2.726  1.8210 -0.4635  1.0061
 5903SOL     OW29170   4.093   4.680   3.526 -0.2297  0.5162 -0.1423
 5903SOL    HW129171   4.083   4.628   3.447  1.2233  1.6170 -1.0417
 5903SOL    HW229172   4.027   0.023   3.514 -0.5752  0.3730  0.9220
 5904SOL     OW29173   2.452   2.633   2.033  0.4003 -0.0223  0.2718
 5904SOL    HW129174   2.500   2.715   2.027  1.0632 -0.4377 -0.1467
 5904SOL    HW229175   2.476   2.604   2.121 -0.6042 -1.0598  0.2080
 5905SOL     OW29176   2.034   4.530   6.398  0.1623 -0.1604  0.6796
 5905SOL    HW129177   2.038   4.451   6.345 -2.0313 -0.9624  1.6927
 5905SOL    HW229178   1.940   4.540   6.416 -0.0959 -0.3071 -0.5797
 5906SOL     OW29179   1.795   1.907   6.014 -0.0225 -0.4973 -0.0562
 5906SOL    HW129180   1.759   1.896   5.927 -0.4161  0.5585 -0.0195
 5906SOL    HW229181   1.719   1.914   6.072 -0.6955  0.6896 -1.0924
 5907SOL     OW29182   3.063   0.301   6.068 -0.5728  0.0211  0.4537
 5907SOL    HW129183   3.114   0.362   6.015  0.6451 -2.6113 -1.4238
 5907SOL    HW229184   3.091   0.212   6.045 -1.4256  0.2648 -1.5796
 5908SOL     OW29185   2.831   0.043   9.386  0.1175 -0.4223 -0.2800
 5908SOL    HW129186   2.818   4.682   9.425 -3.4466 -0.2927 -1.2453
 5908SOL    HW229187   2.861   0.076   9.471 -0.3829  1.0603 -0.6745
 5909SOL     OW29188   1.082   3.698   6.458 -0.2023  0.3507 -0.3837
 5909SOL    HW129189   1.013   3.709   6.524 -0.6124  0.0857 -0.7712
 5909SOL    HW229190   1.087   3.787   6.423 -0.1028  1.3897  2.2073
 5910SOL     OW29191   0.640   1.064   8.012 -0.2693 -0.2428  0.2002
 5910SOL    HW129192   0.655   1.158   8.020  4.2258 -0.9193 -0.3802
 5910SOL    HW229193   0.657   1.036   8.101 -0.3986 -0.8994  0.0158
 5911SOL     OW29194   0.056   2.930   8.402  0.6002  0.3867  0.1700
 5911SOL    HW129195   0.132   2.928   8.460  0.2853 -1.7737  0.5355
 5911SOL    HW229196   0.017   2.844   8.423  2.1761 -0.2061  0.6518
 5912SOL     OW29197   3.895   0.801   7.844 -0.4698 -0.0218 -0.1872
 5912SOL    HW129198   3.854   0.887   7.830  0.3853  0.0407 -2.2653
 5912SOL    HW229199   3.937   0.780   7.761 -0.6156  0.5812 -0.4146
 5913SOL     OW29200   3.272   0.476   5.328  0.1808 -0.3327 -0.6979
 5913SOL    HW129201   3.335   0.489   5.398  0.0101  0.3811 -0.6766
 5913SOL    HW229202   3.221   0.403   5.364  1.3883  0.5912  2.8057
 5914SOL     OW29203   4.676   3.405   3.131 -0.0690  0.0684  0.1962
 5914SOL    HW129204   4.597   3.389   3.081 -0.6376 -0.1517  1.1567
 5914SOL    HW229205   4.701   3.495   3.112  1.2722 -0.8907 -2.5049
 5915SOL     OW29206   4.437   4.553   8.077 -0.5013 -0.1870  0.1924
 5915SOL    HW129207   4.454   4.598   8.160  0.8436  0.3453 -0.3755
 5915SOL    HW229208   4.342   4.549   8.090 -0.2789  1.6399  2.4754
 5916SOL     OW29209   0.556   2.755   5.095  1.0588 -0.5656  0.0190
 5916SOL    HW129210   0.638   2.751   5.144  0.1387  0.5342  1.6384
 5916SOL    HW229211   0.526   2.843   5.114  1.1027 -0.7010  0.6994
 5917SOL     OW29212   2.312   1.999   8.334 -0.2730 -0.3634  0.2989
 5917SOL    HW129213   2.319   2.008   8.239 -1.6177 -2.5325  0.0017
 5917SOL    HW229214   2.273   2.086   8.343 -1.4640 -0.9875  1.1663
 5918SOL     OW29215   3.395   1.814   1.967  0.1691  0.4181  0.1908
 5918SOL    HW129216   3.300   1.819   1.962  0.1745 -0.1304 -0.4310
 5918SOL    HW229217   3.414   1.764   2.046  0.3821 -0.5026 -0.4478
 5919SOL     OW29218   4.286   0.287   3.360 -0.6851  0.3451 -0.2629
 5919SOL    HW129219   4.355   0.353   3.358  0.7325 -1.1044  1.0911
 5919SOL    HW229220   4.219   0.334   3.311 -0.3370  2.3415  1.2049
 5920SOL     OW29221   0.946   3.105   1.695  0.1879  0.4623  0.1620
 5920SOL    HW129222   0.870   3.054   1.667  0.4579 -0.0635  0.3716
 5920SOL    HW229223   0.895   3.158   1.756 -1.1253 -1.9889  1.2009
 5921SOL     OW29224   2.245   0.914  17.335  0.1360  0.0156  0.0097
 5921SOL    HW129225   2.184   0.931  17.407  1.8295 -3.4541  2.2642
 5921SOL    HW229226   2.307   0.863  17.387  2.0287 -0.9313 -3.1755
 5922SOL     OW29227   0.909   0.374  15.380 -0.1071  0.3870  0.0657
 5922SOL    HW129228   0.946   0.289  15.403  0.6108  0.3037 -1.3408
 5922SOL    HW229229   0.955   0.433  15.440 -0.5062  1.1095 -0.3504
 5923SOL     OW29230   3.978   0.888   9.073  0.2666 -0.2885  0.1221
 5923SOL    HW129231   3.888   0.862   9.056  0.1184 -0.1969  0.7964
 5923SOL    HW229232   3.974   0.972   9.027 -0.7589 -0.6115 -0.3916
 5924SOL     OW29233   2.046   3.227   2.995  0.0860 -0.0444  0.3551
 5924SOL    HW129234   2.053   3.297   2.931  0.6746  0.5818  1.0978
 5924SOL    HW229235   1.952   3.235   3.009  0.4293  0.8948  2.1645
 5925SOL     OW29236   0.961   2.712  16.474 -0.0218  0.2907  0.5950
 5925SOL    HW129237   0.880   2.661  16.462 -0.4634  1.0588  0.3037
 5925SOL    HW229238   1.014   2.647  16.520  0.7432  0.3761 -0.1727
 5926SOL     OW29239   0.107   0.694  13.953  0.0465  0.0549  0.0738
 5926SOL    HW129240   0.156   0.685  14.035  0.8851  0.7747 -0.3417
 5926SOL    HW229241   0.183   0.691  13.895 -0.0750  0.5871 -0.1096
 5927SOL     OW29242   4.342   4.408   6.806 -0.4789 -0.0472  0.2755
 5927SOL    HW129243   4.435   4.401   6.787 -0.6280  2.5479 -1.3695
 5927SOL    HW229244   4.319   4.497   6.781  0.8428  0.3075  0.3130
 5928SOL     OW29245   4.071   4.291   1.160  0.4300 -0.6586 -0.2783
 5928SOL    HW129246   4.144   4.325   1.110  0.0513 -0.1953 -0.5155
 5928SOL    HW229247   4.046   4.210   1.115 -0.9478 -0.3134 -0.1490
 5929SOL     OW29248   2.178   0.680   4.256  0.1005 -0.2954 -0.4667
 5929SOL    HW129249   2.235   0.608   4.283  0.6703  0.6129  0.7661
 5929SOL    HW229250   2.151   0.654   4.168  1.7792 -1.7851 -0.5393
 5930SOL     OW29251   2.766   1.984   7.977  0.0427 -0.5536  0.2257
 5930SOL    HW129252   2.852   1.992   8.019 -0.5166 -0.2701  1.3179
 5930SOL    HW229253   2.701   2.023   8.035  1.4888  0.7160  0.9864
 5931SOL     OW29254   1.680   4.048   1.115 -0.2079 -0.1114  0.2936
 5931SOL    HW129255   1.732   4.034   1.195 -1.0993  0.6634  1.0069
 5931SOL    HW229256   1.738   4.006   1.051  3.4329  0.8590  2.8992
 5932SOL     OW29257   2.268   1.769   0.315  0.5166 -0.3809 -0.2041
 5932SOL    HW129258   2.271   1.864   0.302  1.5416 -0.5349 -1.1344
 5932SOL    HW229259   2.233   1.777   0.404  0.3864  0.3140 -0.3138
 5933SOL     OW29260   0.848   0.691  12.204  0.2137  0.1592  0.1289
 5933SOL    HW129261   0.777   0.705  12.141 -1.1278 -0.6916  1.4636
 5933SOL    HW229262   0.820   0.620  12.261 -1.0547  0.9364  0.4904
 5934SOL     OW29263   3.765   3.212   4.876  0.0876  0.3026  0.7816
 5934SOL    HW129264   3.825   3.209   4.801 -0.9939 -1.7034 -0.0118
 5934SOL    HW229265   3.817   3.271   4.930  2.1530 -0.5818 -0.2307
 5935SOL     OW29266   3.946   3.413   2.105  0.0506  0.2025 -0.0602
 5935SOL    HW129267   3.997   3.457   2.037  0.4012  0.3618  0.3071
 5935SOL    HW229268   3.967   3.321   2.086 -0.2043  0.2163 -0.4109
 5936SOL     OW29269   0.032   0.327   6.998 -0.2224  0.4845  0.0762
 5936SOL    HW129270   0.073   0.412   7.011 -0.3115  0.5709 -0.2184
 5936SOL    HW229271   4.678   0.357   6.953  0.4471  1.2330 -0.5961
 5937SOL     OW29272   1.304   4.083  10.776  0.5686  0.0732  0.1005
 5937SOL    HW129273   1.355   4.149  10.823  0.6121  0.4065 -0.4106
 5937SOL    HW229274   1.341   4.094  10.689 -0.0757  0.6766 -0.1005
 5938SOL     OW29275   0.856   3.253  11.661  0.3873  0.7268  0.0946
 5938SOL    HW129276   0.880   3.203  11.582  0.2517  1.5481 -0.4644
 5938SOL    HW229277   0.927   3.226  11.718  0.3196  0.7792  0.2033
 5939SOL     OW29278   0.508   1.755  16.732 -0.4891 -0.5553 -0.0287
 5939SOL    HW129279   0.485   1.846  16.711 -1.3612 -0.4138  1.5338
 5939SOL    HW229280   0.475   1.717  16.650  1.3577  1.0709 -1.5100
 5940SOL     OW29281   2.458   2.941   5.079 -0.2221  0.2350  0.0384
 5940SOL    HW129282   2.382   2.898   5.119 -0.1005 -0.2671 -0.2765
 5940SOL    HW229283   2.467   3.023   5.127  2.5858 -1.1082  1.7760
 5941SOL     OW29284   0.651   3.438  17.543 -0.2150  0.2096  0.1808
 5941SOL    HW129285   0.598   3.421  17.621  0.4247 -2.7614 -0.0544
 5941SOL    HW229286   0.631   3.532  17.538  1.7154  0.4855 -2.5614
 5942SOL     OW29287   2.252   1.605   5.594 -0.2769  0.1210  0.1860
 5942SOL    HW129288   2.165   1.628   5.562  0.4896  1.2914 -1.0608
 5942SOL    HW229289   2.312   1.661   5.546 -2.0308  1.4584 -0.4218
 5943SOL     OW29290   3.476   0.036  10.894  0.4204  0.8601 -0.0630
 5943SOL    HW129291   3.384   0.049  10.872 -0.0320 -1.3160  0.5506
 5943SOL    HW229292   3.491   0.092  10.970  0.3655 -0.7686  1.1438
 5944SOL     OW29293   1.719   2.511   3.456  0.3185  0.5408  0.4217
 5944SOL    HW129294   1.749   2.497   3.546 -0.1654 -0.9733  0.3580
 5944SOL    HW229295   1.643   2.452   3.453  1.0115 -0.2750 -1.2468
 5945SOL     OW29296   4.313   3.491   5.412  0.2064 -0.2131 -0.9008
 5945SOL    HW129297   4.255   3.564   5.392  2.3903  2.1138  1.3269
 5945SOL    HW229298   4.389   3.546   5.433  0.4806 -0.6652 -0.7048
 5946SOL     OW29299   0.391   1.271   5.297  0.1444  0.1101 -0.4341
 5946SOL    HW129300   0.432   1.356   5.278 -0.9606  0.8513  0.5053
 5946SOL    HW229301   0.308   1.302   5.334  1.0758  0.5109  1.3168
 5947SOL     OW29302   1.284   4.114   6.248  0.6219  0.2736 -0.4722
 5947SOL    HW129303   1.250   4.060   6.319  1.1487 -1.2729 -1.4048
 5947SOL    HW229304   1.346   4.056   6.204 -1.9285 -1.6176 -1.5729
 5948SOL     OW29305   1.843   1.744  12.413  0.1138 -0.1378  0.3790
 5948SOL    HW129306   1.793   1.690  12.474  0.1070 -1.2349 -0.5899
 5948SOL    HW229307   1.774   1.775  12.354  1.5149  2.5144  0.1296
 5949SOL     OW29308   3.038   0.140   7.642 -0.2839  0.1748 -0.1527
 5949SOL    HW129309   3.007   0.142   7.552 -0.5740  1.0660 -0.0330
 5949SOL    HW229310   2.962   0.148   7.700 -1.4486 -2.0569 -1.3751
 5950SOL     OW29311   1.045   4.657   1.808 -0.4521 -0.2755  0.5600
 5950SOL    HW129312   1.029   4.715   1.733  1.5430  0.8291  0.9960
 5950SOL    HW229313   0.959   4.622   1.832 -0.1153  0.2050  2.4385
 5951SOL     OW29314   4.425   0.447  16.004 -0.4786 -0.0206  0.3629
 5951SOL    HW129315   4.512   0.417  16.030 -0.0745  0.7760 -0.0766
 5951SOL    HW229316   4.395   0.487  16.085 -1.3870 -1.4362  0.7346
 5952SOL     OW29317   4.597   1.640  15.111 -0.1974 -0.5155  0.8612
 5952SOL    HW129318   4.576   1.582  15.183  3.0680 -0.9024  1.4838
 5952SOL    HW229319   4.627   1.714  15.163  3.0562 -1.2274 -0.0280
 5953SOL     OW29320   1.817   0.756   7.344 -0.0805  0.0239  0.7270
 5953SOL    HW129321   1.821   0.712   7.260 -0.9072  0.4495  0.4606
 5953SOL    HW229322   1.897   0.727   7.389 -0.2213  1.7051  2.0893
 5954SOL     OW29323   2.475   3.541   8.270 -0.4093 -0.0091 -0.0111
 5954SOL    HW129324   2.531   3.618   8.265 -0.1208 -0.2914 -1.1362
 5954SOL    HW229325   2.542   3.473   8.275  0.5372  0.6759 -3.3694
 5955SOL     OW29326   1.082   0.130   8.685 -0.1749  0.4634 -0.0851
 5955SOL    HW129327   1.084   0.217   8.643 -1.5260 -0.2958 -1.7035
 5955SOL    HW229328   1.000   0.100   8.647  0.5051 -1.1649 -0.2544
 5956SOL     OW29329   2.553   1.743   4.492 -0.0852 -0.3197  0.1086
 5956SOL    HW129330   2.604   1.668   4.523  1.5943  1.2351  1.0915
 5956SOL    HW229331   2.503   1.763   4.571  2.2885 -0.8120  1.7070
 5957SOL     OW29332   0.158   4.481  17.422  0.0659 -0.0864  0.2320
 5957SOL    HW129333   0.174   4.559  17.474 -3.1046  1.2198 -0.7023
 5957SOL    HW229334   0.063   4.471  17.425 -0.0458  0.9075  0.0190
 5958SOL     OW29335   2.046   3.848   7.180  0.0400 -0.0169 -0.4479
 5958SOL    HW129336   2.055   3.897   7.098 -0.5098  0.7746 -0.0432
 5958SOL    HW229337   2.088   3.766   7.152  1.0599  0.7980 -1.3039
 5959SOL     OW29338   0.448   4.061   5.215 -0.0707  0.2923 -0.1521
 5959SOL    HW129339   0.402   3.977   5.211 -0.8203  0.7478 -1.0254
 5959SOL    HW229340   0.422   4.110   5.138 -0.5328  0.4587  0.1119
 5960SOL     OW29341   1.406   2.353   4.988  0.2900  0.2777  0.5119
 5960SOL    HW129342   1.318   2.372   5.020 -0.4609 -0.9422 -0.8151
 5960SOL    HW229343   1.416   2.263   5.018  2.0410 -0.1046 -1.1682
 5961SOL     OW29344   1.199   2.588  10.322 -0.6979  0.0967  0.0088
 5961SOL    HW129345   1.113   2.603  10.363 -0.7798 -0.1586 -0.0644
 5961SOL    HW229346   1.231   2.511  10.370 -0.4806  0.5308  0.5594
 5962SOL     OW29347   1.413   3.720  14.993 -0.4976  0.1988  0.2776
 5962SOL    HW129348   1.363   3.770  14.930 -1.3356 -0.2600  0.5752
 5962SOL    HW229349   1.474   3.674  14.936  0.8741 -0.1424  1.9935
 5963SOL     OW29350   4.267   4.655   0.826  0.4952  0.1149  0.4194
 5963SOL    HW129351   4.273   4.612   0.741  0.8284 -1.2262  1.1157
 5963SOL    HW229352   4.179   4.637   0.859 -0.6034  0.2714 -2.4525
 5964SOL     OW29353   2.811   4.436   9.121 -0.2616  0.2110 -0.4244
 5964SOL    HW129354   2.725   4.475   9.108 -1.4487 -2.1610  0.4873
 5964SOL    HW229355   2.786   4.344   9.130  0.5162  0.3596  2.9490
 5965SOL     OW29356   0.971   0.574   0.388 -0.5749 -0.2330 -0.2283
 5965SOL    HW129357   0.964   0.647   0.327 -1.3432  0.2043  0.3822
 5965SOL    HW229358   1.064   0.551   0.390 -0.4814  0.0690 -1.2920
 5966SOL     OW29359   0.627   3.702  17.579  0.4550 -0.0297 -0.0744
 5966SOL    HW129360   0.583   3.731  17.659  0.0629  0.1949 -0.3737
 5966SOL    HW229361   0.706   3.755  17.567 -0.8472  1.6801 -1.0371
 5967SOL     OW29362   2.557   3.224   3.277  0.1791 -0.3579 -0.1709
 5967SOL    HW129363   2.610   3.198   3.202 -1.3626  2.9373 -2.4121
 5967SOL    HW229364   2.536   3.313   3.247 -2.4249 -0.6983  0.6143
 5968SOL     OW29365   4.362   2.590  13.314  0.8124  0.0101 -0.4768
 5968SOL    HW129366   4.303   2.531  13.360 -0.8635  2.7571  0.8465
 5968SOL    HW229367   4.326   2.675  13.338 -1.3792 -0.8504 -0.7430
 5969SOL     OW29368   4.573   0.431  14.164  0.5394 -0.3670 -0.2071
 5969SOL    HW129369   4.559   0.361  14.101 -0.2324 -1.5096  1.2415
 5969SOL    HW229370   4.572   0.509  14.109 -1.5354  0.6139  1.2283
 5970SOL     OW29371   1.397   3.213   4.310 -0.1158  0.2038 -0.4063
 5970SOL    HW129372   1.410   3.279   4.378 -0.3659 -0.9444  0.7717
 5970SOL    HW229373   1.479   3.166   4.323  0.7855  1.9589  0.2000
 5971SOL     OW29374   3.694   4.504   0.087  0.0833 -0.1141 -0.1143
 5971SOL    HW129375   3.716   4.554   0.165 -0.7602  0.3127 -0.1506
 5971SOL    HW229376   3.674   4.417   0.123  0.1386 -0.0091  0.1690
 5972SOL     OW29377   3.145   4.573   3.896  0.3595 -0.0245  0.4996
 5972SOL    HW129378   3.197   4.495   3.880  1.3270  0.6652  0.3174
 5972SOL    HW229379   3.096   4.522   3.961  0.2632 -0.5001  0.0566
 5973SOL     OW29380   3.714   3.331   6.451 -0.3668  0.8083  0.0995
 5973SOL    HW129381   3.775   3.328   6.524  0.4734 -1.0106 -0.6541
 5973SOL    HW229382   3.644   3.274   6.483  0.0251  0.4937  0.3898
 5974SOL     OW29383   3.584   0.473   8.456  0.6293 -0.6948 -0.4869
 5974SOL    HW129384   3.520   0.459   8.387 -1.9175 -0.0500  1.7408
 5974SOL    HW229385   3.530   0.529   8.512  2.3868  0.8532 -0.3388
 5975SOL     OW29386   4.214   2.728  16.310 -0.1199  0.2497  0.4458
 5975SOL    HW129387   4.215   2.804  16.368 -1.9423 -2.5827  4.2122
 5975SOL    HW229388   4.163   2.665  16.361  1.9902 -2.0164 -0.1963
 5976SOL     OW29389   0.303   1.887  11.818 -0.5994  0.4414  0.8143
 5976SOL    HW129390   0.214   1.920  11.808 -1.0575 -1.4173 -1.2140
 5976SOL    HW229391   0.318   1.821  11.750  0.6587  2.1074 -0.5336
 5977SOL     OW29392   0.804   0.327   5.865 -0.4545 -0.1253  0.0729
 5977SOL    HW129393   0.869   0.296   5.802  1.0710  0.0998  1.5722
 5977SOL    HW229394   0.797   0.258   5.931 -2.1829  0.3065  0.3529
 5978SOL     OW29395   1.624   3.102   8.818  0.4775  0.0168 -0.2878
 5978SOL    HW129396   1.690   3.039   8.789  1.8671  1.8244 -1.0672
 5978SOL    HW229397   1.581   3.119   8.734 -2.5567  0.2355  1.3065
 5979SOL     OW29398   0.116   1.629   2.256  0.3325 -0.1495  0.2904
 5979SOL    HW129399   0.154   1.623   2.168  1.8523 -0.2493  0.9534
 5979SOL    HW229400   0.023   1.619   2.234  0.6614 -1.7841 -0.3179
 5980SOL     OW29401   2.222   1.666  15.686 -0.2929  0.1255 -0.2742
 5980SOL    HW129402   2.144   1.688  15.737 -0.2354  1.6449 -0.8656
 5980SOL    HW229403   2.179   1.665  15.601 -0.7847 -0.0576 -0.0208
 5981SOL     OW29404   3.209   2.500   2.008  0.3880 -0.3402  0.3781
 5981SOL    HW129405   3.240   2.585   2.040 -0.2024  0.0795 -0.1738
 5981SOL    HW229406   3.117   2.512   2.033 -0.3138  0.6861 -2.8040
 5982SOL     OW29407   2.938   2.646   7.893 -0.6668 -0.0636  0.1946
 5982SOL    HW129408   2.996   2.721   7.895  1.3877 -1.6912  1.1154
 5982SOL    HW229409   3.007   2.582   7.876  0.4290  0.8593  1.2281
 5983SOL     OW29410   3.023   3.764  13.499  0.2144 -0.0379 -0.2215
 5983SOL    HW129411   2.973   3.684  13.484 -1.1194  0.9040 -0.7919
 5983SOL    HW229412   2.968   3.808  13.564 -0.4960 -0.2548 -0.6692
 5984SOL     OW29413   2.595   1.908   5.998 -0.3921 -0.2600 -0.3373
 5984SOL    HW129414   2.505   1.931   5.976 -0.1562  0.3079 -0.7085
 5984SOL    HW229415   2.594   1.938   6.089  1.5507 -0.2918 -0.3060
 5985SOL     OW29416   2.134   0.818   7.030 -0.1457  0.0854 -0.1097
 5985SOL    HW129417   2.106   0.879   7.099 -1.4490 -1.2110  0.5236
 5985SOL    HW229418   2.054   0.808   6.980  0.5993 -0.8058 -1.1120
 5986SOL     OW29419   1.342   1.061   5.149 -0.3783  0.1028  0.6695
 5986SOL    HW129420   1.352   1.134   5.087 -0.1141 -0.0962  0.4730
 5986SOL    HW229421   1.425   1.072   5.196 -0.3190  0.0305  0.5839
 5987SOL     OW29422   4.036   1.148   2.491 -0.2857  0.3673 -0.0343
 5987SOL    HW129423   3.964   1.108   2.540  0.7491 -1.0064  0.3502
 5987SOL    HW229424   4.110   1.134   2.550 -0.3156  0.4167  0.0149
 5988SOL     OW29425   2.552   3.357  14.785 -0.0705  0.2713  0.2493
 5988SOL    HW129426   2.615   3.294  14.751 -1.1079  0.0297 -1.1960
 5988SOL    HW229427   2.492   3.353  14.711  1.4187 -0.5177 -0.9234
 5989SOL     OW29428   1.661   2.015  12.927 -0.2905 -0.0464 -0.3506
 5989SOL    HW129429   1.703   1.973  12.852  2.9066 -0.5731  1.7337
 5989SOL    HW229430   1.695   2.104  12.921 -1.8112  0.4459 -1.7186
 5990SOL     OW29431   1.921   1.815  16.211 -0.0367 -0.3880 -0.1734
 5990SOL    HW129432   1.986   1.861  16.263  0.0138  1.6518 -2.0458
 5990SOL    HW229433   1.848   1.874  16.230  0.9665  1.8536 -3.3109
 5991SOL     OW29434   0.515   2.796   4.088 -0.1418  0.2246  0.2418
 5991SOL    HW129435   0.431   2.822   4.126 -0.6354 -1.3817  0.2522
 5991SOL    HW229436   0.488   2.731   4.023 -0.4388  1.7435 -1.1467
 5992SOL     OW29437   3.336   3.350   3.235 -0.0864  0.3758  0.3296
 5992SOL    HW129438   3.302   3.266   3.205  0.2335  0.9850 -1.7815
 5992SOL    HW229439   3.392   3.375   3.162  0.6643  0.4739  0.9425
 5993SOL     OW29440   0.073   0.170   3.269 -0.4519 -0.2050  0.7682
 5993SOL    HW129441   4.722   0.118   3.293 -1.1440  0.1925 -0.6212
 5993SOL    HW229442   0.085   0.239   3.334  0.9478  1.0865 -0.8778
 5994SOL     OW29443   3.918   2.238   3.539 -0.4446  0.5458 -0.0281
 5994SOL    HW129444   3.898   2.331   3.525 -1.6278  0.4403  1.0080
 5994SOL    HW229445   3.893   2.202   3.454 -3.0395  0.5354  0.7460
 5995SOL     OW29446   2.910   2.687   4.464  0.0155  0.3671 -0.4536
 5995SOL    HW129447   2.962   2.727   4.394  2.9367 -0.2312  1.3739
 5995SOL    HW229448   2.848   2.628   4.421  0.3595 -0.1450 -0.2568
 5996SOL     OW29449   4.139   2.295   5.352 -0.0466 -0.4409 -0.3782
 5996SOL    HW129450   4.076   2.229   5.380  0.4569 -0.1342  1.4665
 5996SOL    HW229451   4.117   2.364   5.414 -1.3520 -1.3295  0.1559
 5997SOL     OW29452   1.867   1.614   7.166  0.2384 -0.2677  0.1593
 5997SOL    HW129453   1.787   1.626   7.115  1.4066 -1.5414 -1.9998
 5997SOL    HW229454   1.866   1.668   7.245  0.4299  1.0427 -0.7493
 5998SOL     OW29455   3.298   2.598  11.401  0.2289  0.3011 -0.1579
 5998SOL    HW129456   3.292   2.515  11.355  1.2431  0.2090 -0.1192
 5998SOL    HW229457   3.216   2.596  11.451  0.2386 -0.7416 -0.2011
 5999SOL     OW29458   4.097   1.013   4.043  0.0813  0.0959 -0.7282
 5999SOL    HW129459   4.095   1.093   4.095 -1.1526  0.4691 -1.3573
 5999SOL    HW229460   4.187   0.999   4.014 -0.0389 -2.8943  0.3164
 6000SOL     OW29461   0.233   2.918   8.759  0.2151  0.2038  0.5386
 6000SOL    HW129462   0.260   2.864   8.684 -1.8796 -2.4027  1.6694
 6000SOL    HW229463   0.154   2.880   8.796 -1.5235  3.3170  0.0134
 6001SOL     OW29464   0.584   4.508   0.910 -0.1408  0.2229  0.1130
 6001SOL    HW129465   0.554   4.471   0.827 -0.5730  0.8494 -0.0108
 6001SOL    HW229466   0.533   4.588   0.925  0.2461  0.3853  0.5624
 6002SOL     OW29467   3.038   1.600   4.194 -0.4865 -0.1799  0.2511
 6002SOL    HW129468   3.020   1.688   4.228 -1.6196 -0.7186  1.0602
 6002SOL    HW229469   3.120   1.585   4.242 -1.6507 -0.7377  2.0841
 6003SOL     OW29470   0.065   1.589   1.593 -0.1003  0.5042 -0.0628
 6003SOL    HW129471   0.150   1.591   1.638  0.1401 -2.2713 -0.4288
 6003SOL    HW229472   0.013   1.547   1.662  0.7238  2.1942  1.5932
 6004SOL     OW29473   1.941   1.499   6.394 -0.3117 -0.1101 -0.4044
 6004SOL    HW129474   1.956   1.582   6.349  2.7983  0.3262  1.4320
 6004SOL    HW229475   2.032   1.483   6.417 -0.0651 -0.0985 -1.3952
 6005SOL     OW29476   0.396   2.999   4.684 -0.2072 -0.1505  0.2314
 6005SOL    HW129477   0.318   3.028   4.637  0.3851  0.3410 -0.4438
 6005SOL    HW229478   0.359   2.945   4.754  0.4914  0.9084  1.4173
 6006SOL     OW29479   2.801   4.525   6.184  0.0878 -0.7942  0.1688
 6006SOL    HW129480   2.739   4.582   6.138 -0.4728 -2.2352 -0.8274
 6006SOL    HW229481   2.746   4.494   6.256 -0.9144 -0.7036 -0.5557
 6007SOL     OW29482   3.237   2.621   5.324  0.1254  0.3585  0.1604
 6007SOL    HW129483   3.237   2.550   5.388  1.2809 -0.6967 -1.0296
 6007SOL    HW229484   3.223   2.702   5.375 -0.7151  0.0242  0.4595
 6008SOL     OW29485   2.381   3.665   5.200  0.4310 -0.3968  0.3977
 6008SOL    HW129486   2.302   3.654   5.252  1.2542 -2.7042  1.1628
 6008SOL    HW229487   2.396   3.759   5.202  0.0441 -0.3469  0.7779
 6009SOL     OW29488   4.696   2.877   7.011 -0.4772 -0.8434  0.2243
 6009SOL    HW129489   4.687   2.911   6.922 -0.5359 -0.7131  0.2790
 6009SOL    HW229490   4.603   2.868   7.031  0.1804 -4.4543  1.5097
 6010SOL     OW29491   3.416   0.850  10.623 -0.3537  0.4579 -0.1228
 6010SOL    HW129492   3.374   0.865  10.539 -1.0721 -3.4978 -0.4689
 6010SOL    HW229493   3.351   0.904  10.669  0.9671  0.6429  1.5504
 6011SOL     OW29494   3.373   4.504  13.801 -0.0834  0.0659 -0.2832
 6011SOL    HW129495   3.332   4.583  13.836  0.1748  0.3938 -0.7259
 6011SOL    HW229496   3.295   4.469  13.758  0.8061 -2.1846 -0.0423
 6012SOL     OW29497   1.164   3.783   1.082 -0.6476  0.8045  0.1388
 6012SOL    HW129498   1.216   3.809   1.158  1.3648  0.7443 -1.2154
 6012SOL    HW229499   1.201   3.837   1.011 -0.9999 -0.7818 -1.2521
 6013SOL     OW29500   2.766   3.183   6.026  0.5107  0.0069 -0.1793
 6013SOL    HW129501   2.845   3.234   6.011 -0.1025  0.3611 -2.2309
 6013SOL    HW229502   2.700   3.243   6.061 -1.2219 -2.2643  0.4987
 6014SOL     OW29503   1.144   3.413   6.616  0.0191 -0.2354  0.6319
 6014SOL    HW129504   1.062   3.428   6.568 -1.0103  0.3329  2.5866
 6014SOL    HW229505   1.214   3.433   6.553 -0.3579  2.6721  1.1118
 6015SOL     OW29506   3.470   0.284   2.939 -0.2948 -0.0190 -0.0877
 6015SOL    HW129507   3.472   0.280   3.035  1.8054 -1.3124 -0.1842
 6015SOL    HW229508   3.412   0.209   2.935 -0.9420  0.5389 -1.1183
 6016SOL     OW29509   1.407   3.401   4.501  0.8519 -0.3212  0.1318
 6016SOL    HW129510   1.465   3.408   4.577 -0.4387  1.8810  0.8888
 6016SOL    HW229511   1.443   3.481   4.464 -0.1899  0.2860  0.4316
 6017SOL     OW29512   4.561   2.535   5.331 -0.1534 -0.5433 -0.6711
 6017SOL    HW129513   4.543   2.535   5.425 -2.2774  0.3510 -1.0888
 6017SOL    HW229514   4.644   2.488   5.330  0.5855  0.7594  0.2424
 6018SOL     OW29515   1.042   2.828  15.949 -0.3125 -0.3904  0.4548
 6018SOL    HW129516   1.068   2.920  15.941 -0.9721 -0.1407  1.2437
 6018SOL    HW229517   1.041   2.801  16.040 -0.0802  0.9073  0.8469
 6019SOL     OW29518   2.112   0.891   2.989  0.5638 -0.0312  0.0005
 6019SOL    HW129519   2.104   0.847   3.074  0.3265 -0.0524 -0.0334
 6019SOL    HW229520   2.203   0.921   2.999  0.3470  0.0218  1.8592
 6020SOL     OW29521   2.182   2.648  16.771 -0.2932 -0.2196 -0.0212
 6020SOL    HW129522   2.258   2.596  16.746  0.7604  1.0104  0.6064
 6020SOL    HW229523   2.132   2.588  16.825 -0.2847  0.8218  1.1509
 6021SOL     OW29524   1.370   1.069  14.816  0.3220 -0.0303 -0.1132
 6021SOL    HW129525   1.412   1.037  14.896 -0.9466  1.1718  1.0415
 6021SOL    HW229526   1.348   1.157  14.848 -0.6361 -0.9980  1.8529
 6022SOL     OW29527   2.780   2.957   0.534  1.1778 -0.2883 -0.4189
 6022SOL    HW129528   2.702   2.957   0.479  1.4658 -0.0751 -0.8250
 6022SOL    HW229529   2.819   3.044   0.524 -1.0130  0.6081 -1.2905
 6023SOL     OW29530   4.209   4.304  12.845  0.0374  0.3973  0.2452
 6023SOL    HW129531   4.181   4.268  12.930  2.5473  0.5715  1.1564
 6023SOL    HW229532   4.293   4.345  12.866 -0.2302  1.4640 -0.7234
 6024SOL     OW29533   4.240   0.452   5.217  0.0506  0.0697 -0.4515
 6024SOL    HW129534   4.305   0.522   5.211  0.2111 -0.1927 -1.7826
 6024SOL    HW229535   4.232   0.424   5.308 -0.0676  1.1937 -0.1202
 6025SOL     OW29536   1.310   2.372   2.249  0.0185 -0.2643  0.4840
 6025SOL    HW129537   1.292   2.449   2.195  0.1626 -1.5706 -1.4027
 6025SOL    HW229538   1.401   2.387   2.276  0.4823 -2.2032 -0.0669
 6026SOL     OW29539   0.308   0.586   4.498 -0.1940 -0.2895 -0.2030
 6026SOL    HW129540   0.320   0.591   4.593  1.4383  0.1309 -0.4312
 6026SOL    HW229541   0.219   0.621   4.499 -0.3819 -0.7504 -1.2156
 6027SOL     OW29542   3.391   0.382   4.108  0.4038  0.0159  0.4892
 6027SOL    HW129543   3.323   0.388   4.041 -1.5556 -0.3792  2.4301
 6027SOL    HW229544   3.470   0.390   4.053  1.3029  1.3766  1.9986
 6028SOL     OW29545   0.367   4.718   5.024 -0.1153 -0.4121 -0.3012
 6028SOL    HW129546   0.415   0.053   4.967 -0.8295  1.3572  0.9995
 6028SOL    HW229547   0.280   4.715   4.983  0.5538  1.3786 -1.8061
 6029SOL     OW29548   0.538   0.675  10.080  0.3772  0.3257  0.0672
 6029SOL    HW129549   0.622   0.659  10.123  1.5426  2.0505 -1.5929
 6029SOL    HW229550   0.477   0.632  10.140 -0.3934 -1.3056 -1.8894
 6030SOL     OW29551   3.032   0.147   5.526 -0.4418  0.0451 -0.0902
 6030SOL    HW129552   3.006   0.150   5.618  0.4256  0.4865  0.1361
 6030SOL    HW229553   2.956   0.192   5.490 -1.2667 -0.9433  0.4153
 6031SOL     OW29554   2.842   4.683  11.780  0.4634 -0.0116  0.6589
 6031SOL    HW129555   2.853   0.014  11.705 -0.6053  1.3492  1.5373
 6031SOL    HW229556   2.824   4.597  11.742  0.7518  0.3108 -0.1934
 6032SOL     OW29557   1.624   4.197  17.076 -0.0547  0.1782 -0.0291
 6032SOL    HW129558   1.570   4.134  17.125  0.8800  0.4308  1.3196
 6032SOL    HW229559   1.680   4.136  17.028 -0.0520  1.1164 -1.2254
 6033SOL     OW29560   1.672   0.303  14.779 -0.7723  0.0826 -0.2034
 6033SOL    HW129561   1.726   0.365  14.730 -0.0212 -0.7305 -0.4034
 6033SOL    HW229562   1.614   0.368  14.819 -0.9862 -1.1763  1.5685
 6034SOL     OW29563   3.634   4.350   4.727  0.2980 -0.2089 -0.0004
 6034SOL    HW129564   3.570   4.326   4.659 -1.2105 -1.4205  1.8587
 6034SOL    HW229565   3.694   4.406   4.679 -0.8000  2.3005  1.5739
 6035SOL     OW29566   1.441   3.706   7.854  0.3150 -0.0091  0.0173
 6035SOL    HW129567   1.354   3.685   7.888  0.7306  2.3319  2.5632
 6035SOL    HW229568   1.416   3.687   7.763  0.8373  0.4209 -0.2109
 6036SOL     OW29569   2.606   1.739  16.854  0.0902 -0.1605 -0.2617
 6036SOL    HW129570   2.687   1.789  16.851  0.2126 -0.2069  2.1381
 6036SOL    HW229571   2.647   1.652  16.850 -1.5945 -1.0055  0.6527
 6037SOL     OW29572   3.088   0.015   7.054  0.1243  0.2095 -0.0438
 6037SOL    HW129573   3.072   0.082   6.988  2.3798 -1.2112 -2.0645
 6037SOL    HW229574   3.180   4.725   7.035  0.2639 -0.2165  0.9778
 6038SOL     OW29575   0.966   4.147   0.625 -0.1829  0.4785  0.0894
 6038SOL    HW129576   0.968   4.190   0.539  0.2089 -3.0584 -1.6848
 6038SOL    HW229577   0.928   4.220   0.674 -0.0957  1.9149 -1.9887
 6039SOL     OW29578   0.418   3.014   6.225  0.0960  0.9287  0.1763
 6039SOL    HW129579   0.510   2.993   6.241  0.2332  0.9641 -0.5424
 6039SOL    HW229580   0.385   3.018   6.315 -1.4925 -3.2222 -0.1772
 6040SOL     OW29581   3.968   2.804  17.118 -0.6525  0.0185  0.2208
 6040SOL    HW129582   3.919   2.868  17.067 -1.4761  0.0298  1.0358
 6040SOL    HW229583   3.939   2.818  17.208 -0.8281  0.1833  0.1365
 6041SOL     OW29584   3.022   3.949   2.982 -0.4716 -0.2180 -0.2246
 6041SOL    HW129585   2.938   3.936   2.938 -0.0127 -1.8279 -0.6421
 6041SOL    HW229586   3.038   3.865   3.025 -1.1793 -0.1054  0.2561
 6042SOL     OW29587   2.657   2.459   3.065  0.1474  0.1480 -0.2771
 6042SOL    HW129588   2.575   2.419   3.096  0.2325  0.7771  0.7785
 6042SOL    HW229589   2.658   2.444   2.971 -3.2267  1.6553 -0.5509
 6043SOL     OW29590   4.343   2.381   8.200  0.0308  0.2529 -0.0939
 6043SOL    HW129591   4.348   2.439   8.276  0.2924  0.9553 -0.6472
 6043SOL    HW229592   4.352   2.297   8.245  0.6887 -0.2420 -1.1415
 6044SOL     OW29593   3.291   0.649   4.670 -0.4973 -0.4393  0.3862
 6044SOL    HW129594   3.246   0.576   4.713 -1.7198  1.3074  2.0991
 6044SOL    HW229595   3.349   0.594   4.617 -0.8316 -0.0698 -0.3697
 6045SOL     OW29596   1.972   1.536   6.720  0.2937  0.8194 -0.6035
 6045SOL    HW129597   1.895   1.583   6.690  0.4649  1.3139 -0.2719
 6045SOL    HW229598   1.926   1.476   6.779  0.6531  0.3307 -0.8131
 6046SOL     OW29599   1.461   0.063   6.577  0.2421  0.4224  0.2077
 6046SOL    HW129600   1.396   0.069   6.647  0.9292  1.8816  0.7273
 6046SOL    HW229601   1.547   0.058   6.620 -0.3788 -1.6123  1.2531
 6047SOL     OW29602   0.069   0.192   6.259  0.3202  0.0691  0.0831
 6047SOL    HW129603   4.702   0.208   6.241  0.8403  0.7338 -1.9475
 6047SOL    HW229604   0.059   0.124   6.326 -0.2182 -0.2822 -0.3555
 6048SOL     OW29605   3.108   4.361   9.119 -0.0561 -0.3507 -0.2684
 6048SOL    HW129606   3.099   4.350   9.024  0.2222  1.6250 -0.5331
 6048SOL    HW229607   3.020   4.397   9.123  0.8586  2.0897 -1.8225
 6049SOL     OW29608   3.498   0.043  14.112  0.1605  0.8292 -0.1220
 6049SOL    HW129609   3.511   0.136  14.135  2.1195  0.3200  0.8912
 6049SOL    HW229610   3.441   0.055  14.037 -0.7513  1.2104  0.6292
 6050SOL     OW29611   0.134   1.601   2.915  0.4735  0.7885  0.2645
 6050SOL    HW129612   0.100   1.644   2.993 -0.8902 -0.3294  0.2950
 6050SOL    HW229613   0.111   1.665   2.848 -0.4803  0.9019  0.7126
 6051SOL     OW29614   3.594   3.999  14.802 -0.2508  0.0531 -0.6489
 6051SOL    HW129615   3.585   4.038  14.715  0.5441  0.7542 -0.4180
 6051SOL    HW229616   3.602   3.905  14.787  2.3284 -0.3071  3.0027
 6052SOL     OW29617   3.281   1.093   6.488 -0.3899  0.1723  0.2770
 6052SOL    HW129618   3.197   1.138   6.492  0.0060  0.8276  1.3225
 6052SOL    HW229619   3.311   1.094   6.579 -0.4365 -2.9907  0.3134
 6053SOL     OW29620   1.429   0.912   8.380 -0.1403 -0.0760 -0.2869
 6053SOL    HW129621   1.521   0.935   8.370 -0.8412  2.7661 -0.1283
 6053SOL    HW229622   1.431   0.844   8.448  1.1745  0.9500  0.7162
 6054SOL     OW29623   0.077   0.275   0.046  0.0475  0.5285 -0.2733
 6054SOL    HW129624   0.133   0.226   0.106 -2.7624 -2.5193 -0.1675
 6054SOL    HW229625   0.135   0.351   0.046  0.2830  0.3361  1.0914
 6055SOL     OW29626   3.847   3.413   8.390 -0.9102  0.9527  0.4068
 6055SOL    HW129627   3.794   3.471   8.336 -0.2869  1.1020 -0.0417
 6055SOL    HW229628   3.871   3.349   8.323 -1.4554 -0.9048  1.9839
 6056SOL     OW29629   3.275   2.121  15.938 -0.2015  0.0323 -0.2940
 6056SOL    HW129630   3.233   2.206  15.921  0.6794  0.1851 -1.7265
 6056SOL    HW229631   3.264   2.074  15.856  1.6381  1.1970 -1.2168
 6057SOL     OW29632   0.272   0.872   5.865  0.1391  0.2090  0.7515
 6057SOL    HW129633   0.248   0.866   5.958 -0.7143 -2.1150  0.3806
 6057SOL    HW229634   0.223   0.794   5.838 -1.9213  1.6993  0.2153
 6058SOL     OW29635   3.492   0.522  10.024 -0.5659  0.0713  0.3898
 6058SOL    HW129636   3.503   0.535   9.930  0.6587 -1.7004  0.3079
 6058SOL    HW229637   3.408   0.565  10.041 -0.3058  0.1773  1.4071
 6059SOL     OW29638   0.739   1.835   1.114 -0.1281  0.1181  0.3643
 6059SOL    HW129639   0.823   1.881   1.116  0.0056 -0.0922 -0.3630
 6059SOL    HW229640   0.745   1.775   1.040 -1.4356 -0.5015  0.7588
 6060SOL     OW29641   2.928   2.222  14.925  0.2723 -0.4217 -0.3768
 6060SOL    HW129642   2.835   2.208  14.941  0.5129 -2.4065 -0.6321
 6060SOL    HW229643   2.943   2.206  14.832 -0.5732  0.0682 -0.6010
 6061SOL     OW29644   3.381   3.761   0.783 -0.8286  0.0237  0.2597
 6061SOL    HW129645   3.296   3.803   0.770 -1.4441 -0.7901  1.6848
 6061SOL    HW229646   3.424   3.836   0.825 -2.3233  1.4544 -0.7623
 6062SOL     OW29647   4.712   1.529  11.833 -0.5192  0.3288 -0.0412
 6062SOL    HW129648   0.026   1.442  11.833  0.5399  0.8183  1.3508
 6062SOL    HW229649   4.630   1.522  11.882  0.0098 -0.7084  0.7008
 6063SOL     OW29650   0.440   0.758   7.087  0.3148 -0.0599 -0.1241
 6063SOL    HW129651   0.478   0.837   7.125  0.9778 -0.9537  1.0741
 6063SOL    HW229652   0.466   0.690   7.149  0.8722  1.1243  0.9432
 6064SOL     OW29653   4.565   1.398  12.095 -0.2602 -0.0631  0.6037
 6064SOL    HW129654   4.610   1.471  12.136 -0.3695 -0.8253  2.0820
 6064SOL    HW229655   4.601   1.316  12.128 -0.0058 -0.0341  0.3948
 6065SOL     OW29656   2.160   0.399   0.628  0.2733 -0.2359 -0.5770
 6065SOL    HW129657   2.147   0.450   0.708  2.8754 -0.7259  0.1802
 6065SOL    HW229658   2.241   0.355   0.656  0.1401 -0.8529 -1.1636
 6066SOL     OW29659   3.662   3.723   3.674  0.0197 -0.2206 -0.0586
 6066SOL    HW129660   3.600   3.791   3.649 -2.3898 -2.5162 -0.3201
 6066SOL    HW229661   3.744   3.773   3.668 -1.2253  1.7657 -0.5292
 6067SOL     OW29662   3.679   3.850  17.132 -0.1358  0.1023  0.3141
 6067SOL    HW129663   3.670   3.761  17.100 -1.9309  0.2846  0.3191
 6067SOL    HW229664   3.767   3.852  17.172  0.0212 -2.3548  0.0856
 6068SOL     OW29665   1.091   4.602  10.689 -0.0199 -0.4078 -0.1984
 6068SOL    HW129666   1.003   4.603  10.651  0.9131  0.1157 -2.3330
 6068SOL    HW229667   1.061   4.568  10.773  1.2659 -1.2697 -0.0923
 6069SOL     OW29668   0.753   2.945   1.607  0.2446 -0.3532 -0.1251
 6069SOL    HW129669   0.694   2.895   1.550  0.0434 -0.4628  0.1769
 6069SOL    HW229670   0.701   3.026   1.603 -0.1330 -0.6075 -0.4225
 6070SOL     OW29671   3.329   2.561  16.763  0.9304  0.4671  0.1399
 6070SOL    HW129672   3.415   2.548  16.722  0.2466 -2.8573 -0.2347
 6070SOL    HW229673   3.305   2.651  16.740  0.7050  0.9689  2.3158
 6071SOL     OW29674   2.005   1.326   7.416  0.0632  0.6335 -0.1099
 6071SOL    HW129675   1.984   1.353   7.506  3.0841 -0.0692  0.8199
 6071SOL    HW229676   1.923   1.288   7.384 -1.8098  3.6353  1.1381
 6072SOL     OW29677   4.407   2.479  13.801 -0.1601 -0.1286 -0.1424
 6072SOL    HW129678   4.335   2.531  13.763  0.3444 -0.3000 -1.3201
 6072SOL    HW229679   4.475   2.506  13.739  0.5612 -0.6939  0.4106
 6073SOL     OW29680   2.173   4.038  12.459  0.0825 -0.7465  0.4375
 6073SOL    HW129681   2.083   4.028  12.488  0.3146 -1.8702  0.7440
 6073SOL    HW229682   2.159   4.101  12.388 -0.5864  1.6577  2.7049
 6074SOL     OW29683   0.225   4.449   6.366 -0.4372 -0.2210 -0.1619
 6074SOL    HW129684   0.259   4.405   6.288  0.1542  0.2912 -0.1894
 6074SOL    HW229685   0.267   4.534   6.355 -0.9704 -0.0712 -1.0150
 6075SOL     OW29686   3.840   2.137   2.823 -0.0737 -0.0273 -0.0475
 6075SOL    HW129687   3.791   2.215   2.797 -1.2112 -1.0460 -1.0065
 6075SOL    HW229688   3.867   2.107   2.736 -2.3491 -1.0366 -0.4298
 6076SOL     OW29689   2.421   1.517   4.225 -0.2020 -0.7143  0.3530
 6076SOL    HW129690   2.354   1.476   4.170  0.1197 -1.0444  0.2119
 6076SOL    HW229691   2.380   1.602   4.244 -0.1640 -1.1976  2.6310
 6077SOL     OW29692   0.874   3.001  15.663 -0.0224  0.3174 -0.2529
 6077SOL    HW129693   0.814   3.064  15.624 -0.7661 -0.0770  0.2572
 6077SOL    HW229694   0.859   3.017  15.756 -1.3388  0.2863 -0.4512
 6078SOL     OW29695   0.945   3.082   5.267  0.5417 -0.6559  0.1081
 6078SOL    HW129696   0.880   3.052   5.329 -0.1769  0.5201 -0.0804
 6078SOL    HW229697   0.903   3.053   5.186  0.1513 -1.1070  0.4741
 6079SOL     OW29698   0.561   0.115   3.904 -0.3286 -0.4250  0.3670
 6079SOL    HW129699   0.655   0.105   3.917 -0.0336 -2.5611 -3.4165
 6079SOL    HW229700   0.546   0.208   3.921  1.1105 -0.0595 -0.3835
 6080SOL     OW29701   1.691   4.224  15.523 -0.1614  0.8647  0.4350
 6080SOL    HW129702   1.604   4.263  15.533 -0.0335  2.2228 -3.6146
 6080SOL    HW229703   1.748   4.291  15.486  0.0447  1.2214  1.3819
 6081SOL     OW29704   1.747   3.102   9.074 -0.1843  0.4419  0.4754
 6081SOL    HW129705   1.708   3.107   8.986  1.8241 -1.7642 -0.5471
 6081SOL    HW229706   1.669   3.062   9.114  0.6832 -1.7883 -0.0792
 6082SOL     OW29707   2.790   0.760   4.097 -0.4047 -0.0463 -0.6168
 6082SOL    HW129708   2.832   0.784   4.179 -1.1682 -1.8407  0.2985
 6082SOL    HW229709   2.794   0.845   4.054  1.8133 -0.0772 -0.4665
 6083SOL     OW29710   1.943   2.948   5.207 -0.4165 -0.3095 -0.1103
 6083SOL    HW129711   1.873   2.987   5.155 -1.1903  0.4540  1.4962
 6083SOL    HW229712   2.014   3.012   5.202 -0.7137  0.1367  1.3169
 6084SOL     OW29713   0.848   1.914   8.262 -0.4503  0.0705 -0.1381
 6084SOL    HW129714   0.774   1.974   8.249  0.3988  1.1955  0.2296
 6084SOL    HW229715   0.874   1.897   8.171 -0.3240 -0.6542  0.0354
 6085SOL     OW29716   0.364   0.769   3.616  0.8812  0.3181 -0.5518
 6085SOL    HW129717   0.328   0.782   3.528  1.0684 -0.6708 -0.7713
 6085SOL    HW229718   0.285   0.761   3.669  0.8148  2.0588 -0.3564
 6086SOL     OW29719   2.568   4.018   5.867  0.2284  0.0740 -0.1381
 6086SOL    HW129720   2.611   3.937   5.840  1.2109 -0.2579  2.4718
 6086SOL    HW229721   2.648   4.072   5.868  1.3754 -1.6937  1.5646
 6087SOL     OW29722   2.639   4.242   9.736  0.2488  0.3598  0.2902
 6087SOL    HW129723   2.571   4.270   9.798  0.0921  1.3209 -0.3092
 6087SOL    HW229724   2.703   4.201   9.793  2.1525  1.1731 -1.2351
 6088SOL     OW29725   3.529   4.012  10.929  0.0213  0.0336 -0.0428
 6088SOL    HW129726   3.589   4.036  11.000  1.0004 -1.1195 -0.4790
 6088SOL    HW229727   3.570   4.065  10.861  1.4474  0.4585  1.1362
 6089SOL     OW29728   4.376   0.779   3.411 -0.2177 -0.1491 -0.1802
 6089SOL    HW129729   4.303   0.754   3.354 -0.3365  0.2644 -0.2057
 6089SOL    HW229730   4.450   0.759   3.353 -0.6941 -1.1450 -0.4508
 6090SOL     OW29731   1.004   2.050   5.371 -0.1030  0.3678  0.0345
 6090SOL    HW129732   0.944   2.082   5.303  1.2506  1.0410 -0.8298
 6090SOL    HW229733   1.053   1.987   5.318 -1.5141 -1.5579  1.0178
 6091SOL     OW29734   2.393   2.623   3.516 -0.0603  0.6233  0.1009
 6091SOL    HW129735   2.454   2.565   3.562 -0.6459  0.3195  0.4829
 6091SOL    HW229736   2.455   2.674   3.463  0.1183  0.5853  0.2750
 6092SOL     OW29737   3.961   2.203   3.042  0.9826 -0.0691  0.4690
 6092SOL    HW129738   4.039   2.158   3.009  1.7379  0.8622  0.9852
 6092SOL    HW229739   3.903   2.186   2.968  0.6864  1.1472  0.4301
 6093SOL     OW29740   2.298   0.303   2.812 -0.4288  0.4370 -0.0783
 6093SOL    HW129741   2.220   0.274   2.764  0.2308  1.7642 -1.9514
 6093SOL    HW229742   2.369   0.277   2.753  0.1899  1.4900  0.2072
 6094SOL     OW29743   1.997   4.111   6.481 -0.8801 -0.2402  0.8856
 6094SOL    HW129744   1.997   4.158   6.398  1.5782  1.3091  1.7672
 6094SOL    HW229745   1.946   4.031   6.466  1.4330 -1.6106  0.3276
 6095SOL     OW29746   2.850   2.687   6.552  0.3451  0.2637 -0.2673
 6095SOL    HW129747   2.824   2.629   6.624  0.4425  2.9656  1.9605
 6095SOL    HW229748   2.807   2.649   6.476 -0.3159 -0.1156  0.2953
 6096SOL     OW29749   0.518   3.163   5.429 -0.1307 -0.2662  0.0493
 6096SOL    HW129750   0.511   3.240   5.485 -1.3266 -0.0925 -0.3488
 6096SOL    HW229751   0.460   3.100   5.472 -1.8769 -1.2196 -3.6547
 6097SOL     OW29752   3.612   1.415   5.823  0.1254 -0.6383  0.4801
 6097SOL    HW129753   3.537   1.391   5.769  0.4992 -1.3246  0.2706
 6097SOL    HW229754   3.586   1.502   5.852  2.3629 -0.0575  0.7337
 6098SOL     OW29755   2.943   2.266   2.171  0.3353 -0.0806 -0.9345
 6098SOL    HW129756   2.890   2.329   2.123 -0.6481  1.3043  2.0309
 6098SOL    HW229757   2.974   2.308   2.251  0.3834  0.2350 -1.1172
 6099SOL     OW29758   2.053   4.468   3.104  0.5366 -0.3449 -0.1983
 6099SOL    HW129759   2.012   4.525   3.039 -2.2932 -0.6138  1.3582
 6099SOL    HW229760   2.143   4.499   3.094 -0.4894  1.6610 -3.0777
 6100SOL     OW29761   0.249   0.303   8.832 -0.3113  0.7387 -0.3677
 6100SOL    HW129762   0.312   0.264   8.771  1.8727 -1.1502  3.1202
 6100SOL    HW229763   0.172   0.248   8.815 -0.3579  0.1035  1.8773
 6101SOL     OW29764   4.109   3.654   6.985  0.1263 -0.1043 -0.3830
 6101SOL    HW129765   4.039   3.669   6.922  2.4274  0.9278 -2.7234
 6101SOL    HW229766   4.081   3.713   7.054  0.6730  1.4795 -1.5053
 6102SOL     OW29767   3.308   0.205   6.608  0.2067  0.1858  0.7528
 6102SOL    HW129768   3.334   0.207   6.700 -1.6476 -0.0448  1.2867
 6102SOL    HW229769   3.258   0.287   6.613 -0.4194 -0.3802  3.6729
 6103SOL     OW29770   2.333   0.706   1.791  0.0379  0.0729  0.6714
 6103SOL    HW129771   2.378   0.644   1.733  1.2634  0.7080  0.9468
 6103SOL    HW229772   2.392   0.709   1.866 -0.4980 -0.4846  1.1084
 6104SOL     OW29773   3.884   2.660  16.296 -0.1266  0.6414  0.6321
 6104SOL    HW129774   3.903   2.747  16.262 -0.8846  0.7188  0.3949
 6104SOL    HW229775   3.951   2.648  16.363  1.1988  2.4524 -0.3684
 6105SOL     OW29776   2.209   3.461   3.091  0.2792  0.2042  0.0729
 6105SOL    HW129777   2.255   3.487   3.011 -0.1790 -2.3300 -1.0171
 6105SOL    HW229778   2.219   3.365   3.096  0.9516  0.1803 -1.7346
 6106SOL     OW29779   3.674   0.890   7.315 -0.3145  0.5168 -0.4614
 6106SOL    HW129780   3.763   0.898   7.280  0.1547  0.3868  0.6948
 6106SOL    HW229781   3.690   0.856   7.403 -2.0268  0.8517 -0.0099
 6107SOL     OW29782   0.840   0.920   5.300 -0.4104  0.3130 -0.4507
 6107SOL    HW129783   0.771   0.984   5.284  0.2869  0.9517 -0.8933
 6107SOL    HW229784   0.921   0.969   5.286 -0.3540  0.1970 -0.5320
 6108SOL     OW29785   1.390   1.436   9.442 -0.0278 -0.3000 -0.0596
 6108SOL    HW129786   1.410   1.438   9.536 -3.1903 -0.9553  0.6038
 6108SOL    HW229787   1.313   1.382   9.457 -0.6173  0.2341 -1.2114
 6109SOL     OW29788   1.187   0.129  10.665  0.0661 -0.1905  0.1287
 6109SOL    HW129789   1.162   0.036  10.661  0.7469 -0.4442  2.0376
 6109SOL    HW229790   1.182   0.139  10.760 -0.1796 -0.2037  0.1185
 6110SOL     OW29791   3.052   3.856   8.892 -0.1492 -0.0965 -0.1145
 6110SOL    HW129792   3.098   3.772   8.891  2.0512  1.1107 -0.0053
 6110SOL    HW229793   2.981   3.850   8.828 -0.2351 -1.3173  0.0938
 6111SOL     OW29794   3.972   2.895   5.878 -0.0638  0.5339 -0.1555
 6111SOL    HW129795   3.949   2.988   5.884 -1.9729  0.0291  0.1520
 6111SOL    HW229796   4.034   2.893   5.951  1.6384  1.2035 -1.5852
 6112SOL     OW29797   4.704   1.647   1.270  0.4947 -0.2130 -0.2256
 6112SOL    HW129798   0.032   1.567   1.264  0.7629 -0.0811  0.4843
 6112SOL    HW229799   0.040   1.709   1.231  2.0879 -0.9014  1.2004
 6113SOL     OW29800   4.056   1.794  15.232  0.6980 -0.2798 -0.0559
 6113SOL    HW129801   4.116   1.772  15.161  0.1427  2.4109 -1.3350
 6113SOL    HW229802   3.987   1.731  15.212 -1.2197  1.8832 -0.1226
 6114SOL     OW29803   3.748   1.038   7.898 -0.2292  0.0161  0.2802
 6114SOL    HW129804   3.736   1.122   7.855  1.1052  0.5137  0.9094
 6114SOL    HW229805   3.654   1.024   7.912 -0.0030 -0.2688  1.4510
 6115SOL     OW29806   4.061   4.142   2.713  0.0910  0.2092 -0.3372
 6115SOL    HW129807   4.013   4.156   2.631  0.0468 -1.4788 -0.6045
 6115SOL    HW229808   3.989   4.103   2.762 -0.6068  2.1873  0.1968
 6116SOL     OW29809   2.902   1.680   9.408  0.0235  0.3985  1.1302
 6116SOL    HW129810   2.963   1.622   9.453  0.4456 -0.9290 -1.1332
 6116SOL    HW229811   2.886   1.740   9.481  1.4312 -1.1973  2.7570
 6117SOL     OW29812   0.182   1.497   5.222  0.3165 -0.0492  0.1162
 6117SOL    HW129813   0.137   1.521   5.141 -0.0573 -0.4965  0.1879
 6117SOL    HW229814   0.273   1.506   5.197  0.1127  0.4757 -0.4314
 6118SOL     OW29815   3.911   0.088   0.739 -0.1053 -0.0058 -0.5844
 6118SOL    HW129816   3.838   0.124   0.688 -0.3545  0.6492  0.2326
 6118SOL    HW229817   3.969   0.050   0.673 -0.6891 -1.2545 -0.3812
 6119SOL     OW29818   4.661   3.460   5.664 -0.0805  0.4093  0.7118
 6119SOL    HW129819   4.614   3.401   5.721 -2.0080 -0.2784 -1.5722
 6119SOL    HW229820   4.595   3.530   5.667 -0.8057 -0.2500  0.0566
 6120SOL     OW29821   2.124   0.229   4.629 -0.6931 -0.3233 -0.0836
 6120SOL    HW129822   2.143   0.139   4.656 -0.3853 -0.6134 -1.2627
 6120SOL    HW229823   2.048   0.239   4.686  1.2835 -0.5280  2.5530
 6121SOL     OW29824   0.882   3.895   4.212  0.5679  0.3403  0.3906
 6121SOL    HW129825   0.910   3.986   4.202 -1.3277  1.0456  1.4572
 6121SOL    HW229826   0.906   3.881   4.304  0.3288  0.4055  0.4643
 6122SOL     OW29827   0.806   3.755   7.491 -0.3578 -0.2735 -0.2990
 6122SOL    HW129828   0.876   3.696   7.462  0.9193  0.7690  0.6806
 6122SOL    HW229829   0.858   3.816   7.543 -1.2065  1.4524 -1.5079
 6123SOL     OW29830   4.206   1.354  16.224  0.2537 -0.1126 -0.2195
 6123SOL    HW129831   4.113   1.347  16.202 -0.0294  2.4026  0.2399
 6123SOL    HW229832   4.211   1.281  16.285  2.8064  1.0650  0.9794
 6124SOL     OW29833   4.010   1.859   5.449  0.2093 -0.1156  0.1769
 6124SOL    HW129834   3.960   1.781   5.473  0.0074 -0.3634 -1.0491
 6124SOL    HW229835   4.062   1.836   5.372  0.1796 -0.5512  0.2827
 6125SOL     OW29836   4.413   2.653  12.920 -0.0806 -0.2451 -0.1422
 6125SOL    HW129837   4.366   2.736  12.928  0.4163 -0.1208  1.5093
 6125SOL    HW229838   4.345   2.591  12.893  1.9200 -2.9392  0.9541
 6126SOL     OW29839   2.397   2.343   3.068 -0.1513 -0.0156  0.1846
 6126SOL    HW129840   2.345   2.263   3.075  1.3833 -0.7609  2.7364
 6126SOL    HW229841   2.333   2.388   3.013  1.6162 -0.0890 -1.9664
 6127SOL     OW29842   2.609   3.054   7.924 -0.1098 -0.2310  0.0100
 6127SOL    HW129843   2.701   3.060   7.952  0.1397 -1.3487 -0.5315
 6127SOL    HW229844   2.590   3.147   7.916 -1.8828 -0.6340 -0.3081
 6128SOL     OW29845   3.379   3.135   6.857 -0.5299  0.0824  0.1823
 6128SOL    HW129846   3.285   3.152   6.844 -0.3973  0.3412 -0.4026
 6128SOL    HW229847   3.368   3.128   6.952  0.1484 -0.4666  0.2134
 6129SOL     OW29848   3.439   3.202   6.322 -0.3974 -0.0511  0.3600
 6129SOL    HW129849   3.468   3.160   6.403 -0.4272 -1.5981 -0.4337
 6129SOL    HW229850   3.347   3.226   6.332 -0.4391  0.3781 -0.9539
 6130SOL     OW29851   0.172   4.379   0.663 -0.3411 -0.2729 -0.3223
 6130SOL    HW129852   0.193   4.287   0.645  0.2776 -0.2234  0.1664
 6130SOL    HW229853   0.097   4.389   0.722 -1.5415  1.5518 -2.1371
 6131SOL     OW29854   2.572   0.991   0.281 -0.0371 -0.3111 -0.0634
 6131SOL    HW129855   2.583   1.086   0.279  1.5028 -0.4784 -0.0994
 6131SOL    HW229856   2.640   0.963   0.344  1.4785 -1.7630 -2.3550
 6132SOL     OW29857   3.127   3.700   8.453 -0.0251 -0.2735  0.2223
 6132SOL    HW129858   3.189   3.772   8.443  0.8144 -1.0765 -0.2768
 6132SOL    HW229859   3.042   3.745   8.459 -1.2233 -2.4291 -0.8494
 6133SOL     OW29860   0.499   2.259   6.654  0.3259 -0.4812  0.4071
 6133SOL    HW129861   0.593   2.266   6.641  0.4446 -1.4357  0.7934
 6133SOL    HW229862   0.500   2.248   6.749  2.4860 -0.4339  0.3795
 6134SOL     OW29863   4.418   0.876  12.501  0.0986 -0.7392 -0.0416
 6134SOL    HW129864   4.441   0.925  12.422 -2.1719  1.0080  0.3582
 6134SOL    HW229865   4.329   0.909  12.518 -1.2843 -2.6081 -3.6093
 6135SOL     OW29866   2.916   0.221  14.344 -0.4194  0.0366  0.5600
 6135SOL    HW129867   3.006   0.226  14.377  0.0996 -0.5953 -0.7345
 6135SOL    HW229868   2.914   0.279  14.268 -0.8951 -2.1349 -1.0953
 6136SOL     OW29869   0.446   2.633  12.863  0.1645  0.0476  0.0211
 6136SOL    HW129870   0.422   2.574  12.935 -3.0079 -0.4436 -1.4038
 6136SOL    HW229871   0.413   2.580  12.790  1.2392  0.0762 -0.4803
 6137SOL     OW29872   0.476   0.234   8.643  0.4252 -0.1074  0.9467
 6137SOL    HW129873   0.533   0.187   8.582 -0.3709 -0.8118  0.7410
 6137SOL    HW229874   0.487   0.175   8.717  0.5495 -0.7378  0.4291
 6138SOL     OW29875   2.459   3.284  17.368  0.0467  0.0445  0.0179
 6138SOL    HW129876   2.441   3.191  17.383 -0.7328  0.4190  1.4095
 6138SOL    HW229877   2.449   3.280  17.273  2.3991 -1.0813 -0.1654
 6139SOL     OW29878   0.133   2.448   4.639  0.5276 -0.0851 -0.0554
 6139SOL    HW129879   0.114   2.540   4.657 -1.5786 -0.4320 -0.4470
 6139SOL    HW229880   0.182   2.406   4.710  0.3235 -0.2909 -0.0338
 6140SOL     OW29881   4.539   4.021   2.303  0.5360 -0.1042 -0.0030
 6140SOL    HW129882   4.449   4.038   2.275  0.3040 -0.9399  0.2390
 6140SOL    HW229883   4.588   4.063   2.233  1.5116  0.4415  1.0024
 6141SOL     OW29884   2.818   0.330   1.260 -0.1785  0.5854  0.6507
 6141SOL    HW129885   2.887   0.294   1.204 -2.0590  1.1606 -2.0294
 6141SOL    HW229886   2.830   0.267   1.332 -0.2817 -0.2513 -0.0736
 6142SOL     OW29887   2.430   0.722   5.285 -0.2970  0.3168 -0.0357
 6142SOL    HW129888   2.475   0.749   5.205  1.5396 -0.9612  0.5758
 6142SOL    HW229889   2.489   0.654   5.317 -0.7584  0.0840  0.3288
 6143SOL     OW29890   1.415   4.687   1.244 -0.0819 -1.2029 -0.0373
 6143SOL    HW129891   1.417   4.715   1.336 -0.3935 -1.6024  0.0912
 6143SOL    HW229892   1.494   4.633   1.241  1.1029  0.5736 -1.3343
 6144SOL     OW29893   4.324   0.159   7.697  0.0142 -0.3561  0.0488
 6144SOL    HW129894   4.410   0.168   7.739 -0.8995 -0.0640  1.8743
 6144SOL    HW229895   4.321   0.232   7.636  0.8428 -0.0341  0.3855
 6145SOL     OW29896   2.679   0.229   2.919 -0.3350 -0.0461 -0.9410
 6145SOL    HW129897   2.701   0.299   2.858  0.3496 -1.9098 -2.7831
 6145SOL    HW229898   2.669   0.162   2.852  0.4324 -0.6524 -0.4504
 6146SOL     OW29899   0.693   0.013   0.216  0.3307  0.0282 -0.3226
 6146SOL    HW129900   0.600   0.004   0.236  0.1032 -0.7279 -1.7189
 6146SOL    HW229901   0.691   4.710   0.125  1.9721 -0.5854 -0.1659
 6147SOL     OW29902   4.711   2.574   2.633 -0.3998  0.1388  0.0643
 6147SOL    HW129903   4.696   2.588   2.539  0.4668  1.4803  0.1289
 6147SOL    HW229904   0.078   2.562   2.651 -0.6458  0.4666  1.5444
 6148SOL     OW29905   4.233   1.340  15.783 -0.3789 -0.0902 -0.2871
 6148SOL    HW129906   4.161   1.292  15.742  0.1629 -0.2943 -1.0107
 6148SOL    HW229907   4.209   1.427  15.750 -2.8261 -0.9163 -0.6701
 6149SOL     OW29908   3.801   0.055   7.288 -0.0416  0.3199  0.2856
 6149SOL    HW129909   3.880   0.079   7.240 -0.7269  2.0696  0.0012
 6149SOL    HW229910   3.730   0.095   7.237  1.0670  1.9498  0.0192
 6150SOL     OW29911   0.612   0.262   9.074  0.2281 -0.5902  0.0266
 6150SOL    HW129912   0.589   0.170   9.085 -0.3215 -0.4760 -0.1826
 6150SOL    HW229913   0.659   0.256   8.990 -0.4954  0.5871 -0.4547
 6151SOL     OW29914   2.478   0.431  15.254 -0.4189 -0.3497 -0.1208
 6151SOL    HW129915   2.474   0.525  15.238 -1.0142  0.1838  3.1366
 6151SOL    HW229916   2.532   0.431  15.333  0.5634  1.2753 -0.7997
 6152SOL     OW29917   3.244   3.619  15.417  0.6042 -0.2375 -0.0283
 6152SOL    HW129918   3.209   3.628  15.506 -1.7728  1.2587 -1.1354
 6152SOL    HW229919   3.197   3.539  15.393  0.6670 -0.1790 -0.3440
 6153SOL     OW29920   4.577   2.249   7.406  0.0200 -0.2234 -0.3386
 6153SOL    HW129921   4.661   2.289   7.383 -0.7418  0.5145 -1.8266
 6153SOL    HW229922   4.565   2.286   7.494  2.4927  0.5254 -0.3083
 6154SOL     OW29923   1.439   1.829  11.659 -0.4253  0.0229  0.2512
 6154SOL    HW129924   1.430   1.912  11.707  0.8130 -0.2179  0.9046
 6154SOL    HW229925   1.495   1.859  11.588  1.1177  0.3183  1.5865
 6155SOL     OW29926   3.220   2.278   8.974 -0.4540  0.1146  0.2935
 6155SOL    HW129927   3.145   2.334   8.954  0.4520  0.8390 -1.0706
 6155SOL    HW229928   3.186   2.189   8.967 -1.4928  0.3804  2.0483
 6156SOL     OW29929   3.637   2.812   3.324 -0.4057 -0.5722 -0.3747
 6156SOL    HW129930   3.560   2.867   3.305  0.6042  1.4591  1.3698
 6156SOL    HW229931   3.654   2.844   3.412 -1.6366  0.2148 -0.4196
 6157SOL     OW29932   3.837   2.213  11.408 -0.3744  0.1406  0.3366
 6157SOL    HW129933   3.767   2.197  11.345 -0.7686 -0.6246  0.9656
 6157SOL    HW229934   3.868   2.123  11.403 -0.4583  0.2246 -1.6860
 6158SOL     OW29935   1.638   3.576   7.969 -0.0731 -0.5070 -0.2542
 6158SOL    HW129936   1.607   3.508   7.909 -1.4317 -1.3229  1.3890
 6158SOL    HW229937   1.565   3.637   7.960 -0.5031 -0.8611  0.9533
 6159SOL     OW29938   0.081   2.779   9.634 -0.6717  0.6919 -0.1970
 6159SOL    HW129939   0.125   2.854   9.673  0.8958 -0.7965  0.9379
 6159SOL    HW229940   0.112   2.778   9.544 -1.0024  1.0627 -0.3090
 6160SOL     OW29941   2.303   1.169   8.856 -0.3361 -0.3823 -0.4355
 6160SOL    HW129942   2.218   1.179   8.812 -1.8158 -1.2373  2.1837
 6160SOL    HW229943   2.290   1.203   8.945  0.4814 -1.7155  0.1974
 6161SOL     OW29944   2.008   0.449   2.641 -0.1802  0.2911 -0.0409
 6161SOL    HW129945   2.075   0.511   2.669 -0.0892 -0.2169  0.8591
 6161SOL    HW229946   1.931   0.483   2.686 -1.0136  0.1841 -1.3642
 6162SOL     OW29947   3.344   1.487   4.022 -0.1026  0.4465 -0.1241
 6162SOL    HW129948   3.419   1.478   4.080  1.6993  1.8874 -2.2039
 6162SOL    HW229949   3.312   1.576   4.038 -1.0631  0.1253 -0.2564
 6163SOL     OW29950   3.684   1.475   4.648  0.1370 -0.1367  0.4692
 6163SOL    HW129951   3.725   1.556   4.616  0.9222 -0.5037  0.5675
 6163SOL    HW229952   3.725   1.413   4.588  3.3486 -1.5286  4.1197
 6164SOL     OW29953   3.951   0.579  14.524 -0.3214 -0.2233  0.1130
 6164SOL    HW129954   3.884   0.525  14.564  1.0336 -0.2898  2.2735
 6164SOL    HW229955   4.031   0.550  14.568  2.2066  0.7861 -3.7969
 6165SOL     OW29956   0.336   1.314   4.515  0.4104 -0.2980  0.2832
 6165SOL    HW129957   0.395   1.372   4.563  1.2926  0.4833 -1.7448
 6165SOL    HW229958   0.395   1.238   4.514  0.1869 -0.4739  0.3562
 6166SOL     OW29959   0.089   1.731   5.639  0.2721 -0.4344  0.0853
 6166SOL    HW129960   0.174   1.728   5.597 -0.5687  0.1057 -1.6383
 6166SOL    HW229961   0.118   1.760   5.726  0.5799  1.9063 -0.8271
 6167SOL     OW29962   2.389   1.366  12.638 -0.5502  0.1003 -0.3476
 6167SOL    HW129963   2.438   1.307  12.581  1.8390  0.6161  1.1883
 6167SOL    HW229964   2.365   1.431  12.572  2.1824  0.3555 -1.0910
 6168SOL     OW29965   3.667   3.149   6.186  0.0298 -0.0055 -0.4619
 6168SOL    HW129966   3.711   3.214   6.240 -1.3810  1.6281 -1.2844
 6168SOL    HW229967   3.584   3.132   6.231  1.4457 -1.1610  1.6755
 6169SOL     OW29968   3.655   1.994   4.125 -0.1322 -0.3155 -0.4788
 6169SOL    HW129969   3.740   2.018   4.087 -0.8769  0.8847 -1.3703
 6169SOL    HW229970   3.589   2.026   4.063 -0.1893  0.8335  0.1780
 6170SOL     OW29971   0.414   4.072   6.097  0.1691  0.0969 -0.1633
 6170SOL    HW129972   0.500   4.094   6.060 -0.8513  1.6436 -1.5882
 6170SOL    HW229973   0.426   3.977   6.092  1.2847  0.2592 -0.8011
 6171SOL     OW29974   3.303   0.748  10.020  0.0712  0.6918  0.4476
 6171SOL    HW129975   3.214   0.727   9.994  0.3055 -0.3949  0.5498
 6171SOL    HW229976   3.335   0.736   9.931 -1.2813 -0.1681  0.0923
 6172SOL     OW29977   3.048   3.928   0.394 -0.3551 -0.3105 -0.1944
 6172SOL    HW129978   2.969   3.939   0.446 -0.8648 -0.3848 -0.9583
 6172SOL    HW229979   3.007   3.880   0.322  0.0448 -0.0965 -0.5649
 6173SOL     OW29980   4.154   3.203   8.764  0.2373  0.0655 -0.1686
 6173SOL    HW129981   4.124   3.287   8.798  0.9046 -0.4459  1.7313
 6173SOL    HW229982   4.146   3.210   8.669  2.1110 -0.8562 -0.4014
 6174SOL     OW29983   1.853   1.881  12.713 -0.5663  0.0275 -0.3726
 6174SOL    HW129984   1.841   1.973  12.689  1.3790  0.1687 -0.7525
 6174SOL    HW229985   1.929   1.849  12.666  0.5897  1.5965  0.4459
 6175SOL     OW29986   3.109   0.102   4.664 -0.2706 -0.6558  0.0417
 6175SOL    HW129987   3.037   0.158   4.692 -1.5983 -1.9609 -0.7455
 6175SOL    HW229988   3.070   0.079   4.579 -0.0724  1.4348 -0.6176
 6176SOL     OW29989   2.211   3.945   6.146 -0.1035 -0.0434  0.1582
 6176SOL    HW129990   2.297   3.977   6.174  0.4145 -3.6968  2.7939
 6176SOL    HW229991   2.210   3.856   6.182 -0.5813 -0.0709  0.0756
 6177SOL     OW29992   1.701   4.055   8.844  0.1623 -0.3526  0.1073
 6177SOL    HW129993   1.668   3.967   8.826 -0.4061  0.0169 -0.6382
 6177SOL    HW229994   1.633   4.112   8.807  0.0315 -0.9917 -0.6363
 6178SOL     OW29995   1.457   2.445   6.086 -0.3715  0.1338  0.3883
 6178SOL    HW129996   1.485   2.365   6.131 -2.3002  0.3798  2.0093
 6178SOL    HW229997   1.516   2.498   6.140  0.9188 -0.6915 -0.1970
 6179SOL     OW29998   0.047   1.083  14.981  0.3600 -0.7766 -0.1348
 6179SOL    HW129999   0.042   1.178  14.972  0.2745 -0.7798 -0.1270
 6179SOL    HW230000   0.043   1.078  15.077 -2.0478 -0.6808 -0.2200
 6180SOL     OW30001   2.886   2.903   6.206  0.3905 -0.6990 -0.4565
 6180SOL    HW130002   2.831   2.940   6.136 -0.3417 -0.7390  0.0883
 6180SOL    HW230003   2.964   2.875   6.159  0.2802 -0.3760 -0.8343
 6181SOL     OW30004   2.213   0.841   5.326  0.6184  0.2780 -0.0803
 6181SOL    HW130005   2.156   0.786   5.379  0.0769  0.5245 -0.4100
 6181SOL    HW230006   2.291   0.787   5.316  0.2352 -0.6941  2.2215
 6182SOL     OW30007   0.593   2.670  13.643  0.2209 -0.2685  0.2178
 6182SOL    HW130008   0.511   2.716  13.665  0.6671  0.3537  0.6019
 6182SOL    HW230009   0.588   2.582  13.680 -0.1137 -1.2019 -2.0504
 6183SOL     OW30010   2.993   3.961   0.805  0.6781  0.2687 -0.1433
 6183SOL    HW130011   2.930   3.967   0.733  0.0868  0.5051  0.3956
 6183SOL    HW230012   3.068   3.931   0.753 -0.3925 -1.7608 -0.4887
 6184SOL     OW30013   0.844   3.135   8.214 -0.3268 -0.4262 -0.4614
 6184SOL    HW130014   0.785   3.150   8.288  0.9785  1.4715  0.2069
 6184SOL    HW230015   0.904   3.072   8.253  1.5360  2.6412  1.6388
 6185SOL     OW30016   0.256   3.662   1.298  0.2279 -0.1248 -0.4525
 6185SOL    HW130017   0.187   3.621   1.350  0.2172 -0.0105 -0.3770
 6185SOL    HW230018   0.202   3.704   1.231 -0.5677 -2.0384 -1.0080
 6186SOL     OW30019   2.368   2.947   2.159  0.1857  0.0206 -0.4005
 6186SOL    HW130020   2.316   2.899   2.095  1.7127 -0.1713 -1.5097
 6186SOL    HW230021   2.380   2.871   2.216  0.3659  0.1716 -0.2354
 6187SOL     OW30022   2.916   4.457   3.466  0.6826  1.0620  1.1056
 6187SOL    HW130023   2.884   4.454   3.557 -2.3917 -0.0789 -0.0092
 6187SOL    HW230024   2.860   4.398   3.415  2.3465  0.6848 -0.2610
 6188SOL     OW30025   3.976   2.257   7.887 -0.2618  0.1003  0.2256
 6188SOL    HW130026   4.067   2.284   7.873 -0.9660  2.3316  0.0397
 6188SOL    HW230027   3.929   2.340   7.884 -1.1630 -0.3647  1.3297
 6189SOL     OW30028   1.815   1.659  13.682 -0.2131 -0.3657 -0.1615
 6189SOL    HW130029   1.874   1.612  13.740  0.6309  2.2026  1.0707
 6189SOL    HW230030   1.868   1.669  13.603 -1.1551  0.9956 -0.6194
 6190SOL     OW30031   0.035   2.430   5.667 -0.2701 -0.1290  0.0900
 6190SOL    HW130032   0.073   2.462   5.749 -0.1290  1.9071 -0.7725
 6190SOL    HW230033   0.066   2.339   5.670  1.5933  0.4712 -1.2263
 6191SOL     OW30034   3.558   0.433   2.142  0.5079 -0.1419 -0.5621
 6191SOL    HW130035   3.485   0.426   2.080  0.7653  1.1555 -1.0119
 6191SOL    HW230036   3.638   0.406   2.098  1.7064 -0.1164  1.5917
 6192SOL     OW30037   1.066   0.307   6.593 -0.3238 -0.0218  0.2679
 6192SOL    HW130038   1.081   0.330   6.501  1.5889 -4.3094 -0.4942
 6192SOL    HW230039   1.141   0.358   6.624  0.5350 -1.1315 -0.0094
 6193SOL     OW30040   2.960   4.688   7.349 -0.4192 -0.0125  0.0682
 6193SOL    HW130041   2.991   4.679   7.259 -3.1200 -1.7179 -0.6753
 6193SOL    HW230042   2.920   0.049   7.359 -2.6002 -0.9161 -0.7285
 6194SOL     OW30043   3.844   0.547   7.918 -0.2141 -0.5954 -0.0925
 6194SOL    HW130044   3.839   0.641   7.898 -2.6511 -0.7081 -0.0428
 6194SOL    HW230045   3.811   0.514   7.834 -1.6810  0.9370 -0.1227
 6195SOL     OW30046   1.362   2.148   6.046  0.0801 -0.1796  0.4454
 6195SOL    HW130047   1.406   2.214   5.991  2.0221 -0.3547  1.7588
 6195SOL    HW230048   1.298   2.203   6.091 -0.2521 -0.1023 -0.1189
 6196SOL     OW30049   4.504   1.397   6.937  0.0324  0.8019  0.5978
 6196SOL    HW130050   4.409   1.404   6.946 -0.1919  0.3903 -1.3716
 6196SOL    HW230051   4.508   1.302   6.925 -1.8709  0.8087 -0.1259
 6197SOL     OW30052   2.760   4.693   3.549 -0.0837  0.2047  0.0085
 6197SOL    HW130053   2.837   4.641   3.524 -1.1053 -1.3899  0.1395
 6197SOL    HW230054   2.691   4.666   3.489  0.9129 -0.8465 -0.6692
 6198SOL     OW30055   3.599   2.449  14.516 -0.0173 -0.0295 -0.1136
 6198SOL    HW130056   3.685   2.489  14.503 -0.0069  0.0344  0.1655
 6198SOL    HW230057   3.566   2.508  14.584 -1.6353  0.1506 -1.0411
 6199SOL     OW30058   1.128   1.127   5.736  0.0740 -0.0156  0.3292
 6199SOL    HW130059   1.056   1.155   5.679 -1.3962 -2.8036  0.7805
 6199SOL    HW230060   1.183   1.089   5.667 -0.5132  0.5796 -0.4797
 6200SOL     OW30061   2.801   4.611   4.591 -0.0241  0.2890 -0.3259
 6200SOL    HW130062   2.792   4.629   4.685  0.0419 -1.8451  0.0846
 6200SOL    HW230063   2.713   4.610   4.553  0.0892  3.5600 -0.6785
 6201SOL     OW30064   3.023   2.330   8.578  0.1213  0.1179 -0.0776
 6201SOL    HW130065   3.031   2.329   8.482 -2.7170 -1.3630 -0.2854
 6201SOL    HW230066   2.946   2.385   8.587 -0.8350 -0.6663 -3.5668
 6202SOL     OW30067   0.843   4.673   5.665  0.6691  0.0076  0.3322
 6202SOL    HW130068   0.902   4.700   5.595  0.6417  3.0583  1.4447
 6202SOL    HW230069   0.760   4.665   5.619  0.5842 -0.4568  0.5653
 6203SOL     OW30070   1.882   0.592   4.301 -0.1891  0.5004 -0.7677
 6203SOL    HW130071   1.825   0.528   4.259  0.2155  0.0187 -0.5831
 6203SOL    HW230072   1.939   0.526   4.340 -0.1902  0.2893 -1.1197
 6204SOL     OW30073   0.960   3.981   0.855 -0.3517  0.0165  0.4466
 6204SOL    HW130074   1.056   3.973   0.861 -0.1803 -0.0251 -2.3875
 6204SOL    HW230075   0.948   4.066   0.811 -2.7442  0.5092  2.0492
 6205SOL     OW30076   0.873   4.506  13.155 -0.9937  0.5144  0.0935
 6205SOL    HW130077   0.954   4.554  13.137 -0.6419 -1.1096 -2.5835
 6205SOL    HW230078   0.905   4.416  13.143  3.7485  2.1139  0.4832
 6206SOL     OW30079   3.426   1.236   7.526  0.1150  0.0967  0.3327
 6206SOL    HW130080   3.439   1.149   7.488  1.3919  0.7811 -0.7683
 6206SOL    HW230081   3.392   1.278   7.447 -1.1166  0.9538  1.3305
 6207SOL     OW30082   0.531   2.833   9.476 -0.2384  0.0526  0.2458
 6207SOL    HW130083   0.513   2.778   9.552 -0.0952 -0.4424 -0.0791
 6207SOL    HW230084   0.604   2.889   9.502 -0.0106 -1.1257  2.1122
 6208SOL     OW30085   2.146   2.566   2.692  0.4139 -0.2519  0.6869
 6208SOL    HW130086   2.105   2.511   2.625  0.3321 -1.0263  1.3798
 6208SOL    HW230087   2.072   2.622   2.713 -1.0889 -1.4453 -1.4453
 6209SOL     OW30088   1.362   3.298  12.029 -0.2344  0.4954  0.0128
 6209SOL    HW130089   1.372   3.208  12.059 -0.5848  0.3521 -0.3000
 6209SOL    HW230090   1.416   3.289  11.950  0.2689 -1.6813  0.6039
 6210SOL     OW30091   1.539   0.823   5.271  0.0810 -0.3646  0.0037
 6210SOL    HW130092   1.536   0.917   5.256  1.5217 -0.1572  1.0222
 6210SOL    HW230093   1.630   0.797   5.260  0.0573 -0.7781  0.7135
 6211SOL     OW30094   0.531   1.513   4.599  0.0305  0.4152 -0.0925
 6211SOL    HW130095   0.510   1.603   4.574  0.8327  0.6069 -0.0874
 6211SOL    HW230096   0.586   1.530   4.676 -0.0831 -0.2982  0.1462
 6212SOL     OW30097   4.486   1.670   1.962  0.8618  0.0885  0.6694
 6212SOL    HW130098   4.450   1.591   1.921  1.0655  0.1615  0.3457
 6212SOL    HW230099   4.463   1.743   1.903 -3.2076 -1.3554  0.4370
 6213SOL     OW30100   0.880   2.835  10.390 -0.4111  0.2921  0.0316
 6213SOL    HW130101   0.864   2.812  10.298  1.2880  0.0975 -0.2198
 6213SOL    HW230102   0.927   2.758  10.423 -0.5735 -0.6833 -2.0135
 6214SOL     OW30103   3.456   0.934  12.462  0.1003  0.7488 -0.8483
 6214SOL    HW130104   3.400   0.987  12.519 -0.8005 -1.5566  0.4179
 6214SOL    HW230105   3.535   0.913  12.512 -0.2982  2.2654  0.4170
 6215SOL     OW30106   0.584   4.594   0.510 -0.0245  0.5049  0.5294
 6215SOL    HW130107   0.569   4.614   0.418  1.1375  2.8124  0.8455
 6215SOL    HW230108   0.513   4.638   0.557  0.7608  2.5006 -0.1595
 6216SOL     OW30109   2.569   1.001   6.699  0.1210  0.0179 -0.2736
 6216SOL    HW130110   2.485   0.956   6.712 -0.9651  2.3444  0.6274
 6216SOL    HW230111   2.596   0.966   6.614  0.7263  0.3281 -0.2091
 6217SOL     OW30112   2.679   4.019  14.127 -0.2100  0.8179 -0.0935
 6217SOL    HW130113   2.642   4.095  14.173  2.1566  1.5799  0.5344
 6217SOL    HW230114   2.752   3.996  14.183 -1.9770 -1.6975  1.1901
 6218SOL     OW30115   0.948   0.822   8.952 -0.0554 -0.3842 -0.1552
 6218SOL    HW130116   0.979   0.882   9.020 -1.5798 -0.2991  0.4637
 6218SOL    HW230117   0.882   0.774   9.003  0.2434  0.3057  0.8641
 6219SOL     OW30118   1.775   1.007   0.685  0.1604  0.0419  0.1951
 6219SOL    HW130119   1.729   1.084   0.718  1.0569  0.6873 -0.0644
 6219SOL    HW230120   1.838   1.046   0.624 -0.1992  2.4297  1.3263
 6220SOL     OW30121   4.166   2.919   2.010  0.4633  0.0398 -0.5101
 6220SOL    HW130122   4.240   2.862   2.032 -0.2055  0.8983  4.0893
 6220SOL    HW230123   4.101   2.854   1.986 -0.8004  1.8064 -1.8791
 6221SOL     OW30124   1.675   4.440   5.519  0.2494 -0.2037 -0.2116
 6221SOL    HW130125   1.679   4.391   5.437 -1.3147  2.8104 -2.1181
 6221SOL    HW230126   1.761   4.415   5.552  0.3566 -0.8399 -0.9673
 6222SOL     OW30127   4.183   3.220   0.171  0.6720  0.1332  0.2061
 6222SOL    HW130128   4.152   3.170   0.096  1.1330  1.7894 -1.0784
 6222SOL    HW230129   4.257   3.177   0.214  2.4855  1.2107 -1.8047
 6223SOL     OW30130   2.984   1.327  10.808  0.0159  0.0053 -0.2738
 6223SOL    HW130131   3.065   1.282  10.835  0.4211 -0.4892 -2.3579
 6223SOL    HW230132   3.008   1.330  10.716 -0.7190  2.4008 -0.3914
 6224SOL     OW30133   4.337   2.678   2.500  0.2457  0.0628  0.1807
 6224SOL    HW130134   4.283   2.749   2.464  0.8023  0.7618  0.7188
 6224SOL    HW230135   4.413   2.730   2.525  0.8270 -0.8854  0.3463
 6225SOL     OW30136   0.441   2.305  16.055 -0.2079 -0.3875 -0.1074
 6225SOL    HW130137   0.496   2.357  15.996 -0.3253  0.1845  0.2898
 6225SOL    HW230138   0.397   2.382  16.090  0.9690  0.2868 -0.1243
 6226SOL     OW30139   1.413   0.466   0.866  0.0295  0.6768  0.1415
 6226SOL    HW130140   1.366   0.474   0.784  0.7349  0.2770 -0.3027
 6226SOL    HW230141   1.503   0.447   0.839 -0.0169  0.2278  0.2911
 6227SOL     OW30142   1.225   1.673   5.071 -0.5669  0.0527 -0.0531
 6227SOL    HW130143   1.318   1.692   5.082  0.2964 -3.3934 -1.6061
 6227SOL    HW230144   1.217   1.654   4.978  0.2987 -1.1622  0.1260
 6228SOL     OW30145   1.825   0.954   1.190  0.2603  0.1601 -0.3084
 6228SOL    HW130146   1.876   0.991   1.118 -0.9185  0.3731 -1.0362
 6228SOL    HW230147   1.731   0.968   1.175 -0.3675 -3.1692  0.3885
 6229SOL     OW30148   2.479   1.645  16.383  0.0570  0.4956 -0.3299
 6229SOL    HW130149   2.410   1.624  16.446 -1.0249  2.1248 -0.9537
 6229SOL    HW230150   2.494   1.739  16.395 -1.1948  0.5145  1.1231
 6230SOL     OW30151   3.788   3.838   8.240  0.5873  0.1443  0.5943
 6230SOL    HW130152   3.797   3.866   8.331  0.4044  0.4444  0.5181
 6230SOL    HW230153   3.775   3.743   8.245 -2.2961  0.5560  0.5551
 6231SOL     OW30154   1.468   1.019   3.289  0.1287  0.6815 -0.1505
 6231SOL    HW130155   1.552   1.052   3.256  0.6409 -1.8928 -1.4061
 6231SOL    HW230156   1.483   0.926   3.276 -2.0331  0.4179 -0.7480
 6232SOL     OW30157   1.639   2.115  16.786 -0.5786  0.0015  0.2270
 6232SOL    HW130158   1.583   2.070  16.723 -1.0913  0.2383  0.5105
 6232SOL    HW230159   1.676   2.186  16.734  1.8337  0.0127  1.9528
 6233SOL     OW30160   0.891   3.192   3.962  0.1159  0.3790  0.3773
 6233SOL    HW130161   0.863   3.149   4.043  1.4227 -0.1850  0.5460
 6233SOL    HW230162   0.850   3.276   3.981 -0.2265  0.6732 -1.7529
 6234SOL     OW30163   0.838   1.078  10.800  0.4632 -0.7497  0.3766
 6234SOL    HW130164   0.810   0.992  10.831  0.7818 -0.8235  0.4527
 6234SOL    HW230165   0.785   1.094  10.721  0.5129 -0.2223  0.4494
 6235SOL     OW30166   3.848   0.471  16.214  0.4564  0.8996  0.0330
 6235SOL    HW130167   3.812   0.554  16.244  1.1542  1.1548  0.1558
 6235SOL    HW230168   3.867   0.484  16.121  1.6913 -1.4183 -0.0419
 6236SOL     OW30169   0.132   3.417   7.131 -0.1465 -0.2811 -0.5624
 6236SOL    HW130170   0.182   3.472   7.191 -0.6768  0.1411 -0.5046
 6236SOL    HW230171   0.042   3.446   7.147  0.0911  2.4039 -4.0606
 6237SOL     OW30172   0.153   0.605   3.015 -0.5839 -0.6339 -0.7236
 6237SOL    HW130173   0.242   0.575   2.998  0.5412  1.2568  1.7117
 6237SOL    HW230174   0.129   0.676   2.956  1.1084 -1.0240 -1.8807
 6238SOL     OW30175   4.294   2.575   7.059  0.5255 -0.0168  0.1019
 6238SOL    HW130176   4.235   2.614   7.124  0.6561 -0.0897  0.2648
 6238SOL    HW230177   4.326   2.504   7.114  1.0062  0.8109  0.8985
 6239SOL     OW30178   2.686   4.521  15.736 -0.5121  0.1445 -0.0625
 6239SOL    HW130179   2.708   4.586  15.803 -0.3069  2.0564 -2.0045
 6239SOL    HW230180   2.668   4.577  15.661 -1.8395 -2.2120 -1.4873
 6240SOL     OW30181   0.313   2.343   6.039  0.2763 -0.4607  0.1447
 6240SOL    HW130182   0.243   2.321   5.978  1.9804 -1.4286 -1.4859
 6240SOL    HW230183   0.395   2.314   5.998  1.2441  3.1129 -0.5042
 6241SOL     OW30184   1.696   0.526  13.888  0.1300  0.3820 -0.3847
 6241SOL    HW130185   1.765   0.487  13.835  0.2177  0.4265 -0.3042
 6241SOL    HW230186   1.697   0.490  13.976 -1.1872  3.3635  0.8642
 6242SOL     OW30187   0.044   1.923   5.299 -0.3449 -0.1442 -0.1817
 6242SOL    HW130188   4.706   1.989   5.329  0.1014  0.4711 -0.5720
 6242SOL    HW230189   0.020   1.918   5.206 -1.5716  0.2444  0.1137
 6243SOL     OW30190   3.067   4.460   1.104 -0.2794 -0.2443 -0.0837
 6243SOL    HW130191   3.156   4.492   1.096 -0.3534 -0.1231 -0.4269
 6243SOL    HW230192   3.083   4.371   1.073 -1.2012 -0.6155  0.4839
 6244SOL     OW30193   0.419   4.374   8.196 -0.1891 -0.0189  0.7400
 6244SOL    HW130194   0.375   4.397   8.278 -0.4834  0.7210  0.3742
 6244SOL    HW230195   0.341   4.376   8.140  1.0857  0.2312 -1.0041
 6245SOL     OW30196   0.036   3.659   3.080 -0.2656  0.0944  0.3712
 6245SOL    HW130197   0.021   3.744   3.121 -0.5078  0.0828  0.3081
 6245SOL    HW230198   0.130   3.656   3.065 -0.0510 -0.7137  1.8582
 6246SOL     OW30199   4.642   1.160   8.401  0.0359 -0.5308 -0.5560
 6246SOL    HW130200   4.680   1.073   8.407 -2.0504 -1.2792  2.0070
 6246SOL    HW230201   4.603   1.165   8.314 -1.6043  0.9240  0.2445
 6247SOL     OW30202   3.210   3.610  17.123  0.4656  0.5477 -0.7820
 6247SOL    HW130203   3.299   3.625  17.093 -0.1847  1.7266 -2.1402
 6247SOL    HW230204   3.155   3.676  17.081 -0.0171  1.5477  1.4509
 6248SOL     OW30205   2.035   4.364   5.778  0.6647 -0.6401  0.5619
 6248SOL    HW130206   2.058   4.273   5.796 -2.0344 -1.2063  1.1417
 6248SOL    HW230207   2.116   4.405   5.748  0.1902  0.3971  0.6879
 6249SOL     OW30208   4.520   4.460   2.153 -0.0229  0.0825  0.2701
 6249SOL    HW130209   4.528   4.517   2.229  0.5359  1.6625 -0.9640
 6249SOL    HW230210   4.610   4.436   2.133  0.3122  2.3077 -0.9432
 6250SOL     OW30211   3.268   1.953   0.694 -0.3694 -0.0519  0.2767
 6250SOL    HW130212   3.200   1.977   0.757 -2.3312 -2.9396 -0.7147
 6250SOL    HW230213   3.322   1.890   0.742  1.0116  0.9851  0.0758
 6251SOL     OW30214   2.883   4.295   2.936 -0.2254 -0.5242 -0.5328
 6251SOL    HW130215   2.797   4.261   2.959  0.0005 -0.2298  0.7506
 6251SOL    HW230216   2.890   4.267   2.845  1.0312 -0.2449 -0.5326
 6252SOL     OW30217   1.642   0.454   5.416 -0.4006  0.2510  0.2714
 6252SOL    HW130218   1.737   0.443   5.417 -0.6501 -1.7115  1.6063
 6252SOL    HW230219   1.616   0.362   5.411  1.3965 -0.1462 -2.0123
 6253SOL     OW30220   4.487   0.827   4.900  0.0787  0.1857  0.2722
 6253SOL    HW130221   4.512   0.738   4.923 -0.5674  0.2864  1.3792
 6253SOL    HW230222   4.393   0.816   4.888 -0.2072 -1.2952  3.7675
 6254SOL     OW30223   2.103   4.107   8.234 -0.0335  0.1246  0.3255
 6254SOL    HW130224   2.069   4.018   8.231 -0.5844  0.3249  0.6717
 6254SOL    HW230225   2.194   4.082   8.252 -0.4941 -2.8129 -1.4827
 6255SOL     OW30226   2.690   0.678   3.442  0.4562  0.2013 -0.1234
 6255SOL    HW130227   2.699   0.728   3.523  2.7875 -0.9234  0.3094
 6255SOL    HW230228   2.651   0.741   3.381  0.5435 -0.2937 -0.6902
 6256SOL     OW30229   4.266   2.300  15.511 -0.1863  0.5529 -0.4735
 6256SOL    HW130230   4.220   2.278  15.592  1.2478  2.4751  0.8441
 6256SOL    HW230231   4.228   2.238  15.448  0.9671  1.8057 -2.3926
 6257SOL     OW30232   3.680   3.332   3.920  0.7700  0.0064 -0.5941
 6257SOL    HW130233   3.674   3.368   3.831  0.1613  1.3211 -0.0141
 6257SOL    HW230234   3.678   3.414   3.969 -1.8999  0.8236 -2.0429
 6258SOL     OW30235   0.676   2.940   8.423  0.1340 -0.1033 -0.3168
 6258SOL    HW130236   0.707   2.989   8.499 -1.1723  3.2562 -1.9026
 6258SOL    HW230237   0.652   2.855   8.459 -1.9855  1.3219  1.6572
 6259SOL     OW30238   2.054   0.208   5.997  0.6989  0.5207  0.1815
 6259SOL    HW130239   1.969   0.197   6.039  0.5912 -1.5669 -0.6077
 6259SOL    HW230240   2.084   0.117   5.997  2.0085  0.9420 -1.3338
 6260SOL     OW30241   3.703   0.310   8.682 -0.3618  0.1371  0.3589
 6260SOL    HW130242   3.678   0.396   8.650 -1.6930 -0.7762 -1.0684
 6260SOL    HW230243   3.751   0.330   8.762  1.8254  0.1289 -0.9594
 6261SOL     OW30244   1.287   0.229   3.979  0.1635  0.2984  0.2024
 6261SOL    HW130245   1.268   0.308   4.030 -1.0311 -1.3189  2.2573
 6261SOL    HW230246   1.210   0.227   3.923  0.0393 -0.6942  0.4088
 6262SOL     OW30247   3.256   2.381   3.776  0.1437  0.0762 -0.1503
 6262SOL    HW130248   3.208   2.307   3.813  1.3296 -0.3495  0.5488
 6262SOL    HW230249   3.324   2.392   3.842 -0.3165  2.7010 -0.1295
 6263SOL     OW30250   4.290   4.668   7.183 -0.0263  0.9986  0.1770
 6263SOL    HW130251   4.216   4.621   7.223  1.0492 -1.1470 -0.3501
 6263SOL    HW230252   4.350   4.597   7.159 -2.8145 -1.0893 -0.7248
 6264SOL     OW30253   3.308   0.490   5.044 -0.9009 -0.7592  0.6769
 6264SOL    HW130254   3.275   0.488   5.134  0.1222 -0.7981  1.0473
 6264SOL    HW230255   3.293   0.583   5.030  1.3569 -0.3789  0.7222
 6265SOL     OW30256   1.536   2.773  11.902  0.5695  0.2327 -0.6139
 6265SOL    HW130257   1.594   2.822  11.843 -0.1972  0.5222 -1.1335
 6265SOL    HW230258   1.602   2.731  11.956  0.7086  0.7761 -0.3613
 6266SOL     OW30259   4.301   0.872   1.963  0.1832  0.2051 -0.1998
 6266SOL    HW130260   4.334   0.802   1.907 -0.9781 -0.2506 -0.3114
 6266SOL    HW230261   4.381   0.924   1.975  0.1162  0.3000 -0.1713
 6267SOL     OW30262   0.992   2.988  15.069 -0.2288 -0.7982  0.0585
 6267SOL    HW130263   1.023   2.897  15.064  0.0852 -0.6470 -0.6567
 6267SOL    HW230264   0.903   2.985  15.033 -0.9074 -0.8057  1.7025
 6268SOL     OW30265   4.029   3.853   9.076  0.2247  0.3552  0.1348
 6268SOL    HW130266   3.985   3.775   9.042 -0.4705  0.7001  0.2484
 6268SOL    HW230267   4.074   3.810   9.148  2.5539  0.0136 -1.5345
 6269SOL     OW30268   0.997   3.571  16.519  0.3379  0.6078 -0.1232
 6269SOL    HW130269   0.989   3.479  16.545  1.0695  0.1510 -1.5666
 6269SOL    HW230270   0.914   3.605  16.552 -1.5896 -2.4269 -1.8438
 6270SOL     OW30271   2.377   2.422   2.703  0.1183  0.4362  0.0369
 6270SOL    HW130272   2.298   2.473   2.720  1.4623  2.0345  1.5388
 6270SOL    HW230273   2.332   2.346   2.668  0.0522  0.4244  0.1475
 6271SOL     OW30274   3.284   3.860   0.015 -0.6455  0.2224 -0.0563
 6271SOL    HW130275   3.304   3.799   0.086  0.3127 -1.6485 -1.9303
 6271SOL    HW230276   3.260   3.801  17.647 -1.9786  0.6005  0.0794
 6272SOL     OW30277   4.512   2.358  10.679  0.0361 -0.0008 -0.2700
 6272SOL    HW130278   4.581   2.299  10.707  2.1850  1.7049 -1.9807
 6272SOL    HW230279   4.527   2.437  10.732 -0.7086  2.7086 -4.0754
 6273SOL     OW30280   2.457   1.402   5.372 -0.0089  0.7350 -0.2650
 6273SOL    HW130281   2.386   1.449   5.329 -0.4607  0.5990  0.3246
 6273SOL    HW230282   2.520   1.471   5.393  0.7482  0.8695 -2.9468
 6274SOL     OW30283   1.312   2.986   0.593  0.5017 -0.0113  0.0875
 6274SOL    HW130284   1.225   2.949   0.603  0.2678  0.7711  0.9840
 6274SOL    HW230285   1.357   2.929   0.656  2.6646  0.8919 -0.6299
 6275SOL     OW30286   1.926   4.183   1.773 -0.3775  0.3065 -0.7671
 6275SOL    HW130287   1.975   4.131   1.710  0.6650 -0.9459  1.0691
 6275SOL    HW230288   1.992   4.181   1.843  0.5697  2.3178 -1.6132
 6276SOL     OW30289   3.891   0.429  12.268  0.2316  0.3243  0.5067
 6276SOL    HW130290   3.907   0.523  12.279  1.7123 -0.0393  1.5854
 6276SOL    HW230291   3.878   0.420  12.174  0.8197  3.2102  0.1418
 6277SOL     OW30292   2.153   4.145   5.975 -0.2294  0.4292 -0.4749
 6277SOL    HW130293   2.182   4.104   5.894 -0.2174  1.8444 -1.1844
 6277SOL    HW230294   2.182   4.079   6.037  2.6599  2.6420  0.5365
 6278SOL     OW30295   3.136   2.090   8.676  0.0203  0.3386  0.3362
 6278SOL    HW130296   3.153   2.075   8.769  0.8747  1.3993  0.3505
 6278SOL    HW230297   3.096   2.177   8.674  2.1656  1.3179  0.4847
 6279SOL     OW30298   2.893   2.681   4.928 -0.2094  1.0947  0.1833
 6279SOL    HW130299   2.946   2.614   4.969 -1.1634 -0.2597 -0.7909
 6279SOL    HW230300   2.961   2.725   4.877  1.5025 -2.9214 -0.9938
 6280SOL     OW30301   2.382   3.081  14.612  0.5701 -0.3705  0.1782
 6280SOL    HW130302   2.347   3.086  14.701  0.4279 -0.4243  0.1262
 6280SOL    HW230303   2.322   3.141  14.568  0.6062 -0.2492  0.2928
 6281SOL     OW30304   0.935   0.756   9.496  0.7214  0.0130  0.6343
 6281SOL    HW130305   0.978   0.707   9.426  2.2928 -0.0101  1.6168
 6281SOL    HW230306   0.919   0.835   9.444 -0.4053 -2.1708 -2.3522
 6282SOL     OW30307   2.169   1.297   1.294  0.0891 -0.3321 -0.0545
 6282SOL    HW130308   2.264   1.299   1.281  0.3053  0.1400  1.5526
 6282SOL    HW230309   2.145   1.314   1.203  1.2446 -4.3065 -1.0943
 6283SOL     OW30310   0.211   3.783   6.277 -0.0979  0.6188 -0.1534
 6283SOL    HW130311   0.279   3.833   6.322  2.0199 -0.3206 -2.3279
 6283SOL    HW230312   0.206   3.707   6.335 -1.8383  0.4163 -0.5593
 6284SOL     OW30313   0.938   4.513   7.791 -0.3164  0.2080 -0.0556
 6284SOL    HW130314   0.938   4.586   7.852  1.5491  0.0470  0.1310
 6284SOL    HW230315   0.922   4.563   7.711  0.2338  0.2527 -0.1385
 6285SOL     OW30316   2.149   0.684  14.154  0.0383 -0.2125  0.0676
 6285SOL    HW130317   2.056   0.679  14.177  0.2370 -0.8262  0.7341
 6285SOL    HW230318   2.181   0.622  14.219 -1.6130 -4.7863 -3.4518
 6286SOL     OW30319   4.687   1.558  13.853  0.5943  0.1268 -0.0075
 6286SOL    HW130320   0.033   1.510  13.895  2.6451  2.4831 -0.8331
 6286SOL    HW230321   4.716   1.648  13.868  0.7053  0.4227 -1.9816
 6287SOL     OW30322   3.155   0.199   7.256  0.0386 -0.3454  0.1462
 6287SOL    HW130323   3.115   0.268   7.310  0.1850 -0.3579  0.2683
 6287SOL    HW230324   3.097   0.200   7.180 -0.3274  1.2893  0.4432
 6288SOL     OW30325   2.130   0.585  13.862  0.0334  0.0095 -0.1704
 6288SOL    HW130326   2.144   0.593  13.956  0.7139 -0.3337 -0.2411
 6288SOL    HW230327   2.158   0.495  13.849 -0.2238 -0.2130  0.8785
 6289SOL     OW30328   3.609   2.733   7.580 -0.3338 -0.1361  0.5050
 6289SOL    HW130329   3.518   2.761   7.582 -0.3164 -0.0166 -0.3149
 6289SOL    HW230330   3.651   2.796   7.522  0.8241 -1.5814 -0.2281
 6290SOL     OW30331   4.645   1.633   6.299 -0.2221  0.3029 -0.1401
 6290SOL    HW130332   4.670   1.664   6.386 -0.2157 -1.2365  0.4017
 6290SOL    HW230333   4.703   1.559   6.284  0.4846  1.2475 -2.0991
 6291SOL     OW30334   2.766   1.104   3.300  0.3020 -0.0550  0.3058
 6291SOL    HW130335   2.718   1.178   3.262 -1.2872 -1.6051 -0.6432
 6291SOL    HW230336   2.845   1.147   3.334  1.5745 -0.4085 -2.2475
 6292SOL     OW30337   3.144   3.541  10.093  0.5844  0.3499 -0.5095
 6292SOL    HW130338   3.050   3.528  10.105  0.7343  1.8510  2.2365
 6292SOL    HW230339   3.159   3.566  10.002 -2.4822  2.5675 -0.3950
 6293SOL     OW30340   0.095   4.373   4.047 -0.2427  0.3035  0.4692
 6293SOL    HW130341   0.170   4.420   4.084  0.7719 -0.6892 -0.3154
 6293SOL    HW230342   0.055   4.427   3.980 -0.8051 -0.9653 -0.2263
 6294SOL     OW30343   1.230   2.986  17.401  0.4164 -0.2291 -0.0858
 6294SOL    HW130344   1.158   3.045  17.380  1.1545  0.3408 -1.0446
 6294SOL    HW230345   1.195   2.897  17.387  0.6539 -0.1271 -1.4008
 6295SOL     OW30346   0.858   3.995   3.918  0.4816 -0.6351  0.3086
 6295SOL    HW130347   0.793   4.053   3.878 -2.8984 -3.8768  1.1539
 6295SOL    HW230348   0.879   4.046   3.997 -1.9518 -0.9427  1.1268
 6296SOL     OW30349   4.045   3.246   6.526  0.0182 -0.7248  0.6577
 6296SOL    HW130350   4.052   3.151   6.530  2.8526 -0.5500 -0.4156
 6296SOL    HW230351   4.139   3.263   6.527 -0.3652  1.4432  0.8567
 6297SOL     OW30352   3.309   0.652   1.009  0.4446 -0.3999  0.5140
 6297SOL    HW130353   3.317   0.698   0.926  1.0550 -0.9986  0.2412
 6297SOL    HW230354   3.265   0.571   0.982  1.3347 -0.7313  0.0457
 6298SOL     OW30355   2.064   0.472   5.007 -0.2253  0.4716 -0.0415
 6298SOL    HW130356   2.095   0.532   4.939 -0.7642  1.4128  0.5476
 6298SOL    HW230357   2.140   0.429   5.044  0.8813  1.4788 -1.1439
 6299SOL     OW30358   0.817   3.352   1.140  0.0325  0.4134  0.1992
 6299SOL    HW130359   0.737   3.403   1.154 -0.6399 -0.5328 -0.2315
 6299SOL    HW230360   0.877   3.426   1.144  1.6197 -0.8251 -0.7279
 6300SOL     OW30361   0.024   3.756   4.840  0.4879  0.4831  0.3349
 6300SOL    HW130362   0.105   3.799   4.812 -1.4412  2.8654 -1.6327
 6300SOL    HW230363   4.688   3.820   4.804  0.8849  0.6316 -0.0702
 6301SOL     OW30364   2.660   4.544   9.926  0.1449  0.6448  0.0741
 6301SOL    HW130365   2.593   4.480   9.902  0.8820  0.8271 -2.5108
 6301SOL    HW230366   2.720   4.517   9.856 -0.0491 -0.4639  0.3298
 6302SOL     OW30367   3.184   4.121   5.599 -0.0805 -0.1542 -0.4730
 6302SOL    HW130368   3.127   4.081   5.663  0.1238 -0.5982 -0.5713
 6302SOL    HW230369   3.170   4.074   5.517 -0.5405  1.1461 -1.1379
 6303SOL     OW30370   4.697   2.800   5.261 -0.1487  0.0229  0.1531
 6303SOL    HW130371   4.617   2.763   5.222 -0.4379  0.7057  0.1098
 6303SOL    HW230372   4.714   2.726   5.320  0.6969  0.2754  0.2240
 6304SOL     OW30373   0.995   0.926   2.658  0.0178  0.4617 -0.3555
 6304SOL    HW130374   1.050   0.993   2.618 -0.8177  1.6862  0.5335
 6304SOL    HW230375   1.043   0.852   2.621 -1.1173 -0.8892  0.8515
 6305SOL     OW30376   2.770   0.129   6.959 -0.3391  0.0072  0.0253
 6305SOL    HW130377   2.843   0.170   7.006 -0.7020  0.8880 -0.1881
 6305SOL    HW230378   2.747   0.058   7.019  1.7686  0.1010  0.9583
 6306SOL     OW30379   1.640   3.472  16.985 -0.0699  0.2150  0.1714
 6306SOL    HW130380   1.645   3.481  16.890  0.5642 -0.1189  0.1768
 6306SOL    HW230381   1.643   3.377  16.998  0.8467 -0.0260 -1.7907
 6307SOL     OW30382   1.503   2.348  14.662  0.2780 -0.0141  0.1645
 6307SOL    HW130383   1.567   2.368  14.593  0.2069 -1.9092 -0.4525
 6307SOL    HW230384   1.556   2.346  14.741 -3.0055  3.8057  2.4462
 6308SOL     OW30385   0.420   4.531   4.397 -0.9284 -0.1112  0.5816
 6308SOL    HW130386   0.512   4.558   4.390 -1.3106  0.9317 -0.3186
 6308SOL    HW230387   0.397   4.534   4.490 -0.3898  1.6703  0.6567
 6309SOL     OW30388   2.754   0.140   9.068 -0.2975  0.0770  0.7359
 6309SOL    HW130389   2.750   0.226   9.109  1.0345  0.0189  1.0043
 6309SOL    HW230390   2.804   0.104   9.141  1.4582  1.1354  0.0621
 6310SOL     OW30391   2.380   2.758   5.411 -0.3258  0.2601 -0.4965
 6310SOL    HW130392   2.313   2.787   5.473 -0.7502  0.9046 -1.2450
 6310SOL    HW230393   2.340   2.767   5.324  0.2067  1.6918 -0.5944
 6311SOL     OW30394   3.085   0.151  16.973 -0.2225 -0.4012 -0.5892
 6311SOL    HW130395   3.163   0.126  17.022 -0.5745  2.1414  1.3038
 6311SOL    HW230396   3.081   0.084  16.905  0.5013 -0.5531 -0.4805
 6312SOL     OW30397   3.376   1.866   7.246 -0.2013 -0.3648  0.1094
 6312SOL    HW130398   3.414   1.934   7.302 -1.9838  1.6261 -1.1014
 6312SOL    HW230399   3.452   1.808   7.245 -0.2496 -0.4177 -0.2529
 6313SOL     OW30400   1.367   4.307   7.743  0.2791  0.1665  0.0737
 6313SOL    HW130401   1.461   4.323   7.752  0.8196 -1.9313 -1.8465
 6313SOL    HW230402   1.350   4.262   7.826 -1.5655  0.1047 -0.3355
 6314SOL     OW30403   1.229   0.477   6.787  0.2307 -0.1494  0.0030
 6314SOL    HW130404   1.170   0.462   6.861  1.6592 -1.2502  0.9218
 6314SOL    HW230405   1.313   0.499   6.828  1.2561 -1.5529 -1.3425
 6315SOL     OW30406   3.924   3.615   4.960  0.0978 -0.3890  0.7504
 6315SOL    HW130407   3.876   3.558   4.901 -0.9468  0.3813  0.8653
 6315SOL    HW230408   3.973   3.670   4.900 -0.8677 -0.9754 -0.5605
 6316SOL     OW30409   2.665   1.660   4.219  0.4134  0.5718  0.2172
 6316SOL    HW130410   2.672   1.732   4.281 -0.1049 -0.4717  1.4779
 6316SOL    HW230411   2.582   1.621   4.247  0.6325 -1.0698 -1.3974
 6317SOL     OW30412   3.146   4.037   4.199  0.3738 -0.1624 -0.1070
 6317SOL    HW130413   3.199   4.117   4.206 -0.0080  0.1261 -0.5158
 6317SOL    HW230414   3.116   4.035   4.290  1.2872  0.7053  0.2190
 6318SOL     OW30415   4.669   3.818   9.441  0.4002 -0.5037 -0.5724
 6318SOL    HW130416   0.025   3.815   9.490 -0.0793  0.0046  0.2507
 6318SOL    HW230417   4.677   3.908   9.410  0.8935 -0.4313 -0.2249
 6319SOL     OW30418   2.716   0.598   6.634  0.0448  0.0249 -0.0177
 6319SOL    HW130419   2.722   0.543   6.556 -1.0020 -1.7983  1.1750
 6319SOL    HW230420   2.620   0.604   6.636  0.1290  0.2840  2.4663
 6320SOL     OW30421   2.709   1.444   6.067 -0.1697  0.1632  0.1962
 6320SOL    HW130422   2.712   1.537   6.046 -0.7267 -0.0511 -0.8064
 6320SOL    HW230423   2.617   1.424   6.051 -0.2864  0.3547  0.6162
 6321SOL     OW30424   3.755   1.003   4.410  0.4710  0.1240  0.4698
 6321SOL    HW130425   3.845   1.034   4.401  0.6954 -0.8588 -0.6581
 6321SOL    HW230426   3.768   0.911   4.385  0.4228  0.0855  0.5893
 6322SOL     OW30427   3.626   0.067   2.108  0.5050 -0.2730 -0.7730
 6322SOL    HW130428   3.646   0.061   2.202  1.0065 -1.2993 -0.9332
 6322SOL    HW230429   3.675   0.145   2.083  1.1582 -1.2011 -2.3967
 6323SOL     OW30430   3.834   1.294   7.346 -0.1832  0.3018 -0.1525
 6323SOL    HW130431   3.820   1.349   7.269  0.0515 -0.1478 -0.5135
 6323SOL    HW230432   3.757   1.319   7.397  0.4989  0.2416  0.9188
 6324SOL     OW30433   1.419   0.912  15.065 -0.3086  0.0439  0.2989
 6324SOL    HW130434   1.386   0.976  15.128  0.0250  0.7157 -0.2103
 6324SOL    HW230435   1.514   0.921  15.073  0.0561 -1.8180 -2.0388
 6325SOL     OW30436   0.065   4.045   2.780 -0.0014 -0.6896 -0.0439
 6325SOL    HW130437   0.027   4.037   2.868 -2.8298 -0.1006 -1.2310
 6325SOL    HW230438   4.707   4.048   2.733  0.7191 -3.5486 -1.5548
 6326SOL     OW30439   3.957   1.088  17.613 -0.9410 -0.5692  0.2293
 6326SOL    HW130440   3.993   1.159  17.560 -1.2531 -0.5925 -0.0121
 6326SOL    HW230441   3.925   1.028  17.546 -1.1122 -0.8498  0.5569
 6327SOL     OW30442   4.605   0.665  13.573  0.0405 -0.6772 -0.4086
 6327SOL    HW130443   4.565   0.681  13.659  0.3642 -0.3116 -0.3278
 6327SOL    HW230444   4.597   0.751  13.530  0.2761 -0.7871 -0.6674
 6328SOL     OW30445   4.285   0.455   1.913  0.8206 -0.0173  0.4530
 6328SOL    HW130446   4.259   0.449   2.005 -1.3693  0.4365 -0.1392
 6328SOL    HW230447   4.373   0.425   1.934  0.3813 -1.3861  0.3119
 6329SOL     OW30448   1.684   4.396   6.821  0.0712  0.1526 -0.3444
 6329SOL    HW130449   1.622   4.363   6.887  0.1042  0.4824 -0.1440
 6329SOL    HW230450   1.719   4.311   6.795  0.0322 -0.0026  0.1039
 6330SOL     OW30451   1.680   0.018   5.215 -0.2374 -0.1238  0.1737
 6330SOL    HW130452   1.627   0.008   5.135 -2.4530 -1.7829  1.8532
 6330SOL    HW230453   1.714   4.654   5.219 -0.0153 -0.0638 -0.3440
 6331SOL     OW30454   0.877   2.332   8.330  0.1714 -0.0646 -0.2274
 6331SOL    HW130455   0.949   2.303   8.386 -0.1634 -0.3837  0.0411
 6331SOL    HW230456   0.882   2.423   8.359 -0.5523 -0.1103  0.0368
 6332SOL     OW30457   4.213   3.785   2.003  0.0298  0.1078 -0.1271
 6332SOL    HW130458   4.147   3.850   1.980 -0.5666 -0.7305 -0.8146
 6332SOL    HW230459   4.152   3.711   2.004 -1.3942  1.2576 -1.9168
 6333SOL     OW30460   2.987   0.828   8.704 -0.3597  0.2533  0.2278
 6333SOL    HW130461   2.893   0.842   8.713 -0.0153  1.7969  1.6350
 6333SOL    HW230462   3.031   0.910   8.680 -0.2484  0.5808  1.5255
 6334SOL     OW30463   0.043   2.592   5.910  0.0195 -0.1987 -0.5417
 6334SOL    HW130464   0.091   2.584   5.992 -0.5359 -0.2508 -0.2211
 6334SOL    HW230465   4.677   2.608   5.935 -0.2933  0.8638 -2.3592
 6335SOL     OW30466   2.629   2.320  15.513  0.8044  0.2462 -0.3004
 6335SOL    HW130467   2.672   2.405  15.511  1.3645 -0.0295 -0.1483
 6335SOL    HW230468   2.553   2.345  15.566  1.1908  0.1011  0.3212
 6336SOL     OW30469   1.835   1.819   2.687 -0.1724 -0.5619  0.3146
 6336SOL    HW130470   1.852   1.750   2.622  1.8741 -0.8203  1.1102
 6336SOL    HW230471   1.742   1.834   2.676  0.0979  1.0654  0.2075
 6337SOL     OW30472   1.194   3.295  11.644 -0.3209  0.1972  0.1357
 6337SOL    HW130473   1.220   3.346  11.721  0.2309 -0.6348  0.4941
 6337SOL    HW230474   1.167   3.220  11.696 -0.4279  0.5021  0.5216
 6338SOL     OW30475   2.774   4.239   6.011  0.3397  0.1523  0.1543
 6338SOL    HW130476   2.722   4.300   6.064 -0.0192 -0.4391  0.4920
 6338SOL    HW230477   2.842   4.216   6.074  2.4741  0.2245 -2.1236
 6339SOL     OW30478   0.011   1.158  13.064  0.2243 -0.1091 -0.0621
 6339SOL    HW130479   0.073   1.102  13.110  0.4676  0.1240 -0.1031
 6339SOL    HW230480   0.071   1.177  12.991  0.2868 -0.3042 -0.0598
 6340SOL     OW30481   2.358   2.528   5.829 -0.4246  0.1144  0.0635
 6340SOL    HW130482   2.283   2.529   5.768 -0.1701 -2.7469 -0.2910
 6340SOL    HW230483   2.360   2.623   5.840 -1.4408 -0.0483  1.6428
 6341SOL     OW30484   3.773   0.077   3.972 -0.5931  0.4817 -0.1473
 6341SOL    HW130485   3.771   0.054   3.879 -1.4674  0.3574 -0.0911
 6341SOL    HW230486   3.687   0.042   3.993 -0.4077 -0.1690 -0.4704
 6342SOL     OW30487   1.210   2.668   4.823 -0.2752 -0.3044  0.0761
 6342SOL    HW130488   1.136   2.624   4.863 -0.3852  0.7382  1.0226
 6342SOL    HW230489   1.165   2.705   4.747 -1.4337 -0.2627  0.7984
 6343SOL     OW30490   0.024   1.400   9.896 -0.1233  0.5934  0.6296
 6343SOL    HW130491   0.046   1.327   9.839 -0.2090  1.2952 -0.2894
 6343SOL    HW230492   4.659   1.391   9.925 -0.3477 -1.5672 -0.8211
 6344SOL     OW30493   2.953   3.253   3.030 -0.1057  0.3499 -0.0401
 6344SOL    HW130494   2.944   3.348   3.024  0.8131  0.4917  0.8930
 6344SOL    HW230495   2.936   3.241   2.937 -1.6592  1.1134  0.1407
 6345SOL     OW30496   0.706   1.437   2.022 -0.7663 -0.4901  0.6817
 6345SOL    HW130497   0.636   1.442   2.087 -0.7663 -0.0020  0.6440
 6345SOL    HW230498   0.662   1.458   1.939  1.4046 -0.8293 -0.5506
 6346SOL     OW30499   2.371   1.234   1.977  0.0338  0.3990 -0.1579
 6346SOL    HW130500   2.434   1.177   2.022 -1.0623  0.4649  1.4612
 6346SOL    HW230501   2.302   1.246   2.042 -1.0454  0.8442 -1.3831
 6347SOL     OW30502   4.640   4.464  13.427  0.1270 -0.3146 -0.2386
 6347SOL    HW130503   4.717   4.448  13.374  0.9691 -2.1159  1.5114
 6347SOL    HW230504   4.667   4.548  13.464  0.4734 -0.6529  0.2743
 6348SOL     OW30505   2.298   1.908   8.060  0.1548 -0.3140  0.2768
 6348SOL    HW130506   2.373   1.849   8.049  0.5291  0.8040 -2.9972
 6348SOL    HW230507   2.228   1.846   8.079 -1.9466  0.8371 -3.7977
 6349SOL     OW30508   0.907   2.987   7.889 -0.1270  0.1207 -0.1716
 6349SOL    HW130509   0.835   3.045   7.864  0.3433  0.2456 -1.1994
 6349SOL    HW230510   0.967   2.993   7.815 -1.1197  2.8328 -0.7368
 6350SOL     OW30511   4.054   2.533   5.132 -0.7561  0.5392  0.2204
 6350SOL    HW130512   4.084   2.620   5.108  0.8220 -0.3799 -1.1109
 6350SOL    HW230513   4.139   2.494   5.153 -1.1027  0.2105  0.9952
 6351SOL     OW30514   3.851   4.571   2.184 -0.7005 -0.9188  0.0370
 6351SOL    HW130515   3.836   4.623   2.105  3.6458 -0.5765 -0.5992
 6351SOL    HW230516   3.762   4.547   2.210  0.4806 -3.0826  2.1190
 6352SOL     OW30517   0.733   2.102   6.987 -0.0099  0.1027 -0.0525
 6352SOL    HW130518   0.776   2.185   7.010 -2.1116  0.9862  0.7503
 6352SOL    HW230519   0.762   2.092   6.897  4.3295  2.6054  1.0774
 6353SOL     OW30520   0.104   4.454   3.205  0.5527  0.0064  0.9962
 6353SOL    HW130521   0.033   4.518   3.217 -0.6438 -0.9005 -1.1532
 6353SOL    HW230522   0.158   4.499   3.140  2.0457  0.0630  2.2982
 6354SOL     OW30523   0.952   2.873   6.899 -0.7393  0.0714 -0.0375
 6354SOL    HW130524   1.047   2.860   6.906 -1.0065 -1.5917  0.4005
 6354SOL    HW230525   0.948   2.953   6.952  1.3683 -1.5685  2.6581
 6355SOL     OW30526   0.969   3.943   5.813 -0.3185  0.2449 -0.2520
 6355SOL    HW130527   1.039   3.970   5.753 -1.4533  3.0526 -0.2893
 6355SOL    HW230528   0.896   3.991   5.775  0.0793  0.5208 -0.6780
 6356SOL     OW30529   4.677   3.372  13.988  0.3903  0.7001 -0.5544
 6356SOL    HW130530   4.591   3.351  14.022  0.3374  0.2612 -0.9579
 6356SOL    HW230531   0.010   3.388  14.062  0.7280  0.4281 -0.7582
 6357SOL     OW30532   3.618   2.513   5.425  0.3199  0.1621  0.2038
 6357SOL    HW130533   3.610   2.596   5.473  0.1933  0.9427 -1.1517
 6357SOL    HW230534   3.680   2.542   5.358 -0.0519  0.8205  0.1397
 6358SOL     OW30535   3.239   3.851   6.181  0.7771  0.6886 -0.1271
 6358SOL    HW130536   3.265   3.938   6.150 -1.8278  1.4243 -0.2882
 6358SOL    HW230537   3.306   3.797   6.140 -1.4435 -1.0548 -1.4583
 6359SOL     OW30538   2.628   3.898   4.355 -0.0565 -0.0494 -0.0361
 6359SOL    HW130539   2.721   3.878   4.362 -0.4199 -1.8247 -0.2088
 6359SOL    HW230540   2.603   3.839   4.284  1.5418 -0.1890 -0.4692
 6360SOL     OW30541   2.497   2.353   3.317 -0.2105 -0.0285  0.9401
 6360SOL    HW130542   2.406   2.353   3.345 -0.7495 -0.7803 -0.8096
 6360SOL    HW230543   2.485   2.344   3.222  1.5558  0.7222  0.6275
 6361SOL     OW30544   2.540   3.584   8.768  0.0570 -0.3434  0.0234
 6361SOL    HW130545   2.563   3.597   8.860  1.8151  1.9794 -0.7386
 6361SOL    HW230546   2.453   3.623   8.778  0.5190  0.4696  0.9458
 6362SOL     OW30547   0.326   4.674   8.553  0.3621 -0.0411 -0.7315
 6362SOL    HW130548   0.410   4.710   8.584 -0.6136 -0.4596  2.4230
 6362SOL    HW230549   0.260   4.718   8.606  0.5158 -0.0897 -0.5011
 6363SOL     OW30550   4.222   1.821   5.240  0.2425  0.2501 -0.2996
 6363SOL    HW130551   4.312   1.821   5.272  0.0568  2.3035  0.2297
 6363SOL    HW230552   4.232   1.832   5.145  0.2398  0.6070 -0.2590
 6364SOL     OW30553   1.907   3.706   3.070 -0.4125 -0.0544  0.0361
 6364SOL    HW130554   1.954   3.684   3.151  1.3446  0.3631 -0.8660
 6364SOL    HW230555   1.957   3.784   3.045 -0.5273 -0.2713 -0.8855
 6365SOL     OW30556   1.350   0.592  11.386 -0.7425 -0.4760 -0.1027
 6365SOL    HW130557   1.388   0.670  11.346  0.0095 -2.1922 -2.7372
 6365SOL    HW230558   1.294   0.632  11.452  2.1948  1.1103  1.4405
 6366SOL     OW30559   1.843   1.758  15.059  0.5858  0.1098 -1.1066
 6366SOL    HW130560   1.782   1.759  14.986  0.8108 -1.1416 -1.3072
 6366SOL    HW230561   1.838   1.669  15.094 -2.4815  0.5185 -0.4910
 6367SOL     OW30562   1.844   0.879   8.566 -0.1179 -0.1905 -0.3238
 6367SOL    HW130563   1.853   0.966   8.527 -1.3367  0.4738  0.8688
 6367SOL    HW230564   1.901   0.833   8.504 -2.8525 -2.8715 -0.8894
 6368SOL     OW30565   2.840   0.425  14.624 -0.0024 -0.1611 -0.3279
 6368SOL    HW130566   2.825   0.340  14.664  0.5328 -0.6919 -1.2438
 6368SOL    HW230567   2.806   0.479  14.695  1.2979  0.1283  0.0639
 6369SOL     OW30568   0.036   1.700   8.417  0.1428 -0.2842 -0.1713
 6369SOL    HW130569   0.122   1.735   8.394  0.9948 -0.3570  2.8603
 6369SOL    HW230570   0.047   1.605   8.413  4.8564  0.3617 -2.0541
 6370SOL     OW30571   3.971   1.073   3.599  0.5418  0.0663  0.3497
 6370SOL    HW130572   3.924   1.138   3.546  0.0007 -0.5675  0.0575
 6370SOL    HW230573   4.059   1.066   3.561 -0.0989 -1.3272 -0.8441
 6371SOL     OW30574   1.113   3.392   3.865  0.0119 -0.4738 -0.3823
 6371SOL    HW130575   1.193   3.340   3.858 -0.2290 -0.5898 -2.3074
 6371SOL    HW230576   1.035   3.337   3.863 -0.2055 -0.1272 -1.3882
 6372SOL     OW30577   3.586   0.483   6.420 -0.2415 -0.6754  0.0718
 6372SOL    HW130578   3.591   0.578   6.430  1.5227 -0.8757  1.2516
 6372SOL    HW230579   3.559   0.468   6.330 -1.7981 -0.3542  0.4898
 6373SOL     OW30580   0.881   2.335   7.031  0.0757 -0.2144 -0.0183
 6373SOL    HW130581   0.972   2.334   7.060 -0.1047  3.1347  0.6055
 6373SOL    HW230582   0.887   2.420   6.988 -0.8871 -0.2262 -0.1940
 6374SOL     OW30583   2.740   2.909   4.981  0.3918 -0.3267 -0.4977
 6374SOL    HW130584   2.721   2.951   4.897 -0.4142 -0.9670 -0.6412
 6374SOL    HW230585   2.770   2.823   4.952  2.3003 -0.4261  1.8008
 6375SOL     OW30586   4.330   3.983   3.103  0.0358  0.2119  0.1700
 6375SOL    HW130587   4.235   3.994   3.107  0.2686  2.1513  0.2268
 6375SOL    HW230588   4.353   3.977   3.195  0.9695 -0.2202 -0.0832
 6376SOL     OW30589   4.466   2.582   1.922 -0.8193  0.7838 -0.5810
 6376SOL    HW130590   4.423   2.547   1.843 -2.8721 -0.6158  1.1433
 6376SOL    HW230591   4.513   2.503   1.951  0.7443  1.5334 -1.0845
 6377SOL     OW30592   2.884   1.931   4.044  0.0889 -0.3470 -0.3012
 6377SOL    HW130593   2.927   1.900   4.123  1.5268  0.4478 -0.7802
 6377SOL    HW230594   2.802   1.955   4.087  1.1416 -0.7139  1.9087
 6378SOL     OW30595   4.180   4.308  10.075  0.7251 -0.3940 -1.0476
 6378SOL    HW130596   4.256   4.366  10.086  0.9969 -0.7653 -0.9531
 6378SOL    HW230597   4.220   4.229  10.037  0.5254 -0.9392 -0.1499
 6379SOL     OW30598   3.066   3.270   0.102  0.7437 -0.1346 -0.2176
 6379SOL    HW130599   3.087   3.289   0.010 -0.6404  1.4401 -0.1993
 6379SOL    HW230600   3.129   3.200   0.121 -1.7860 -1.7713  1.9874
 6380SOL     OW30601   2.405   1.952   2.291  0.0253 -0.3156 -0.2379
 6380SOL    HW130602   2.359   1.869   2.285 -1.2327  0.4667 -1.3870
 6380SOL    HW230603   2.482   1.938   2.236 -0.5234 -0.0866 -1.0592
 6381SOL     OW30604   4.614   0.629   1.921 -0.7648  0.0224 -0.4323
 6381SOL    HW130605   4.589   0.537   1.933 -1.2997 -0.0087 -1.8070
 6381SOL    HW230606   4.560   0.653   1.846 -1.3110 -0.5861 -0.2347
 6382SOL     OW30607   2.006   2.096   7.351  0.3187  0.3462  0.4271
 6382SOL    HW130608   1.973   2.060   7.433 -0.1703 -1.3078 -0.4811
 6382SOL    HW230609   2.061   2.026   7.313  0.0694 -1.0295  2.6185
 6383SOL     OW30610   1.947   1.452   4.933  0.3331  0.1913  0.2019
 6383SOL    HW130611   1.938   1.515   4.861  0.4517 -0.0700 -0.0390
 6383SOL    HW230612   1.986   1.380   4.883  0.7183  0.2465  0.4321
 6384SOL     OW30613   0.891   4.517  10.180 -0.5035  0.2601 -0.0921
 6384SOL    HW130614   0.842   4.549  10.104  0.3197 -1.8446 -1.5170
 6384SOL    HW230615   0.840   4.437  10.187 -1.9816  1.4282  2.4384
 6385SOL     OW30616   4.059   0.439   2.414 -0.0443  0.1791  0.4093
 6385SOL    HW130617   4.149   0.449   2.445 -0.5309  0.5571  1.6891
 6385SOL    HW230618   4.018   0.416   2.498 -0.9490 -1.3932 -0.4662
 6386SOL     OW30619   3.012   0.845   7.737  0.7453  0.6105  0.4630
 6386SOL    HW130620   3.102   0.837   7.769  2.1935  0.2779 -3.6703
 6386SOL    HW230621   2.963   0.788   7.796 -0.8838 -1.1356 -2.5802
 6387SOL     OW30622   3.763   1.458   3.958  0.6600  0.0718  0.4477
 6387SOL    HW130623   3.706   1.387   3.986  0.2516  0.1812 -0.1182
 6387SOL    HW230624   3.831   1.418   3.903  0.5650 -0.9601  1.0731
 6388SOL     OW30625   0.442   3.963   3.521  0.3203 -0.3717 -0.3314
 6388SOL    HW130626   0.490   4.026   3.576  1.6358 -1.5852 -0.0701
 6388SOL    HW230627   0.516   3.925   3.472 -0.6715 -0.6719 -1.5814
 6389SOL     OW30628   3.183   3.635   9.839 -0.0967  0.1214 -0.2286
 6389SOL    HW130629   3.213   3.723   9.814 -0.8176  0.8236  1.3848
 6389SOL    HW230630   3.248   3.586   9.788 -1.0948 -2.1451  0.6922
 6390SOL     OW30631   1.839   0.379  17.687 -0.9921  0.4979 -0.0093
 6390SOL    HW130632   1.810   0.306   0.037 -0.2269  0.9392  1.0010
 6390SOL    HW230633   1.759   0.430  17.674 -0.8259  0.5453 -0.8359
 6391SOL     OW30634   2.060   4.486   8.911 -0.2958  0.3154 -0.3989
 6391SOL    HW130635   1.987   4.504   8.851 -0.2145  0.1224 -0.5565
 6391SOL    HW230636   2.116   4.563   8.912  1.2296 -0.8276  0.9954
 6392SOL     OW30637   1.116   2.113   2.808  0.5892 -0.1509 -0.1884
 6392SOL    HW130638   1.041   2.077   2.762 -0.4040  3.9739 -1.8603
 6392SOL    HW230639   1.115   2.206   2.786 -1.0749 -0.0945  0.1332
 6393SOL     OW30640   4.660   1.490  16.923 -0.2707 -0.4009  0.4283
 6393SOL    HW130641   4.608   1.415  16.895  0.1742 -0.9351  1.0241
 6393SOL    HW230642   4.722   1.455  16.988 -1.5616  0.1933  1.9578
 6394SOL     OW30643   0.717   4.030  11.237  0.6087  1.2446 -0.6875
 6394SOL    HW130644   0.655   3.957  11.237  0.5673  1.2869 -1.5745
 6394SOL    HW230645   0.690   4.072  11.155 -2.1056 -0.5130 -0.6991
 6395SOL     OW30646   0.342   3.816   5.114 -0.5796 -0.7439  0.2526
 6395SOL    HW130647   0.366   3.731   5.152  1.2003  0.2611  1.3322
 6395SOL    HW230648   0.246   3.813   5.106 -0.4996 -0.0719 -0.8450
 6396SOL     OW30649   0.795   3.554   8.381  0.4449 -0.2392 -0.0377
 6396SOL    HW130650   0.786   3.552   8.286 -0.1331 -0.3756  0.0202
 6396SOL    HW230651   0.747   3.472   8.394 -1.0598  0.7828  0.9309
 6397SOL     OW30652   3.753   3.651  13.744 -0.5115  0.0875 -0.0537
 6397SOL    HW130653   3.717   3.701  13.671  1.6058 -0.3464 -1.3728
 6397SOL    HW230654   3.687   3.581  13.749  0.1154 -0.3015  3.0142
 6398SOL     OW30655   4.705   2.213   1.479 -0.5546 -0.0785 -0.1960
 6398SOL    HW130656   4.644   2.276   1.440 -1.1297 -0.7875 -0.4290
 6398SOL    HW230657   4.692   2.137   1.422  1.3235  0.0709 -0.8231
 6399SOL     OW30658   3.099   2.570   5.946  0.6086 -0.1859 -0.1625
 6399SOL    HW130659   3.166   2.502   5.944 -1.2500 -2.0300  0.0978
 6399SOL    HW230660   3.036   2.516   5.898 -1.1700  0.2680  1.6563
 6400SOL     OW30661   3.956   2.600   0.688  0.3500 -0.3499 -0.9133
 6400SOL    HW130662   3.966   2.509   0.659  0.6421 -0.8077  0.6005
 6400SOL    HW230663   4.028   2.647   0.646 -0.5113  0.2035 -1.7602
 6401SOL     OW30664   2.331   0.976   3.627  0.2241 -0.0298  0.0696
 6401SOL    HW130665   2.309   0.964   3.719 -0.0429  0.6862  0.1018
 6401SOL    HW230666   2.391   1.049   3.640 -0.4140  0.5319 -0.0950
 6402SOL     OW30667   3.016   0.910   7.475  0.1668 -0.4502 -0.2231
 6402SOL    HW130668   2.932   0.908   7.430 -0.7198 -0.9246  1.4675
 6402SOL    HW230669   3.003   0.855   7.552 -1.6166 -0.1474 -0.3211
 6403SOL     OW30670   0.627   1.847  10.624  0.2617  0.1136  0.0982
 6403SOL    HW130671   0.596   1.756  10.623 -0.3466  0.3006  1.5726
 6403SOL    HW230672   0.542   1.887  10.642  0.0740  1.1306 -3.0782
 6404SOL     OW30673   1.808   0.128   8.766  0.1945  0.2385 -0.7215
 6404SOL    HW130674   1.732   0.184   8.778  0.7501  0.1644  3.0109
 6404SOL    HW230675   1.868   0.138   8.840 -0.4626 -1.3665  0.0257
 6405SOL     OW30676   3.975   1.699   2.076  0.0750 -0.0633  0.5785
 6405SOL    HW130677   3.913   1.771   2.089  1.0915  1.0053 -0.4779
 6405SOL    HW230678   4.048   1.725   2.131  0.0206  1.1299  0.0811
 6406SOL     OW30679   1.866   2.404  16.061  0.1728  0.4482 -0.0111
 6406SOL    HW130680   1.856   2.478  16.000  0.7412  0.2216 -0.3835
 6406SOL    HW230681   1.881   2.330  16.002 -4.7256 -1.9579  1.7157
 6407SOL     OW30682   4.612   1.984   7.780 -0.0935  0.2950  0.0359
 6407SOL    HW130683   4.531   1.946   7.814 -0.3206 -0.6827 -1.6239
 6407SOL    HW230684   4.591   1.979   7.687  0.0787  2.6898 -0.1340
 6408SOL     OW30685   4.492   1.936  16.347  0.0955  0.1992  0.4812
 6408SOL    HW130686   4.445   1.855  16.364  0.7096 -0.1371  0.5628
 6408SOL    HW230687   4.422   1.992  16.315  0.1386 -0.5595 -0.9212
 6409SOL     OW30688   2.579   0.939   7.160 -0.2298  0.1191  0.0571
 6409SOL    HW130689   2.548   1.021   7.121  0.8663  0.4115 -0.1938
 6409SOL    HW230690   2.582   0.879   7.086  0.8108 -0.7381  0.8072
 6410SOL     OW30691   1.335   3.218  16.665  0.6567  0.4075  0.1941
 6410SOL    HW130692   1.328   3.283  16.596  1.0082  1.8708  1.5369
 6410SOL    HW230693   1.368   3.282  16.728  0.3821  0.7875 -0.0458
 6411SOL     OW30694   0.027   0.453   4.916 -0.8057 -0.1012  0.3910
 6411SOL    HW130695   4.661   0.435   4.899 -0.8329 -0.6937  1.1686
 6411SOL    HW230696   0.016   0.545   4.936  2.1146 -0.2237  2.6320
 6412SOL     OW30697   3.228   0.928  11.704  0.4885 -0.0510 -0.4304
 6412SOL    HW130698   3.137   0.905  11.724  0.1824  2.1609  0.7880
 6412SOL    HW230699   3.279   0.902  11.781 -1.9638  0.2561  1.3369
 6413SOL     OW30700   3.298   1.423   9.433 -0.0003  0.3078  0.3847
 6413SOL    HW130701   3.346   1.349   9.396 -1.2432  0.3298 -1.3220
 6413SOL    HW230702   3.245   1.447   9.356 -0.6066  1.3917  1.1434
 6414SOL     OW30703   2.395   0.473   3.587  0.0525  0.3536  0.4957
 6414SOL    HW130704   2.449   0.398   3.564 -1.6689 -1.2501  1.7095
 6414SOL    HW230705   2.368   0.515   3.506 -1.5649  1.1557  1.4442
 6415SOL     OW30706   4.527   0.405   3.356 -0.5096 -0.0477 -0.0475
 6415SOL    HW130707   4.589   0.427   3.286 -2.2454  0.6167 -1.3771
 6415SOL    HW230708   4.560   0.455   3.431  0.2227 -2.0453  0.9716
 6416SOL     OW30709   3.494   1.259   2.274 -0.7517  0.1877  0.0345
 6416SOL    HW130710   3.573   1.255   2.329 -0.4740  1.9383 -0.2361
 6416SOL    HW230711   3.529   1.217   2.195 -0.4587 -0.2447  0.3916
 6417SOL     OW30712   2.691   1.403   7.736  0.3102  0.6577 -0.0779
 6417SOL    HW130713   2.663   1.463   7.805  0.4681 -0.3993  0.9087
 6417SOL    HW230714   2.639   1.431   7.661 -3.6958 -1.4256  1.9336
 6418SOL     OW30715   0.926   4.069  11.397 -0.4214 -0.0763  0.6622
 6418SOL    HW130716   0.949   4.139  11.337 -1.4297 -0.9581 -0.7373
 6418SOL    HW230717   0.842   4.051  11.356  1.0901 -3.3513 -1.0565
 6419SOL     OW30718   4.720   0.107  15.193  0.0868 -0.5847  0.2738
 6419SOL    HW130719   0.043   0.094  15.111 -3.0759  0.8460 -1.8076
 6419SOL    HW230720   0.065   0.120  15.256 -1.3106  0.3408  1.6203
 6420SOL     OW30721   1.453   2.189  10.417 -0.5231 -0.1959  0.3652
 6420SOL    HW130722   1.425   2.118  10.475 -0.3485 -0.8801 -0.3927
 6420SOL    HW230723   1.400   2.262  10.450  2.7713  2.7048 -0.7044
 6421SOL     OW30724   3.493   3.855   6.713 -0.2345 -0.5844 -0.2131
 6421SOL    HW130725   3.551   3.918   6.671 -0.3294 -0.7756 -0.6351
 6421SOL    HW230726   3.504   3.785   6.649  1.2239  1.1453 -1.8378
 6422SOL     OW30727   4.504   1.570   8.591  0.5530 -0.0098  0.2268
 6422SOL    HW130728   4.512   1.652   8.542 -0.0617 -0.5151 -0.7108
 6422SOL    HW230729   4.572   1.523   8.542  0.3723  1.2295 -1.2107
 6423SOL     OW30730   3.281   3.493   7.092  0.1553 -0.5697  0.3045
 6423SOL    HW130731   3.274   3.588   7.082  0.5461 -0.5671  0.0539
 6423SOL    HW230732   3.344   3.474   7.161 -0.6541 -0.2901  1.1223
 6424SOL     OW30733   1.364   0.597   4.807  0.0827  0.5931 -0.1212
 6424SOL    HW130734   1.380   0.612   4.900  0.1511 -1.2837  0.1662
 6424SOL    HW230735   1.439   0.539   4.792 -0.6003 -0.4709  0.5553
 6425SOL     OW30736   2.338   3.231   8.771  0.2742  0.3038  0.0269
 6425SOL    HW130737   2.413   3.229   8.831  0.9296 -0.0466 -0.7924
 6425SOL    HW230738   2.333   3.137   8.756  1.0465  0.4695 -1.2918
 6426SOL     OW30739   0.427   4.257  15.015  1.0379  0.4850 -0.1958
 6426SOL    HW130740   0.334   4.255  15.036  1.1807  0.9390  0.4731
 6426SOL    HW230741   0.466   4.319  15.076 -1.0272  1.4206  0.1836
 6427SOL     OW30742   1.629   0.698   6.728  0.4363 -0.2455  0.2374
 6427SOL    HW130743   1.627   0.619   6.782 -1.9030 -0.5613 -0.3052
 6427SOL    HW230744   1.550   0.679   6.678  3.6088  1.0290 -5.3867
 6428SOL     OW30745   3.037   0.391   4.041  0.1853  0.0355 -0.5192
 6428SOL    HW130746   3.024   0.303   4.078  1.0075 -0.0811 -0.5123
 6428SOL    HW230747   3.051   0.437   4.123  0.3994 -1.1855  0.1364
 6429SOL     OW30748   4.478   0.779   1.464 -0.1667  0.1387 -0.0765
 6429SOL    HW130749   4.393   0.764   1.505 -0.3592  0.0637 -0.5022
 6429SOL    HW230750   4.515   0.836   1.531  0.8940 -2.0501  1.1641
 6430SOL     OW30751   4.143   2.067   8.491 -0.1398 -0.1171  0.0297
 6430SOL    HW130752   4.064   2.054   8.544 -0.9700  2.9459 -0.4605
 6430SOL    HW230753   4.135   2.162   8.483 -2.1038 -0.1702  1.2845
 6431SOL     OW30754   2.855   4.226   5.031  0.9688  0.0826 -0.0260
 6431SOL    HW130755   2.937   4.232   5.079  0.0536  2.4041  1.2314
 6431SOL    HW230756   2.872   4.150   4.975 -0.5733 -1.3601  1.4702
 6432SOL     OW30757   0.750   0.058   4.540 -0.1231  0.5040  0.0405
 6432SOL    HW130758   0.708   0.044   4.626 -0.5233 -1.8952 -0.5240
 6432SOL    HW230759   0.819   0.120   4.563  0.1115 -0.0916  0.9805
 6433SOL     OW30760   0.923   0.203   0.218  0.0589  0.4741  0.0830
 6433SOL    HW130761   0.950   0.176   0.130 -1.1401 -1.0523  0.1839
 6433SOL    HW230762   0.861   0.133   0.237  1.5472 -0.5187  1.2510
 6434SOL     OW30763   0.862   2.895  12.039 -0.2312 -0.2423 -0.0355
 6434SOL    HW130764   0.952   2.876  12.066  0.1110 -0.0127 -1.0253
 6434SOL    HW230765   0.879   2.988  12.024 -0.5103 -0.2687 -0.4854
 6435SOL     OW30766   4.421   2.580   6.805  0.5278 -0.4142 -0.4150
 6435SOL    HW130767   4.340   2.560   6.852  0.7942  1.0007  0.6644
 6435SOL    HW230768   4.473   2.503   6.826 -2.0171 -1.8554  0.5783
 6436SOL     OW30769   2.538   2.429  14.579  0.2322 -0.4336 -0.3497
 6436SOL    HW130770   2.554   2.346  14.533  0.2839 -0.2126 -0.7349
 6436SOL    HW230771   2.629   2.421  14.608  0.6873  0.9435 -1.3968
 6437SOL     OW30772   1.768   4.608   8.422 -0.3005 -0.0087 -0.4354
 6437SOL    HW130773   1.694   4.649   8.466 -0.2261  1.4207 -1.6731
 6437SOL    HW230774   1.724   4.546   8.364 -0.2952 -0.4789  0.0597
 6438SOL     OW30775   1.255   1.886   2.788  0.2583 -0.4256 -0.5976
 6438SOL    HW130776   1.244   1.980   2.777  0.5162 -0.7073 -3.1604
 6438SOL    HW230777   1.183   1.849   2.737 -0.1387  0.6587 -0.8054
 6439SOL     OW30778   2.747   1.124   9.564 -0.0243 -0.9810  0.0299
 6439SOL    HW130779   2.714   1.211   9.585  0.4248 -0.7970 -0.0221
 6439SOL    HW230780   2.796   1.141   9.483 -0.8946 -0.5825 -0.4137
 6440SOL     OW30781   3.410   4.419   8.138 -0.0581  0.1813  0.0120
 6440SOL    HW130782   3.501   4.446   8.135  0.1522 -0.4582  0.8675
 6440SOL    HW230783   3.363   4.482   8.082 -3.1468  0.2197  2.6546
 6441SOL     OW30784   0.283   2.817   4.841  0.2609 -0.0342 -0.5209
 6441SOL    HW130785   0.220   2.821   4.913 -0.8501  0.6239 -1.5244
 6441SOL    HW230786   0.353   2.762   4.877 -1.6034 -2.9341 -1.3802
 6442SOL     OW30787   2.066   0.515   3.137  0.6137  0.4246 -0.3411
 6442SOL    HW130788   2.086   0.608   3.149  0.7599  0.0223  2.5617
 6442SOL    HW230789   2.008   0.496   3.211  2.1412  0.0584  0.7561
 6443SOL     OW30790   0.270   2.797   8.528 -0.1473  0.0528  0.2517
 6443SOL    HW130791   0.346   2.782   8.473 -0.3555  0.6882 -0.2026
 6443SOL    HW230792   0.232   2.709   8.517 -1.2011  0.2749  2.0436
 6444SOL     OW30793   3.691   3.786  11.117  0.0767 -0.2897  0.5911
 6444SOL    HW130794   3.669   3.877  11.093 -1.0993 -1.0063 -1.0629
 6444SOL    HW230795   3.729   3.755  11.035 -2.0075 -0.4665 -0.3295
 6445SOL     OW30796   4.652   1.368   6.093  0.1485 -0.1485  0.5446
 6445SOL    HW130797   4.671   1.350   6.000 -0.1492  2.6095 -0.0482
 6445SOL    HW230798   4.568   1.412   6.087 -0.3744 -1.0319  1.4752
 6446SOL     OW30799   2.376   3.506   2.866  0.3500 -0.2931  0.3997
 6446SOL    HW130800   2.465   3.482   2.891 -0.0584  0.0856  2.2550
 6446SOL    HW230801   2.368   3.474   2.776  3.8412  0.8618 -0.3039
 6447SOL     OW30802   1.842   1.987  16.631  0.1512 -0.2312 -0.6228
 6447SOL    HW130803   1.839   2.065  16.576 -0.2750 -0.3807 -0.8127
 6447SOL    HW230804   1.867   2.028  16.714 -0.9330  0.2466 -0.5230
 6448SOL     OW30805   2.417   1.983   5.106 -0.5516  0.1334  0.2972
 6448SOL    HW130806   2.433   2.073   5.075 -1.0205  0.0288 -0.2541
 6448SOL    HW230807   2.458   1.927   5.041  2.0492  1.5624  0.7101
 6449SOL     OW30808   3.913   0.183   3.209 -0.7313 -0.2571 -0.4565
 6449SOL    HW130809   3.922   0.098   3.165 -1.4022 -0.8687  0.5646
 6449SOL    HW230810   3.989   0.224   3.169 -0.0402 -0.8368  0.2580
 6450SOL     OW30811   2.254   3.775   2.654  0.3429  0.4265  0.1589
 6450SOL    HW130812   2.241   3.819   2.570 -0.2495 -0.0825 -0.0186
 6450SOL    HW230813   2.197   3.700   2.638 -0.7744  0.9987  1.4007
 6451SOL     OW30814   2.705   4.623   1.933  0.0705 -0.3687 -0.2368
 6451SOL    HW130815   2.733   4.532   1.923  1.0986 -0.1818  0.9601
 6451SOL    HW230816   2.777   4.643   1.993  0.3520 -1.2416 -0.2810
 6452SOL     OW30817   1.847   2.919   6.711 -0.1528  0.9323 -0.2154
 6452SOL    HW130818   1.859   2.825   6.725  1.9820  1.4045  1.1268
 6452SOL    HW230819   1.756   2.906   6.687 -0.7884  1.2488  2.0167
 6453SOL     OW30820   3.730   0.170   4.972  0.1572 -0.3948 -0.2414
 6453SOL    HW130821   3.652   0.225   4.962  0.3061  0.4992  3.5908
 6453SOL    HW230822   3.726   0.131   4.885 -0.3956 -0.4043 -0.2161
 6454SOL     OW30823   1.980   4.287   7.052 -0.4359 -0.8255  0.3722
 6454SOL    HW130824   2.006   4.201   7.083 -0.8335 -1.7643 -1.8894
 6454SOL    HW230825   2.009   4.287   6.961  2.1840  0.4900  1.2115
 6455SOL     OW30826   1.396   1.303  11.988  0.1816 -0.0308 -0.1674
 6455SOL    HW130827   1.358   1.282  11.903  0.7341 -2.1888  0.1076
 6455SOL    HW230828   1.348   1.240  12.042  1.1432  0.1015  0.8565
 6456SOL     OW30829   3.732   0.532   6.125  0.0429 -0.2600 -0.0663
 6456SOL    HW130830   3.789   0.589   6.177  0.9738 -0.5731 -0.7499
 6456SOL    HW230831   3.750   0.442   6.152 -0.6231  0.1828  1.8814
 6457SOL     OW30832   4.058   3.396   4.306 -0.1826  0.6006  0.1249
 6457SOL    HW130833   4.148   3.369   4.325  0.0711  1.0217 -0.4778
 6457SOL    HW230834   4.034   3.404   4.398  1.7285 -0.6362  0.7316
 6458SOL     OW30835   3.286   2.974   6.490 -0.2357  0.0761  0.4807
 6458SOL    HW130836   3.215   2.925   6.532  1.7571 -1.6958  1.7783
 6458SOL    HW230837   3.268   3.067   6.505 -0.2823 -0.1587  1.9120
 6459SOL     OW30838   1.933   4.303  11.973  0.3424  0.2205 -0.8679
 6459SOL    HW130839   1.882   4.291  11.892 -0.7869 -1.2514  0.0555
 6459SOL    HW230840   1.928   4.216  12.013  1.7970  0.4481 -0.2065
 6460SOL     OW30841   3.788   2.730  13.524  0.4354  0.3106  0.6606
 6460SOL    HW130842   3.847   2.700  13.594  1.4436  1.2311  0.2061
 6460SOL    HW230843   3.837   2.812  13.514  0.6304  0.0728 -0.3889
 6461SOL     OW30844   3.526   0.768   6.817 -0.2929 -0.1297  0.1681
 6461SOL    HW130845   3.584   0.702   6.856  0.1846 -0.5863 -1.3032
 6461SOL    HW230846   3.478   0.807   6.890 -0.1753  1.3140 -0.5441
 6462SOL     OW30847   1.808   3.498   5.706 -0.6562  0.2862 -0.8438
 6462SOL    HW130848   1.769   3.426   5.755 -1.9621  1.4537 -0.1768
 6462SOL    HW230849   1.728   3.529   5.664 -0.3333 -1.1837 -2.5548
 6463SOL     OW30850   1.573   0.387  16.090  0.1851 -0.1841  0.4585
 6463SOL    HW130851   1.663   0.411  16.067  0.8459 -3.4235 -0.2006
 6463SOL    HW230852   1.518   0.433  16.026  0.8685 -2.2329 -1.5675
 6464SOL     OW30853   1.669   4.078   2.675 -0.4368  0.8654  0.2752
 6464SOL    HW130854   1.615   4.082   2.754  1.6695  0.1483  1.7481
 6464SOL    HW230855   1.599   4.076   2.610 -0.5714  0.7968  0.4206
 6465SOL     OW30856   4.208   4.661   2.892 -0.0448 -0.4770 -0.0062
 6465SOL    HW130857   4.157   4.626   2.819 -1.2531  0.8808  0.1821
 6465SOL    HW230858   4.147   0.004   2.922  1.3202  1.2501 -1.1779
 6466SOL     OW30859   1.845   0.604  14.223  0.3052 -0.0005  0.1052
 6466SOL    HW130860   1.822   0.520  14.184 -2.3268  0.3743  0.8582
 6466SOL    HW230861   1.753   0.615  14.248  0.3248  0.3552  0.0111
 6467SOL     OW30862   1.913   1.861   3.905  0.1149  0.0081  0.4513
 6467SOL    HW130863   1.878   1.884   3.991 -0.5449  2.1833 -0.4118
 6467SOL    HW230864   1.866   1.778   3.894 -0.8729  0.3492  2.0958
 6468SOL     OW30865   1.996   1.000  12.960 -0.1871 -0.3894 -0.0628
 6468SOL    HW130866   1.929   0.933  12.967 -2.5389  1.8265 -1.3824
 6468SOL    HW230867   1.986   1.015  12.866  0.4459 -1.5586 -0.3165
 6469SOL     OW30868   1.585   3.316  12.281 -0.8442  0.0419 -0.3608
 6469SOL    HW130869   1.576   3.242  12.221  2.3969 -1.1535  0.6253
 6469SOL    HW230870   1.637   3.272  12.349 -1.6125 -1.4597 -0.7416
 6470SOL     OW30871   0.607   4.540   6.557 -0.1954  0.1891  0.3690
 6470SOL    HW130872   0.608   4.585   6.472  2.6802  0.0542  0.3279
 6470SOL    HW230873   0.512   4.528   6.558  0.0893 -2.0918  0.7796
 6471SOL     OW30874   3.176   3.720  16.744  0.4149 -0.1661 -0.2758
 6471SOL    HW130875   3.208   3.632  16.721  1.3058  0.1217 -0.1206
 6471SOL    HW230876   3.243   3.759  16.800  0.3180 -1.5888  0.8507
 6472SOL     OW30877   4.703   0.093  13.122 -0.2027  0.9283 -0.4743
 6472SOL    HW130878   4.697   0.103  13.027 -2.0460 -2.6551 -0.7074
 6472SOL    HW230879   4.702   4.724  13.131  1.2040  0.6925 -2.9363
 6473SOL     OW30880   0.009   1.715   6.026  0.5262  0.6141  0.1476
 6473SOL    HW130881   4.662   1.661   6.058 -0.1955  0.3596 -1.9372
 6473SOL    HW230882   0.067   1.647   5.991 -0.4804  0.1229 -0.5690
 6474SOL     OW30883   1.588   0.272   3.987  0.3063  0.2381  0.4304
 6474SOL    HW130884   1.494   0.255   3.980  0.3749 -0.2409  0.6629
 6474SOL    HW230885   1.620   0.192   4.031  0.3488 -0.1378 -0.2863
 6475SOL     OW30886   1.910   4.542   6.736 -0.3092  0.5880  0.3428
 6475SOL    HW130887   1.830   4.519   6.783  0.0560  2.7013  1.9853
 6475SOL    HW230888   1.879   4.585   6.656  0.7856  0.2283 -0.2680
 6476SOL     OW30889   4.092   3.447   5.098 -0.0209  0.0794  0.2421
 6476SOL    HW130890   4.162   3.511   5.112 -0.5435  0.9301 -1.1526
 6476SOL    HW230891   4.022   3.502   5.062  0.4660  1.1890  0.9828
 6477SOL     OW30892   2.609   2.682   8.284  0.0334  0.7005  0.1364
 6477SOL    HW130893   2.578   2.718   8.200  0.6577  2.6854  0.7661
 6477SOL    HW230894   2.668   2.743   8.328 -0.9527  2.0716 -0.4454
 6478SOL     OW30895   4.037   1.480   1.465 -0.3553 -0.2108 -0.2913
 6478SOL    HW130896   3.980   1.531   1.407 -1.9788 -0.1017  1.3970
 6478SOL    HW230897   4.118   1.484   1.415  0.3646 -2.0249  0.7254
 6479SOL     OW30898   3.329   4.653   1.443  0.1182  0.6414 -0.5228
 6479SOL    HW130899   3.377   0.010   1.453  2.0611 -0.6470  0.6656
 6479SOL    HW230900   3.376   4.616   1.368  1.3135  1.6380 -0.2831
 6480SOL     OW30901   4.462   0.272   4.182 -1.0061 -0.0971  0.3556
 6480SOL    HW130902   4.481   0.352   4.132  0.1069 -0.8004 -0.3372
 6480SOL    HW230903   4.497   0.212   4.116  1.5321  1.1304  0.5794
 6481SOL     OW30904   3.442   2.647   6.545  0.1794 -0.5537  0.0861
 6481SOL    HW130905   3.367   2.617   6.493 -0.3021 -1.9962  1.6437
 6481SOL    HW230906   3.514   2.585   6.532  0.1916 -0.7846  1.2813
 6482SOL     OW30907   0.820   3.655   6.615  0.0930 -0.3637 -0.6430
 6482SOL    HW130908   0.747   3.594   6.624  1.7935 -2.3474 -0.2219
 6482SOL    HW230909   0.880   3.620   6.682 -0.6296  0.7070  0.5556
 6483SOL     OW30910   4.652   2.972   7.444  0.2416 -0.0962  0.0787
 6483SOL    HW130911   4.713   2.903   7.414 -0.8509 -1.5986  1.3268
 6483SOL    HW230912   4.606   2.996   7.364  0.8207 -0.3175 -0.3279
 6484SOL     OW30913   1.427   3.889   3.711 -0.5352 -0.4274  0.0379
 6484SOL    HW130914   1.455   3.800   3.735 -2.2541 -1.2448 -0.9621
 6484SOL    HW230915   1.375   3.918   3.786 -0.8397 -1.5032  0.2536
 6485SOL     OW30916   2.725   4.501   3.916  0.2741  0.0828  0.4348
 6485SOL    HW130917   2.690   4.580   3.876 -0.4736 -0.4020  0.1278
 6485SOL    HW230918   2.653   4.464   3.968  1.2582 -0.5545  1.3385
 6486SOL     OW30919   2.376   4.345  15.696  0.0360  0.0051  0.1959
 6486SOL    HW130920   2.282   4.359  15.707  0.1219  2.6805 -2.5262
 6486SOL    HW230921   2.403   4.408  15.629 -0.1514  0.2687  0.3670
 6487SOL     OW30922   2.573   2.055   8.155 -0.1035 -0.4524 -0.7176
 6487SOL    HW130923   2.535   2.128   8.203  1.9417  0.5000 -0.5221
 6487SOL    HW230924   2.509   1.985   8.166 -0.2370 -0.1784  0.2410
 6488SOL     OW30925   1.413   0.631  15.052  0.1874  0.0257  0.6613
 6488SOL    HW130926   1.339   0.633  15.114  0.0343  1.5066  0.4463
 6488SOL    HW230927   1.428   0.726  15.055 -1.0870  0.2509 -0.0486
 6489SOL     OW30928   4.694   2.770   8.151  0.0216 -0.0335 -0.0267
 6489SOL    HW130929   4.706   2.680   8.121 -1.8765  0.5281 -2.4327
 6489SOL    HW230930   4.600   2.778   8.166  0.0929  1.9091 -0.5514
 6490SOL     OW30931   2.661   3.622   1.236  0.0518 -0.2035 -0.1096
 6490SOL    HW130932   2.663   3.609   1.331 -0.2668  0.7831  0.0310
 6490SOL    HW230933   2.708   3.705   1.239  0.5840 -0.4742 -1.1441
 6491SOL     OW30934   4.036   3.850  16.480 -0.1625 -0.3940  0.2317
 6491SOL    HW130935   3.992   3.880  16.559 -1.6784 -0.8728 -0.4251
 6491SOL    HW230936   4.128   3.860  16.507 -0.6231  0.3163  1.5507
 6492SOL     OW30937   1.943   2.581   3.802 -0.3293  1.0537  0.4719
 6492SOL    HW130938   1.964   2.612   3.714 -0.9296 -1.3461 -0.5376
 6492SOL    HW230939   1.851   2.556   3.792  0.0587  0.4612 -1.7675
 6493SOL     OW30940   0.585   0.869   1.149  0.3270 -0.0806 -0.2596
 6493SOL    HW130941   0.673   0.831   1.158  0.1171 -0.6352 -0.5247
 6493SOL    HW230942   0.576   0.854   1.055  1.3211 -0.7439 -0.2577
 6494SOL     OW30943   4.703   4.185   3.157 -0.5077  0.1913 -0.1698
 6494SOL    HW130944   0.055   4.235   3.182 -1.2315  1.9092 -1.3748
 6494SOL    HW230945   4.649   4.240   3.214  0.2723  1.8908 -1.0829
 6495SOL     OW30946   3.923   2.298  12.862 -0.1065 -0.2572 -0.0133
 6495SOL    HW130947   3.985   2.350  12.914 -0.8913  0.2600  0.4041
 6495SOL    HW230948   3.960   2.306  12.774  0.5976 -1.4956  0.1753
 6496SOL     OW30949   1.403   0.174   0.514  0.4512 -0.4026  0.2141
 6496SOL    HW130950   1.318   0.178   0.469  0.5908 -4.3566 -0.4027
 6496SOL    HW230951   1.411   0.079   0.523 -0.1081 -0.3823  0.9078
 6497SOL     OW30952   1.585   3.085  11.642  0.0631 -0.0557 -0.3128
 6497SOL    HW130953   1.639   3.163  11.637  1.3669 -0.8588  1.3126
 6497SOL    HW230954   1.525   3.116  11.710 -2.0358  0.4363 -2.3817
 6498SOL     OW30955   0.764   2.375  14.514 -0.3317 -0.2241 -0.1037
 6498SOL    HW130956   0.671   2.398  14.526 -0.5997 -0.8179 -1.0163
 6498SOL    HW230957   0.788   2.379  14.606 -0.1066  0.4248 -0.1930
 6499SOL     OW30958   4.310   1.269   0.008  0.3316 -0.0563  0.0297
 6499SOL    HW130959   4.382   1.219   0.047  0.6923  0.6700  0.3067
 6499SOL    HW230960   4.321   1.347   0.063 -2.6084  0.8804 -0.6929
 6500SOL     OW30961   1.379   3.883   8.253 -0.0954 -0.1644 -0.3984
 6500SOL    HW130962   1.395   3.894   8.346  0.2978  0.3036 -0.5200
 6500SOL    HW230963   1.461   3.922   8.222 -0.0080 -0.3712 -0.4258
 6501SOL     OW30964   3.472   0.611   7.771  0.0526 -0.1541 -0.3564
 6501SOL    HW130965   3.389   0.568   7.795 -0.4395 -0.8592 -3.3710
 6501SOL    HW230966   3.486   0.555   7.695 -0.9512 -0.4404 -0.3407
 6502SOL     OW30967   3.895   2.300   5.150  0.4813  0.6495 -0.3209
 6502SOL    HW130968   3.937   2.293   5.236 -0.7384 -0.9206  0.1477
 6502SOL    HW230969   3.945   2.379   5.126  1.7674 -0.2133 -0.4811
 6503SOL     OW30970   0.881   4.160   5.358 -0.2944  0.4370 -0.3811
 6503SOL    HW130971   0.813   4.225   5.375 -1.6862 -1.4278  1.0349
 6503SOL    HW230972   0.897   4.161   5.263 -1.0254  2.8690 -0.4852
 6504SOL     OW30973   3.779   2.944   4.400  0.3424  0.4989  0.1414
 6504SOL    HW130974   3.812   2.867   4.354  0.1608 -0.2496  1.2602
 6504SOL    HW230975   3.744   2.989   4.323  2.3471  0.1352 -0.9752
 6505SOL     OW30976   2.499   4.389   7.006  0.5301 -0.0619  0.6266
 6505SOL    HW130977   2.430   4.336   6.965  1.9572 -1.4727  0.0694
 6505SOL    HW230978   2.512   4.351   7.093 -0.6696 -1.7214  0.0925
 6506SOL     OW30979   4.471   1.440  15.889 -0.1927  0.3783  0.2471
 6506SOL    HW130980   4.406   1.375  15.861  0.0981 -0.0850  0.6524
 6506SOL    HW230981   4.466   1.438  15.985 -0.9417 -0.1865  0.1978
 6507SOL     OW30982   3.311   2.525   3.409  0.3659 -0.0961  0.3424
 6507SOL    HW130983   3.301   2.572   3.326  0.2303  1.3110  1.1478
 6507SOL    HW230984   3.398   2.558   3.431  0.4838  0.4681 -0.9454
 6508SOL     OW30985   1.614   3.359   7.829  0.3271  0.4264 -0.1855
 6508SOL    HW130986   1.614   3.311   7.912 -3.5388  0.9431  0.0770
 6508SOL    HW230987   1.583   3.298   7.762 -0.8455  0.5737  0.2342
 6509SOL     OW30988   2.397   1.183  17.395 -0.1413  0.4699  0.3145
 6509SOL    HW130989   2.362   1.094  17.388  1.7972 -0.3670  1.3714
 6509SOL    HW230990   2.458   1.193  17.322 -1.0031 -1.3702 -0.6500
 6510SOL     OW30991   3.284   1.110   7.078 -0.2886 -0.0700 -0.1700
 6510SOL    HW130992   3.226   1.157   7.019  1.8122  0.8833 -1.4387
 6510SOL    HW230993   3.229   1.103   7.157  0.2030 -2.7731 -0.0542
 6511SOL     OW30994   1.173   0.308   8.165  0.2483  0.0460 -0.6380
 6511SOL    HW130995   1.143   0.359   8.090  0.3203 -1.7094 -1.8620
 6511SOL    HW230996   1.260   0.278   8.138  1.0198  0.0477  1.8893
 6512SOL     OW30997   1.788   1.552   3.230 -0.9154  0.1886  0.5132
 6512SOL    HW130998   1.764   1.508   3.149 -0.3727 -0.2267  0.5789
 6512SOL    HW230999   1.845   1.487   3.270 -1.2756 -0.1889  0.4047
 6513SOL     OW31000   4.297   2.651   0.754 -0.0091 -0.6734  0.1691
 6513SOL    HW131001   4.386   2.621   0.732  0.8083  0.3750  2.1053
 6513SOL    HW231002   4.274   2.710   0.682  2.2511  0.4189  0.3316
 6514SOL     OW31003   1.198   3.385   8.530  0.6420  0.0574  0.1206
 6514SOL    HW131004   1.257   3.460   8.540  1.9355 -1.3655  3.2695
 6514SOL    HW231005   1.224   3.352   8.443 -1.2737 -1.4206  0.1085
 6515SOL     OW31006   1.794   1.866   3.536  0.5363  0.3926 -0.2143
 6515SOL    HW131007   1.766   1.854   3.445  0.2900  0.8998 -0.2040
 6515SOL    HW231008   1.708   1.874   3.576 -0.6660 -1.3952 -2.4455
 6516SOL     OW31009   1.299   0.441   0.613 -0.1867 -0.5471  0.7097
 6516SOL    HW131010   1.251   0.458   0.531  2.2734  1.9791 -0.2018
 6516SOL    HW231011   1.322   0.350   0.591 -0.5420 -0.7538  1.1848
 6517SOL     OW31012   1.335   2.209  12.502  0.0754 -0.4148 -0.0144
 6517SOL    HW131013   1.271   2.248  12.443 -1.3987 -1.4243  0.9156
 6517SOL    HW231014   1.294   2.129  12.537  0.2276 -0.3944  0.2160
 6518SOL     OW31015   2.199   1.056  12.222  0.1874  0.4571 -0.0825
 6518SOL    HW131016   2.172   1.137  12.267 -0.5800  0.7098 -0.9813
 6518SOL    HW231017   2.172   1.091  12.137 -0.6270 -1.7320 -0.7201
 6519SOL     OW31018   4.294   0.468   2.541  0.2003  0.0688 -0.0024
 6519SOL    HW131019   4.377   0.424   2.519 -0.7741 -1.7598 -0.0072
 6519SOL    HW231020   4.330   0.520   2.613  0.5998  0.9727 -0.8586
 6520SOL     OW31021   2.185   2.226   8.411  0.5654  0.0525 -0.2784
 6520SOL    HW131022   2.090   2.219   8.400  0.7580 -1.0988 -1.1162
 6520SOL    HW231023   2.190   2.204   8.504 -1.3824 -0.0534 -0.1959
 6521SOL     OW31024   0.693   0.932  14.342 -0.2578  0.5032  0.0448
 6521SOL    HW131025   0.715   1.016  14.303  2.7060 -1.5087 -2.5428
 6521SOL    HW231026   0.765   0.909  14.401  1.1435  0.6541 -1.6261
 6522SOL     OW31027   0.968   3.134   6.484  0.2426  0.5943  0.3136
 6522SOL    HW131028   0.875   3.118   6.467 -0.1896  1.4473  1.9089
 6522SOL    HW231029   0.965   3.230   6.485  0.2161  0.5907  0.4864
 6523SOL     OW31030   1.919   1.562  16.226  0.0509 -0.0893  0.1630
 6523SOL    HW131031   1.915   1.657  16.220  0.1856  0.0426  2.2072
 6523SOL    HW231032   1.835   1.549  16.271  0.6595  0.7427  1.5263
 6524SOL     OW31033   3.702   4.442   6.955 -0.0895 -0.1146  0.1761
 6524SOL    HW131034   3.663   4.515   7.002  0.4642  0.7833 -0.7647
 6524SOL    HW231035   3.776   4.493   6.921  1.1760 -2.2256 -0.2924
 6525SOL     OW31036   0.950   1.465  14.832 -0.6692  0.3996 -0.5319
 6525SOL    HW131037   1.023   1.404  14.816  0.6765  2.2178 -1.3480
 6525SOL    HW231038   0.915   1.440  14.917  1.7236  1.4261  0.7626
 6526SOL     OW31039   2.825   0.720  10.904  0.4073  0.0206  0.3708
 6526SOL    HW131040   2.840   0.749  10.994 -1.5430  0.2644  0.6262
 6526SOL    HW231041   2.743   0.766  10.885 -0.2729 -1.2220  0.2841
 6527SOL     OW31042   2.198   2.140   3.059  0.1375 -0.5648 -0.0290
 6527SOL    HW131043   2.158   2.091   2.988 -0.6039 -2.3226  1.6011
 6527SOL    HW231044   2.130   2.201   3.086  0.4378 -0.8485  1.3943
 6528SOL     OW31045   2.267   3.662   9.315 -0.2738 -0.7784 -0.3511
 6528SOL    HW131046   2.241   3.711   9.393  2.3315  2.7570 -1.7055
 6528SOL    HW231047   2.187   3.619   9.285 -0.5940  0.3906 -1.2069
 6529SOL     OW31048   3.681   0.767   8.685 -0.0374 -0.7807  0.2921
 6529SOL    HW131049   3.762   0.724   8.711  1.4111  1.7900  0.0344
 6529SOL    HW231050   3.656   0.726   8.602 -1.1875  1.2549 -0.3737
 6530SOL     OW31051   0.190   4.150   9.149 -0.0217  0.6905  0.2146
 6530SOL    HW131052   0.133   4.118   9.079  0.3362 -0.3698  0.3945
 6530SOL    HW231053   0.277   4.130   9.115 -0.4687  0.4797 -0.8190
 6531SOL     OW31054   1.725   1.589  11.356 -0.0328 -0.2521 -0.6011
 6531SOL    HW131055   1.655   1.624  11.301 -1.2797 -2.2801 -0.2973
 6531SOL    HW231056   1.803   1.638  11.328 -1.1776  1.3590 -0.9330
 6532SOL     OW31057   1.623   4.568   2.044  0.3648  0.1273  0.0221
 6532SOL    HW131058   1.678   4.535   1.973  0.0808  1.4258 -0.8074
 6532SOL    HW231059   1.656   4.523   2.122  0.3695  2.6192  1.4680
 6533SOL     OW31060   4.008   2.086   5.703  0.1847 -0.4452 -0.2270
 6533SOL    HW131061   3.924   2.103   5.659 -0.3839  0.4774  1.2435
 6533SOL    HW231062   4.014   1.991   5.687 -1.4603 -0.2985 -1.7523
 6534SOL     OW31063   3.418   2.704   3.692 -0.0662 -0.2024  0.4125
 6534SOL    HW131064   3.342   2.675   3.742  0.7332 -0.7435  1.3087
 6534SOL    HW231065   3.435   2.788   3.733 -2.2533 -0.0028  0.9094
 6535SOL     OW31066   1.865   2.827  11.971 -0.8969  0.4985 -0.6029
 6535SOL    HW131067   1.937   2.886  11.994 -2.1087  1.7392  0.0516
 6535SOL    HW231068   1.905   2.756  11.922 -1.7162  0.5521 -1.3484
 6536SOL     OW31069   4.409   0.366  12.385  0.7612  0.1108 -0.0624
 6536SOL    HW131070   4.450   0.444  12.348  1.2138  1.1938  2.7780
 6536SOL    HW231071   4.391   0.391  12.475  1.9659 -2.5232  0.9082
 6537SOL     OW31072   1.202   0.092  17.650  0.4462  0.4652  0.2787
 6537SOL    HW131073   1.241   0.135   0.023 -0.6397  0.2647  0.9489
 6537SOL    HW231074   1.108   0.104  17.663  0.7024  0.9022  1.7325
 6538SOL     OW31075   2.302   0.378   6.292  0.0502 -0.5485 -0.3190
 6538SOL    HW131076   2.339   0.371   6.204  2.9611 -0.8102  0.9587
 6538SOL    HW231077   2.277   0.471   6.282 -0.5165 -0.7263 -0.6044
 6539SOL     OW31078   3.415   2.744  12.587  0.5898 -0.3839 -0.1994
 6539SOL    HW131079   3.444   2.674  12.529  0.9586 -1.3350  1.1227
 6539SOL    HW231080   3.447   2.700  12.666  0.0349 -1.2219 -0.4331
 6540SOL     OW31081   1.042   3.981   5.035 -0.4668 -0.4599 -0.0701
 6540SOL    HW131082   1.043   3.927   5.114 -0.2971  0.0532  0.2747
 6540SOL    HW231083   1.069   4.068   5.064 -0.6363 -0.0207 -1.1998
 6541SOL     OW31084   4.269   3.903  16.601  0.3125 -0.0174 -0.3659
 6541SOL    HW131085   4.332   3.835  16.624  1.3031  0.9058 -0.3559
 6541SOL    HW231086   4.302   3.981  16.645  0.9253 -0.7512  0.4685
 6542SOL     OW31087   2.344   3.528  14.354 -0.0877  0.4711  0.1769
 6542SOL    HW131088   2.304   3.555  14.272  1.3350 -1.5923 -1.2006
 6542SOL    HW231089   2.375   3.441  14.329 -1.6145 -0.0327  0.0199
 6543SOL     OW31090   1.603   2.813   3.454  0.5308  0.1242  0.8523
 6543SOL    HW131091   1.633   2.883   3.512  2.5925 -1.0066  1.1506
 6543SOL    HW231092   1.538   2.865   3.407  0.0631  0.4784  1.8789
 6544SOL     OW31093   1.899   3.879  14.883 -0.0038 -0.3787  0.3787
 6544SOL    HW131094   1.983   3.919  14.860  0.0894 -0.1841  1.0394
 6544SOL    HW231095   1.868   3.944  14.946  0.4052 -0.7200  0.9353
 6545SOL     OW31096   4.069   1.618   8.779  0.0760 -0.3982 -0.0042
 6545SOL    HW131097   4.057   1.532   8.740  2.6606 -1.2107  1.0246
 6545SOL    HW231098   4.074   1.595   8.872 -1.3638 -0.4961  0.0454
 6546SOL     OW31099   0.134   3.471   3.544 -0.5359  0.1136 -0.1752
 6546SOL    HW131100   0.136   3.566   3.541  0.2012  0.0924 -0.2045
 6546SOL    HW231101   0.153   3.450   3.452  3.6742  0.7636  0.5577
 6547SOL     OW31102   2.995   0.322   6.339 -0.2376  0.2291 -0.6093
 6547SOL    HW131103   2.975   0.230   6.358  2.1662  0.2277  1.9737
 6547SOL    HW231104   3.008   0.315   6.244 -0.0036  2.4356 -0.7373
 6548SOL     OW31105   3.870   3.420   5.334 -0.0337 -0.0391  0.1864
 6548SOL    HW131106   3.879   3.507   5.295 -0.5354 -0.1547 -0.1813
 6548SOL    HW231107   3.928   3.379   5.270  0.3293  0.1504  0.3885
 6549SOL     OW31108   1.510   1.300  15.338  0.2365 -0.5087  0.1888
 6549SOL    HW131109   1.431   1.350  15.361  0.8216  0.4522  0.0808
 6549SOL    HW231110   1.467   1.232  15.285  1.5416 -2.9890  2.2910
 6550SOL     OW31111   3.660   1.936   0.307  0.5499  0.2197 -0.0838
 6550SOL    HW131112   3.601   1.922   0.381  1.4190  0.5287  0.6685
 6550SOL    HW231113   3.743   1.894   0.330 -0.2164 -1.7552 -0.9539
 6551SOL     OW31114   3.524   2.007   7.415 -0.0739 -0.0737 -0.1452
 6551SOL    HW131115   3.586   1.940   7.444  0.5835 -0.2520 -1.9891
 6551SOL    HW231116   3.571   2.089   7.428 -0.3860 -0.0327  0.7790
 6552SOL     OW31117   2.515   0.033  14.826  0.4548  0.2737 -0.5397
 6552SOL    HW131118   2.574   4.715  14.889  0.5303  1.0035 -0.0950
 6552SOL    HW231119   2.471   0.101  14.877 -0.1587  0.3187 -1.1373
 6553SOL     OW31120   2.619   3.242  13.309  0.5495  0.5719  0.7822
 6553SOL    HW131121   2.596   3.334  13.300  1.7388  0.6311 -1.6912
 6553SOL    HW231122   2.529   3.213  13.294  0.8180 -0.7144  1.6574
 6554SOL     OW31123   0.722   3.782   6.997  0.6239 -1.0021 -0.1192
 6554SOL    HW131124   0.779   3.745   7.064  1.7243  0.3855 -0.2821
 6554SOL    HW231125   0.651   3.718   6.996 -1.4118  1.2761 -3.0105
 6555SOL     OW31126   1.889   2.487   7.343 -0.2397 -0.6653 -0.2805
 6555SOL    HW131127   1.935   2.568   7.323  1.4987 -1.9371 -1.4152
 6555SOL    HW231128   1.907   2.447   7.258  0.8504 -1.1440  0.1797
 6556SOL     OW31129   3.689   2.098   9.276  0.0020  0.8386  0.1965
 6556SOL    HW131130   3.720   2.189   9.268 -0.2226  0.8218 -0.8084
 6556SOL    HW231131   3.666   2.088   9.184 -0.6655 -0.7224  0.5317
 6557SOL     OW31132   4.367   2.490   7.535 -0.3763 -0.6319  0.0355
 6557SOL    HW131133   4.331   2.563   7.484  0.3391  0.8553  1.6632
 6557SOL    HW231134   4.455   2.521   7.558  0.9088 -1.3388 -3.8311
 6558SOL     OW31135   3.908   4.479   8.976 -0.7598 -0.4254 -0.6008
 6558SOL    HW131136   3.870   4.522   8.899  2.4533  3.1208 -0.2485
 6558SOL    HW231137   3.825   4.483   9.024 -1.8969  0.6365 -2.6326
 6559SOL     OW31138   3.710   2.667   1.152 -0.1887 -0.0409  0.0567
 6559SOL    HW131139   3.781   2.664   1.088  0.3778  1.4883  0.5870
 6559SOL    HW231140   3.628   2.670   1.103 -0.5513  1.7817  0.7570
 6560SOL     OW31141   0.740   4.550   8.619 -0.2238  0.1714  0.5323
 6560SOL    HW131142   0.768   4.630   8.574  1.5235 -1.9005 -2.1072
 6560SOL    HW231143   0.825   4.515   8.642  0.2678 -1.3301 -3.5039
 6561SOL     OW31144   1.141   1.451   2.888  0.0624 -0.0259 -0.1177
 6561SOL    HW131145   1.230   1.417   2.878  0.4437  0.7609  0.5874
 6561SOL    HW231146   1.159   1.501   2.968 -0.8271 -1.1175  0.7587
 6562SOL     OW31147   1.708   1.626   5.682 -0.0028 -0.5552  0.8124
 6562SOL    HW131148   1.748   1.692   5.625 -0.5210  0.4092  1.5565
 6562SOL    HW231149   1.623   1.665   5.705 -0.3710  0.4734 -2.3623
 6563SOL     OW31150   0.340   0.607   8.725 -0.3330 -0.4627  0.7562
 6563SOL    HW131151   0.264   0.640   8.677 -1.7242 -1.2149  2.4601
 6563SOL    HW231152   0.295   0.547   8.784  0.3137 -1.7009  0.0051
 6564SOL     OW31153   0.922   0.661   2.345 -0.0086 -0.4627 -0.1624
 6564SOL    HW131154   0.832   0.666   2.315 -0.6254  1.3231  1.9532
 6564SOL    HW231155   0.960   0.743   2.313 -2.0899  1.3946  2.1534
 6565SOL     OW31156   1.436   2.976   6.157  0.2207 -0.3234  0.6023
 6565SOL    HW131157   1.456   2.916   6.086  1.1989  0.3127  0.3298
 6565SOL    HW231158   1.416   2.911   6.224  2.8332  0.8288  2.5108
 6566SOL     OW31159   0.988   0.886   3.329 -0.2534 -0.4241  0.4085
 6566SOL    HW131160   1.023   0.822   3.267 -0.4011 -0.2589  0.1544
 6566SOL    HW231161   0.917   0.921   3.274 -0.2504  0.5313  1.0019
 6567SOL     OW31162   3.908   0.771   8.095 -0.1385  0.1092 -0.8298
 6567SOL    HW131163   4.003   0.761   8.100 -0.3646 -1.8601 -0.4746
 6567SOL    HW231164   3.893   0.781   8.001  0.5096  0.6956 -0.8677
 6568SOL     OW31165   0.548   4.591   8.338 -0.2452 -0.0036 -0.7395
 6568SOL    HW131166   0.553   4.496   8.334 -0.9162 -0.0534 -0.2919
 6568SOL    HW231167   0.453   4.598   8.349 -0.1720 -0.9759  0.4873
 6569SOL     OW31168   2.854   4.384   6.996  0.4965  0.1061 -0.2380
 6569SOL    HW131169   2.770   4.392   7.042  1.0880  0.1446  0.8218
 6569SOL    HW231170   2.816   4.319   6.937 -0.8700 -1.8498  2.8275
 6570SOL     OW31171   3.848   4.682  12.030 -0.2129 -0.1153 -0.1187
 6570SOL    HW131172   3.926   4.702  11.979 -0.5249 -0.0975 -0.5886
 6570SOL    HW231173   3.798   4.611  11.991 -0.9443  0.0502  0.5055
 6571SOL     OW31174   4.335   0.761  12.104 -0.6162 -0.1393 -0.0455
 6571SOL    HW131175   4.397   0.783  12.034  1.3272  0.2472  1.7990
 6571SOL    HW231176   4.265   0.823  12.085 -0.2098 -0.1532 -1.5667
 6572SOL     OW31177   1.393   4.523   5.281 -0.2925  0.3853 -0.4815
 6572SOL    HW131178   1.393   4.452   5.345  0.4021  1.0556  0.2606
 6572SOL    HW231179   1.427   4.592   5.338 -0.8147 -0.1994  0.5349
 6573SOL     OW31180   1.243   3.339   4.143 -0.2031  0.2456  0.0003
 6573SOL    HW131181   1.310   3.292   4.193  0.1788  0.7491 -0.0337
 6573SOL    HW231182   1.270   3.307   4.058 -1.4278  1.9797 -1.0443
 6574SOL     OW31183   3.430   3.550   8.776 -0.2211  0.5221 -0.1687
 6574SOL    HW131184   3.401   3.462   8.751 -0.6605  0.5488  0.2378
 6574SOL    HW231185   3.348   3.591   8.804 -1.6077 -0.7344 -2.3707
 6575SOL     OW31186   1.575   3.420   4.726 -0.5374  0.5356 -0.1530
 6575SOL    HW131187   1.578   3.349   4.790 -1.9597 -0.6798 -1.4524
 6575SOL    HW231188   1.666   3.421   4.697  0.2222 -1.2433  2.0798
 6576SOL     OW31189   4.461   1.736   0.153  0.3018 -0.0056  0.3949
 6576SOL    HW131190   4.538   1.784   0.180  0.8812  0.5561 -2.2176
 6576SOL    HW231191   4.396   1.796   0.189  0.8933 -0.3004  1.9374
 6577SOL     OW31192   0.155   4.571   7.781 -0.3942  0.4379 -0.0215
 6577SOL    HW131193   0.084   4.564   7.845 -0.1658 -0.9564  0.0802
 6577SOL    HW231194   0.197   4.654   7.804  1.1407 -0.3280 -0.1336
 6578SOL     OW31195   2.411   2.388   1.091 -0.6144  0.7877 -0.7387
 6578SOL    HW131196   2.429   2.294   1.082 -3.6350 -0.0056  1.2235
 6578SOL    HW231197   2.318   2.393   1.114 -0.1361  2.7112  0.7697
 6579SOL     OW31198   4.108   3.158   5.763 -0.4629 -0.0426 -0.2054
 6579SOL    HW131199   4.106   3.197   5.676  2.1916 -0.5202 -0.4634
 6579SOL    HW231200   4.140   3.069   5.749 -2.0171 -0.7174  0.4531
 6580SOL     OW31201   0.554   3.226  17.423  0.0494  0.0592 -0.3388
 6580SOL    HW131202   0.586   3.308  17.461 -2.0849  2.6311 -4.1001
 6580SOL    HW231203   0.523   3.168  17.493 -0.3111 -3.0207 -3.0423
 6581SOL     OW31204   3.627   2.063   6.578 -0.2401 -0.4072 -0.2098
 6581SOL    HW131205   3.536   2.092   6.587  0.3692  1.3355  0.2053
 6581SOL    HW231206   3.618   1.970   6.603 -0.5842 -0.5938 -1.0416
 6582SOL     OW31207   3.219   4.472  16.418  0.5368 -0.5398 -0.4518
 6582SOL    HW131208   3.211   4.559  16.378  1.2118 -0.1926  0.1746
 6582SOL    HW231209   3.314   4.460  16.420  0.4526 -1.6195 -3.4051
 6583SOL     OW31210   3.543   2.270   7.838 -0.8911  0.7972  0.7591
 6583SOL    HW131211   3.486   2.196   7.817 -1.2965  0.6326  2.4346
 6583SOL    HW231212   3.521   2.335   7.770  0.9452  0.5193 -0.0919
 6584SOL     OW31213   3.807   2.188   8.495 -0.0963  0.0243  0.1266
 6584SOL    HW131214   3.877   2.253   8.499 -0.8754  0.9600 -1.6249
 6584SOL    HW231215   3.836   2.124   8.560 -0.2114 -2.6402 -2.4234
 6585SOL     OW31216   0.668   3.869  13.767 -0.0843 -0.4533  0.5625
 6585SOL    HW131217   0.576   3.875  13.742 -0.3938  1.3076  2.2343
 6585SOL    HW231218   0.691   3.807  13.697 -0.5390  2.0061 -1.7412
 6586SOL     OW31219   0.637   0.590  11.574  0.2090  0.1282 -0.0439
 6586SOL    HW131220   0.705   0.577  11.641 -0.5895 -1.2743  0.4883
 6586SOL    HW231221   0.675   0.663  11.526 -3.2456  2.1839  0.3367
 6587SOL     OW31222   3.423   4.185   9.839  0.3824 -0.0160 -0.2517
 6587SOL    HW131223   3.502   4.146   9.801  1.9022  2.3488  0.4251
 6587SOL    HW231224   3.355   4.119   9.851 -2.0682  2.5379 -0.0480
 6588SOL     OW31225   4.213   1.495   4.173 -0.1239 -0.1915 -0.5514
 6588SOL    HW131226   4.293   1.501   4.225 -0.4472 -1.4603  0.0957
 6588SOL    HW231227   4.187   1.586   4.183 -1.8073 -0.9778  2.2690
 6589SOL     OW31228   1.640   3.904   2.148 -0.6209 -0.3140 -0.7280
 6589SOL    HW131229   1.555   3.943   2.128 -0.6034 -0.2644 -0.7046
 6589SOL    HW231230   1.606   3.832   2.201 -1.1939  0.4920 -0.0044
 6590SOL     OW31231   1.232   1.967   4.951  0.2760 -0.2255  0.1951
 6590SOL    HW131232   1.275   2.007   4.875 -0.0852 -1.5172 -0.6991
 6590SOL    HW231233   1.289   1.896   4.981  1.4849  0.4920 -0.3701
 6591SOL     OW31234   2.177   1.368   5.192 -0.4041 -0.2550 -0.1238
 6591SOL    HW131235   2.172   1.318   5.110 -1.2329  2.5069 -1.7520
 6591SOL    HW231236   2.166   1.301   5.259 -1.9392  0.0331 -0.0821
 6592SOL     OW31237   1.200   2.155  12.134 -0.1954  0.2127  0.0355
 6592SOL    HW131238   1.133   2.087  12.121  1.2260 -1.0095 -0.9210
 6592SOL    HW231239   1.168   2.213  12.202  0.7694  1.5717 -0.6769
 6593SOL     OW31240   1.834   1.573  11.593 -0.3179 -0.4029  0.2102
 6593SOL    HW131241   1.776   1.628  11.647  1.8560  1.6634  0.4507
 6593SOL    HW231242   1.788   1.564  11.510  1.5763  0.4588 -0.9205
 6594SOL     OW31243   0.374   1.752   3.549 -0.0828  0.4188  0.0875
 6594SOL    HW131244   0.463   1.718   3.548  0.0595  0.8027 -0.1810
 6594SOL    HW231245   0.334   1.731   3.465 -1.5128  0.2514  0.8189
 6595SOL     OW31246   2.011   0.058  12.046  0.2098 -0.0052  0.3854
 6595SOL    HW131247   2.099   0.032  12.074  1.3229  1.4682 -1.7040
 6595SOL    HW231248   1.970   0.055  12.133 -1.9970  1.8178 -0.6014
 6596SOL     OW31249   2.698   3.246  12.905 -0.0403  0.1439  0.6888
 6596SOL    HW131250   2.753   3.245  12.826  2.1712  2.4216  2.2036
 6596SOL    HW231251   2.666   3.157  12.918 -2.5623  0.9286 -0.1575
 6597SOL     OW31252   2.239   3.144   4.907 -0.5661  0.1817 -0.1835
 6597SOL    HW131253   2.234   3.075   4.842  0.7579 -1.7694  1.7851
 6597SOL    HW231254   2.155   3.190   4.907 -0.6457  0.0704  2.4149
 6598SOL     OW31255   1.193   3.223   5.210  0.5332 -0.5627  0.7048
 6598SOL    HW131256   1.113   3.181   5.240 -0.7317  3.6760  3.3084
 6598SOL    HW231257   1.251   3.147   5.207  0.2423 -0.7838  0.7037
 6599SOL     OW31258   3.691   3.020   6.553  0.6241  0.3197  0.8757
 6599SOL    HW131259   3.769   3.008   6.500  0.5360  1.6893  0.4229
 6599SOL    HW231260   3.683   2.930   6.585 -1.7862  0.7433  1.4619
 6600SOL     OW31261   0.958   3.622   3.723 -0.6994  0.4315 -0.0790
 6600SOL    HW131262   0.932   3.533   3.702 -1.2887  0.2891  1.3022
 6600SOL    HW231263   1.026   3.609   3.789 -0.0339  3.3145 -0.1773
 6601SOL     OW31264   3.447   4.094   7.932 -0.4178 -0.0266  0.0433
 6601SOL    HW131265   3.427   4.104   8.025 -2.5991 -0.5012 -0.3837
 6601SOL    HW231266   3.539   4.070   7.917 -0.8773 -0.9667 -1.2320
 6602SOL     OW31267   2.483   1.712   3.652 -0.2938 -0.4042 -0.3800
 6602SOL    HW131268   2.546   1.748   3.589 -0.8362 -0.1444 -0.7709
 6602SOL    HW231269   2.452   1.791   3.697  0.9321  0.5410 -1.1965
 6603SOL     OW31270   2.669   1.265   6.731  0.7846  0.4181 -0.0825
 6603SOL    HW131271   2.627   1.332   6.678  1.3935  0.3033 -0.7092
 6603SOL    HW231272   2.638   1.181   6.696 -0.2588  1.1348 -0.8447
 6604SOL     OW31273   2.923   1.081   1.205 -0.0182  0.1149  0.5244
 6604SOL    HW131274   2.976   1.041   1.274 -0.1838 -1.6844 -0.3754
 6604SOL    HW231275   2.999   1.116   1.159 -0.9884  0.8184 -0.5319
 6605SOL     OW31276   3.118   3.028   2.659  0.4306  0.0620  0.5041
 6605SOL    HW131277   3.199   3.042   2.708 -0.1506  2.2700  0.8143
 6605SOL    HW231278   3.061   3.076   2.718  1.2655  0.6572  0.8263
 6606SOL     OW31279   1.473   2.472   3.024 -0.3141  0.0069 -0.5267
 6606SOL    HW131280   1.504   2.396   3.072 -2.0461  0.2012  0.8872
 6606SOL    HW231281   1.431   2.527   3.090 -0.6061  0.3336 -0.9849
 6607SOL     OW31282   4.159   2.764   0.547 -0.5114  0.0156 -0.0878
 6607SOL    HW131283   4.177   2.858   0.545  0.6832 -0.1779  1.9960
 6607SOL    HW231284   4.158   2.753   0.451 -2.8105 -1.5110  0.1156
 6608SOL     OW31285   3.397   3.677  13.698 -0.2025 -0.6531 -0.0431
 6608SOL    HW131286   3.324   3.699  13.756 -1.8795 -2.6397 -1.4083
 6608SOL    HW231287   3.439   3.610  13.752 -0.1216 -0.2084  0.4556
 6609SOL     OW31288   0.363   3.984   7.647 -0.1947 -0.0326 -0.1643
 6609SOL    HW131289   0.328   4.020   7.729 -1.2846 -0.4715 -0.4450
 6609SOL    HW231290   0.442   3.942   7.680  1.5148  0.7753 -3.2903
 6610SOL     OW31291   3.193   1.488   3.174  0.6423 -0.0566  0.1931
 6610SOL    HW131292   3.152   1.556   3.227 -0.9600 -1.1619  0.3590
 6610SOL    HW231293   3.217   1.542   3.097  0.2481  0.4124  0.4017
 6611SOL     OW31294   1.714   4.446  14.821  0.0826  0.1829  0.0847
 6611SOL    HW131295   1.752   4.491  14.896 -0.8875  0.9980  0.0914
 6611SOL    HW231296   1.629   4.491  14.818 -0.2177 -0.2965  1.2333
 6612SOL     OW31297   4.312   3.999   9.443  0.1207 -0.1153 -0.3184
 6612SOL    HW131298   4.270   4.060   9.503 -2.4222 -1.5523 -0.6370
 6612SOL    HW231299   4.251   3.996   9.369 -0.5253 -1.5684  0.2735
 6613SOL     OW31300   4.547   4.308  13.783  0.0295 -0.5866  0.6457
 6613SOL    HW131301   4.520   4.388  13.737  2.6868 -0.4543 -0.7209
 6613SOL    HW231302   4.585   4.345  13.863  2.1477  1.4342 -1.2987
 6614SOL     OW31303   0.217   4.087   7.861  0.3482 -0.2870 -0.5379
 6614SOL    HW131304   0.228   4.085   7.956 -2.2937 -2.5282 -0.3001
 6614SOL    HW231305   0.177   4.173   7.846  1.2457  0.0328 -1.1293
 6615SOL     OW31306   2.587   3.122   7.042 -0.5777  0.2265 -0.0458
 6615SOL    HW131307   2.619   3.203   7.083  1.4878 -0.1160 -0.9430
 6615SOL    HW231308   2.539   3.078   7.113  1.1276 -0.1919  0.8543
 6616SOL     OW31309   1.882   0.520   3.473 -0.3863 -0.4045  0.2988
 6616SOL    HW131310   1.929   0.443   3.505  0.3533 -0.4988 -1.0235
 6616SOL    HW231311   1.791   0.503   3.498  0.1775 -1.0872  1.9055
 6617SOL     OW31312   3.379   2.048   8.521  0.1116 -0.7709 -0.0385
 6617SOL    HW131313   3.300   2.054   8.575  0.1915  0.3240 -0.0316
 6617SOL    HW231314   3.442   2.103   8.568  0.3859 -0.5484 -0.6623
 6618SOL     OW31315   0.797   2.296  17.177 -0.1686  0.3253  0.4820
 6618SOL    HW131316   0.741   2.297  17.099 -1.8830  1.9306  1.7363
 6618SOL    HW231317   0.872   2.337  17.135  1.1418 -1.4941  1.0796
 6619SOL     OW31318   3.975   0.202   4.362 -0.0476 -0.2941 -0.7421
 6619SOL    HW131319   3.896   0.251   4.343  0.4094  1.0395  0.8311
 6619SOL    HW231320   4.025   0.215   4.282  0.1137  0.1780 -0.5624
 6620SOL     OW31321   3.013   4.059   7.988  0.2339 -0.1032 -0.3471
 6620SOL    HW131322   2.933   4.108   7.968  0.0856 -0.3709 -0.4133
 6620SOL    HW231323   3.075   4.109   7.936 -0.8025 -0.6316 -2.0908
 6621SOL     OW31324   1.376   1.915   3.017  0.5394 -0.0477 -0.1234
 6621SOL    HW131325   1.308   1.942   3.080  1.3175  0.8853  0.3154
 6621SOL    HW231326   1.332   1.898   2.934  2.8830  1.3674 -1.6516
 6622SOL     OW31327   0.938   2.962  10.760  0.3570 -0.4224 -0.1168
 6622SOL    HW131328   0.891   2.918  10.831 -1.7695  1.0449 -0.6276
 6622SOL    HW231329   1.011   3.007  10.802 -0.8050  1.4669 -0.1332
 6623SOL     OW31330   1.796   4.281   1.042  0.0465 -0.2641 -0.0115
 6623SOL    HW131331   1.780   4.321   0.956  0.1631 -2.6715 -1.1521
 6623SOL    HW231332   1.746   4.199   1.044  1.4661 -1.1359 -0.6780
 6624SOL     OW31333   3.126   2.407  10.611  0.0719  0.2843 -0.4308
 6624SOL    HW131334   3.075   2.487  10.598 -0.7803  0.0259  1.3271
 6624SOL    HW231335   3.213   2.443  10.592  0.0797  0.2205 -0.5178
 6625SOL     OW31336   2.683   4.050   2.485  0.1242 -0.1923  0.2496
 6625SOL    HW131337   2.602   4.081   2.525 -0.5926 -0.5367 -0.9298
 6625SOL    HW231338   2.646   4.000   2.413 -0.9987 -0.2741  0.8829
 6626SOL     OW31339   2.102   4.554   9.404  0.0209  0.4892  0.0018
 6626SOL    HW131340   2.012   4.550   9.438  0.9832 -1.5658  2.2918
 6626SOL    HW231341   2.102   4.637   9.356  2.4791  0.9942  0.8499
 6627SOL     OW31342   1.082   3.828  16.073 -0.1938  0.2301  0.4647
 6627SOL    HW131343   1.002   3.826  16.020  1.3062  0.1799 -1.7829
 6627SOL    HW231344   1.063   3.885  16.148  1.8188 -0.2587  1.3407
 6628SOL     OW31345   1.918   2.444   7.854  0.3163 -0.0562  0.7115
 6628SOL    HW131346   1.897   2.401   7.771 -1.4810  1.1432  0.5430
 6628SOL    HW231347   1.999   2.492   7.839  0.8942 -1.2207  0.1554
 6629SOL     OW31348   3.051   2.558   6.281 -0.0148  0.3757 -0.0668
 6629SOL    HW131349   3.144   2.555   6.302 -0.6365  2.3620  3.0293
 6629SOL    HW231350   3.018   2.632   6.333  4.0086  1.3345  1.0782
 6630SOL     OW31351   0.270   0.777   5.562 -0.1614 -0.0095 -0.0459
 6630SOL    HW131352   0.335   0.716   5.529 -0.9559 -0.3221 -1.0307
 6630SOL    HW231353   0.264   0.769   5.658 -0.5216  0.4814 -0.0257
 6631SOL     OW31354   1.182   1.941  11.037  0.3844 -0.0805 -0.2032
 6631SOL    HW131355   1.225   1.895  10.965  2.0316  0.1931  0.6135
 6631SOL    HW231356   1.167   1.872  11.101 -0.0022 -1.1839 -1.4686
 6632SOL     OW31357   0.943   1.817   6.469 -0.2677  0.4731  0.6406
 6632SOL    HW131358   0.889   1.751   6.513 -0.1457 -0.0125  0.0731
 6632SOL    HW231359   0.940   1.769   6.386  0.2534  1.7510 -0.1133
 6633SOL     OW31360   0.647   3.563   9.904 -0.0719  0.0347  0.1376
 6633SOL    HW131361   0.727   3.532   9.944  0.7117 -0.4500 -1.8066
 6633SOL    HW231362   0.580   3.499   9.927  1.7305 -1.2188  1.7977
 6634SOL     OW31363   2.360   2.637   6.608  0.1557 -0.4338  0.2311
 6634SOL    HW131364   2.444   2.682   6.617  0.4066 -1.0313  0.9065
 6634SOL    HW231365   2.378   2.580   6.534 -0.9224 -1.0503  0.4326
 6635SOL     OW31366   1.312   2.789   4.324  0.0440  0.1588  0.1102
 6635SOL    HW131367   1.217   2.777   4.321  0.0366  0.1479  0.4983
 6635SOL    HW231368   1.321   2.850   4.397  1.3227 -0.3055  0.3529
 6636SOL     OW31369   3.192   3.403   4.679  0.1388  0.2251 -0.0346
 6636SOL    HW131370   3.216   3.426   4.589  0.8997  0.5617  0.2552
 6636SOL    HW231371   3.157   3.314   4.671  0.2965  0.1131  0.5212
 6637SOL     OW31372   1.451   0.585  15.779 -0.0662 -0.4087  0.2398
 6637SOL    HW131373   1.425   0.672  15.809  0.9056 -0.0491  0.0465
 6637SOL    HW231374   1.531   0.615  15.736 -0.7743 -1.9770 -2.2052
 6638SOL     OW31375   1.616   3.430   5.498 -0.3059 -0.4458  0.0591
 6638SOL    HW131376   1.547   3.393   5.555  0.5525 -1.5540  0.3810
 6638SOL    HW231377   1.600   3.373   5.423  1.7302  2.1650 -2.3198
 6639SOL     OW31378   4.310   4.634   5.614  0.2998  0.8122 -0.1517
 6639SOL    HW131379   4.223   4.653   5.646 -1.2852 -0.8474 -3.3973
 6639SOL    HW231380   4.289   4.578   5.539 -1.1777 -1.6347  2.0984
 6640SOL     OW31381   2.132   4.255   1.957  0.2363 -0.4095  0.3369
 6640SOL    HW131382   2.219   4.292   1.943  0.0167  0.8864  2.5707
 6640SOL    HW231383   2.127   4.270   2.051 -0.0026  0.8006  0.1226
 6641SOL     OW31384   4.556   2.010   2.080 -0.1101  0.0708  0.3082
 6641SOL    HW131385   4.491   1.960   2.129  0.6569 -0.3223  0.9184
 6641SOL    HW231386   4.518   2.090   2.042  0.5476 -0.0861 -0.7049
 6642SOL     OW31387   3.052   2.545   4.152 -0.2833 -0.4871 -0.3295
 6642SOL    HW131388   3.039   2.453   4.176  0.5269 -0.4859  0.1040
 6642SOL    HW231389   3.104   2.565   4.230  1.7540  0.5273 -1.9471
 6643SOL     OW31390   3.095   0.071  11.429 -0.6875 -0.4513  0.3143
 6643SOL    HW131391   3.176   0.059  11.380 -0.0329  2.6984  0.6347
 6643SOL    HW231392   3.113   0.018  11.507 -0.7211 -0.4887  0.2964
 6644SOL     OW31393   2.029   2.300   6.045 -0.3511  0.0018 -0.7553
 6644SOL    HW131394   2.054   2.314   5.954  0.8328 -0.0353 -0.4379
 6644SOL    HW231395   1.959   2.364   6.054  1.1132  1.4146  0.7436
 6645SOL     OW31396   2.009   2.534  15.428 -0.2299  0.0671  0.5344
 6645SOL    HW131397   2.020   2.501  15.340  1.5167  0.2432  0.7015
 6645SOL    HW231398   1.951   2.610  15.414 -1.2919 -0.7914  0.2846
 6646SOL     OW31399   2.116   0.810   2.247  0.5006 -0.3625  0.6304
 6646SOL    HW131400   2.119   0.870   2.173  0.5875 -1.4850 -0.2656
 6646SOL    HW231401   2.210   0.797   2.254  0.5034 -1.0572 -0.8246
 6647SOL     OW31402   1.939   0.488  12.101  0.2831 -0.6017  0.1455
 6647SOL    HW131403   1.966   0.545  12.172  3.6788  0.7956 -2.2771
 6647SOL    HW231404   1.862   0.451  12.145  0.8876 -3.6832 -1.3583
 6648SOL     OW31405   2.526   0.569  12.116 -0.4094  0.1860 -0.1431
 6648SOL    HW131406   2.545   0.503  12.182  1.0813 -0.5742 -1.3393
 6648SOL    HW231407   2.546   0.648  12.166 -0.1704  0.9260 -1.4155
 6649SOL     OW31408   0.483   3.865   2.439 -0.4342 -0.4095 -0.4558
 6649SOL    HW131409   0.521   3.910   2.515  2.8716 -1.6929 -1.3498
 6649SOL    HW231410   0.531   3.902   2.365  1.5542  0.0487  1.0742
 6650SOL     OW31411   3.016   0.068   6.726  0.5634  0.6797  0.0649
 6650SOL    HW131412   3.061   0.031   6.650  1.0359  0.8057  0.2815
 6650SOL    HW231413   2.969   4.716   6.757 -1.5400  1.2320 -1.7362
 6651SOL     OW31414   1.541   4.467   3.868 -0.1495  0.1504  0.2546
 6651SOL    HW131415   1.574   4.377   3.867  0.0197  0.2107  0.9237
 6651SOL    HW231416   1.577   4.490   3.953  0.1851  1.4076 -0.2188
 6652SOL     OW31417   3.259   3.703   5.834  0.4803 -0.5526  0.5526
 6652SOL    HW131418   3.337   3.741   5.875  0.4991  0.8410 -0.7742
 6652SOL    HW231419   3.236   3.629   5.890  0.6585 -1.9663 -1.2796
 6653SOL     OW31420   3.312   4.575   3.206 -0.7031  0.0028 -0.8341
 6653SOL    HW131421   3.272   4.579   3.293  1.1722 -0.0656  0.0454
 6653SOL    HW231422   3.371   4.500   3.219 -0.4688  0.3630  0.1670
 6654SOL     OW31423   3.340   2.911   9.111  0.1499  0.0507 -0.0555
 6654SOL    HW131424   3.255   2.934   9.148  0.2815  0.7804 -0.2016
 6654SOL    HW231425   3.317   2.825   9.076  1.2239  0.0503 -0.7714
 6655SOL     OW31426   0.384   3.231  16.344 -0.2387 -0.3426 -0.0105
 6655SOL    HW131427   0.471   3.201  16.317  0.2968  0.9626  0.2302
 6655SOL    HW231428   0.389   3.215  16.438 -2.1695  0.9667  0.3265
 6656SOL     OW31429   0.854   3.320  13.632 -0.5222  0.2058  0.5850
 6656SOL    HW131430   0.870   3.247  13.573  1.5974 -0.2570  1.7303
 6656SOL    HW231431   0.804   3.281  13.704 -2.2852 -2.2603 -1.9950
 6657SOL     OW31432   2.427   4.220  11.253 -0.0465 -0.2573 -0.4634
 6657SOL    HW131433   2.482   4.247  11.327 -2.0158 -0.8133  1.2003
 6657SOL    HW231434   2.479   4.250  11.179  0.4792 -1.2132 -0.4779
 6658SOL     OW31435   4.235   1.322   1.639  0.3284  0.4542  0.4813
 6658SOL    HW131436   4.142   1.322   1.662  0.4746 -1.3018  1.0608
 6658SOL    HW231437   4.234   1.363   1.552 -0.1188  0.7285  0.6115
 6659SOL     OW31438   3.882   1.191   6.377 -0.6576  0.2536 -0.2806
 6659SOL    HW131439   3.858   1.174   6.286  0.5706 -2.1417 -0.1459
 6659SOL    HW231440   3.819   1.140   6.427 -1.4126  0.5697 -0.8984
 6660SOL     OW31441   0.279   0.413   2.817  0.1517 -0.0433 -0.2657
 6660SOL    HW131442   0.196   0.431   2.860  1.7206  1.6430  2.0597
 6660SOL    HW231443   0.262   0.443   2.727 -1.7290 -1.2150 -0.2945
 6661SOL     OW31444   2.960   3.476  16.393  0.0018 -0.7165  0.3416
 6661SOL    HW131445   2.969   3.538  16.466  1.0463  0.7405 -1.0105
 6661SOL    HW231446   2.877   3.506  16.357 -0.0627  0.7792  1.7471
 6662SOL     OW31447   1.816   3.110  12.669  0.6277  0.1077 -0.3453
 6662SOL    HW131448   1.725   3.089  12.692  0.3255  0.4657 -1.2097
 6662SOL    HW231449   1.844   3.165  12.742  0.3845 -0.7089  0.3609
 6663SOL     OW31450   4.602   3.147   5.663  0.3886  0.3228  0.1126
 6663SOL    HW131451   4.690   3.138   5.625  0.2396  2.5072 -0.6998
 6663SOL    HW231452   4.555   3.067   5.641 -1.1159  1.4212 -0.6000
 6664SOL     OW31453   3.494   3.195   6.630  0.0762 -0.2312  0.7731
 6664SOL    HW131454   3.543   3.113   6.620 -0.9752 -1.3349  4.5633
 6664SOL    HW231455   3.465   3.171   6.718  1.9893 -2.3495  0.8217
 6665SOL     OW31456   2.618   3.708   2.761 -0.0721 -0.0501  0.1718
 6665SOL    HW131457   2.620   3.645   2.688 -1.1747 -0.9323  0.9020
 6665SOL    HW231458   2.633   3.652   2.837 -1.2778  0.2067  0.6002
 6666SOL     OW31459   0.303   1.814   9.992  0.4570  0.2676  0.2441
 6666SOL    HW131460   0.239   1.743   9.992 -0.3957  1.0350 -2.2897
 6666SOL    HW231461   0.355   1.785  10.067  2.8282  1.7081 -0.8372
 6667SOL     OW31462   0.031   1.761   3.134  0.0457  0.5960 -0.4565
 6667SOL    HW131463   0.048   1.776   3.227  0.9523 -1.7342 -0.2573
 6667SOL    HW231464   4.675   1.809   3.122 -1.4194 -1.6113  0.7713
 6668SOL     OW31465   2.164   4.411   6.097  0.1099 -0.0003  0.6901
 6668SOL    HW131466   2.223   4.377   6.164 -0.5131 -1.8851  0.2751
 6668SOL    HW231467   2.188   4.342   6.035 -1.0078  1.5184 -1.4315
 6669SOL     OW31468   2.362   3.530   2.302  0.1058 -0.1481  0.4164
 6669SOL    HW131469   2.307   3.564   2.373  2.3212  1.3607  1.4114
 6669SOL    HW231470   2.384   3.611   2.256 -1.5330  1.2534  2.1058
 6670SOL     OW31471   0.276   2.120   8.383 -0.6439 -0.4925 -0.3630
 6670SOL    HW131472   0.292   2.062   8.458 -0.4183  0.4282  0.3047
 6670SOL    HW231473   0.331   2.194   8.409 -0.4340  0.2070 -2.8849
 6671SOL     OW31474   0.610   1.390  10.068 -0.0887 -0.1002 -0.3169
 6671SOL    HW131475   0.655   1.460  10.115 -1.6003 -0.4937  1.7363
 6671SOL    HW231476   0.519   1.422  10.066 -1.1040 -3.0664 -1.2317
 6672SOL     OW31477   4.066   0.920   9.381 -0.3989  0.0229  0.4169
 6672SOL    HW131478   4.044   0.858   9.312  1.3798 -1.4481  1.1653
 6672SOL    HW231479   4.161   0.910   9.383 -0.4959 -0.8755  0.7459
 6673SOL     OW31480   1.242   4.604  11.544 -0.4613 -0.3367 -0.4422
 6673SOL    HW131481   1.237   4.668  11.615  0.1854  0.5775 -1.2181
 6673SOL    HW231482   1.333   4.576  11.551 -0.8984 -1.3127  1.5596
 6674SOL     OW31483   2.859   3.581  16.718 -0.3347  0.3713  0.3659
 6674SOL    HW131484   2.883   3.513  16.780  3.2109  1.4950  0.2066
 6674SOL    HW231485   2.769   3.598  16.744 -0.0676  0.6268  1.1025
 6675SOL     OW31486   1.613   4.581   9.573 -0.1347  0.9246 -0.2681
 6675SOL    HW131487   1.598   4.674   9.590  0.5180  0.9531  0.1584
 6675SOL    HW231488   1.523   4.560   9.550  0.5235 -2.0625 -0.1987
 6676SOL     OW31489   2.395   4.180   2.269 -0.6293 -0.1514  0.2362
 6676SOL    HW131490   2.456   4.251   2.251  3.0283 -3.0978  0.9565
 6676SOL    HW231491   2.320   4.237   2.251  0.4301  1.5279  1.1774
 6677SOL     OW31492   2.724   3.247   7.234  0.1150  0.5844 -0.2814
 6677SOL    HW131493   2.700   3.166   7.278  0.6492 -0.2303 -1.4970
 6677SOL    HW231494   2.801   3.275   7.283  0.1248 -1.2734  0.7343
 6678SOL     OW31495   1.860   2.876   2.321 -0.1084  0.5041 -0.1980
 6678SOL    HW131496   1.810   2.908   2.246 -0.2826  2.1681  0.6234
 6678SOL    HW231497   1.926   2.945   2.330 -1.9124  2.1777  0.1436
 6679SOL     OW31498   0.321   4.174   4.986 -0.6975  0.5931  0.0107
 6679SOL    HW131499   0.329   4.264   5.018  0.5451  1.2490 -2.1908
 6679SOL    HW231500   0.339   4.193   4.894 -0.3963  1.6499  0.2834
 6680SOL     OW31501   2.043   2.926   9.844 -0.1367  0.2925  0.3163
 6680SOL    HW131502   2.081   2.974   9.770  0.2574  0.2263  0.4741
 6680SOL    HW231503   2.028   2.841   9.801  0.4079 -1.4291  3.4914
 6681SOL     OW31504   0.699   0.638   6.908  0.6106  0.1546  0.0619
 6681SOL    HW131505   0.672   0.634   7.000  1.2917  0.3377  0.2664
 6681SOL    HW231506   0.655   0.722   6.896 -1.4253 -0.8364  0.6113
 6682SOL     OW31507   1.759   3.845   5.192  0.1328 -0.0248  0.0543
 6682SOL    HW131508   1.711   3.898   5.128  0.3119 -0.3427 -0.3400
 6682SOL    HW231509   1.795   3.778   5.135 -1.1291  1.3143 -2.3318
 6683SOL     OW31510   4.004   2.046  17.455 -0.2552  0.2869 -0.2466
 6683SOL    HW131511   3.977   2.130  17.418 -1.8142 -0.1060  0.0125
 6683SOL    HW231512   4.097   2.066  17.466 -0.3049  0.4571 -0.1546
 6684SOL     OW31513   0.478   1.088  15.286 -0.2567  0.1004 -0.4754
 6684SOL    HW131514   0.417   1.021  15.316  0.5460 -0.5340 -0.2451
 6684SOL    HW231515   0.490   1.072  15.192  0.2105 -0.7898 -0.2697
 6685SOL     OW31516   0.392   3.600   2.377 -0.2999 -0.2759 -0.3458
 6685SOL    HW131517   0.430   3.684   2.350 -1.4215  0.1859 -0.4735
 6685SOL    HW231518   0.399   3.613   2.472  0.1890 -0.4641 -0.3564
 6686SOL     OW31519   4.667   0.333   6.534 -0.0083  0.1205 -0.8652
 6686SOL    HW131520   4.677   0.393   6.608 -0.8582 -0.1106 -0.5592
 6686SOL    HW231521   4.665   0.386   6.455  1.0207 -0.9893 -1.6263
 6687SOL     OW31522   1.725   4.578  12.454 -1.5442  0.1901  0.0758
 6687SOL    HW131523   1.703   4.545  12.542  1.5364  0.4810  0.9583
 6687SOL    HW231524   1.643   4.622  12.433 -1.3462  0.0967 -0.8633
 6688SOL     OW31525   2.658   4.169   7.304 -0.0257  0.3546 -0.4518
 6688SOL    HW131526   2.600   4.093   7.300 -0.3180  0.5216  0.6756
 6688SOL    HW231527   2.736   4.138   7.257 -0.2408  1.6056 -1.6367
 6689SOL     OW31528   1.532   2.512   2.649 -0.1489 -0.3130  0.1920
 6689SOL    HW131529   1.474   2.472   2.714 -0.4805  2.2595  1.4526
 6689SOL    HW231530   1.478   2.559   2.586  1.7935  1.3157 -0.2703
 6690SOL     OW31531   0.196   1.838   6.621 -0.1712 -0.9010  0.2840
 6690SOL    HW131532   0.161   1.913   6.573 -0.7767 -1.1998  0.2488
 6690SOL    HW231533   0.121   1.778   6.622  0.0353 -1.1739 -1.8480
 6691SOL     OW31534   2.757   1.957   5.615 -0.1364  0.3335  0.4344
 6691SOL    HW131535   2.681   1.907   5.646 -1.5438  1.0391 -1.9083
 6691SOL    HW231536   2.770   1.928   5.525  1.1223  1.6086  0.2279
 6692SOL     OW31537   1.549   3.956  12.667 -0.0626 -0.4995 -0.2949
 6692SOL    HW131538   1.468   3.908  12.649 -0.3930 -0.1981  0.3724
 6692SOL    HW231539   1.609   3.890  12.634 -0.5292 -1.3910  0.6296
 6693SOL     OW31540   1.317   3.060   7.806  0.0033  0.8135  0.5009
 6693SOL    HW131541   1.332   2.976   7.850 -0.8202 -0.1042 -0.9745
 6693SOL    HW231542   1.241   3.031   7.755  1.1384  1.9841 -1.8410
 6694SOL     OW31543   1.668   1.672   2.998 -0.4245 -0.3087  0.4330
 6694SOL    HW131544   1.575   1.672   3.021 -0.3234 -2.0827  0.7867
 6694SOL    HW231545   1.690   1.764   3.011 -1.1519 -0.0254 -0.2974
 6695SOL     OW31546   2.067   1.651   7.482  0.4255 -0.2792  0.1236
 6695SOL    HW131547   2.123   1.719   7.444 -1.1296  0.4809 -0.7866
 6695SOL    HW231548   2.088   1.580   7.422 -0.5700 -0.9796  0.6169
 6696SOL     OW31549   0.259   4.225  16.742 -0.0063 -0.6191 -0.2631
 6696SOL    HW131550   0.241   4.247  16.833  0.5342 -0.5436 -0.1726
 6696SOL    HW231551   0.271   4.130  16.745  1.1932 -0.4841 -0.5617
 6697SOL     OW31552   1.822   4.627  15.018 -0.5217 -0.0732  0.0270
 6697SOL    HW131553   1.882   4.658  14.950 -1.6195  0.8107 -0.5548
 6697SOL    HW231554   1.757   4.698  15.022 -0.6899 -0.0031 -3.5156
 6698SOL     OW31555   2.995   3.272   3.513 -0.0862  0.0544 -0.2716
 6698SOL    HW131556   2.913   3.226   3.495 -0.2572  0.2315  0.0406
 6698SOL    HW231557   3.055   3.206   3.479  0.4891 -1.0544  2.8682
 6699SOL     OW31558   1.198   2.365   3.060 -0.3396 -0.3357 -0.1160
 6699SOL    HW131559   1.176   2.429   2.992 -0.0285 -0.3353 -0.2168
 6699SOL    HW231560   1.116   2.355   3.108  0.3700 -0.8264  0.9973
 6700SOL     OW31561   4.049   4.078  10.631 -0.6406 -0.3438 -0.1485
 6700SOL    HW131562   3.978   4.016  10.616  0.2461 -1.0698 -1.2930
 6700SOL    HW231563   4.115   4.026  10.677  0.2423  1.1678  0.3181
 6701SOL     OW31564   4.517   0.288  10.562  0.1387  0.0657  0.5755
 6701SOL    HW131565   4.513   0.307  10.655  0.8551  1.0710  0.4090
 6701SOL    HW231566   4.576   0.213  10.551 -0.7652 -0.5269 -0.2472
 6702SOL     OW31567   2.629   1.163   0.571  0.3411 -0.0186 -0.5514
 6702SOL    HW131568   2.697   1.222   0.602 -1.1293  1.2188  0.2971
 6702SOL    HW231569   2.605   1.216   0.495 -0.1815 -0.1276 -0.4662
 6703SOL     OW31570   2.655   3.634  14.760 -0.1117  0.1874 -0.0934
 6703SOL    HW131571   2.600   3.568  14.803 -2.2861  1.5917 -0.7284
 6703SOL    HW231572   2.610   3.637  14.676  3.1480 -0.0468 -1.8317
 6704SOL     OW31573   0.925   4.263   2.877 -0.6286  0.9919 -0.1062
 6704SOL    HW131574   0.849   4.255   2.819  0.9722  2.1577 -2.3661
 6704SOL    HW231575   0.978   4.334   2.841  0.6456 -0.9206 -1.9365
 6705SOL     OW31576   3.078   3.127   2.366  0.3899  0.2304  0.3231
 6705SOL    HW131577   3.154   3.108   2.312 -0.6781  1.3402 -1.5911
 6705SOL    HW231578   3.112   3.199   2.419  2.5621  0.1768 -1.0294
 6706SOL     OW31579   0.348   2.219  10.246  0.5783 -0.1942  0.2043
 6706SOL    HW131580   0.299   2.295  10.277 -0.2056  0.1170 -1.7532
 6706SOL    HW231581   0.285   2.174  10.189 -0.8143 -0.2157  1.7541
 6707SOL     OW31582   2.514   3.793  10.134 -0.2969  0.5678 -0.1389
 6707SOL    HW131583   2.495   3.884  10.110  0.4257  0.5889 -0.5973
 6707SOL    HW231584   2.574   3.813  10.206 -0.0012  0.0274 -0.2359
 6708SOL     OW31585   1.207   4.553   8.983  0.1558 -0.5540 -0.1789
 6708SOL    HW131586   1.186   4.505   8.903 -2.0623  1.2787 -0.6943
 6708SOL    HW231587   1.128   4.548   9.038  0.1177 -1.4552 -0.3159
 6709SOL     OW31588   2.065   2.509  17.019  0.3391  0.2072 -0.5771
 6709SOL    HW131589   2.100   2.590  17.056  0.7077  0.3051 -1.1380
 6709SOL    HW231590   2.110   2.440  17.067  0.7794  0.2862 -0.8711
 6710SOL     OW31591   3.621   0.545   7.213 -0.5579  0.1387 -0.1660
 6710SOL    HW131592   3.607   0.550   7.308 -0.5860  1.3806 -0.2354
 6710SOL    HW231593   3.578   0.627   7.188 -0.6172 -0.0366 -0.6301
 6711SOL     OW31594   4.506   2.553  14.267 -0.3121  0.2638  0.5295
 6711SOL    HW131595   4.587   2.547  14.216  0.3719 -1.5548  1.8458
 6711SOL    HW231596   4.460   2.484  14.220 -0.2028 -0.0459  0.8703
 6712SOL     OW31597   3.343   3.563  15.815 -0.0182 -0.0521  0.7586
 6712SOL    HW131598   3.320   3.620  15.888  0.5734  0.9293  0.1800
 6712SOL    HW231599   3.380   3.624  15.751 -0.5739 -2.2529 -1.7043
 6713SOL     OW31600   0.326   4.392  17.628 -0.4291 -0.1478 -0.1242
 6713SOL    HW131601   0.251   4.416  17.572 -1.5830 -0.5931  1.2205
 6713SOL    HW231602   0.398   4.385  17.566  0.2718  0.0528  0.6718
 6714SOL     OW31603   1.070   0.160   3.236 -0.1741  0.8224  0.0078
 6714SOL    HW131604   1.021   0.170   3.318 -1.0170  1.9486 -0.6311
 6714SOL    HW231605   1.013   0.087   3.210 -0.3980  1.1552 -0.4348
 6715SOL     OW31606   4.647   1.082   2.982  0.2622 -0.2298  0.4636
 6715SOL    HW131607   0.000   1.083   2.928  0.5605 -3.0462  0.8280
 6715SOL    HW231608   4.682   1.134   3.053 -0.5213  0.3063  0.4575
 6716SOL     OW31609   1.741   0.076   5.828 -0.0318 -0.1562  0.0741
 6716SOL    HW131610   1.765   0.121   5.909 -0.5529  1.9323 -0.9570
 6716SOL    HW231611   1.818   0.022   5.808  0.6883  0.5233  0.9824
 6717SOL     OW31612   3.035   4.469   3.080 -0.2241 -0.7549  0.3529
 6717SOL    HW131613   2.991   4.399   3.032  1.9379 -2.9008  1.4656
 6717SOL    HW231614   3.117   4.426   3.105  0.0680 -1.1572 -1.2736
 6718SOL     OW31615   2.485   1.226   2.349 -0.2521  0.0488 -0.5458
 6718SOL    HW131616   2.534   1.302   2.315  1.7698 -0.2307  1.7475
 6718SOL    HW231617   2.502   1.160   2.282 -0.5933  1.0281 -1.5903
 6719SOL     OW31618   3.164   1.783   3.239  0.2982 -0.5384 -0.3180
 6719SOL    HW131619   3.170   1.875   3.263 -1.4448 -0.4624 -0.1602
 6719SOL    HW231620   3.170   1.793   3.145 -0.4451  1.4674 -0.1533
 6720SOL     OW31621   2.992   0.615   0.985  0.0963 -0.8155 -0.5001
 6720SOL    HW131622   3.002   0.617   1.080 -0.8938 -1.1100 -0.3875
 6720SOL    HW231623   2.977   0.707   0.965  0.3145 -0.4014  1.3059
 6721SOL     OW31624   0.196   3.686   5.533  0.1102 -0.0664 -0.5628
 6721SOL    HW131625   0.147   3.719   5.609  1.4939  0.6725  0.0002
 6721SOL    HW231626   0.152   3.731   5.461 -1.1769 -0.4022  0.0030
 6722SOL     OW31627   1.556   2.710   5.780 -0.3391  0.4083 -0.2605
 6722SOL    HW131628   1.533   2.620   5.755 -3.0172  0.9257  0.2922
 6722SOL    HW231629   1.635   2.693   5.830 -1.7269  0.1488  1.8673
 6723SOL     OW31630   0.893   2.553  11.418  0.3981 -0.1453  0.3925
 6723SOL    HW131631   0.981   2.583  11.441 -0.0230  1.3842 -0.0327
 6723SOL    HW231632   0.921   2.472  11.374  0.2317 -0.4603  0.8737
 6724SOL     OW31633   0.052   1.074  11.864 -0.3755 -0.3768  0.1930
 6724SOL    HW131634   0.042   1.025  11.946  2.0579  0.4971  0.9991
 6724SOL    HW231635   0.060   1.166  11.890 -0.2539 -0.5861  0.9159
 6725SOL     OW31636   3.696   0.674   0.694  0.4437  0.0950 -0.3571
 6725SOL    HW131637   3.777   0.694   0.646  0.8365 -1.8952 -0.5324
 6725SOL    HW231638   3.730   0.613   0.759  0.8667  0.1230 -0.5509
 6726SOL     OW31639   4.702   1.532  15.796 -0.0521  0.3832 -0.5947
 6726SOL    HW131640   0.014   1.447  15.822 -0.7978  0.1112 -0.4239
 6726SOL    HW231641   4.610   1.508  15.802 -0.1029  1.6705  3.8234
 6727SOL     OW31642   2.018   1.224   5.673  0.2744  0.5158  0.1408
 6727SOL    HW131643   1.975   1.278   5.607 -0.7194 -1.9634 -1.2039
 6727SOL    HW231644   2.111   1.240   5.653  0.0907  0.3616 -0.8226
 6728SOL     OW31645   3.571   4.427  12.950  0.7262  0.3610  0.0241
 6728SOL    HW131646   3.489   4.459  12.988  0.2251  0.9222 -1.4939
 6728SOL    HW231647   3.601   4.363  13.015  0.0163 -0.9151 -0.9077
 6729SOL     OW31648   4.143   0.673   7.587  0.1557 -0.0999 -0.4475
 6729SOL    HW131649   4.188   0.757   7.581 -2.3121  1.2066 -1.0017
 6729SOL    HW231650   4.171   0.646   7.499  1.4531  0.4219 -0.1949
 6730SOL     OW31651   3.804   4.434   3.849 -0.0938  0.4787  0.2770
 6730SOL    HW131652   3.879   4.430   3.790 -2.1421 -1.4307 -2.1736
 6730SOL    HW231653   3.857   4.452   3.927 -0.6750  0.3062  0.7073
 6731SOL     OW31654   3.584   0.539   5.366  0.0283  0.8583  0.6972
 6731SOL    HW131655   3.612   0.630   5.364 -1.2970  1.2568  0.6952
 6731SOL    HW231656   3.622   0.505   5.284  0.0737 -1.4891  1.6838
 6732SOL     OW31657   0.838   4.707   1.386 -0.3531  0.0785  0.1340
 6732SOL    HW131658   0.846   4.664   1.471  1.7008 -1.7794 -0.9791
 6732SOL    HW231659   0.923   4.677   1.355 -0.7547 -0.5818 -0.3320
 6733SOL     OW31660   4.440   2.834   7.070  0.0545  0.3906 -0.8164
 6733SOL    HW131661   4.444   2.740   7.087  1.0258  0.2990 -1.5271
 6733SOL    HW231662   4.348   2.836   7.044  0.0368  0.4672 -0.7492
 6734SOL     OW31663   2.416   2.253   7.623  0.5682  0.0801  0.1458
 6734SOL    HW131664   2.323   2.277   7.617  0.8734  1.9111  2.3097
 6734SOL    HW231665   2.415   2.250   7.719 -1.5549 -1.4090  0.0919
 6735SOL     OW31666   1.890   1.258   0.213 -0.4428 -0.1194 -0.1628
 6735SOL    HW131667   1.831   1.195   0.171 -2.1400  1.0118  0.5460
 6735SOL    HW231668   1.895   1.329   0.149  0.1149 -1.6192 -1.8075
 6736SOL     OW31669   0.222   3.649   8.731 -0.2169  0.6059 -0.3577
 6736SOL    HW131670   0.278   3.723   8.756  0.5461 -0.3352  0.7307
 6736SOL    HW231671   0.160   3.696   8.677  0.3726  1.4926 -0.2658
 6737SOL     OW31672   3.279   1.785   7.553 -0.5292 -0.6680  0.2561
 6737SOL    HW131673   3.186   1.806   7.566 -0.4624 -0.8227  0.9754
 6737SOL    HW231674   3.308   1.876   7.547 -1.4520 -0.3549  0.5440
 6738SOL     OW31675   4.628   4.530  10.473  0.1697 -0.1794 -0.3569
 6738SOL    HW131676   4.614   4.606  10.418 -0.6892 -1.2035 -1.5525
 6738SOL    HW231677   4.695   4.566  10.531 -0.4114 -1.8660  1.3796
 6739SOL     OW31678   1.061   2.177   4.224 -0.5974 -0.1629 -0.0715
 6739SOL    HW131679   1.080   2.137   4.309  1.5016  0.4029 -0.2605
 6739SOL    HW231680   1.052   2.098   4.171 -0.9719  0.8679 -1.5640
 6740SOL     OW31681   1.618   0.173   7.219 -0.3004 -0.4202  0.0283
 6740SOL    HW131682   1.691   0.124   7.256  1.0419  0.7372 -1.0601
 6740SOL    HW231683   1.590   0.212   7.302  0.5177  0.0664  0.0756
 6741SOL     OW31684   0.600   3.911   7.757 -0.0327  0.0753  0.1806
 6741SOL    HW131685   0.632   3.825   7.730 -0.6725 -0.5230  1.2879
 6741SOL    HW231686   0.653   3.925   7.836 -0.8563  1.3054  0.5105
 6742SOL     OW31687   3.839   4.525  13.865 -0.1481 -0.2105  0.2664
 6742SOL    HW131688   3.886   4.552  13.943  1.9070 -1.6619 -0.4605
 6742SOL    HW231689   3.869   4.435  13.855 -0.6903 -0.1155 -2.2776
 6743SOL     OW31690   1.611   3.109  10.622  0.0769  0.3873  0.0113
 6743SOL    HW131691   1.653   3.175  10.678 -0.6699  0.5072  0.4281
 6743SOL    HW231692   1.614   3.155  10.537 -0.6045 -0.4768 -0.4752
 6744SOL     OW31693   0.603   0.082   6.684 -0.1111  0.7184  0.8590
 6744SOL    HW131694   0.552   0.162   6.695  3.3436  2.9559  0.3460
 6744SOL    HW231695   0.536   0.032   6.637  0.2170  0.9963  0.0938
 6745SOL     OW31696   1.067   2.273  13.730  0.6731  0.0833 -0.2108
 6745SOL    HW131697   1.105   2.189  13.705 -1.9750  0.0538 -4.0568
 6745SOL    HW231698   1.080   2.337  13.659 -1.1177 -2.3078 -2.6743
 6746SOL     OW31699   4.598   3.576   3.920  0.2773 -0.2758  0.1036
 6746SOL    HW131700   4.627   3.607   3.834 -0.4728 -0.0891 -0.0859
 6746SOL    HW231701   4.579   3.484   3.901  1.0436 -0.4255  0.0428
 6747SOL     OW31702   2.985   4.009  15.574  0.4492  0.1823  0.0435
 6747SOL    HW131703   2.980   4.104  15.587  0.6386  0.0996  0.7378
 6747SOL    HW231704   3.068   3.994  15.619 -0.2003 -0.3954  1.0526
 6748SOL     OW31705   0.508   0.037   7.160  0.1251  0.4438 -0.1099
 6748SOL    HW131706   0.577   0.084   7.113  0.0746 -0.5545 -1.1647
 6748SOL    HW231707   0.465   0.106   7.211 -0.3617 -0.3523  0.5487
 6749SOL     OW31708   2.144   1.612   0.134  0.2913 -0.5175  0.2197
 6749SOL    HW131709   2.166   1.628   0.042  2.8289  3.0527  1.4725
 6749SOL    HW231710   2.194   1.684   0.172  1.9127 -0.2613 -2.3665
 6750SOL     OW31711   3.864   1.351   4.459 -0.2217  0.8172  0.1387
 6750SOL    HW131712   3.868   1.424   4.397 -0.3816  0.0728 -0.7269
 6750SOL    HW231713   3.898   1.276   4.412 -0.9968  0.0188  0.8496
 6751SOL     OW31714   3.836   1.452   2.337  0.3201 -0.0339 -0.4105
 6751SOL    HW131715   3.898   1.476   2.406 -1.7051  0.2821  1.2943
 6751SOL    HW231716   3.886   1.384   2.291  0.6104  0.5488 -0.9605
 6752SOL     OW31717   0.311   1.484   6.498  0.6271 -0.1903  0.1829
 6752SOL    HW131718   0.341   1.574   6.498 -0.0395  0.0336  0.6208
 6752SOL    HW231719   0.292   1.464   6.590 -1.5818  0.2610 -0.1664
 6753SOL     OW31720   4.166   2.328   7.449  0.2671 -0.0211 -0.3659
 6753SOL    HW131721   4.236   2.384   7.482 -1.5910  1.7352  0.5983
 6753SOL    HW231722   4.189   2.241   7.479 -1.9813 -1.0962 -1.7291
 6754SOL     OW31723   4.579   1.781  10.180  0.2811  0.1305  0.2108
 6754SOL    HW131724   4.490   1.814  10.196 -0.2962  0.0494 -2.8307
 6754SOL    HW231725   4.620   1.800  10.264  1.3781 -2.6523  0.2928
 6755SOL     OW31726   1.340   2.378   9.369 -0.2231 -0.1455 -0.0521
 6755SOL    HW131727   1.423   2.377   9.417 -0.1035  1.6902 -0.2171
 6755SOL    HW231728   1.352   2.307   9.306 -3.1020  0.3432 -1.1354
 6756SOL     OW31729   3.480   2.311   8.991 -0.5869  0.4689  0.0206
 6756SOL    HW131730   3.479   2.365   9.070  2.1240 -0.3555  0.6108
 6756SOL    HW231731   3.385   2.306   8.983 -0.3379  0.4790 -2.8234
 6757SOL     OW31732   1.482   2.926  10.836  0.7425 -0.7513 -0.0386
 6757SOL    HW131733   1.395   2.906  10.870 -0.4294  2.3955 -1.1635
 6757SOL    HW231734   1.522   2.844  10.865 -0.5307 -1.3794 -0.0936
 6758SOL     OW31735   4.546   0.630   7.858  0.2391 -0.7761  0.6403
 6758SOL    HW131736   4.564   0.676   7.776 -0.2628 -0.9275  0.4449
 6758SOL    HW231737   4.460   0.661   7.887 -0.8885 -1.4414 -1.9457
 6759SOL     OW31738   0.426   2.542  10.674  0.2240 -0.8424 -0.0086
 6759SOL    HW131739   0.448   2.460  10.718 -0.8453 -0.8942  0.4061
 6759SOL    HW231740   0.512   2.584  10.683  0.2293 -0.0541 -3.8645
 6760SOL     OW31741   4.596   1.576   4.961 -0.0239  0.0751 -0.0833
 6760SOL    HW131742   4.626   1.508   5.021 -1.0615 -2.3218 -2.2789
 6760SOL    HW231743   4.507   1.584   4.994 -0.0840  1.9928 -0.7024
 6761SOL     OW31744   4.641   1.128   5.599 -0.1715 -0.0096  0.3899
 6761SOL    HW131745   4.639   1.081   5.682  1.3251  0.5690  0.7422
 6761SOL    HW231746   0.008   1.126   5.573 -0.5824 -1.6533 -0.9742
 6762SOL     OW31747   0.223   3.379   9.049  0.2020  0.5116 -0.1310
 6762SOL    HW131748   0.318   3.367   9.057  0.0209 -0.5191  0.4179
 6762SOL    HW231749   0.190   3.295   9.079 -0.4882  0.4302 -1.1536
 6763SOL     OW31750   4.518   0.686   2.367 -0.2008 -0.2391  0.1696
 6763SOL    HW131751   4.437   0.723   2.400 -0.1330  1.1247 -1.2006
 6763SOL    HW231752   4.566   0.766   2.345 -2.2331  0.6708 -0.8794
 6764SOL     OW31753   0.552   3.346   0.064  1.2036  0.8700 -0.2507
 6764SOL    HW131754   0.486   3.409   0.096  2.8999  2.1188  0.7672
 6764SOL    HW231755   0.595   3.318   0.145  4.1156  0.8009 -1.8289
 6765SOL     OW31756   3.404   3.958   7.424  0.3181  0.5277  0.5870
 6765SOL    HW131757   3.483   3.986   7.379 -1.2789 -2.4472 -4.0862
 6765SOL    HW231758   3.396   4.025   7.491 -0.4911  1.4550 -0.4401
 6766SOL     OW31759   3.389   4.603  16.689  0.6070 -0.4004  0.3653
 6766SOL    HW131760   3.296   4.583  16.697  0.5264 -0.3089 -0.3319
 6766SOL    HW231761   3.433   4.535  16.740  0.0491 -3.1432 -2.8354
 6767SOL     OW31762   1.878   3.747   4.225 -0.2919  0.0795 -0.4377
 6767SOL    HW131763   1.935   3.673   4.247  1.2506  0.7686 -2.1142
 6767SOL    HW231764   1.792   3.710   4.204 -1.2241  0.9674  1.9021
 6768SOL     OW31765   1.661   2.287   0.379  0.3056 -0.0760  0.7790
 6768SOL    HW131766   1.750   2.252   0.384  0.4575  0.3633  1.1635
 6768SOL    HW231767   1.663   2.355   0.311  1.2126  1.4344  2.3331
 6769SOL     OW31768   1.925   1.710   4.350 -0.1685  0.0948 -0.7816
 6769SOL    HW131769   1.876   1.782   4.388  1.3318 -0.0867  1.5613
 6769SOL    HW231770   1.880   1.688   4.269 -0.9928  1.5790 -0.7192
 6770SOL     OW31771   2.437   0.018  15.275  0.0105  0.2326 -0.0533
 6770SOL    HW131772   2.354   0.039  15.232  0.2505  2.6005  0.6486
 6770SOL    HW231773   2.508   0.074  15.244 -0.9873  0.9835 -0.9303
 6771SOL     OW31774   2.664   1.070   7.545 -0.2068 -1.0749  0.0428
 6771SOL    HW131775   2.703   1.122   7.616 -1.1423  0.6270 -0.6945
 6771SOL    HW231776   2.607   1.134   7.503  2.9336 -0.1597 -2.8952
 6772SOL     OW31777   1.769   2.577   3.189 -0.0239 -0.4308 -0.1487
 6772SOL    HW131778   1.753   2.532   3.272 -0.0734 -2.3851 -1.2238
 6772SOL    HW231779   1.750   2.502   3.133  1.7447 -0.4252 -0.7732
 6773SOL     OW31780   4.608   0.243   5.434 -0.6111 -0.1768 -0.4290
 6773SOL    HW131781   4.650   0.165   5.470 -1.2458  0.2975  1.3535
 6773SOL    HW231782   4.540   0.201   5.382 -0.2145 -2.3845  0.8483
 6774SOL     OW31783   2.007   2.092  10.025 -0.1912 -0.0488  0.4687
 6774SOL    HW131784   2.027   2.030  10.095  0.6364 -1.1696 -0.7395
 6774SOL    HW231785   2.088   2.138  10.003 -0.3820  0.7901  1.4939
 6775SOL     OW31786   3.398   1.168   4.436 -0.0763  0.6346  0.3015
 6775SOL    HW131787   3.437   1.225   4.501  0.9882  1.5993 -1.1741
 6775SOL    HW231788   3.307   1.192   4.453 -1.0659 -2.1334 -1.1390
 6776SOL     OW31789   3.916   2.150   0.311 -0.2967  0.2201  0.0256
 6776SOL    HW131790   3.887   2.094   0.238  1.8474 -1.7669  0.7159
 6776SOL    HW231791   3.833   2.155   0.358 -0.3741  1.9258 -0.2781
 6777SOL     OW31792   1.818   1.566   8.308  0.0691 -0.0877 -0.0261
 6777SOL    HW131793   1.780   1.540   8.392  0.1709 -0.1307  0.0062
 6777SOL    HW231794   1.854   1.650   8.335 -1.1987 -0.4264  2.7116
 6778SOL     OW31795   0.869   2.917   5.768  0.6080 -0.6487 -0.0423
 6778SOL    HW131796   0.851   3.010   5.757 -2.0004 -0.9791  1.4109
 6778SOL    HW231797   0.797   2.877   5.719  0.1581 -0.0214  0.1111
 6779SOL     OW31798   4.693   2.622   3.092 -0.1662  0.2055 -0.5024
 6779SOL    HW131799   4.717   2.565   3.018 -0.2381  1.2577 -1.3224
 6779SOL    HW231800   0.023   2.699   3.090  0.7825 -0.4684 -0.3409
 6780SOL     OW31801   0.249   4.355   6.696 -0.0716  0.1720  0.3445
 6780SOL    HW131802   0.270   4.420   6.763 -0.6872  1.6884 -0.9452
 6780SOL    HW231803   0.280   4.400   6.617  3.2091 -3.9293 -0.6851
 6781SOL     OW31804   3.279   0.506   1.317 -0.1225 -0.5982 -0.7409
 6781SOL    HW131805   3.370   0.505   1.287  0.0257 -1.1700 -0.2872
 6781SOL    HW231806   3.266   0.412   1.330 -1.7014 -0.3034 -0.1038
 6782SOL     OW31807   4.173   1.695  17.294  0.2028 -0.7693  0.1597
 6782SOL    HW131808   4.112   1.727  17.362 -1.1437  0.5657 -1.6716
 6782SOL    HW231809   4.251   1.676  17.346 -0.5330  1.2085  1.9972
 6783SOL     OW31810   4.074   3.602  11.975  0.4467  0.0640  0.0178
 6783SOL    HW131811   4.035   3.560  12.052 -1.9657  0.5707 -0.9469
 6783SOL    HW231812   4.111   3.528  11.927 -2.3054 -1.7957  0.7700
 6784SOL     OW31813   0.058   0.471   7.287 -0.1258  0.4283  0.1159
 6784SOL    HW131814   0.035   0.378   7.285  2.2530 -0.2045  1.1790
 6784SOL    HW231815   4.717   0.503   7.348 -3.5682 -1.5170 -2.6287
 6785SOL     OW31816   1.424   0.292  16.263 -0.0147  0.4012  0.2928
 6785SOL    HW131817   1.486   0.336  16.205 -0.8737  0.7140 -0.3780
 6785SOL    HW231818   1.485   0.223  16.290  2.6616  1.9360 -1.9142
 6786SOL     OW31819   2.119   0.073   3.275 -0.8418  0.4552 -0.0809
 6786SOL    HW131820   2.193   0.093   3.332 -0.9558 -0.2334  0.2963
 6786SOL    HW231821   2.130   0.130   3.198 -0.3853 -2.9050 -2.5024
 6787SOL     OW31822   4.676   3.279   6.502 -0.3566 -0.6463 -0.8516
 6787SOL    HW131823   0.022   3.225   6.536 -0.4882 -1.1898 -1.4377
 6787SOL    HW231824   4.623   3.209   6.462 -1.8886  1.0839 -1.8458
 6788SOL     OW31825   0.062   0.641  13.231 -0.1364 -0.5202 -0.4506
 6788SOL    HW131826   0.104   0.697  13.166 -0.6143  0.9752  0.5109
 6788SOL    HW231827   4.698   0.624  13.205 -0.8534  2.5911 -0.0273
 6789SOL     OW31828   3.002   2.575   2.182  0.0713  0.0228  0.2957
 6789SOL    HW131829   2.975   2.559   2.273  0.5459  2.3319  0.8516
 6789SOL    HW231830   2.922   2.575   2.129  0.6124  0.2315 -0.5198
 6790SOL     OW31831   3.905   1.517   4.257  0.3228 -0.2511 -0.0061
 6790SOL    HW131832   3.986   1.565   4.273 -0.7684  2.3315 -2.2697
 6790SOL    HW231833   3.851   1.585   4.215  2.5169 -0.4692 -3.1381
 6791SOL     OW31834   1.270   0.189   2.743  0.0263 -0.2188 -0.6363
 6791SOL    HW131835   1.264   0.216   2.652  0.5985 -1.6799 -1.1186
 6791SOL    HW231836   1.355   0.229   2.762 -0.0559 -0.8753  1.1723
 6792SOL     OW31837   1.739   4.704  11.469  0.2910  0.0673  0.3128
 6792SOL    HW131838   1.800   4.664  11.531  0.2176  0.9830  0.9811
 6792SOL    HW231839   1.776   4.669  11.388  1.0407  0.5198  0.4622
 6793SOL     OW31840   0.906   3.722   4.009 -0.7207 -0.3362  0.3003
 6793SOL    HW131841   0.877   3.779   4.080 -0.9012 -1.6046  1.2448
 6793SOL    HW231842   0.886   3.778   3.934 -1.1274 -0.2171  0.4977
 6794SOL     OW31843   1.821   2.744  15.330  0.3196 -0.0167  0.0707
 6794SOL    HW131844   1.787   2.811  15.271  0.8719 -0.0607 -0.2923
 6794SOL    HW231845   1.761   2.756  15.404  0.0248  1.5140 -0.4276
 6795SOL     OW31846   1.204   2.563  15.328  0.1599  0.4112 -0.1621
 6795SOL    HW131847   1.171   2.652  15.332 -2.1608 -0.5158  1.0939
 6795SOL    HW231848   1.141   2.523  15.388  2.2103 -0.9589  1.0802
 6796SOL     OW31849   0.385   4.329  12.738  0.3864  0.2373  0.0519
 6796SOL    HW131850   0.379   4.234  12.734 -0.4511  0.2985 -0.1714
 6796SOL    HW231851   0.401   4.342  12.831 -1.7135  1.0067  0.3077
 6797SOL     OW31852   3.058   4.667   1.552 -0.2229  0.4494 -0.3035
 6797SOL    HW131853   3.153   4.673   1.557 -0.4031  1.1111  2.4761
 6797SOL    HW231854   3.031   4.619   1.631 -0.5772  2.8542  1.0582
 6798SOL     OW31855   1.141   2.292   4.635 -0.2068 -0.7013  0.0889
 6798SOL    HW131856   1.078   2.257   4.699 -0.9033  2.4531  1.1166
 6798SOL    HW231857   1.149   2.384   4.658  2.7777 -0.6360 -1.2843
 6799SOL     OW31858   0.640   2.833  12.886 -0.2006 -0.2783  0.9032
 6799SOL    HW131859   0.588   2.753  12.878  1.3857 -1.0986 -0.9855
 6799SOL    HW231860   0.687   2.823  12.804 -0.2549 -0.0602  0.8439
 6800SOL     OW31861   0.269   4.509   1.774 -0.4771  0.5580 -0.2671
 6800SOL    HW131862   0.333   4.563   1.821 -0.0009  1.1371 -1.5898
 6800SOL    HW231863   0.317   4.500   1.692  0.5894 -0.4875  0.4624
 6801SOL     OW31864   3.136   3.356   5.630  0.4178  0.1299  0.6175
 6801SOL    HW131865   3.226   3.372   5.603  0.2591 -1.3552 -0.7540
 6801SOL    HW231866   3.158   3.353   5.724  2.5426  0.2775  0.1307
 6802SOL     OW31867   1.954   1.983   4.927  0.4389 -0.8524 -0.0300
 6802SOL    HW131868   1.897   1.999   5.002 -0.2822  0.8826 -0.9570
 6802SOL    HW231869   2.007   1.910   4.960  1.0662  0.3192  1.5669
 6803SOL     OW31870   0.877   1.572   6.603  0.5107  0.2503 -0.1670
 6803SOL    HW131871   0.782   1.565   6.617  0.5130  1.9896  0.7252
 6803SOL    HW231872   0.900   1.595   6.693 -2.2569  0.3397  0.5310
 6804SOL     OW31873   1.033   3.448   4.529  0.0439 -0.2711 -0.0247
 6804SOL    HW131874   1.052   3.423   4.439 -0.5381 -0.3024 -0.1434
 6804SOL    HW231875   0.952   3.496   4.514 -0.6068 -1.2551  0.3021
 6805SOL     OW31876   2.580   1.547  17.632 -0.7489 -0.2016  0.0483
 6805SOL    HW131877   2.615   1.463  17.601 -0.3941  0.3467 -1.0221
 6805SOL    HW231878   2.497   1.513  17.664  0.9727 -2.7640  1.7706
 6806SOL     OW31879   3.137   0.612  10.515  0.1766  0.4270 -0.1940
 6806SOL    HW131880   3.169   0.667  10.444  3.1381 -0.0586  0.7276
 6806SOL    HW231881   3.042   0.614  10.507  0.1844 -0.3535 -0.4244
 6807SOL     OW31882   1.986   1.349   8.325 -0.1306  0.0013  0.0186
 6807SOL    HW131883   2.004   1.349   8.231  0.7226 -0.2585  0.1855
 6807SOL    HW231884   1.964   1.442   8.334  0.2089  0.0593  0.2389
 6808SOL     OW31885   0.400   0.700  14.546  0.0886 -0.0393 -0.1277
 6808SOL    HW131886   0.331   0.645  14.509 -0.0170 -0.0633  0.1070
 6808SOL    HW231887   0.464   0.633  14.569  1.5182  1.1864 -0.5442
 6809SOL     OW31888   2.592   0.771  12.279  0.0305 -0.3177 -0.4568
 6809SOL    HW131889   2.505   0.787  12.314  0.6040  1.3058  0.2439
 6809SOL    HW231890   2.644   0.822  12.341 -0.0623 -0.3770 -0.3316
 6810SOL     OW31891   3.544   4.603   2.439  0.1606 -0.0719  0.0383
 6810SOL    HW131892   3.579   4.540   2.376  0.2924  1.8258 -1.7841
 6810SOL    HW231893   3.450   4.597   2.423 -0.0678  1.8653  0.6597
 6811SOL     OW31894   4.223   1.432   3.382  0.8840 -0.0773 -0.0045
 6811SOL    HW131895   4.178   1.507   3.345 -1.3458 -1.1626  0.5090
 6811SOL    HW231896   4.237   1.464   3.471 -0.5550 -0.5798  0.4055
 6812SOL     OW31897   1.503   2.867   0.919  0.8748  0.1006 -0.0286
 6812SOL    HW131898   1.575   2.803   0.914 -0.5965 -1.5758  0.4119
 6812SOL    HW231899   1.548   2.944   0.955 -1.5139  1.6418 -0.3628
 6813SOL     OW31900   2.981   0.581   4.518  0.9992 -0.3974  0.7292
 6813SOL    HW131901   3.042   0.561   4.589  0.4443 -0.7532  1.1153
 6813SOL    HW231902   2.898   0.563   4.563  0.2564  0.7963 -0.1543
 6814SOL     OW31903   2.400   1.210  12.415 -0.7549 -0.7301  0.3235
 6814SOL    HW131904   2.319   1.234  12.370 -0.4251 -0.2038  0.0066
 6814SOL    HW231905   2.408   1.115  12.410 -1.2558 -0.7782  0.5005
 6815SOL     OW31906   3.557   4.200   8.691  0.5438 -0.6793 -0.5957
 6815SOL    HW131907   3.563   4.128   8.754  1.8843  2.5848  3.0608
 6815SOL    HW231908   3.521   4.263   8.753  2.4126  0.8509 -1.0719
 6816SOL     OW31909   0.969   3.980  17.108  0.5267  0.0123  0.5521
 6816SOL    HW131910   0.886   3.998  17.062  1.8916  0.4555 -1.7481
 6816SOL    HW231911   0.935   3.966  17.196  0.5985  1.6521  0.8359
 6817SOL     OW31912   2.219   3.302  15.105 -0.0082  0.1592  0.0051
 6817SOL    HW131913   2.182   3.386  15.131  1.2710  0.4003  1.1230
 6817SOL    HW231914   2.304   3.338  15.079  0.9620 -0.1883  2.6405
 6818SOL     OW31915   0.047   0.022   7.548  0.0010  0.1623 -0.4380
 6818SOL    HW131916   0.096   4.681   7.500  1.3123 -0.8629  2.2993
 6818SOL    HW231917   0.120   0.085   7.550 -0.7152  0.9661  0.6112
 6819SOL     OW31918   0.590   1.583   6.607 -0.4974  0.0568 -0.4431
 6819SOL    HW131919   0.535   1.624   6.673  1.0062  1.6251 -0.1725
 6819SOL    HW231920   0.556   1.612   6.523 -2.2272 -1.1756 -0.1801
 6820SOL     OW31921   1.509   0.744   2.982 -0.1818  0.6948 -0.7746
 6820SOL    HW131922   1.492   0.835   3.004 -0.0096  0.8053 -1.0956
 6820SOL    HW231923   1.528   0.754   2.889 -0.2931 -0.2370 -0.9021
 6821SOL     OW31924   1.735   2.907   2.565  0.3155 -0.2531  0.3594
 6821SOL    HW131925   1.770   2.899   2.476  3.4070  0.1768  1.5529
 6821SOL    HW231926   1.726   3.002   2.576 -1.8384 -0.4454  0.1739
 6822SOL     OW31927   4.342   2.420   6.421 -0.1252 -0.1468  0.3908
 6822SOL    HW131928   4.295   2.366   6.484  0.1055  0.0960  0.7678
 6822SOL    HW231929   4.342   2.504   6.467  0.9436  0.2115 -0.2486
 6823SOL     OW31930   2.747   0.676   3.062 -0.0238 -0.1092  0.1467
 6823SOL    HW131931   2.655   0.679   3.090 -0.2629 -2.1701 -0.4047
 6823SOL    HW231932   2.793   0.633   3.134  0.9691 -1.2613 -1.1675
 6824SOL     OW31933   1.476   4.587  14.818  0.4682 -1.2789  0.1657
 6824SOL    HW131934   1.435   4.658  14.768  0.4870 -0.8875  0.7144
 6824SOL    HW231935   1.459   4.619  14.906  0.8852  0.1007 -0.2434
 6825SOL     OW31936   2.679   3.663   8.101  0.6351 -0.5781  0.1426
 6825SOL    HW131937   2.649   3.654   8.010 -3.0336 -0.1263  1.3190
 6825SOL    HW231938   2.764   3.620   8.094  2.3788  2.7157  1.0213
 6826SOL     OW31939   0.103   1.498   7.513  0.0977 -0.4289 -0.0823
 6826SOL    HW131940   0.088   1.453   7.430  0.7273 -0.4819 -0.1675
 6826SOL    HW231941   0.172   1.440   7.545 -0.3663 -1.5861 -1.2136
 6827SOL     OW31942   3.091   2.444   2.860  0.1544  0.0984 -0.1600
 6827SOL    HW131943   3.017   2.489   2.820 -0.3211 -1.0595 -0.5992
 6827SOL    HW231944   3.051   2.359   2.880  0.7095 -0.2921 -0.6625
 6828SOL     OW31945   3.789   0.285   6.348  0.3438  0.5372  0.1819
 6828SOL    HW131946   3.848   0.271   6.422  0.2622  0.8390  0.3076
 6828SOL    HW231947   3.723   0.340   6.391  0.3856  0.0575  0.8604
 6829SOL     OW31948   0.951   0.388   9.762 -0.2859  0.1283  0.4569
 6829SOL    HW131949   0.904   0.324   9.708  1.0206  0.4322 -1.0610
 6829SOL    HW231950   1.042   0.381   9.732 -0.8170  0.4361 -1.2017
 6830SOL     OW31951   3.335   1.344   5.280  0.6957  1.1358  0.3300
 6830SOL    HW131952   3.271   1.411   5.257 -0.3848 -0.2611 -0.7927
 6830SOL    HW231953   3.321   1.281   5.209  1.8744  0.5406  0.6339
 6831SOL     OW31954   4.241   0.495   6.544  0.7006 -0.3589  0.2374
 6831SOL    HW131955   4.299   0.442   6.489 -1.8572 -0.8771 -1.9139
 6831SOL    HW231956   4.249   0.586   6.514 -0.3116  0.8781  3.7090
 6832SOL     OW31957   1.862   2.270   4.060  0.1443 -0.2752 -0.2654
 6832SOL    HW131958   1.886   2.312   3.977  0.6801 -1.1516 -0.5597
 6832SOL    HW231959   1.940   2.220   4.084 -0.4288 -0.7280  0.6328
 6833SOL     OW31960   4.711   2.437   6.621 -0.1278  0.0993 -0.0040
 6833SOL    HW131961   0.073   2.399   6.611  0.2408  0.6253  1.1885
 6833SOL    HW231962   4.668   2.371   6.675 -1.6785  1.2811  0.2061
 6834SOL     OW31963   0.916   0.054  17.697  0.6498 -0.3987 -0.4169
 6834SOL    HW131964   0.831   0.050  17.653 -0.8272  1.2055  2.3253
 6834SOL    HW231965   0.929   4.686   0.011 -2.6791 -0.8089  0.0019
 6835SOL     OW31966   2.073   2.133  11.514  0.9117 -0.0908 -0.0852
 6835SOL    HW131967   2.156   2.178  11.496  0.0458  1.2071 -0.8429
 6835SOL    HW231968   2.081   2.109  11.607  0.9574  1.1737  0.2334
 6836SOL     OW31969   3.691   1.294   1.872 -0.2789  0.8617  0.0873
 6836SOL    HW131970   3.660   1.384   1.884  0.4762  1.0497  0.7028
 6836SOL    HW231971   3.764   1.333   1.823  0.4398 -1.4370 -0.6538
 6837SOL     OW31972   3.642   2.459   6.456 -0.4735 -0.1872 -0.2556
 6837SOL    HW131973   3.726   2.455   6.410 -1.0514 -1.3541 -1.2087
 6837SOL    HW231974   3.628   2.379   6.508 -0.3649  0.5924  0.9703
 6838SOL     OW31975   0.069   1.937   6.977  0.0504  0.4323 -0.1063
 6838SOL    HW131976   4.713   1.937   6.927  1.1827  1.7138 -1.9898
 6838SOL    HW231977   0.035   1.922   7.065  1.3313  0.5149  0.3966
 6839SOL     OW31978   4.183   0.827   2.191 -0.2790  0.4620 -0.3657
 6839SOL    HW131979   4.225   0.838   2.106 -1.3310 -2.2775 -1.2725
 6839SOL    HW231980   4.223   0.905   2.230  0.1933  0.0784 -0.0814
 6840SOL     OW31981   3.923   1.622  13.200  0.3730 -0.2070  0.2667
 6840SOL    HW131982   3.935   1.624  13.295  0.3154  3.2969  0.1820
 6840SOL    HW231983   4.009   1.592  13.172  0.5969  0.2555  0.4537
 6841SOL     OW31984   0.295   1.513   1.248 -0.4100 -0.3667  0.2775
 6841SOL    HW131985   0.311   1.462   1.169  2.1215 -0.1224  0.6278
 6841SOL    HW231986   0.296   1.450   1.320 -0.5405  1.6353  2.0208
 6842SOL     OW31987   0.164   3.161   7.697  0.2385 -0.3657 -0.1372
 6842SOL    HW131988   0.072   3.162   7.722  1.2025 -0.2933  3.3872
 6842SOL    HW231989   0.207   3.164   7.782  2.7916  0.2224 -1.4131
 6843SOL     OW31990   4.191   0.242  13.332  0.2075  0.4359  0.0323
 6843SOL    HW131991   4.234   0.178  13.275 -0.5577 -0.5713  0.5880
 6843SOL    HW231992   4.162   0.180  13.399  1.4315  0.2037  0.3305
 6844SOL     OW31993   4.117   4.544   2.660  0.0126 -0.4106 -0.7081
 6844SOL    HW131994   4.168   4.466   2.639  0.0692 -0.7568  0.6646
 6844SOL    HW231995   4.078   4.560   2.574  2.3013 -1.2406 -1.8936
 6845SOL     OW31996   0.052   4.549   8.734  0.1443 -0.1175 -0.7249
 6845SOL    HW131997   4.711   4.578   8.672 -0.1596  0.5552 -0.0885
 6845SOL    HW231998   0.004   4.480   8.779 -2.0780  2.8526  1.5006
 6846SOL     OW31999   0.717   0.586   8.443 -0.7677 -0.6984  0.1804
 6846SOL    HW132000   0.752   0.501   8.471 -1.9153 -0.7611  1.4075
 6846SOL    HW232001   0.625   0.562   8.454 -0.4990 -1.3097  1.1777
 6847SOL     OW32002   1.801   2.267  16.617  0.2930  0.2276  0.3040
 6847SOL    HW132003   1.755   2.303  16.541 -0.7627 -0.0620  0.8119
 6847SOL    HW232004   1.830   2.348  16.660 -3.1327  2.9581 -2.5004
 6848SOL     OW32005   1.315   0.680   5.986 -0.0077 -0.3176 -0.1328
 6848SOL    HW132006   1.354   0.716   5.907  0.2271 -1.7504 -0.6661
 6848SOL    HW232007   1.354   0.593   5.998 -0.4941 -0.5111  0.0663
 6849SOL     OW32008   4.489   1.636  14.140 -0.1936 -0.4894  0.2059
 6849SOL    HW132009   4.439   1.717  14.126  1.2690  0.1424 -1.4213
 6849SOL    HW232010   4.464   1.567  14.079 -0.7837 -0.6951  0.6897
 6850SOL     OW32011   2.050   0.689   4.736  0.0779  0.0333  0.7078
 6850SOL    HW132012   2.078   0.601   4.711  2.2587  1.0562 -0.5815
 6850SOL    HW232013   2.055   0.730   4.649  1.3510  0.9408  1.2042
 6851SOL     OW32014   1.779   1.977   4.714 -0.2755  0.7762 -0.1989
 6851SOL    HW132015   1.855   1.990   4.771 -0.8377  3.0824  0.0110
 6851SOL    HW232016   1.711   2.016   4.769 -0.7679 -0.2469 -0.0811
 6852SOL     OW32017   1.171   1.899   2.086 -1.0609 -0.4054  0.4062
 6852SOL    HW132018   1.196   1.990   2.096 -1.5654 -0.0813 -1.3873
 6852SOL    HW232019   1.260   1.865   2.076 -0.8410  0.5987 -0.9230
 6853SOL     OW32020   0.574   2.444  17.282  0.0513 -0.0196  0.0865
 6853SOL    HW132021   0.654   2.393  17.270 -0.5486 -1.1612  0.9201
 6853SOL    HW232022   0.554   2.426  17.374 -0.1826  0.7714  0.1892
 6854SOL     OW32023   4.213   2.556   1.699 -0.0850 -0.0631  0.3035
 6854SOL    HW132024   4.204   2.582   1.607  2.0315  0.0276  0.1156
 6854SOL    HW232025   4.277   2.484   1.696  0.0777  0.1409 -0.8968
 6855SOL     OW32026   1.467   3.217   2.715 -0.5455 -0.3936 -0.0279
 6855SOL    HW132027   1.546   3.184   2.757 -1.1893  0.1420  1.6296
 6855SOL    HW232028   1.399   3.151   2.727 -0.2554 -0.3005  2.1682
 6856SOL     OW32029   1.714   1.381  13.798  0.3189  0.0113  0.1619
 6856SOL    HW132030   1.739   1.435  13.873  2.2056 -1.6187  0.7181
 6856SOL    HW232031   1.799   1.377  13.753  0.0211 -1.5024 -0.2640
 6857SOL     OW32032   2.613   2.233   3.800  0.6619  0.2053  0.3453
 6857SOL    HW132033   2.598   2.162   3.739  0.6650  1.0424 -0.6246
 6857SOL    HW232034   2.635   2.307   3.743  0.3740  0.6912  0.8514
 6858SOL     OW32035   1.294   0.529   6.381  0.6509 -0.7018 -0.5783
 6858SOL    HW132036   1.304   0.438   6.406 -0.2209 -1.3711 -2.6620
 6858SOL    HW232037   1.381   0.549   6.345 -0.3318 -1.0127 -3.1861
 6859SOL     OW32038   0.344   2.238   9.611  0.0640 -0.1561  0.1214
 6859SOL    HW132039   0.302   2.173   9.668 -0.7889  0.7257  0.5114
 6859SOL    HW232040   0.432   2.235   9.648 -0.0823  1.9260  0.6744
 6860SOL     OW32041   0.242   0.835   3.979 -0.8498 -0.3541  0.4226
 6860SOL    HW132042   0.239   0.865   4.070  1.5857 -1.1457  0.7553
 6860SOL    HW232043   0.213   0.745   3.995  1.5500 -0.8436  2.0358
 6861SOL     OW32044   0.609   3.615   2.759 -0.1566 -0.7484  0.0191
 6861SOL    HW132045   0.544   3.606   2.689 -0.2997  0.2017  0.0255
 6861SOL    HW232046   0.573   3.688   2.810 -1.6142 -0.4618 -1.4198
 6862SOL     OW32047   3.217   4.525   3.465 -0.1934  0.1956  0.3370
 6862SOL    HW132048   3.238   4.441   3.505 -0.8640  0.5593  1.4423
 6862SOL    HW232049   3.123   4.513   3.452 -0.3985  0.7615  1.2823
 6863SOL     OW32050   4.650   0.828   3.587  0.0229  0.2033  0.0447
 6863SOL    HW132051   4.719   0.867   3.641  1.0709 -1.0680 -0.3824
 6863SOL    HW232052   4.590   0.902   3.576 -0.2070  0.0889  0.5336
 6864SOL     OW32053   1.159   1.637  11.471  0.3805  0.6671 -0.1411
 6864SOL    HW132054   1.207   1.580  11.530 -0.5416  0.1632  0.1237
 6864SOL    HW232055   1.148   1.711  11.531 -0.2313  1.1981 -0.9101
 6865SOL     OW32056   0.450   2.505   6.357 -0.1450 -0.1362 -0.0764
 6865SOL    HW132057   0.461   2.412   6.336 -1.6373 -0.0933 -1.0946
 6865SOL    HW232058   0.540   2.528   6.379  0.0919 -0.0286 -1.1436
 6866SOL     OW32059   4.140   3.036   9.544 -0.0395  0.2679  0.4544
 6866SOL    HW132060   4.184   3.020   9.627 -1.5363 -0.1625  1.1688
 6866SOL    HW232061   4.163   3.127   9.526 -0.8045 -0.2298 -3.2030
 6867SOL     OW32062   1.238   4.332   7.427 -0.5390 -0.6877 -0.6777
 6867SOL    HW132063   1.196   4.273   7.490  2.2448 -0.3342  1.4960
 6867SOL    HW232064   1.280   4.396   7.484 -1.1943  0.9004 -1.9847
 6868SOL     OW32065   1.778   0.444   6.560 -0.3452 -0.6169 -0.2090
 6868SOL    HW132066   1.824   0.491   6.630 -1.4045 -0.5985  0.4787
 6868SOL    HW232067   1.739   0.369   6.604 -1.7332  0.3549  0.2106
 6869SOL     OW32068   0.543   1.895  11.992 -0.6471 -0.6775 -0.7326
 6869SOL    HW132069   0.472   1.878  12.055 -0.6077 -0.4054 -0.6171
 6869SOL    HW232070   0.492   1.910  11.913 -0.3462 -0.8466 -0.9605
 6870SOL     OW32071   0.402   0.836  15.871  0.1537  0.5832  0.0793
 6870SOL    HW132072   0.328   0.835  15.810 -0.7275  6.0307  1.0980
 6870SOL    HW232073   0.475   0.858  15.813  1.0771  0.3562  1.1650
 6871SOL     OW32074   1.155   0.365   8.450 -0.7788  0.0161  0.4456
 6871SOL    HW132075   1.169   0.301   8.380  0.4153 -0.2924  0.9610
 6871SOL    HW232076   1.234   0.418   8.441  0.9143 -2.1819  2.2646
 6872SOL     OW32077   2.141   0.531   4.045  0.6691  0.1134 -0.4255
 6872SOL    HW132078   2.186   0.552   3.963  1.7533 -1.4866 -0.2411
 6872SOL    HW232079   2.114   0.443   4.018 -1.5564  0.6358  0.0945
 6873SOL     OW32080   2.139   3.924   6.908 -0.2770 -0.3536  0.2819
 6873SOL    HW132081   2.139   3.841   6.860 -0.4797 -0.4094  0.3781
 6873SOL    HW232082   2.232   3.941   6.921 -0.1536  0.1108 -1.1328
 6874SOL     OW32083   1.964   2.905   0.381 -0.3730  0.4410 -0.1925
 6874SOL    HW132084   1.913   2.825   0.376 -0.8897  0.5186  3.6337
 6874SOL    HW232085   1.997   2.921   0.293 -0.2767 -0.5361 -0.3396
 6875SOL     OW32086   0.737   4.083  14.342  0.0956  0.3706  0.1338
 6875SOL    HW132087   0.726   4.152  14.276  0.3171 -0.9890 -1.3378
 6875SOL    HW232088   0.726   4.144  14.415 -1.8767 -0.2493  0.3699
 6876SOL     OW32089   4.118   4.163   9.595 -0.5024 -0.7265 -0.4192
 6876SOL    HW132090   4.066   4.173   9.675  0.7495  0.7333  0.2135
 6876SOL    HW232091   4.209   4.184   9.614 -0.3744 -0.6411 -1.1314
 6877SOL     OW32092   2.847   4.259  12.968  0.0430  0.1044  0.0256
 6877SOL    HW132093   2.875   4.284  12.880 -1.1773 -0.6560 -0.5767
 6877SOL    HW232094   2.931   4.225  12.998 -0.9776 -0.8443  1.7623
 6878SOL     OW32095   1.349   1.893   7.633 -0.3054  0.2831 -0.5908
 6878SOL    HW132096   1.436   1.930   7.643  0.6243 -1.8104 -0.8789
 6878SOL    HW232097   1.368   1.799   7.629 -1.8630 -0.0264 -1.1004
 6879SOL     OW32098   0.302   0.987  16.077 -0.4465 -0.3525  0.2278
 6879SOL    HW132099   0.249   0.939  16.141 -0.3410 -1.4007 -0.4639
 6879SOL    HW232100   0.339   0.921  16.018 -0.5496  0.3097 -0.5612
 6880SOL     OW32101   0.921   1.110  11.046  0.9164 -0.2933 -0.6873
 6880SOL    HW132102   0.902   1.127  10.953  0.2801 -0.2966 -0.5564
 6880SOL    HW232103   0.842   1.066  11.075  2.8700 -2.4546  1.3363
 6881SOL     OW32104   2.194   4.685   8.738  0.0009  0.4958  0.1268
 6881SOL    HW132105   2.113   4.690   8.687 -0.0868  3.1290  0.5309
 6881SOL    HW232106   2.258   4.642   8.681  0.1941  2.0103 -0.7940
 6882SOL     OW32107   1.148   1.253   6.281 -0.5768 -0.0458  0.6033
 6882SOL    HW132108   1.172   1.339   6.316 -0.9771 -0.4353  1.8539
 6882SOL    HW232109   1.135   1.270   6.188  1.9158  2.3217  0.6797
 6883SOL     OW32110   1.140   1.978  13.207 -0.1996  0.2522  0.6349
 6883SOL    HW132111   1.150   2.021  13.122 -0.5982 -2.7214 -0.8939
 6883SOL    HW232112   1.066   2.021  13.249 -0.9251 -0.8792  0.5123
 6884SOL     OW32113   0.368   3.906   1.424 -0.5694  0.4417  0.1903
 6884SOL    HW132114   0.327   3.837   1.372  1.3356  1.4837 -2.6935
 6884SOL    HW232115   0.381   3.975   1.358 -1.9849 -0.8258 -1.4120
 6885SOL     OW32116   3.456   1.661   0.251 -0.1600  0.6101  0.1443
 6885SOL    HW132117   3.446   1.731   0.314 -0.4913 -1.0491  1.9434
 6885SOL    HW232118   3.495   1.594   0.308  0.1292 -1.9185 -2.9986
 6886SOL     OW32119   1.899   2.783   3.627  0.1321 -0.0596  0.6276
 6886SOL    HW132120   1.898   2.796   3.532  0.1265  1.7372  0.8802
 6886SOL    HW232121   1.862   2.867   3.654  2.2928  1.2053 -0.2960
 6887SOL     OW32122   0.217   2.967   0.600 -0.1446  0.0190 -0.1341
 6887SOL    HW132123   0.124   2.976   0.579 -0.1656  0.8837  0.3660
 6887SOL    HW232124   0.242   3.033   0.664 -1.2825  0.3398 -0.0357
 6888SOL     OW32125   0.855   0.057   3.801  0.3212 -0.0046 -0.1395
 6888SOL    HW132126   0.894   4.707   3.844 -1.6707 -0.3208  1.1230
 6888SOL    HW232127   0.803   0.010   3.735 -0.7659  1.0054 -0.0050
 6889SOL     OW32128   3.062   1.549  12.089  0.1269  0.4412  0.2033
 6889SOL    HW132129   3.051   1.506  12.004 -1.4117 -0.9338  1.0906
 6889SOL    HW232130   3.103   1.633  12.072 -2.1964  0.6866 -4.2120
 6890SOL     OW32131   3.909   1.159   3.152 -0.0853 -0.5480  0.2640
 6890SOL    HW132132   3.847   1.117   3.211 -1.3932  2.8136  1.2892
 6890SOL    HW232133   3.968   1.194   3.219 -0.0630  0.9876 -0.5467
 6891SOL     OW32134   1.757   1.709   4.885  0.9517  0.0439  0.1210
 6891SOL    HW132135   1.823   1.739   4.823  0.0985  1.2817 -0.1855
 6891SOL    HW232136   1.681   1.706   4.826 -0.4064 -4.1168  2.0886
 6892SOL     OW32137   2.614   2.154   9.274 -0.4434 -0.1940  0.0189
 6892SOL    HW132138   2.532   2.154   9.224 -0.5039  0.9843  0.1300
 6892SOL    HW232139   2.677   2.178   9.206  0.8531 -2.1053  0.5382
 6893SOL     OW32140   1.322   0.608   4.424  0.2965  0.0869 -0.2111
 6893SOL    HW132141   1.331   0.674   4.492 -1.9315 -0.8253  0.9411
 6893SOL    HW232142   1.403   0.557   4.428  0.1803 -0.0573  0.2358
 6894SOL     OW32143   0.889   2.018   2.684  0.3019 -0.7559  0.6576
 6894SOL    HW132144   0.812   1.969   2.712 -0.5276 -0.9015 -1.8833
 6894SOL    HW232145   0.857   2.053   2.601  2.2161 -3.8839 -1.4078
 6895SOL     OW32146   1.361   4.661   6.028 -0.0723 -0.1768  0.1267
 6895SOL    HW132147   1.388   4.621   6.110 -1.1609 -0.5508  0.3071
 6895SOL    HW232148   1.294   4.601   5.994 -0.7921  0.0210  1.2035
 6896SOL     OW32149   1.067   2.752   4.597 -0.1601 -0.5946 -0.1479
 6896SOL    HW132150   0.979   2.789   4.600 -1.0192 -2.6760 -0.1777
 6896SOL    HW232151   1.087   2.763   4.505 -1.1055 -1.1368 -0.4196
 6897SOL     OW32152   4.056   0.848  10.669 -0.1953  0.0256 -0.6050
 6897SOL    HW132153   4.091   0.816  10.585  2.0771 -1.3249  0.8643
 6897SOL    HW232154   3.991   0.779  10.678  0.9034 -1.2338 -2.2798
 6898SOL     OW32155   2.605   0.984   9.314  0.1258 -0.9260  0.7126
 6898SOL    HW132156   2.674   1.026   9.263 -1.7021 -0.1577 -1.1154
 6898SOL    HW232157   2.652   0.979   9.398 -0.0698 -1.4545  0.7956
 6899SOL     OW32158   1.906   0.056   1.924  0.3598 -0.0255 -0.3826
 6899SOL    HW132159   1.936   0.012   2.003  0.7075  0.0615 -0.4656
 6899SOL    HW232160   1.957   0.008   1.859  1.5402  1.3290 -0.4488
 6900SOL     OW32161   3.532   3.932  15.339 -0.0103 -0.0874  0.1670
 6900SOL    HW132162   3.448   3.919  15.383  0.7290  0.7022  1.7996
 6900SOL    HW232163   3.543   4.027  15.337  0.1863 -0.0945  1.2867
 6901SOL     OW32164   1.080   1.739   7.380  0.5847 -0.5111  0.2638
 6901SOL    HW132165   1.092   1.701   7.467  0.0913 -0.2703  0.4375
 6901SOL    HW232166   1.063   1.660   7.330 -0.0854  0.1481 -0.5451
 6902SOL     OW32167   4.314   1.445   9.844  0.6412 -0.0776 -0.2097
 6902SOL    HW132168   4.367   1.408   9.773 -0.5236 -1.1579 -0.5169
 6902SOL    HW232169   4.365   1.526   9.854 -1.3486  1.0016  1.1090
 6903SOL     OW32170   1.175   4.717   2.889  0.3558  0.9771 -0.6799
 6903SOL    HW132171   1.201   0.064   2.832 -1.1329  2.0687  0.0577
 6903SOL    HW232172   1.215   0.036   2.964  2.6439 -1.0474 -0.6762
 6904SOL     OW32173   1.325   0.110   2.349  0.7785  0.0271 -0.0954
 6904SOL    HW132174   1.361   0.092   2.262  0.3537 -1.5843  0.0572
 6904SOL    HW232175   1.253   0.047   2.352  0.5572  0.4407  3.3719
 6905SOL     OW32176   1.674   0.171  16.549  0.5408  0.0322  0.2330
 6905SOL    HW132177   1.639   0.147  16.464 -1.7269  0.8553  0.9248
 6905SOL    HW232178   1.752   0.117  16.560 -0.2809 -1.4463 -1.2806
 6906SOL     OW32179   0.322   0.895   4.467  0.0110  0.3793  0.2163
 6906SOL    HW132180   0.272   0.824   4.509 -1.9609  0.2199 -2.4222
 6906SOL    HW232181   0.306   0.971   4.523 -1.8543  1.7207 -2.1639
 6907SOL     OW32182   2.920   0.599  10.061  0.1072  0.1897  0.0241
 6907SOL    HW132183   2.950   0.646   9.983 -2.4857 -0.2923 -1.2735
 6907SOL    HW232184   2.832   0.637  10.065  1.4007  3.2250  0.0408
 6908SOL     OW32185   1.651   2.535   6.336 -0.0289 -0.7726 -0.4882
 6908SOL    HW132186   1.707   2.582   6.397 -3.2451  2.4813 -0.0043
 6908SOL    HW232187   1.639   2.456   6.387 -0.1837 -0.9170 -0.7470
 6909SOL     OW32188   4.601   0.014   7.102 -0.1776 -0.5922 -0.1146
 6909SOL    HW132189   4.630   4.661   7.147  2.4545 -0.8595 -2.3115
 6909SOL    HW232190   4.553   0.064   7.168  1.3319  0.3372  0.2669
 6910SOL     OW32191   3.231   1.733   4.055 -0.5588  0.1879 -0.0975
 6910SOL    HW132192   3.257   1.797   4.121  0.8709 -0.7408  0.2267
 6910SOL    HW232193   3.141   1.716   4.084 -0.4204  2.4492  1.6376
 6911SOL     OW32194   2.752   1.342   3.503 -0.1861 -0.8350 -0.4046
 6911SOL    HW132195   2.820   1.316   3.441 -0.0318  2.4279 -1.6089
 6911SOL    HW232196   2.795   1.361   3.587  0.8093  0.6453 -1.2371
 6912SOL     OW32197   3.918   1.900   4.430 -0.0395  0.0527 -0.0753
 6912SOL    HW132198   3.856   1.972   4.428  0.8985  0.7721 -3.9686
 6912SOL    HW232199   3.957   1.901   4.343 -2.7072 -1.3123 -1.2695
 6913SOL     OW32200   0.169   2.497  11.024  0.0099 -0.4869  0.2399
 6913SOL    HW132201   0.092   2.546  11.055  0.5517  0.4814  0.0269
 6913SOL    HW232202   0.238   2.561  11.036 -0.3305 -0.3753  1.6801
 6914SOL     OW32203   2.947   3.560  15.146  0.0192  0.6714  0.2793
 6914SOL    HW132204   2.994   3.548  15.229  1.2108  2.0287 -0.2080
 6914SOL    HW232205   2.900   3.477  15.138 -0.5663  0.9453  0.8368
 6915SOL     OW32206   3.462   2.915  15.422  0.0214  0.6201 -0.5847
 6915SOL    HW132207   3.472   2.930  15.329  0.3165  0.1318 -0.6334
 6915SOL    HW232208   3.549   2.883  15.447  0.0776  0.6594 -0.7302
 6916SOL     OW32209   4.134   1.613  11.646  0.1471  0.0994 -0.0057
 6916SOL    HW132210   4.184   1.691  11.624  0.6376 -0.5332 -1.1008
 6916SOL    HW232211   4.048   1.648  11.668 -1.1267 -1.6312 -2.2326
 6917SOL     OW32212   3.482   2.562   2.712  0.0015 -0.3051 -0.2811
 6917SOL    HW132213   3.558   2.565   2.654  0.4680 -1.0655  0.2777
 6917SOL    HW232214   3.507   2.625   2.780 -1.9228  1.3662 -1.1365
 6918SOL     OW32215   2.567   4.440   8.806  0.2729 -0.5386  0.8195
 6918SOL    HW132216   2.540   4.470   8.893  1.5167  3.1801 -0.0489
 6918SOL    HW232217   2.556   4.347   8.825  0.0744 -0.4718  1.0266
 6919SOL     OW32218   4.357   3.710   9.051 -0.5865 -0.0725  0.1687
 6919SOL    HW132219   4.414   3.784   9.069 -1.4578  0.6250  0.0950
 6919SOL    HW232220   4.293   3.716   9.122 -1.1330  0.7380 -0.3881
 6920SOL     OW32221   0.167   0.940   6.194  0.0440  0.0473  0.4755
 6920SOL    HW132222   0.097   0.986   6.239  0.0056  0.0680  0.3950
 6920SOL    HW232223   0.117   0.866   6.159 -2.2375  1.4033  0.8400
 6921SOL     OW32224   3.507   4.146   4.578  0.0812  0.9570 -0.1709
 6921SOL    HW132225   3.556   4.110   4.651  0.4604  0.1543 -0.8254
 6921SOL    HW232226   3.574   4.136   4.511 -0.4829 -1.6904 -0.3370
 6922SOL     OW32227   2.201   0.804   8.278 -0.0517 -0.4284  0.0436
 6922SOL    HW132228   2.258   0.852   8.338 -0.2510 -1.3482  0.9687
 6922SOL    HW232229   2.251   0.724   8.265 -0.6289 -0.2474 -3.4140
 6923SOL     OW32230   2.583   1.106   5.746 -0.1144  0.6828  0.0589
 6923SOL    HW132231   2.652   1.087   5.682 -1.5230  0.6811 -1.4804
 6923SOL    HW232232   2.517   1.040   5.725 -0.7104  1.9254 -2.0000
 6924SOL     OW32233   4.104   0.527  11.433 -0.0086 -0.3578  0.2867
 6924SOL    HW132234   4.115   0.613  11.391 -1.4077  0.9634  2.6253
 6924SOL    HW232235   4.174   0.480  11.387  0.0824 -1.2008  1.2987
 6925SOL     OW32236   4.575   1.153   0.637 -0.4182 -0.5742 -0.0515
 6925SOL    HW132237   4.526   1.128   0.559  1.6563 -2.1564 -0.8653
 6925SOL    HW232238   4.515   1.218   0.673 -1.5763 -2.1722  0.9128
 6926SOL     OW32239   2.365   0.719   4.758 -0.4536 -0.0652  0.5989
 6926SOL    HW132240   2.452   0.692   4.788 -0.3223 -0.7635 -0.4307
 6926SOL    HW232241   2.327   0.634   4.737 -0.9013  0.7014 -1.7527
 6927SOL     OW32242   3.072   2.433   1.571 -0.4246  0.5598 -0.4619
 6927SOL    HW132243   3.105   2.348   1.599 -0.7022 -0.2294 -2.5352
 6927SOL    HW232244   2.978   2.430   1.593 -0.1760  0.3177  0.6013
 6928SOL     OW32245   4.187   4.322  10.597 -0.3742  0.2557  0.6978
 6928SOL    HW132246   4.144   4.237  10.602  0.2107 -0.0158  1.1567
 6928SOL    HW232247   4.257   4.303  10.659 -0.8145 -3.0085  0.1727
 6929SOL     OW32248   3.021   3.446   8.578 -0.8023 -0.1832  0.2880
 6929SOL    HW132249   2.989   3.380   8.517  0.6407  0.5755 -1.3309
 6929SOL    HW232250   3.067   3.498   8.511  2.3308 -1.8172  1.1447
 6930SOL     OW32251   3.710   3.229   7.839 -0.4180 -0.4078  0.0448
 6930SOL    HW132252   3.741   3.145   7.805 -0.5609 -0.5654  0.2984
 6930SOL    HW232253   3.620   3.224   7.806 -1.5532  0.1426  3.0258
 6931SOL     OW32254   4.533   0.595  16.721 -0.4229 -0.3492 -0.1247
 6931SOL    HW132255   4.563   0.683  16.742  0.5682 -1.2466  2.2274
 6931SOL    HW232256   4.604   0.562  16.666  0.4751  1.5253 -0.0922
 6932SOL     OW32257   3.268   2.653   3.947  0.0609 -0.1564 -0.0780
 6932SOL    HW132258   3.345   2.597   3.953  1.1631  1.4533  0.6996
 6932SOL    HW232259   3.193   2.599   3.975 -0.0549  0.5024  0.9043
 6933SOL     OW32260   0.279   1.290   0.719 -0.0859 -0.1577 -0.0874
 6933SOL    HW132261   0.301   1.288   0.812  1.0231  0.1797 -0.3509
 6933SOL    HW232262   0.208   1.225   0.716 -0.2107 -0.1159  1.8567
 6934SOL     OW32263   0.701   2.961  15.352 -0.4813 -0.8135  0.5383
 6934SOL    HW132264   0.725   2.981  15.261  0.1674 -1.8150  0.4911
 6934SOL    HW232265   0.607   2.971  15.342  0.2486  3.3586 -2.3132
 6935SOL     OW32266   3.174   4.087   7.177 -0.5023  0.1491 -0.3215
 6935SOL    HW132267   3.183   4.077   7.083 -1.1336 -1.4088 -0.2173
 6935SOL    HW232268   3.232   4.025   7.222  2.0038  1.2743 -2.0410
 6936SOL     OW32269   0.234   2.684   8.158  0.2530  0.3843 -0.2409
 6936SOL    HW132270   0.298   2.755   8.150 -1.1789  1.4141 -2.4363
 6936SOL    HW232271   0.152   2.730   8.173  0.2375  1.0828 -2.5801
 6937SOL     OW32272   3.720   4.413   7.344  0.6904 -0.7018 -0.0263
 6937SOL    HW132273   3.724   4.335   7.399 -0.3997 -0.5316  0.2944
 6937SOL    HW232274   3.814   4.427   7.333  1.1225 -2.6118  1.2589
 6938SOL     OW32275   1.401   4.217  17.645  0.0849  0.3713  0.1725
 6938SOL    HW132276   1.446   4.134  17.656  0.8107  0.5804 -1.2123
 6938SOL    HW232277   1.371   4.212  17.554  1.0433  0.7016 -0.1623
 6939SOL     OW32278   3.517   1.182  13.924  0.7204 -0.5031  0.0878
 6939SOL    HW132279   3.512   1.265  13.877  0.9035  1.2615  3.1345
 6939SOL    HW232280   3.478   1.116  13.868  1.7271 -0.2179 -0.9431
 6940SOL     OW32281   1.505   3.589   2.789  0.1489  0.0301  0.5124
 6940SOL    HW132282   1.588   3.635   2.800  0.3679 -0.9485  2.9571
 6940SOL    HW232283   1.527   3.532   2.715  0.1689  0.2563  0.3417
 6941SOL     OW32284   0.286   0.060   0.095  0.2272  0.2177 -0.3549
 6941SOL    HW132285   0.211   0.033   0.149  0.6096  0.3484  0.2360
 6941SOL    HW232286   0.360   0.033   0.149 -0.9326 -1.1451  0.5614
 6942SOL     OW32287   4.423   0.984   6.216  0.0823 -0.3869  0.3715
 6942SOL    HW132288   4.351   0.993   6.279 -0.2545 -1.2654  0.1055
 6942SOL    HW232289   4.380   0.968   6.132  1.3885 -1.0720 -0.1635
 6943SOL     OW32290   3.513   0.319  14.631  0.8050 -0.2489 -0.4849
 6943SOL    HW132291   3.466   0.303  14.713  0.5373 -0.3063 -0.6480
 6943SOL    HW232292   3.602   0.347  14.651  0.1259  0.8959  0.9537
 6944SOL     OW32293   4.232   0.469   4.344  0.2760  0.2465 -0.2612
 6944SOL    HW132294   4.282   0.449   4.264 -1.5631 -1.4790 -0.9731
 6944SOL    HW232295   4.154   0.418   4.324  0.7060  1.2148 -4.3965
 6945SOL     OW32296   1.981   0.494   8.777 -0.1127  0.2489 -1.0065
 6945SOL    HW132297   2.051   0.555   8.803  0.0486 -0.3226 -0.0861
 6945SOL    HW232298   2.038   0.424   8.746 -0.5913 -0.5762 -0.0242
 6946SOL     OW32299   0.398   0.723   2.646 -0.1522  0.1358  0.1745
 6946SOL    HW132300   0.333   0.793   2.651 -0.4064 -0.1545  0.8194
 6946SOL    HW232301   0.333   0.653   2.636 -0.1297  0.2885 -1.0994
 6947SOL     OW32302   1.461   0.241   8.235 -0.4469 -0.0997  0.0978
 6947SOL    HW132303   1.482   0.326   8.196 -1.0494 -0.3621 -0.8187
 6947SOL    HW232304   1.401   0.209   8.167 -0.1521  1.3901 -0.8749
 6948SOL     OW32305   4.569   2.482  10.442  0.6217  0.0616  0.1382
 6948SOL    HW132306   4.479   2.513  10.447  0.9799  0.7420  2.1606
 6948SOL    HW232307   4.550   2.408  10.500 -0.0334 -0.2055 -0.4211
 6949SOL     OW32308   3.441   2.241   4.658  0.1263  0.4902 -0.2677
 6949SOL    HW132309   3.457   2.278   4.571 -0.1881  0.6988 -0.2344
 6949SOL    HW232310   3.499   2.287   4.719 -0.2722 -1.3791  1.5539
 6950SOL     OW32311   2.306   4.625  17.243 -0.5015 -0.5741  0.2714
 6950SOL    HW132312   2.217   4.601  17.270  0.0238 -0.1135  2.4248
 6950SOL    HW232313   2.284   4.674  17.164  1.5400 -1.4823 -0.8684
 6951SOL     OW32314   0.414   4.638   7.701 -0.3157 -0.3121 -0.5148
 6951SOL    HW132315   0.392   4.682   7.783  0.0476 -0.4477 -0.3474
 6951SOL    HW232316   0.393   4.708   7.638  1.8209  0.0399 -0.8206
 6952SOL     OW32317   0.522   1.368   3.758  0.2667  0.2785  0.0781
 6952SOL    HW132318   0.487   1.338   3.842 -2.3951 -1.9407 -1.8569
 6952SOL    HW232319   0.469   1.446   3.739  0.6673  0.4031 -0.5371
 6953SOL     OW32320   1.265   4.346   2.883  0.6774  0.1551  0.3072
 6953SOL    HW132321   1.306   4.260   2.875  0.6911  0.0793  1.2346
 6953SOL    HW232322   1.257   4.366   2.976 -3.5668  0.1982 -0.0517
 6954SOL     OW32323   1.831   0.488   3.879  0.2652  0.0149 -0.5247
 6954SOL    HW132324   1.823   0.583   3.878 -1.6323 -0.1313  0.7296
 6954SOL    HW232325   1.739   0.464   3.893  1.0442 -2.7165  0.0453
 6955SOL     OW32326   2.453   1.980  14.097  0.0854  1.2368 -0.3261
 6955SOL    HW132327   2.406   1.923  14.036 -0.2757 -1.3443  2.4167
 6955SOL    HW232328   2.495   2.038  14.034  1.7028  0.9462  0.4920
 6956SOL     OW32329   3.499   1.828  12.347 -0.0361  0.1735  0.0668
 6956SOL    HW132330   3.581   1.829  12.396 -0.6697 -0.1591  1.1228
 6956SOL    HW232331   3.437   1.804  12.415 -1.2107 -0.4571 -1.2217
 6957SOL     OW32332   3.238   0.059   8.404 -0.2579 -0.1023 -0.1855
 6957SOL    HW132333   3.186   0.055   8.484  0.7177  0.1227  0.4573
 6957SOL    HW232334   3.295   4.711   8.425 -0.8876 -0.2962  0.8705
 6958SOL     OW32335   0.759   1.430   5.896 -0.2735  0.3538 -0.0927
 6958SOL    HW132336   0.790   1.341   5.912  2.1015  1.0854 -0.6089
 6958SOL    HW232337   0.848   1.463   5.883  0.1551 -0.8293 -0.1706
 6959SOL     OW32338   3.538   1.439  12.273 -0.6155 -0.1342 -0.4224
 6959SOL    HW132339   3.515   1.503  12.205  2.4171  0.9262 -0.4750
 6959SOL    HW232340   3.534   1.480  12.359  2.6125 -1.7711  0.5139
 6960SOL     OW32341   1.798   3.095  16.304 -0.6260 -0.0846  0.6775
 6960SOL    HW132342   1.853   3.018  16.290 -0.4120  0.3140 -0.6378
 6960SOL    HW232343   1.859   3.157  16.264  2.2912 -1.3716  3.0283
 6961SOL     OW32344   2.843   1.605   9.805  0.0021  0.1066  0.1882
 6961SOL    HW132345   2.939   1.611   9.798 -0.0510 -0.8084 -1.4176
 6961SOL    HW232346   2.821   1.688   9.762  0.6530  1.4492  2.4359
 6962SOL     OW32347   1.294   1.623   8.716  0.2094  0.1757 -0.0901
 6962SOL    HW132348   1.353   1.664   8.779  1.8103 -2.8138  0.3990
 6962SOL    HW232349   1.348   1.592   8.643 -1.5431  0.1940 -1.3754
 6963SOL     OW32350   4.035   0.324   0.463 -0.4354 -0.2118 -0.2418
 6963SOL    HW132351   3.987   0.351   0.541 -2.0835 -2.7688 -0.3794
 6963SOL    HW232352   3.988   0.370   0.393 -1.6782 -3.0538 -1.3105
 6964SOL     OW32353   0.919   2.148   2.104  0.4723 -0.0959  0.3363
 6964SOL    HW132354   0.953   2.100   2.180  1.1559  0.5966  0.4603
 6964SOL    HW232355   0.988   2.129   2.041 -0.1011 -2.0532  0.2798
 6965SOL     OW32356   0.115   1.926  13.233  0.2175  0.2368  0.2413
 6965SOL    HW132357   0.166   1.981  13.293  0.2573  0.2415  0.2030
 6965SOL    HW232358   0.156   1.934  13.147 -1.0144 -1.2949 -0.4911
 6966SOL     OW32359   4.161   4.674   8.973 -0.1942 -0.1761 -0.2900
 6966SOL    HW132360   4.112   4.595   8.995  2.4202 -1.9116 -0.6848
 6966SOL    HW232361   4.243   4.661   9.021  0.4442  0.9844 -1.0594
 6967SOL     OW32362   0.149   3.818   4.192  0.1652 -0.5029 -0.3482
 6967SOL    HW132363   0.136   3.880   4.121  1.4933  1.7769  1.4074
 6967SOL    HW232364   0.106   3.746   4.146  0.1042  0.6321 -2.0586
 6968SOL     OW32365   4.701   0.990   9.156  0.1080 -0.2449 -0.9086
 6968SOL    HW132366   4.647   0.920   9.120 -0.8054 -0.2288  0.4420
 6968SOL    HW232367   4.644   1.057   9.117  1.4475  0.8937 -0.9185
 6969SOL     OW32368   1.225   0.987   9.308 -0.4551  0.0655 -0.2648
 6969SOL    HW132369   1.303   0.939   9.335 -1.2876 -0.2401  1.6029
 6969SOL    HW232370   1.215   0.984   9.213  1.6359 -0.1710 -0.4747
 6970SOL     OW32371   3.240   1.950   2.603  0.0000  0.0822  0.3921
 6970SOL    HW132372   3.263   2.033   2.562  0.6175 -0.0755  0.4149
 6970SOL    HW232373   3.168   1.980   2.658 -0.6665 -0.9256  0.0655
 6971SOL     OW32374   4.536   0.295  11.633 -0.3280  0.0514 -0.1236
 6971SOL    HW132375   4.480   0.373  11.626  1.5977  1.3963 -0.4634
 6971SOL    HW232376   4.497   0.238  11.567  0.2102 -1.7653  1.1325
 6972SOL     OW32377   2.392   3.248  15.719  0.5075  0.1486 -0.1941
 6972SOL    HW132378   2.400   3.187  15.646 -0.8386 -0.8432  0.5049
 6972SOL    HW232379   2.379   3.188  15.792 -0.8773  0.1552 -0.4353
 6973SOL     OW32380   4.332   0.943   0.627  0.0621  0.1282  0.1372
 6973SOL    HW132381   4.325   1.013   0.562  2.1527 -0.4012 -0.6683
 6973SOL    HW232382   4.421   0.909   0.616 -0.4985 -1.9330  1.8510
 6974SOL     OW32383   3.643   4.534  14.068 -0.4515 -0.1295  0.3502
 6974SOL    HW132384   3.737   4.546  14.083 -0.1811 -2.1500  0.3099
 6974SOL    HW232385   3.612   4.617  14.104  0.3510  1.1818 -2.0209
 6975SOL     OW32386   1.165   3.118   7.238  0.3265 -0.1511 -0.5213
 6975SOL    HW132387   1.257   3.127   7.212  0.3446  1.0433 -0.0390
 6975SOL    HW232388   1.143   3.211   7.249  0.2733 -0.1855 -0.3511
 6976SOL     OW32389   0.575   3.100  12.059 -0.5183 -0.4279 -1.0105
 6976SOL    HW132390   0.529   3.019  12.081 -0.0019 -0.4363  0.0323
 6976SOL    HW232391   0.573   3.149  12.141 -2.4804  1.6137 -2.2745
 6977SOL     OW32392   2.298   0.787   7.811  0.2566 -0.2480 -0.0927
 6977SOL    HW132393   2.353   0.799   7.733 -0.7075  1.5332 -0.4861
 6977SOL    HW232394   2.221   0.842   7.798  0.6940  0.2772 -0.4154
 6978SOL     OW32395   2.800   3.807  15.153  0.3972  0.1562  0.3054
 6978SOL    HW132396   2.839   3.721  15.139  2.0099  1.2754 -2.2305
 6978SOL    HW232397   2.709   3.786  15.173  0.5924  1.1478  2.2299
 6979SOL     OW32398   4.199   0.158   2.485 -0.3139 -0.5276 -0.3015
 6979SOL    HW132399   4.228   0.219   2.418 -0.4140  0.4304  0.5264
 6979SOL    HW232400   4.109   0.143   2.455 -0.2165 -1.2263 -0.2408
 6980SOL     OW32401   2.652   3.524   2.534  0.6179  0.5465 -0.0179
 6980SOL    HW132402   2.630   3.532   2.441  0.0959  1.8646  0.2259
 6980SOL    HW232403   2.718   3.454   2.524 -0.5324 -0.7151  1.3086
 6981SOL     OW32404   3.540   3.337   4.583 -0.4684 -0.4379  0.0690
 6981SOL    HW132405   3.510   3.337   4.674 -1.0471  2.5611 -0.1338
 6981SOL    HW232406   3.482   3.265   4.556 -0.7477 -0.2970  0.2966
 6982SOL     OW32407   2.142   2.201   3.583 -0.0987  0.0491 -0.1038
 6982SOL    HW132408   2.057   2.178   3.620 -0.9576  1.8072 -0.9736
 6982SOL    HW232409   2.141   2.139   3.510 -0.0649 -1.0288  0.8216
 6983SOL     OW32410   3.577   3.430   6.764 -0.1847 -0.1960 -0.1867
 6983SOL    HW132411   3.583   3.414   6.858  2.2313  0.1709 -0.2849
 6983SOL    HW232412   3.575   3.341   6.729  2.2449 -0.2010 -0.3067
 6984SOL     OW32413   0.066   4.397   2.156  0.0951 -0.3182  0.4227
 6984SOL    HW132414   0.078   4.367   2.066  0.8923 -2.4547  1.2528
 6984SOL    HW232415   0.093   4.321   2.208  0.8151 -0.7017 -0.5210
 6985SOL     OW32416   3.005   3.873   0.107 -0.3588 -0.4728  0.2028
 6985SOL    HW132417   3.096   3.860   0.081 -0.6724 -0.4408 -0.8926
 6985SOL    HW232418   2.981   3.937   0.040 -2.6488 -2.1985 -0.6293
 6986SOL     OW32419   1.095   3.032   3.514 -0.4503 -0.0666  0.4781
 6986SOL    HW132420   1.100   3.023   3.418 -2.6394 -2.9980  0.6678
 6986SOL    HW232421   1.028   3.098   3.531  0.3365  0.0757  2.9662
 6987SOL     OW32422   1.008   0.369   9.000 -0.4341  0.4218  0.1031
 6987SOL    HW132423   1.039   0.280   8.988  0.7473  0.8184  0.1999
 6987SOL    HW232424   0.935   0.379   8.939  0.6642 -0.1216 -1.3046
 6988SOL     OW32425   3.243   4.257  16.877 -0.0709 -0.4293 -0.5764
 6988SOL    HW132426   3.158   4.219  16.898  0.4905 -1.6401 -0.5040
 6988SOL    HW232427   3.218   4.324  16.813 -1.5662 -1.1248 -0.7099
 6989SOL     OW32428   0.723   3.466   3.121  0.3323 -0.1261 -0.4710
 6989SOL    HW132429   0.796   3.503   3.172 -1.2569  1.7466  0.4411
 6989SOL    HW232430   0.655   3.513   3.168 -0.6471 -2.2955  0.2956
 6990SOL     OW32431   2.191   4.247  11.874  0.4011  0.1255 -0.1701
 6990SOL    HW132432   2.188   4.293  11.790 -1.6772 -1.2706 -0.8647
 6990SOL    HW232433   2.133   4.307  11.921  0.7907  0.2029  0.2164
 6991SOL     OW32434   2.960   2.470   3.777  0.1088  0.6225 -0.0486
 6991SOL    HW132435   3.045   2.479   3.735 -1.2822  0.1048 -3.0407
 6991SOL    HW232436   2.905   2.472   3.698 -0.6094 -1.4166  0.3931
 6992SOL     OW32437   1.097   3.116   9.981  0.0542  0.3300 -0.5313
 6992SOL    HW132438   1.159   3.137   9.911 -0.2595  0.3672 -0.7984
 6992SOL    HW232439   1.088   3.202  10.022  2.3386  0.0947  0.4411
 6993SOL     OW32440   2.734   4.357   5.429 -0.2019  0.9537 -0.3128
 6993SOL    HW132441   2.735   4.355   5.333  2.0589 -0.0614 -0.2610
 6993SOL    HW232442   2.788   4.431   5.455  1.4196 -0.1391 -0.5992
 6994SOL     OW32443   1.455   1.682   9.683  0.2472 -0.2612  0.5390
 6994SOL    HW132444   1.447   1.591   9.714 -0.4999  0.1325  1.5184
 6994SOL    HW232445   1.540   1.695   9.723  0.2564  0.7155  0.2022
 6995SOL     OW32446   4.291   4.312  11.570 -0.3373 -0.5492 -0.0345
 6995SOL    HW132447   4.345   4.256  11.514 -0.0097 -0.5212  0.2593
 6995SOL    HW232448   4.205   4.281  11.541 -1.5498  2.3281  0.4352
 6996SOL     OW32449   3.033   0.247   1.110 -0.0297 -0.3982  0.0630
 6996SOL    HW132450   3.111   0.192   1.108  0.3358  0.0830  1.1570
 6996SOL    HW232451   3.066   0.332   1.082 -0.2260 -0.6895 -1.0318
 6997SOL     OW32452   4.210   1.175   3.789  0.0154 -0.2692  0.2339
 6997SOL    HW132453   4.215   1.106   3.722  1.2566 -1.3995  1.4899
 6997SOL    HW232454   4.253   1.126   3.859 -0.3979 -1.1812 -0.1500
 6998SOL     OW32455   1.330   1.217   8.423  0.0265 -0.0719  0.2311
 6998SOL    HW132456   1.362   1.131   8.451  1.3641  0.6751  0.9915
 6998SOL    HW232457   1.253   1.223   8.480 -0.6718 -0.2212 -0.6987
 6999SOL     OW32458   4.327   1.370   8.517  0.0795 -0.8084  0.0742
 6999SOL    HW132459   4.381   1.440   8.554  1.0762 -1.3004 -0.4375
 6999SOL    HW232460   4.342   1.301   8.581 -0.1141  0.9506  2.0234
 7000SOL     OW32461   2.610   0.511   5.230 -0.1493  0.8774  0.2023
 7000SOL    HW132462   2.695   0.520   5.272 -0.3006  0.3259  0.6316
 7000SOL    HW232463   2.565   0.442   5.278  1.8676 -1.0171 -0.6537
 7001SOL     OW32464   4.148   4.512   8.413 -0.8004  0.1018  0.7511
 7001SOL    HW132465   4.141   4.574   8.485 -0.4884  0.9868  0.0146
 7001SOL    HW232466   4.242   4.500   8.396 -1.1393  1.1463 -1.8051
 7002SOL     OW32467   3.915   4.382   8.486 -0.0273  0.5981 -0.5850
 7002SOL    HW132468   4.002   4.419   8.471  0.2685  0.1879  0.0949
 7002SOL    HW232469   3.860   4.459   8.498 -0.6087  0.3252 -1.5394
 7003SOL     OW32470   4.244   2.829   3.388 -0.1018 -0.3627  0.1264
 7003SOL    HW132471   4.164   2.789   3.355  0.6368 -2.1739  0.4691
 7003SOL    HW232472   4.309   2.775   3.342  0.6071  0.2180  0.4414
 7004SOL     OW32473   0.202   0.899   2.537 -0.1899 -0.3090 -0.4297
 7004SOL    HW132474   0.268   0.968   2.539 -1.5568  0.9824  0.5959
 7004SOL    HW232475   0.203   0.883   2.443  0.9749  0.0987 -0.4802
 7005SOL     OW32476   1.772   4.631   6.514 -0.1654  0.6162  0.3137
 7005SOL    HW132477   1.698   4.633   6.574 -0.2554 -0.0234  0.2286
 7005SOL    HW232478   1.746   4.555   6.461  1.1466  1.4916 -1.6264
 7006SOL     OW32479   4.008   1.107   4.382  1.1188 -0.0437  0.1324
 7006SOL    HW132480   4.098   1.082   4.400  1.5021  2.0175  1.1683
 7006SOL    HW232481   4.012   1.135   4.290  0.0661  0.7233  0.3156
 7007SOL     OW32482   1.417   1.687   3.172 -0.0435  0.5341  0.1142
 7007SOL    HW132483   1.347   1.645   3.122  0.3625 -1.5073  1.2722
 7007SOL    HW232484   1.403   1.772   3.130  0.2298  1.0804  1.1246
 7008SOL     OW32485   3.576   1.031   0.473 -0.2110 -0.0747  0.4875
 7008SOL    HW132486   3.519   0.971   0.521  0.0395 -1.5988 -1.0990
 7008SOL    HW232487   3.618   1.070   0.549  0.5992 -1.8293  0.9436
 7009SOL     OW32488   0.629   3.451   5.096 -0.1845 -0.1158  0.3759
 7009SOL    HW132489   0.676   3.370   5.075 -0.3898  0.1198 -0.9711
 7009SOL    HW232490   0.704   3.509   5.107  0.7395 -1.2504  0.0630
 7010SOL     OW32491   3.266   2.143   4.834  0.1598  1.0023 -0.1378
 7010SOL    HW132492   3.316   2.195   4.897  3.3996 -0.8330 -1.2066
 7010SOL    HW232493   3.311   2.176   4.756  0.4586 -0.7169 -0.6862
 7011SOL     OW32494   0.615   1.564   5.689 -0.1963  0.0708 -0.5827
 7011SOL    HW132495   0.657   1.649   5.698 -0.0047 -0.1438  0.5485
 7011SOL    HW232496   0.648   1.510   5.761  1.7237  0.4474 -1.1742
 7012SOL     OW32497   0.700   2.592   4.212 -0.1881  0.4889  0.0025
 7012SOL    HW132498   0.681   2.668   4.157  0.0889  0.6591  0.1419
 7012SOL    HW232499   0.627   2.613   4.270 -0.6935  0.5373 -0.6525
 7013SOL     OW32500   4.039   1.810  14.650  0.7762 -0.2967 -0.8507
 7013SOL    HW132501   4.029   1.899  14.618 -1.1785 -0.4359 -0.6240
 7013SOL    HW232502   4.133   1.816  14.668  0.6435  0.5425 -0.4388
 7014SOL     OW32503   4.107   4.074  12.048  0.9242 -0.1303 -0.2747
 7014SOL    HW132504   4.037   4.010  12.037  1.6763 -1.4009  2.5537
 7014SOL    HW232505   4.118   4.124  11.967  0.4388  1.6152  0.7404
 7015SOL     OW32506   4.049   3.229   2.758  0.0126 -0.7616  0.2113
 7015SOL    HW132507   4.131   3.249   2.713 -1.1240  0.9725 -1.1116
 7015SOL    HW232508   4.007   3.193   2.680 -0.0556  0.0505 -0.1251
 7016SOL     OW32509   4.527   2.594  10.852  0.6273 -0.4158  0.1065
 7016SOL    HW132510   4.593   2.572  10.918  1.1225 -2.0078 -0.8885
 7016SOL    HW232511   4.524   2.688  10.840 -0.1391 -0.6274 -1.3474
 7017SOL     OW32512   0.279   3.108   1.880 -0.2556 -0.1373  0.1562
 7017SOL    HW132513   0.259   3.079   1.969 -0.4022 -4.7604 -1.3469
 7017SOL    HW232514   0.262   3.201   1.891 -2.6171 -0.4857 -0.6434
 7018SOL     OW32515   0.700   1.965   0.334  0.1640 -0.7829  0.1334
 7018SOL    HW132516   0.611   1.988   0.362  0.1247 -0.0811 -0.5796
 7018SOL    HW232517   0.753   2.026   0.386 -2.8271  1.7122  0.2545
 7019SOL     OW32518   4.479   4.298   2.724 -0.9090 -0.1963 -0.2299
 7019SOL    HW132519   4.474   4.257   2.810  1.9963 -0.9633 -0.4146
 7019SOL    HW232520   4.502   4.216   2.680 -0.6246 -0.5923  0.6477
 7020SOL     OW32521   4.669   2.359   1.826  0.2560  0.1642 -0.5749
 7020SOL    HW132522   4.712   2.277   1.800 -2.3286 -0.7785 -1.8360
 7020SOL    HW232523   0.017   2.417   1.808  1.0509 -0.5582  0.2948
 7021SOL     OW32524   4.457   2.958   2.239  0.2478 -0.3928 -0.0992
 7021SOL    HW132525   4.400   2.893   2.198 -0.2718 -0.1884  0.3013
 7021SOL    HW232526   4.464   3.033   2.180 -0.3267  0.9769  1.5693
 7022SOL     OW32527   1.390   0.759   2.523  0.5266 -0.0740  0.3492
 7022SOL    HW132528   1.348   0.729   2.443  3.1152  1.1203 -1.4627
 7022SOL    HW232529   1.365   0.685   2.579  0.0081  0.1787  0.4511
 7023SOL     OW32530   1.425   4.046   1.052  0.7019 -0.3568 -0.2799
 7023SOL    HW132531   1.514   4.050   1.087  0.3622  2.2281  0.2719
 7023SOL    HW232532   1.400   3.976   1.113  2.1910 -1.4870 -0.9667
 7024SOL     OW32533   4.546   4.496   6.125 -0.2952  0.5816 -0.0403
 7024SOL    HW132534   4.453   4.510   6.141 -0.6749 -1.7315 -0.1511
 7024SOL    HW232535   4.581   4.530   6.207  2.1431 -3.9701  0.8000
 7025SOL     OW32536   3.902   0.392  10.646 -0.7308  0.2485 -0.0861
 7025SOL    HW132537   3.950   0.323  10.599  0.4311  0.3163  0.9975
 7025SOL    HW232538   3.845   0.342  10.706  0.7111 -1.7917 -0.3981
 7026SOL     OW32539   3.418   4.105   7.645  0.3476 -0.0825 -0.1824
 7026SOL    HW132540   3.426   4.066   7.732 -0.2433 -0.3484 -0.2431
 7026SOL    HW232541   3.448   4.194   7.666  0.0918  0.1099 -0.6344
 7027SOL     OW32542   1.739   4.157   7.148  0.2520  0.1762 -0.4851
 7027SOL    HW132543   1.782   4.127   7.068 -1.5840  1.6366 -2.0094
 7027SOL    HW232544   1.803   4.221   7.180  0.7950 -1.0724  0.9396
 7028SOL     OW32545   0.913   0.170   1.676 -0.3386 -0.0745  0.5687
 7028SOL    HW132546   0.973   0.236   1.639  0.1204 -0.1670  1.1518
 7028SOL    HW232547   0.832   0.200   1.636 -0.6509 -1.9448 -0.1630
 7029SOL     OW32548   4.527   0.932  11.319  0.6166  0.1403  0.5101
 7029SOL    HW132549   4.478   0.978  11.252 -0.9403  0.0324  1.5768
 7029SOL    HW232550   4.558   0.856  11.269 -0.0980  0.3083 -0.1868
 7030SOL     OW32551   0.433   2.260  15.756  0.1872  0.5128 -0.5077
 7030SOL    HW132552   0.363   2.324  15.745 -2.3752 -2.5114 -1.6475
 7030SOL    HW232553   0.501   2.319  15.790 -1.2658  0.9350  1.6196
 7031SOL     OW32554   2.990   3.129   5.641  0.3460  0.1120  0.5637
 7031SOL    HW132555   3.059   3.195   5.650 -0.8242  1.4282 -0.2034
 7031SOL    HW232556   3.001   3.107   5.549  0.0913 -1.4597  0.9005
 7032SOL     OW32557   0.597   0.944   8.669 -0.3355 -0.2935  0.2628
 7032SOL    HW132558   0.553   0.910   8.591  0.1336 -1.7774  0.6502
 7032SOL    HW232559   0.675   0.889   8.666  0.0320  0.1448  1.6979
 7033SOL     OW32560   3.369   1.359   1.205  0.1452 -0.3387  0.3880
 7033SOL    HW132561   3.380   1.278   1.254 -0.8791 -1.2951 -0.9431
 7033SOL    HW232562   3.447   1.407   1.233  1.2092  0.9747 -4.7646
 7034SOL     OW32563   2.276   2.080   4.520 -0.3997  0.2247 -0.2575
 7034SOL    HW132564   2.250   2.061   4.429 -4.0993 -1.3169  1.1101
 7034SOL    HW232565   2.339   2.151   4.505 -0.2159  0.2097  0.4343
 7035SOL     OW32566   0.033   3.558   4.123  0.9127  0.6958 -0.1486
 7035SOL    HW132567   4.693   3.587   4.060  2.4579  1.9113 -1.1971
 7035SOL    HW232568   0.077   3.486   4.078  0.8572  0.6420 -0.1173
 7036SOL     OW32569   0.946   3.148   0.391 -0.1504 -0.0902 -0.0222
 7036SOL    HW132570   1.033   3.169   0.357  0.5989 -2.4820  0.4337
 7036SOL    HW232571   0.904   3.220   0.344 -0.5242  0.3679  0.9931
 7037SOL     OW32572   1.399   0.582   6.958  0.5017  0.0438 -0.5418
 7037SOL    HW132573   1.335   0.645   6.991  3.1509  1.7923  1.3092
 7037SOL    HW232574   1.457   0.566   7.032 -0.0581 -2.0339 -0.5639
 7038SOL     OW32575   2.802   1.883   2.705 -0.0188 -0.0399  0.4324
 7038SOL    HW132576   2.745   1.950   2.743 -0.5178 -0.4299  0.3695
 7038SOL    HW232577   2.871   1.946   2.681  1.5313 -0.8991  2.6396
 7039SOL     OW32578   4.125   0.273   3.013  0.1603  0.2486 -0.4763
 7039SOL    HW132579   4.075   0.222   2.949 -0.0537 -1.4866  1.0736
 7039SOL    HW232580   4.205   0.293   2.965  0.4507 -2.9886 -1.3553
 7040SOL     OW32581   1.914   1.637  13.122 -0.1981  0.2792 -0.2286
 7040SOL    HW132582   1.858   1.566  13.154 -1.2114  0.7549 -0.9633
 7040SOL    HW232583   1.868   1.667  13.043  1.4302  0.4733 -1.0921
 7041SOL     OW32584   2.568   4.599   6.851 -0.6031  0.6660 -0.1991
 7041SOL    HW132585   2.539   4.527   6.906 -0.6272  0.6996 -0.1676
 7041SOL    HW232586   2.652   4.630   6.886  0.2759 -2.4943  0.4619
 7042SOL     OW32587   2.786   3.706   6.139 -0.0787  0.4200  0.0043
 7042SOL    HW132588   2.715   3.745   6.087 -2.2891  0.5853  3.1851
 7042SOL    HW232589   2.751   3.637   6.195  1.8490 -1.2613 -0.8909
 7043SOL     OW32590   0.909   2.462  11.885  0.2946 -0.1719  0.2268
 7043SOL    HW132591   0.946   2.412  11.812 -2.2944  1.2549 -2.0946
 7043SOL    HW232592   0.939   2.544  11.846 -0.6291 -0.1862 -0.5175
 7044SOL     OW32593   1.565   3.183   9.789  0.2270 -0.3334 -0.6654
 7044SOL    HW132594   1.471   3.185   9.810 -0.2127 -2.9844 -2.4607
 7044SOL    HW232595   1.558   3.156   9.698 -1.3470  0.8607 -0.8920
 7045SOL     OW32596   0.369   4.520   7.119  0.0118 -0.6822  0.1591
 7045SOL    HW132597   0.431   4.457   7.154 -0.2739 -0.7886  0.4709
 7045SOL    HW232598   0.420   4.600   7.131  0.9363 -0.7325 -3.4642
 7046SOL     OW32599   2.236   0.455   5.437  0.0947 -0.7791 -0.4569
 7046SOL    HW132600   2.214   0.548   5.426  0.9776 -0.6297 -0.9649
 7046SOL    HW232601   2.210   0.429   5.526  0.2477  1.5247  0.2617
 7047SOL     OW32602   2.727   3.190  14.673 -0.5179  0.3649 -0.3380
 7047SOL    HW132603   2.770   3.273  14.653 -1.9551  0.3443 -3.5332
 7047SOL    HW232604   2.782   3.150  14.740  0.6355  0.7672 -1.0431
 7048SOL     OW32605   2.695   0.106  15.304  0.0482 -0.4832 -0.0696
 7048SOL    HW132606   2.716   0.078  15.215  2.2503 -0.4456  0.4293
 7048SOL    HW232607   2.738   0.192  15.303 -0.8005 -0.0926 -3.7660
 7049SOL     OW32608   3.334   4.628   7.687  0.2194 -0.0974  0.0191
 7049SOL    HW132609   3.357   4.720   7.674  2.8353 -1.1917 -3.0939
 7049SOL    HW232610   3.259   4.611   7.630  0.5300  0.2888 -0.5090
 7050SOL     OW32611   2.084   1.996   3.408 -0.1813  0.1302 -0.0876
 7050SOL    HW132612   2.036   1.914   3.392  2.2864 -1.3167  0.0175
 7050SOL    HW232613   2.031   2.055   3.353 -0.4753  1.1998  1.3429
 7051SOL     OW32614   0.429   2.855  12.593  0.1531 -0.8162 -0.1289
 7051SOL    HW132615   0.376   2.890  12.665 -0.8451 -1.6781 -0.4470
 7051SOL    HW232616   0.490   2.792  12.632 -0.2849 -0.8062  0.5764
 7052SOL     OW32617   0.361   2.282  12.353  0.1054  0.1039 -0.0539
 7052SOL    HW132618   0.352   2.211  12.417  0.8110  0.6197  0.6157
 7052SOL    HW232619   0.318   2.246  12.275  3.2567  1.1880 -2.2926
 7053SOL     OW32620   3.993   0.768   0.189  0.0696 -0.0787 -0.0104
 7053SOL    HW132621   4.082   0.745   0.214  0.0424  1.2360  1.3063
 7053SOL    HW232622   4.006   0.765   0.094  0.5301  1.2024  0.0090
 7054SOL     OW32623   4.438   2.122  11.470  0.1803 -0.2976  0.1047
 7054SOL    HW132624   4.514   2.139  11.525  1.8146  0.8417 -2.5493
 7054SOL    HW232625   4.467   2.040  11.431 -1.2253 -0.7356 -0.0386
 7055SOL     OW32626   1.722   3.701  14.779  0.7131 -0.0584 -0.4626
 7055SOL    HW132627   1.760   3.623  14.818 -0.0185 -0.0455  0.2778
 7055SOL    HW232628   1.786   3.765  14.813  1.9367  0.1139 -3.1206
 7056SOL     OW32629   3.482   1.184   3.637  0.1524  0.4593  0.4414
 7056SOL    HW132630   3.536   1.260   3.661 -0.4318  1.0900 -0.2283
 7056SOL    HW232631   3.411   1.241   3.607 -0.0935  0.1844  0.5033
 7057SOL     OW32632   0.836   1.177   5.907 -0.0699  0.3672 -0.8732
 7057SOL    HW132633   0.804   1.096   5.947 -0.9679  1.5003  0.6902
 7057SOL    HW232634   0.931   1.162   5.912 -0.1457  0.1098 -0.2585
 7058SOL     OW32635   2.296   0.052   5.789  0.2108  0.0682 -0.3687
 7058SOL    HW132636   2.219   0.012   5.830  1.1103  0.0786  1.3489
 7058SOL    HW232637   2.354   0.067   5.864  0.1181 -0.0953 -0.2654
 7059SOL     OW32638   2.984   0.840   5.603 -0.0199 -0.3350 -0.2170
 7059SOL    HW132639   3.026   0.835   5.518 -1.9881  1.0284 -1.2757
 7059SOL    HW232640   2.995   0.750   5.633  0.1577 -2.0263 -5.4269
 7060SOL     OW32641   4.574   4.080   3.619  0.2161  0.7091  0.1199
 7060SOL    HW132642   4.655   4.130   3.617  1.4747 -1.2759  0.9289
 7060SOL    HW232643   4.536   4.086   3.532  2.1815 -0.1586 -0.8070
 7061SOL     OW32644   1.315   4.081   3.257 -0.2151  0.0495  0.0108
 7061SOL    HW132645   1.263   4.103   3.335  0.7506  4.0709 -0.5101
 7061SOL    HW232646   1.406   4.075   3.284 -0.1862 -0.2792 -0.1647
 7062SOL     OW32647   3.623   2.146   6.049 -0.5839  0.1033  0.2997
 7062SOL    HW132648   3.658   2.214   5.992  1.2221  0.1610  1.4492
 7062SOL    HW232649   3.693   2.122   6.110  0.2179  0.1593 -0.6012
 7063SOL     OW32650   4.653   2.644   4.048 -0.1850 -0.1163 -0.3610
 7063SOL    HW132651   4.719   2.707   4.016  0.7863 -0.3043  1.2662
 7063SOL    HW232652   4.600   2.626   3.971 -1.1380  0.7926  0.0920
 7064SOL     OW32653   3.921   4.475   4.101 -0.0308 -0.0783  0.2287
 7064SOL    HW132654   3.891   4.449   4.188  0.6739  0.8938  0.7540
 7064SOL    HW232655   3.984   4.541   4.129  1.3668 -1.1066 -0.4655
 7065SOL     OW32656   2.259   1.607   5.240  0.2789 -0.2584  0.2155
 7065SOL    HW132657   2.192   1.636   5.302 -0.4299 -0.6205 -0.3904
 7065SOL    HW232658   2.236   1.516   5.223 -1.0115  0.0440  0.3241
 7066SOL     OW32659   4.148   2.586   1.090  0.0686  0.0604 -0.8827
 7066SOL    HW132660   4.195   2.502   1.089  0.7339  0.3967  1.6934
 7066SOL    HW232661   4.215   2.649   1.116 -1.6387  1.5309 -0.0754
 7067SOL     OW32662   0.065   3.084   5.906 -0.0373  0.3387  0.3417
 7067SOL    HW132663   0.038   3.013   5.965 -1.7407 -1.7487 -2.9398
 7067SOL    HW232664   4.708   3.126   5.886 -0.9396 -0.8436  1.5929
 7068SOL     OW32665   0.481   0.019   8.798 -0.1026 -0.7386  0.1783
 7068SOL    HW132666   0.402   4.693   8.812  1.3103 -3.1466 -0.4952
 7068SOL    HW232667   0.558   4.687   8.804 -0.3670 -0.9322  1.9563
 7069SOL     OW32668   2.137   4.676   4.631  0.3412 -0.3982  0.1399
 7069SOL    HW132669   2.135   4.585   4.663  1.2896 -0.2520  0.6341
 7069SOL    HW232670   2.096   4.678   4.545  0.8144  0.5018 -0.0572
 7070SOL     OW32671   1.559   2.833   3.068  0.6309  0.4593  0.3388
 7070SOL    HW132672   1.513   2.802   3.146  1.2354 -0.0249  0.5028
 7070SOL    HW232673   1.484   2.822   3.009  2.1915 -0.6590 -1.4567
 7071SOL     OW32674   1.202   1.103  11.474  0.2700  0.2013  0.5758
 7071SOL    HW132675   1.149   1.122  11.396 -1.5759 -0.4931  1.6576
 7071SOL    HW232676   1.222   1.190  11.508 -0.3891  0.5032  0.2108
 7072SOL     OW32677   3.351   0.526   3.145 -0.1045 -0.0447 -0.0869
 7072SOL    HW132678   3.402   0.448   3.167  2.2406  1.1840 -1.0993
 7072SOL    HW232679   3.276   0.485   3.102 -0.0486 -0.8226  0.5434
 7073SOL     OW32680   2.590   0.759   4.343 -0.2325  0.0885  0.1210
 7073SOL    HW132681   2.565   0.850   4.360  1.1448  0.8052 -1.7154
 7073SOL    HW232682   2.686   0.764   4.351 -0.4073  1.1456  1.5390
 7074SOL     OW32683   0.909   2.463  12.152 -0.3011  0.4899 -0.1271
 7074SOL    HW132684   0.842   2.394  12.143 -0.7605  0.9157  0.0323
 7074SOL    HW232685   0.935   2.466  12.060  1.4573  0.9600  0.3770
 7075SOL     OW32686   1.546   1.987   5.912  0.4498  0.3438 -0.7569
 7075SOL    HW132687   1.496   2.016   5.988 -0.7650 -0.8187 -1.1086
 7075SOL    HW232688   1.583   2.070   5.883 -0.8136  1.6468  1.4647
 7076SOL     OW32689   1.818   1.982   4.137 -0.0397 -0.4591 -0.0030
 7076SOL    HW132690   1.813   2.052   4.202 -0.3147  0.7623 -1.3521
 7076SOL    HW232691   1.736   2.005   4.093 -0.0602 -1.1911 -0.3413
 7077SOL     OW32692   3.311   3.633  16.264 -0.1544  0.0452  0.3715
 7077SOL    HW132693   3.364   3.643  16.343  0.0000  1.0009  0.1495
 7077SOL    HW232694   3.378   3.669  16.206  0.7631  0.6273  1.7876
 7078SOL     OW32695   0.103   3.460   6.192 -0.4701 -0.0202 -0.1253
 7078SOL    HW132696   0.168   3.402   6.153 -0.1866 -1.0451  1.8591
 7078SOL    HW232697   0.147   3.480   6.274  0.0865  0.6705 -0.5915
 7079SOL     OW32698   0.474   1.245   9.060 -0.4247 -0.1076 -0.2106
 7079SOL    HW132699   0.398   1.197   9.092  1.3282 -0.6161  3.2620
 7079SOL    HW232700   0.499   1.195   8.983  0.5268 -0.3580  0.2509
 7080SOL     OW32701   2.337   2.283  11.857  0.1718 -0.8978 -0.5672
 7080SOL    HW132702   2.430   2.264  11.853  0.3122 -0.7181  1.9311
 7080SOL    HW232703   2.298   2.225  11.791 -3.9137  0.9807  0.1743
 7081SOL     OW32704   2.139   2.234   7.590 -0.2264 -0.6882 -0.1217
 7081SOL    HW132705   2.057   2.230   7.639  1.3440 -5.0966  2.1947
 7081SOL    HW232706   2.128   2.152   7.541 -1.4175 -0.5657 -0.0707
 7082SOL     OW32707   2.032   2.515  16.546  0.1242  0.0701 -0.0875
 7082SOL    HW132708   1.960   2.575  16.563 -0.5896 -0.5357 -0.9559
 7082SOL    HW232709   2.024   2.482  16.635 -0.8073  0.3856 -0.0600
 7083SOL     OW32710   2.209   3.966   5.425 -0.0701 -0.2787 -0.4235
 7083SOL    HW132711   2.157   3.891   5.396 -0.7805 -0.2377  0.7212
 7083SOL    HW232712   2.296   3.943   5.392 -0.1993  0.5152 -1.3129
 7084SOL     OW32713   1.731   3.311   5.913 -0.0940  0.5111  0.4447
 7084SOL    HW132714   1.673   3.264   5.972  1.0878  0.9669  1.9582
 7084SOL    HW232715   1.730   3.399   5.951  5.1688  0.0358  1.6495
 7085SOL     OW32716   1.840   1.817   3.263  0.4097  0.2920  0.6090
 7085SOL    HW132717   1.803   1.731   3.243  0.6761 -0.3836  3.0753
 7085SOL    HW232718   1.913   1.808   3.202  1.4623 -0.9217  2.0729
 7086SOL     OW32719   3.403   4.547   5.326 -0.1357  0.0964 -0.8638
 7086SOL    HW132720   3.366   4.566   5.412 -0.4588  0.5075 -1.0913
 7086SOL    HW232721   3.386   4.630   5.280  0.0582  0.5677 -0.0924
 7087SOL     OW32722   0.308   1.706   2.448 -0.2317  0.0532  0.0384
 7087SOL    HW132723   0.305   1.795   2.415  0.3273  0.3167  0.6993
 7087SOL    HW232724   0.258   1.661   2.380 -0.5220  0.4823 -0.0281
 7088SOL     OW32725   1.744   2.305   6.908 -0.7058 -0.2130  0.1149
 7088SOL    HW132726   1.747   2.242   6.837 -0.8789  1.1313 -1.1003
 7088SOL    HW232727   1.827   2.351   6.898 -0.6675 -0.1676  0.6435
 7089SOL     OW32728   3.566   1.768   8.033  0.0717 -0.6982 -0.0754
 7089SOL    HW132729   3.552   1.862   8.042  1.9702 -0.4538  0.2053
 7089SOL    HW232730   3.486   1.752   7.983  0.7288 -1.3274 -0.9058
 7090SOL     OW32731   2.548   2.596   2.284 -0.6409  0.4045  0.2814
 7090SOL    HW132732   2.584   2.519   2.328 -0.0766  0.5063  0.0012
 7090SOL    HW232733   2.476   2.606   2.346 -1.0375  0.6057 -0.2065
 7091SOL     OW32734   1.543   1.040  13.879  0.4779 -0.7481 -0.1097
 7091SOL    HW132735   1.555   0.949  13.907 -0.4285 -1.3716 -1.7303
 7091SOL    HW232736   1.500   1.073  13.959  0.4864  0.1814 -0.4857
 7092SOL     OW32737   2.229   0.131   7.298  0.5693  0.6830 -0.0400
 7092SOL    HW132738   2.146   0.094   7.327  1.2504 -1.0838 -0.3534
 7092SOL    HW232739   2.287   0.116   7.373  1.6790 -0.5155 -1.1351
 7093SOL     OW32740   2.088   3.104  16.169 -0.0866 -0.4644  0.3319
 7093SOL    HW132741   2.046   3.019  16.187  0.1534 -0.8459 -0.9225
 7093SOL    HW232742   2.132   3.093  16.085 -0.3800 -0.6577  0.2036
 7094SOL     OW32743   3.383   2.030   7.765  0.1572  0.1732 -0.7049
 7094SOL    HW132744   3.318   2.020   7.835  1.7332  0.7044  0.8455
 7094SOL    HW232745   3.335   2.043   7.684  1.0664  2.0396 -0.9314
 7095SOL     OW32746   0.139   0.439  14.208  0.3058  0.5890 -0.0517
 7095SOL    HW132747   0.062   0.419  14.155  0.3470  1.3887 -0.4127
 7095SOL    HW232748   0.180   0.511  14.161  0.0363 -0.2040 -1.4782
 7096SOL     OW32749   3.765   2.760   1.416  0.2518  0.5414  0.1481
 7096SOL    HW132750   3.752   2.721   1.330  2.2111 -0.5220  0.3225
 7096SOL    HW232751   3.835   2.698   1.436 -0.3983 -0.3236 -0.2813
 7097SOL     OW32752   3.336   4.393   6.946  0.6541 -0.1422 -0.7898
 7097SOL    HW132753   3.393   4.456   6.990 -1.2711  2.5296 -2.1028
 7097SOL    HW232754   3.268   4.380   7.011 -1.6903 -0.3951 -3.3026
 7098SOL     OW32755   0.215   2.970   2.128 -0.1242  0.0893 -0.1183
 7098SOL    HW132756   0.240   3.042   2.186  0.5232  1.7302 -2.4406
 7098SOL    HW232757   0.130   2.956   2.171 -0.0658  0.0175 -0.0265
 7099SOL     OW32758   0.944   2.004  11.440 -0.1080 -0.0765 -0.4767
 7099SOL    HW132759   0.911   1.917  11.415  0.3806 -0.6744  0.9432
 7099SOL    HW232760   0.994   1.970  11.514 -2.4756 -1.0428  0.6854
 7100SOL     OW32761   3.926   2.141   1.148  0.1726  0.1024  0.1859
 7100SOL    HW132762   3.887   2.228   1.139  1.6538  1.0386  3.0169
 7100SOL    HW232763   3.917   2.122   1.241 -2.9886 -0.5846 -0.2651
 7101SOL     OW32764   2.333   1.730   5.886  0.1316  0.5482  0.2242
 7101SOL    HW132765   2.334   1.805   5.945 -0.7385 -0.1152  1.0854
 7101SOL    HW232766   2.315   1.659   5.948  1.8122 -0.8080 -0.8502
 7102SOL     OW32767   4.527   0.358   1.972 -0.3236 -0.0839  0.1279
 7102SOL    HW132768   4.574   0.275   1.978  0.9959  0.6380 -0.1066
 7102SOL    HW232769   4.519   0.386   2.063  3.9705  1.2374  0.0829
 7103SOL     OW32770   2.933   3.112  10.341  0.4968 -0.4844  0.0496
 7103SOL    HW132771   3.026   3.136  10.335  0.4784 -0.7615 -1.1984
 7103SOL    HW232772   2.902   3.200  10.363 -1.0126 -0.8150 -0.8004
 7104SOL     OW32773   1.071   3.547   8.145  0.1532 -0.6796 -0.4277
 7104SOL    HW132774   1.068   3.640   8.125 -1.9234 -0.2406  2.0454
 7104SOL    HW232775   1.121   3.544   8.226 -0.4410 -2.6035 -0.1268
 7105SOL     OW32776   0.216   4.114  13.052 -0.7776 -0.7080  0.6960
 7105SOL    HW132777   0.193   4.168  13.127 -2.2584  1.7024 -1.4722
 7105SOL    HW232778   0.277   4.176  13.012 -0.4741 -1.1103  0.5343
 7106SOL     OW32779   2.293   4.229   7.622  0.5873 -0.4348 -0.0459
 7106SOL    HW132780   2.235   4.300   7.594 -0.2491 -0.6191  1.2100
 7106SOL    HW232781   2.298   4.187   7.536  0.7985  1.1203 -0.8028
 7107SOL     OW32782   0.286   4.134   7.288  0.1456 -0.2526  0.1484
 7107SOL    HW132783   0.377   4.161   7.301 -0.1732  0.9090 -0.0962
 7107SOL    HW232784   0.284   4.047   7.328 -1.3079 -1.2122 -2.0054
 7108SOL     OW32785   4.397   4.294   9.018  0.0904  0.1074  0.2147
 7108SOL    HW132786   4.373   4.201   9.025 -1.2320  0.1444 -3.7619
 7108SOL    HW232787   4.314   4.340   9.010 -0.2235 -0.3883  0.5956
 7109SOL     OW32788   3.052   2.220   7.648  0.5018  0.5164  0.4278
 7109SOL    HW132789   3.147   2.230   7.638  0.1765  1.4923 -1.6538
 7109SOL    HW232790   3.031   2.167   7.571 -3.6496  0.3752  1.6511
 7110SOL     OW32791   2.886   0.446   6.820 -0.4763 -0.8215 -0.1365
 7110SOL    HW132792   2.809   0.497   6.792  0.3907  0.9950  0.7495
 7110SOL    HW232793   2.904   0.408   6.734 -0.4301 -2.2313  0.5025
 7111SOL     OW32794   2.107   4.012  14.803  0.0773 -0.1852 -0.0090
 7111SOL    HW132795   2.125   4.103  14.823  0.8956 -0.0489 -1.3204
 7111SOL    HW232796   2.105   4.008  14.707 -0.7894  2.3085 -0.0716
 7112SOL     OW32797   1.604   3.178   6.117 -0.4472  0.4881  0.0534
 7112SOL    HW132798   1.687   3.164   6.161  0.7285  0.6202 -2.1219
 7112SOL    HW232799   1.547   3.107   6.148 -0.0968  0.9742  1.7980
 7113SOL     OW32800   3.083   1.524   9.561  0.3008 -0.3039  0.3180
 7113SOL    HW132801   3.158   1.487   9.515 -0.4829 -1.8231  0.2354
 7113SOL    HW232802   3.112   1.502   9.649 -0.1893 -0.3293  0.4729
 7114SOL     OW32803   4.068   0.159  16.882  0.3196 -0.4240  0.2924
 7114SOL    HW132804   4.018   0.235  16.911  0.1657 -0.8817  1.2587
 7114SOL    HW232805   3.993   0.099  16.889  0.6357 -0.7681  0.7418
 7115SOL     OW32806   2.645   2.929   9.975  0.0358  0.3128 -0.1093
 7115SOL    HW132807   2.586   2.997   9.943 -0.1855 -0.1767 -0.7431
 7115SOL    HW232808   2.594   2.854   9.944  1.0998 -0.4595  0.0136
 7116SOL     OW32809   3.630   1.111   6.539  0.4449 -0.8757  0.6255
 7116SOL    HW132810   3.592   1.097   6.452 -1.2667 -0.0231  1.2296
 7116SOL    HW232811   3.557   1.155   6.583 -0.2048 -0.5025 -0.8104
 7117SOL     OW32812   2.731   3.209   3.477 -0.0001 -0.5269 -0.7152
 7117SOL    HW132813   2.663   3.147   3.505  0.0508  0.4500  1.5981
 7117SOL    HW232814   2.685   3.223   3.394 -0.3716 -2.1450 -0.7948
 7118SOL     OW32815   2.330   3.211   6.032  0.6708  0.0632 -0.2639
 7118SOL    HW132816   2.280   3.189   6.110 -1.2958  1.1515 -1.2332
 7118SOL    HW232817   2.373   3.126   6.018  0.7108 -0.1920  1.4873
 7119SOL     OW32818   4.574   0.787   6.492  0.3675 -0.3829  0.3438
 7119SOL    HW132819   4.594   0.710   6.439  0.8088 -2.0646  2.9883
 7119SOL    HW232820   4.479   0.783   6.481  0.4208 -0.3870 -0.1222
 7120SOL     OW32821   3.374   0.958   3.775 -0.1020 -0.0872  0.4991
 7120SOL    HW132822   3.359   0.961   3.870 -0.2148 -1.1210  0.5084
 7120SOL    HW232823   3.387   1.050   3.751 -1.0681 -0.3508 -1.0145
 7121SOL     OW32824   0.463   2.332   8.432  0.1310  0.0591  0.2522
 7121SOL    HW132825   0.554   2.304   8.430  0.5026  1.3450 -0.7096
 7121SOL    HW232826   0.467   2.368   8.521  2.0027 -2.8555  1.3435
 7122SOL     OW32827   4.233   2.196   5.089  0.1046  0.3850  0.1484
 7122SOL    HW132828   4.157   2.138   5.087  0.1536  0.3660 -0.9449
 7122SOL    HW232829   4.216   2.231   5.177 -1.1922  2.4058 -0.8951
 7123SOL     OW32830   3.567   1.680   7.272  0.4877 -0.4685 -0.1992
 7123SOL    HW132831   3.652   1.670   7.229  0.6564  0.8772 -0.1729
 7123SOL    HW232832   3.580   1.655   7.363 -0.4120  3.8905  1.0914
 7124SOL     OW32833   2.517   2.459   1.833 -0.1681  0.2499 -0.4541
 7124SOL    HW132834   2.438   2.463   1.779 -0.0399  0.0557 -0.6583
 7124SOL    HW232835   2.489   2.499   1.915 -1.3442  0.0274 -0.7501
 7125SOL     OW32836   4.169   2.032  15.339  0.4607  0.2962 -0.1383
 7125SOL    HW132837   4.147   1.966  15.273  0.4243 -0.2087  0.3740
 7125SOL    HW232838   4.141   1.993  15.422 -1.0527  0.6796 -0.4798
 7126SOL     OW32839   1.495   3.079   2.414  0.6922  0.4177  0.3988
 7126SOL    HW132840   1.524   3.079   2.505  1.4701  0.7745  0.1491
 7126SOL    HW232841   1.404   3.105   2.431  0.3845  0.0211 -0.6854
 7127SOL     OW32842   3.722   0.108   4.701 -0.2595 -0.5799  0.3992
 7127SOL    HW132843   3.653   0.071   4.645  0.6391 -0.7184 -0.6143
 7127SOL    HW232844   3.695   0.199   4.689 -0.7154 -0.9287 -1.1803
 7128SOL     OW32845   0.487   2.908   3.126  0.1173  0.0957  0.1733
 7128SOL    HW132846   0.446   2.900   3.039 -0.2687  2.9686  0.1126
 7128SOL    HW232847   0.410   2.893   3.180  2.1373 -2.1562  2.4666
 7129SOL     OW32848   4.525   4.276   7.011 -0.2278  0.0063 -0.5420
 7129SOL    HW132849   4.443   4.303   6.971 -1.5292 -1.9787  0.7432
 7129SOL    HW232850   4.540   4.349   7.071  1.6588 -0.0443 -0.9319
 7130SOL     OW32851   3.614   0.211   7.758 -0.2762  0.5949  0.1620
 7130SOL    HW132852   3.675   0.141   7.779  1.2283  1.9532  0.3121
 7130SOL    HW232853   3.594   0.171   7.674  1.6840  0.9962 -0.5014
 7131SOL     OW32854   0.914   1.445  11.122 -0.4613  0.2884  0.5644
 7131SOL    HW132855   0.944   1.402  11.043  0.4215  0.0491  1.0221
 7131SOL    HW232856   0.825   1.468  11.094  0.4965  2.7645 -0.5037
 7132SOL     OW32857   0.316   3.123   4.238 -0.2952 -0.5560 -0.1790
 7132SOL    HW132858   0.386   3.150   4.299  0.8119 -0.9847 -1.2678
 7132SOL    HW232859   0.242   3.171   4.275  0.4786  1.9936 -1.9580
 7133SOL     OW32860   4.100   4.535   8.147  0.1859  0.5725  0.0838
 7133SOL    HW132861   4.114   4.533   8.241  0.8493  0.9117 -0.0082
 7133SOL    HW232862   4.057   4.620   8.133 -0.4541  0.5211  1.8122
 7134SOL     OW32863   1.536   3.792   6.380  0.0227  0.7841  0.1249
 7134SOL    HW132864   1.482   3.748   6.315 -1.6455 -1.3681  2.9476
 7134SOL    HW232865   1.602   3.725   6.394 -2.1942 -1.8714 -2.0474
 7135SOL     OW32866   2.494   0.121  15.720  0.6756  0.1649  0.0212
 7135SOL    HW132867   2.550   0.065  15.668 -1.0465  0.5017 -2.1700
 7135SOL    HW232868   2.561   0.188  15.734  1.8712 -0.8460 -0.8567
 7136SOL     OW32869   4.586   0.239   8.432 -0.1735  0.2614  0.3406
 7136SOL    HW132870   4.583   0.302   8.359 -1.3835 -0.4518 -0.2161
 7136SOL    HW232871   4.552   0.299   8.498  0.9761  2.5664 -1.1315
 7137SOL     OW32872   2.011   2.305   5.176 -0.4102  0.0368  0.1383
 7137SOL    HW132873   2.073   2.258   5.232  0.4600 -2.1764 -2.6474
 7137SOL    HW232874   2.060   2.307   5.094 -2.2376 -1.1231 -0.9934
 7138SOL     OW32875   0.276   0.172   5.706 -0.3372  0.2066 -0.3847
 7138SOL    HW132876   0.208   0.198   5.768 -0.8231 -2.6695  0.2763
 7138SOL    HW232877   0.361   0.193   5.745  0.3035 -1.9893 -0.5745
 7139SOL     OW32878   1.773   0.869   8.191  0.2678 -0.0866  0.0885
 7139SOL    HW132879   1.817   0.810   8.253 -2.2628 -1.4123  0.6012
 7139SOL    HW232880   1.843   0.876   8.126  1.0318  0.9841  1.0317
 7140SOL     OW32881   2.320   2.421   5.130  0.1484  0.1658 -0.2874
 7140SOL    HW132882   2.365   2.492   5.084 -1.6065  1.3536 -0.1544
 7140SOL    HW232883   2.248   2.402   5.070  1.3594 -1.3676 -1.2521
 7141SOL     OW32884   1.574   2.197  12.390  0.6991 -0.6687  0.4763
 7141SOL    HW132885   1.488   2.188  12.431  0.1542 -0.6316 -0.6298
 7141SOL    HW232886   1.585   2.103  12.372 -0.1654 -0.1741 -2.7148
 7142SOL     OW32887   2.101   0.443  11.604  0.3891 -0.1044 -0.3896
 7142SOL    HW132888   2.009   0.425  11.624  0.3158 -2.5717 -2.9881
 7142SOL    HW232889   2.111   0.398  11.520 -0.4478  0.3727 -0.7453
 7143SOL     OW32890   0.190   0.623   8.996 -0.0358  0.0541 -0.4873
 7143SOL    HW132891   0.219   0.544   9.040  1.1222 -0.5797 -2.3768
 7143SOL    HW232892   0.280   0.656   8.991 -1.1047  3.2552  1.9015
 7144SOL     OW32893   0.189   1.728   6.224 -0.5200  0.1235  0.3908
 7144SOL    HW132894   0.151   1.651   6.265 -1.2896 -0.4845 -1.4771
 7144SOL    HW232895   0.111   1.745   6.171  1.3616  1.8617 -1.8452
 7145SOL     OW32896   1.859   1.964  11.480  0.0383 -0.0078 -0.1726
 7145SOL    HW132897   1.786   2.026  11.482 -0.3117 -0.3650 -1.6144
 7145SOL    HW232898   1.931   2.026  11.477 -0.8647  1.0464 -0.2476
 7146SOL     OW32899   0.185   1.153   9.068 -0.7615 -0.1972  0.3879
 7146SOL    HW132900   0.104   1.123   9.110 -2.4433 -0.1059 -2.7886
 7146SOL    HW232901   0.223   1.071   9.039  1.4521  1.5511 -1.6427
 7147SOL     OW32902   3.169   0.629   7.119 -0.3551 -0.5864 -0.3120
 7147SOL    HW132903   3.097   0.645   7.181  0.9332 -1.0682  1.2892
 7147SOL    HW232904   3.116   0.616   7.040  0.3258  0.6114 -0.9676
 7148SOL     OW32905   0.836   3.228   6.727 -0.1758 -0.4638  0.3648
 7148SOL    HW132906   0.921   3.199   6.693 -0.0073  0.2876  0.1385
 7148SOL    HW232907   0.774   3.212   6.656  0.9206 -2.0049 -0.2400
 7149SOL     OW32908   3.878   0.517   0.306 -0.6419  0.0432 -0.4212
 7149SOL    HW132909   3.958   0.481   0.266  0.3447  1.4181  0.3075
 7149SOL    HW232910   3.873   0.605   0.267 -1.0925  0.4923  0.6608
 7150SOL     OW32911   4.420   2.725   3.193  0.0542 -0.4867 -0.4433
 7150SOL    HW132912   4.344   2.670   3.174 -1.8475  0.7569  3.5126
 7150SOL    HW232913   4.482   2.671   3.144  0.6803  0.7278 -0.9924
 7151SOL     OW32914   1.962   0.287   8.023 -0.0583 -0.1304 -0.1721
 7151SOL    HW132915   1.975   0.208   8.075 -0.1021  1.4409  2.2526
 7151SOL    HW232916   1.894   0.335   8.070  0.3298  0.7375 -0.4931
 7152SOL     OW32917   1.381   0.202  10.251  0.2514  0.1411  0.8891
 7152SOL    HW132918   1.386   0.108  10.269 -0.9315 -0.1637 -0.2757
 7152SOL    HW232919   1.333   0.238  10.325 -1.5462 -1.9619  0.7702
 7153SOL     OW32920   1.650   1.409   8.948  0.0572  0.4928 -0.0093
 7153SOL    HW132921   1.597   1.333   8.924  2.2834 -1.2215  0.4354
 7153SOL    HW232922   1.739   1.377   8.931 -0.9074 -1.9635 -0.3544
 7154SOL     OW32923   3.036   3.287   9.111 -0.0241 -0.0932 -0.2076
 7154SOL    HW132924   3.056   3.359   9.171 -2.6824  0.0072  0.5634
 7154SOL    HW232925   2.943   3.291   9.089 -0.5318  1.2341  2.1625
 7155SOL     OW32926   2.536   0.601   7.396  0.8415 -0.8682 -0.2996
 7155SOL    HW132927   2.474   0.529   7.403  1.0515 -0.8629  1.6186
 7155SOL    HW232928   2.526   0.613   7.301 -1.6840 -1.1336 -0.0747
 7156SOL     OW32929   2.202   1.599   3.177 -0.6930  0.1116  0.0831
 7156SOL    HW132930   2.285   1.644   3.163 -0.8044  0.9892  2.2437
 7156SOL    HW232931   2.149   1.655   3.121  0.3436  0.4879 -0.5104
 7157SOL     OW32932   4.679   2.400   3.243  0.1069 -0.6358 -0.6465
 7157SOL    HW132933   4.644   2.441   3.322  0.4891 -1.0921 -0.2405
 7157SOL    HW232934   4.692   2.483   3.199 -0.7186  0.7543  1.7466
 7158SOL     OW32935   4.706   2.278  15.693 -0.0170  0.0787 -0.4303
 7158SOL    HW132936   0.030   2.236  15.764 -0.6821  1.4238  0.8261
 7158SOL    HW232937   4.621   2.238  15.710  0.6858 -2.1713 -2.1769
 7159SOL     OW32938   0.178   2.591   2.353  0.2803  0.1279  0.2202
 7159SOL    HW132939   0.108   2.578   2.289 -0.4714  2.6121  0.5438
 7159SOL    HW232940   0.244   2.584   2.285  1.2408  1.7850  0.9781
 7160SOL     OW32941   3.636   2.782   2.392 -0.1369 -0.4872  0.0952
 7160SOL    HW132942   3.635   2.712   2.458  0.9215 -0.2795  0.3433
 7160SOL    HW232943   3.679   2.739   2.318 -0.1815 -0.5325  0.0959
 7161SOL     OW32944   0.399   0.940   8.030  0.1347  0.1021  0.5615
 7161SOL    HW132945   0.371   0.962   8.119  0.8566 -0.6493  0.9704
 7161SOL    HW232946   0.469   1.001   8.009  1.6542 -1.4991  1.0204
 7162SOL     OW32947   1.844   3.160   9.890  0.2124  0.0557 -0.0130
 7162SOL    HW132948   1.898   3.194   9.819  1.8747 -0.3560  1.0458
 7162SOL    HW232949   1.856   3.066   9.884  0.6290  0.2000 -1.3997
 7163SOL     OW32950   1.640   2.679  10.998 -0.5759 -0.0927 -0.5688
 7163SOL    HW132951   1.727   2.711  10.972 -0.3878  1.4782  1.9966
 7163SOL    HW232952   1.637   2.688  11.093 -0.1551 -1.1165 -0.4457
 7164SOL     OW32953   3.398   4.297   6.670  0.1675  0.1078 -0.1139
 7164SOL    HW132954   3.400   4.307   6.765 -0.2007 -0.7313 -0.0195
 7164SOL    HW232955   3.489   4.315   6.648  0.0891 -0.7927 -1.1702
 7165SOL     OW32956   0.936   2.612  12.395  0.2932  1.4097 -0.1652
 7165SOL    HW132957   0.926   2.528  12.438  0.0343 -0.9854 -4.8950
 7165SOL    HW232958   0.913   2.588  12.305  2.0710  0.1870 -0.2904
 7166SOL     OW32959   3.054   0.316   8.411  0.0022  0.6314  0.2402
 7166SOL    HW132960   3.023   0.292   8.498 -0.6649 -1.9624 -0.7076
 7166SOL    HW232961   3.121   0.252   8.386 -0.3323  0.2522  0.3190
 7167SOL     OW32962   0.627   2.153  10.866  0.0636 -0.4084 -0.6748
 7167SOL    HW132963   0.665   2.065  10.866  0.7017 -0.1319 -1.3019
 7167SOL    HW232964   0.669   2.171  10.951  1.3767 -0.9691 -1.2142
 7168SOL     OW32965   2.332   2.553  15.213  0.8118 -0.3435  0.1480
 7168SOL    HW132966   2.247   2.510  15.203 -0.4480  2.2200  0.0008
 7168SOL    HW232967   2.376   2.496  15.276  0.5128  0.6191  1.2159
 7169SOL     OW32968   0.092   0.789   1.681 -0.0788 -0.1908 -0.4736
 7169SOL    HW132969   0.053   0.707   1.651 -0.2026  0.0888 -1.0559
 7169SOL    HW232970   0.024   0.849   1.651 -0.2087 -0.3006 -0.4023
 7170SOL     OW32971   3.257   1.831   6.222  0.1180  0.6111 -0.2545
 7170SOL    HW132972   3.345   1.793   6.211  0.5767  1.9048 -0.9972
 7170SOL    HW232973   3.269   1.924   6.241 -0.1317  0.4900  0.5111
 7171SOL     OW32974   4.483   3.894   8.211 -0.3570 -0.5729  0.1307
 7171SOL    HW132975   4.438   3.824   8.258 -4.5168  2.4588  0.6344
 7171SOL    HW232976   4.545   3.912   8.282  0.0368 -2.2489  0.2253
 7172SOL     OW32977   1.476   1.203   8.881 -0.0743  0.3841  0.0179
 7172SOL    HW132978   1.447   1.140   8.947 -0.7087  2.2171  1.4927
 7172SOL    HW232979   1.505   1.142   8.813 -2.2212 -1.4604  0.7713
 7173SOL     OW32980   0.883   0.588   0.874  0.7678  0.2182 -0.1578
 7173SOL    HW132981   0.878   0.646   0.798 -2.9032  1.4857  1.0231
 7173SOL    HW232982   0.958   0.533   0.854 -1.0134 -1.7822 -1.2926
 7174SOL     OW32983   1.280   2.292   8.252 -0.1987 -0.1318  0.0041
 7174SOL    HW132984   1.199   2.244   8.267 -0.0539 -0.7305 -1.0862
 7174SOL    HW232985   1.266   2.323   8.162 -1.8499 -0.5019  0.1494
 7175SOL     OW32986   2.307   0.601   7.080 -0.1866 -0.6618 -0.1242
 7175SOL    HW132987   2.272   0.560   7.159 -0.0244 -0.0379  0.2725
 7175SOL    HW232988   2.233   0.659   7.066  0.9807  0.6037 -1.1085
 7176SOL     OW32989   3.255   4.592   7.958  0.2528  0.0278  0.1272
 7176SOL    HW132990   3.197   4.665   7.980  1.7141  0.6013  2.0877
 7176SOL    HW232991   3.244   4.592   7.863  0.7560  2.2007  0.0761
 7177SOL     OW32992   4.122   0.026   5.768  0.0178 -0.2238  0.0650
 7177SOL    HW132993   4.088   0.111   5.741 -0.3223 -0.4770 -0.3033
 7177SOL    HW232994   4.034   4.713   5.773 -0.7141  1.6473  1.4585
 7178SOL     OW32995   2.419   0.526  13.976 -0.1345 -0.0304 -0.0167
 7178SOL    HW132996   2.488   0.492  14.032 -0.1187  0.8929  0.5268
 7178SOL    HW232997   2.438   0.480  13.894 -0.3502  3.1921 -1.8755
 7179SOL     OW32998   1.667   2.647   0.916  0.2417  0.3719 -0.0124
 7179SOL    HW132999   1.743   2.636   0.974 -0.7267 -0.4165  1.1289
 7179SOL    HW233000   1.637   2.556   0.913  2.1248 -0.2926  1.5616
 7180SOL     OW33001   2.592   2.788   8.008 -0.0416  0.2362  0.0741
 7180SOL    HW133002   2.569   2.720   7.946 -3.5235  1.7306 -0.2693
 7180SOL    HW233003   2.577   2.870   7.961  1.0546  1.0391  1.0955
 7181SOL     OW33004   0.794   1.737   5.555 -0.1400 -0.2684 -0.2931
 7181SOL    HW133005   0.828   1.826   5.546 -3.0395  0.7870 -0.8195
 7181SOL    HW233006   0.726   1.758   5.490 -0.1432 -2.3077 -0.9543
 7182SOL     OW33007   2.041   1.787   8.139 -0.9290 -0.2574  0.0293
 7182SOL    HW133008   2.010   1.869   8.101 -1.9391 -0.3298  0.7087
 7182SOL    HW233009   1.994   1.796   8.222 -3.0039 -1.2778 -1.0181
 7183SOL     OW33010   4.002   0.122   8.039  0.1268  0.1089 -0.4231
 7183SOL    HW133011   3.979   0.215   8.046  2.5614  0.8103 -1.9325
 7183SOL    HW233012   3.945   0.082   8.105 -0.4604  0.3367 -0.7918
 7184SOL     OW33013   1.323   0.917  17.539 -0.1036  0.0450  0.2302
 7184SOL    HW133014   1.246   0.895  17.591  0.3474  0.4105  1.0560
 7184SOL    HW233015   1.344   1.007  17.562  1.5285 -0.6749  1.5826
 7185SOL     OW33016   2.977   4.670   9.154  0.0847  0.3259  0.4911
 7185SOL    HW133017   2.889   4.642   9.129 -0.2619  0.2070  1.8230
 7185SOL    HW233018   2.955   4.715   9.236  0.4408 -1.1137  1.3786
 7186SOL     OW33019   1.853   4.518   5.261  0.1801 -1.1035 -0.4835
 7186SOL    HW133020   1.818   4.429   5.262  0.0844 -1.0652 -0.4351
 7186SOL    HW233021   1.886   4.522   5.351 -2.8466  1.5814  0.5034
 7187SOL     OW33022   0.608   3.426   4.348  0.4137  0.3813 -0.6573
 7187SOL    HW133023   0.529   3.463   4.386 -0.6165 -0.6306 -1.8413
 7187SOL    HW233024   0.681   3.476   4.383 -1.4469  2.9321 -0.4722
 7188SOL     OW33025   1.215   0.484   4.179 -0.0477 -0.2397 -0.8052
 7188SOL    HW133026   1.247   0.562   4.133  0.8902  0.9192  1.7788
 7188SOL    HW233027   1.255   0.491   4.266  1.9440  2.9803 -1.9523
 7189SOL     OW33028   2.835   4.016   1.067 -0.8564 -0.8813  0.5577
 7189SOL    HW133029   2.870   3.974   0.988 -0.6298 -1.5137  0.9887
 7189SOL    HW233030   2.745   3.983   1.061 -1.0718 -0.2977  0.5817
 7190SOL     OW33031   2.242   4.083  16.186 -0.1195 -0.1269 -0.1696
 7190SOL    HW133032   2.281   4.098  16.101 -1.9311  2.0343 -0.6233
 7190SOL    HW233033   2.147   4.089  16.171 -0.4267  1.3909  2.2309
 7191SOL     OW33034   0.170   2.243  12.613 -0.2597 -0.3000  0.0727
 7191SOL    HW133035   0.090   2.278  12.651 -0.5865 -0.2541 -0.6593
 7191SOL    HW233036   0.143   2.153  12.596 -0.3692 -0.5380  1.5619
 7192SOL     OW33037   0.451   2.167   5.055  0.5611  0.2218 -0.4634
 7192SOL    HW133038   0.442   2.125   4.970  3.0070 -1.7234  0.2226
 7192SOL    HW233039   0.541   2.196   5.041  0.0951  2.3163  0.9275
 7193SOL     OW33040   2.576   1.176  17.162 -0.3317  0.2805 -0.4430
 7193SOL    HW133041   2.594   1.266  17.188 -4.0491  0.3006  2.0680
 7193SOL    HW233042   2.660   1.131  17.163 -1.3900 -1.7197 -1.1360
 7194SOL     OW33043   3.679   2.917   5.901  0.4424  0.3074  0.1760
 7194SOL    HW133044   3.598   2.872   5.926  0.1538  1.1644  0.8100
 7194SOL    HW233045   3.735   2.854   5.856 -0.4462 -0.5833  0.3311
 7195SOL     OW33046   1.448   4.576   6.280  0.4768  0.0382  0.0384
 7195SOL    HW133047   1.526   4.609   6.324  0.9440 -0.7374 -0.2099
 7195SOL    HW233048   1.386   4.592   6.351  1.6060 -0.8101  1.2149
 7196SOL     OW33049   2.131   3.587   2.476 -0.0351 -0.6428  0.2241
 7196SOL    HW133050   2.107   3.672   2.440 -0.5861  0.0793  2.3431
 7196SOL    HW233051   2.056   3.540   2.440  0.1358 -1.2512  0.6746
 7197SOL     OW33052   4.341   0.571   6.798  0.3650  0.3425 -0.2306
 7197SOL    HW133053   4.316   0.663   6.794 -0.8398 -0.0543 -1.8629
 7197SOL    HW233054   4.305   0.547   6.712  1.9848  0.4464 -0.9439
 7198SOL     OW33055   1.655   2.106   1.039  0.0207 -0.2514 -0.1400
 7198SOL    HW133056   1.712   2.048   1.089  0.2419 -1.2969 -1.6371
 7198SOL    HW233057   1.568   2.089   1.076 -0.1371  2.5158  0.7910
 7199SOL     OW33058   3.103   1.737   8.290 -0.6037 -0.0314 -0.0869
 7199SOL    HW133059   3.157   1.667   8.325  1.9377  3.2888  2.6886
 7199SOL    HW233060   3.078   1.798   8.359  0.3375  0.0558  0.1707
 7200SOL     OW33061   1.715   0.607  11.519  0.5242 -0.1353 -0.4423
 7200SOL    HW133062   1.733   0.571  11.606  0.4322 -0.8875 -0.7370
 7200SOL    HW233063   1.761   0.541  11.467  1.3694  0.4254 -0.4045
 7201SOL     OW33064   2.437   0.527  11.401  0.1759 -0.8039  0.0763
 7201SOL    HW133065   2.489   0.558  11.327 -1.5240 -0.4420 -0.9641
 7201SOL    HW233066   2.411   0.444  11.362 -0.6310 -0.4238 -0.2056
 7202SOL     OW33067   2.063   0.431   5.662  0.4035 -0.0812 -0.2705
 7202SOL    HW133068   1.971   0.428   5.687 -0.1189  0.3752 -2.2037
 7202SOL    HW233069   2.079   0.345   5.623 -1.3074 -0.6090  0.1891
 7203SOL     OW33070   4.365   1.569   6.347 -0.9411 -0.3080  0.5240
 7203SOL    HW133071   4.368   1.543   6.255 -1.1270  0.2050  0.3720
 7203SOL    HW233072   4.459   1.577   6.364 -1.0886  1.3199  0.5368
 7204SOL     OW33073   0.591   3.888   4.274  0.2543 -0.6815  0.0146
 7204SOL    HW133074   0.575   3.925   4.361  1.1954 -1.8059  0.6730
 7204SOL    HW233075   0.685   3.906   4.268 -0.4496  3.1864  0.5546
 7205SOL     OW33076   1.175   1.079   2.533  0.4196  0.4677  0.0117
 7205SOL    HW133077   1.259   1.062   2.576  0.5309  3.1915  0.8989
 7205SOL    HW233078   1.205   1.114   2.449  2.8190 -2.3568 -0.2962
 7206SOL     OW33079   2.433   3.505   3.275 -0.7474  0.5250 -0.5485
 7206SOL    HW133080   2.354   3.482   3.226 -2.1875  4.7257 -0.2308
 7206SOL    HW233081   2.401   3.511   3.365 -0.3912  0.4844 -0.4191
 7207SOL     OW33082   0.476   4.053  10.803 -0.1680  0.3639  0.2123
 7207SOL    HW133083   0.402   4.011  10.848  1.3235 -1.3811  1.0267
 7207SOL    HW233084   0.500   3.999  10.728 -3.2655  0.6637 -1.0175
 7208SOL     OW33085   4.202   1.820   2.972 -0.1208  0.2966 -0.3411
 7208SOL    HW133086   4.157   1.894   2.932  1.3260  1.2776 -0.1138
 7208SOL    HW233087   4.188   1.837   3.065  0.3444  2.5873 -0.7009
 7209SOL     OW33088   3.245   1.359   2.877 -0.2119  0.0902  0.1428
 7209SOL    HW133089   3.327   1.383   2.835 -1.1201 -0.1537 -1.7910
 7209SOL    HW233090   3.196   1.320   2.804  2.0227 -1.3263 -0.6162
 7210SOL     OW33091   3.050   3.419  15.366  0.2459 -0.6001 -0.5092
 7210SOL    HW133092   2.989   3.475  15.414 -0.5753 -0.1392 -2.0739
 7210SOL    HW233093   3.076   3.350  15.426 -1.2169 -0.4984  0.2374
 7211SOL     OW33094   0.166   3.221   7.966 -0.8601  0.1051  0.0626
 7211SOL    HW133095   0.145   3.153   8.030 -1.2429  0.2547  0.0924
 7211SOL    HW233096   0.104   3.289   7.991  2.4519  2.9126  0.6508
 7212SOL     OW33097   2.838   3.948  15.859 -0.6265 -0.4028 -0.0576
 7212SOL    HW133098   2.866   4.014  15.923 -1.7799 -0.6293  0.6791
 7212SOL    HW233099   2.901   3.880  15.883  0.9195  0.9237 -0.3166
 7213SOL     OW33100   3.181   3.590  14.911  0.1531 -0.0732  0.3656
 7213SOL    HW133101   3.097   3.624  14.881  1.1691  1.6028 -0.6239
 7213SOL    HW233102   3.192   3.655  14.980  2.1525 -0.0424  0.0189
 7214SOL     OW33103   2.830   3.886   8.716  0.2254  0.3209  0.8053
 7214SOL    HW133104   2.780   3.966   8.698 -1.2376 -1.0183 -1.0995
 7214SOL    HW233105   2.881   3.887   8.635 -1.1391 -0.2886 -0.0587
 7215SOL     OW33106   1.694   4.244   3.891 -0.2926 -0.6241  0.0848
 7215SOL    HW133107   1.678   4.153   3.869  0.3595 -0.7952  0.3409
 7215SOL    HW233108   1.750   4.238   3.969 -0.5584  1.0413  0.4098
 7216SOL     OW33109   1.542   3.230  15.599 -0.0532  0.3340 -0.5478
 7216SOL    HW133110   1.626   3.183  15.597 -1.1794 -1.6923  0.4033
 7216SOL    HW233111   1.479   3.160  15.582 -1.5215  2.2354 -2.8800
 7217SOL     OW33112   3.065   2.762   5.629 -0.6212  0.3859  0.7698
 7217SOL    HW133113   3.110   2.756   5.714 -2.9825 -0.3518  1.9587
 7217SOL    HW233114   3.139   2.783   5.572 -0.1370  0.3756  1.3891
 7218SOL     OW33115   0.320   2.133   7.246 -0.4296  0.6922  0.4556
 7218SOL    HW133116   0.364   2.057   7.208 -0.9196 -0.9602  3.1888
 7218SOL    HW233117   0.392   2.188   7.274  0.7554 -0.4121 -0.3766
 7219SOL     OW33118   2.729   0.361   7.997 -0.1695  0.0211 -0.4338
 7219SOL    HW133119   2.706   0.453   8.002 -1.3417 -0.3433  0.8257
 7219SOL    HW233120   2.723   0.330   8.087 -1.3345  1.9461  0.1532
 7220SOL     OW33121   1.437   0.556   9.332 -0.4442  0.7406 -0.5276
 7220SOL    HW133122   1.473   0.569   9.420  1.5072  0.1554 -1.2442
 7220SOL    HW233123   1.442   0.461   9.327  2.1840  0.8888 -0.7382
 7221SOL     OW33124   2.351   1.005   9.225 -0.2908 -0.9181 -0.1149
 7221SOL    HW133125   2.287   0.941   9.257 -1.9161  0.3329 -0.8528
 7221SOL    HW233126   2.428   0.972   9.271  0.8598  2.1624  0.1917
 7222SOL     OW33127   1.277   4.572   2.509 -0.3997 -0.3500  0.2935
 7222SOL    HW133128   1.198   4.587   2.458  0.6886 -0.1981 -1.3313
 7222SOL    HW233129   1.234   4.533   2.585  1.5095  0.4052  1.7562
 7223SOL     OW33130   0.938   4.462   2.520  0.0857  0.2474  0.0677
 7223SOL    HW133131   0.858   4.512   2.532  0.7890  0.9566  1.8364
 7223SOL    HW233132   0.984   4.471   2.603  0.4531 -0.0571 -0.0998
 7224SOL     OW33133   0.412   4.426   2.159 -0.2725  0.2307 -0.1816
 7224SOL    HW133134   0.465   4.389   2.089 -1.5131 -1.0137 -0.4802
 7224SOL    HW233135   0.354   4.356   2.191  0.6228 -0.9125 -1.0810
 7225SOL     OW33136   3.266   3.094   3.751 -0.2157  0.4886 -0.6226
 7225SOL    HW133137   3.324   3.127   3.821  2.1561 -1.1047 -1.8189
 7225SOL    HW233138   3.195   3.158   3.753 -0.7583 -0.1546  0.4667
 7226SOL     OW33139   3.370   3.941   5.180  0.2776 -0.8801 -0.6783
 7226SOL    HW133140   3.356   4.034   5.165 -0.2163 -0.8233  0.1719
 7226SOL    HW233141   3.304   3.918   5.245  1.7693 -2.2902  0.3428
 7227SOL     OW33142   2.764   2.086   5.875  0.4914 -0.0394  0.4932
 7227SOL    HW133143   2.750   2.045   5.790 -1.5751  1.4172  0.1203
 7227SOL    HW233144   2.703   2.033   5.926 -1.1534  1.8331  0.5045
 7228SOL     OW33145   1.801   3.067  13.471 -0.2981 -0.5208 -0.0660
 7228SOL    HW133146   1.792   3.004  13.543  0.5299  2.1157  2.3677
 7228SOL    HW233147   1.885   3.035  13.440  1.2716  2.4949  1.0517
 7229SOL     OW33148   1.192   3.954   4.311 -0.2918  0.5926 -0.7784
 7229SOL    HW133149   1.242   3.979   4.233  1.4445 -1.0483 -0.2000
 7229SOL    HW233150   1.250   3.888   4.349 -1.5332 -0.7195 -1.2022
 7230SOL     OW33151   2.669   2.020   8.949 -0.3003  0.4029  0.0179
 7230SOL    HW133152   2.675   2.106   8.989 -1.6381  0.5550 -0.1229
 7230SOL    HW233153   2.753   1.985   8.979 -0.2304  0.4706 -0.1018
 7231SOL     OW33154   3.973   0.027  11.420 -0.1427 -0.4862 -0.2562
 7231SOL    HW133155   4.004   0.072  11.499  1.5150 -0.8349 -0.6898
 7231SOL    HW233156   3.972   0.100  11.358 -0.9418  0.4503  0.8593
 7232SOL     OW33157   0.193   3.171   9.225  0.0670 -0.2317  0.3943
 7232SOL    HW133158   0.116   3.154   9.280 -0.3585 -1.0259 -0.4454
 7232SOL    HW233159   0.255   3.136   9.290  0.6757  1.6780  0.8384
 7233SOL     OW33160   4.296   1.607   4.659 -0.1284 -0.5557  0.6451
 7233SOL    HW133161   4.204   1.599   4.635 -0.0865 -0.2948  0.3992
 7233SOL    HW233162   4.315   1.686   4.609 -0.9130 -0.3431  0.6855
 7234SOL     OW33163   2.147   2.827   8.072 -0.1981  0.1366 -0.2081
 7234SOL    HW133164   2.148   2.766   8.146 -0.5242 -0.3324 -0.5891
 7234SOL    HW233165   2.102   2.773   8.008  0.0118 -0.1320 -0.1281
 7235SOL     OW33166   2.975   2.752   8.886  0.5177 -0.2221  0.5931
 7235SOL    HW133167   2.888   2.787   8.908  0.7288 -0.7755  2.2986
 7235SOL    HW233168   2.995   2.795   8.803  1.7281  0.1732  1.0981
 7236SOL     OW33169   0.827   0.776   1.073 -0.1495 -0.1798 -0.3759
 7236SOL    HW133170   0.810   0.692   1.031  1.8069 -0.5768 -0.3828
 7236SOL    HW233171   0.853   0.824   0.995  2.0986 -1.6989 -0.5684
 7237SOL     OW33172   0.826   4.463   4.274  0.8236  0.3658 -0.1012
 7237SOL    HW133173   0.794   4.532   4.332  1.4100 -0.6403  1.4135
 7237SOL    HW233174   0.900   4.421   4.317 -0.8738 -0.9007  1.5907
 7238SOL     OW33175   0.722   1.887  10.889 -0.4994 -0.4709  0.3376
 7238SOL    HW133176   0.699   1.881  10.796  1.9386 -1.8622 -0.1672
 7238SOL    HW233177   0.817   1.876  10.888 -0.4692  0.3462 -4.8417
 7239SOL     OW33178   1.117   2.301  12.357 -0.1004  0.0059  0.0045
 7239SOL    HW133179   1.056   2.299  12.431  0.7093  1.1763  0.6989
 7239SOL    HW233180   1.057   2.351  12.302  0.6099  0.5619 -0.2611
 7240SOL     OW33181   0.958   4.527  17.680 -0.2677  0.1059 -0.2233
 7240SOL    HW133182   1.016   4.470  17.630 -1.7567  1.4567 -3.4672
 7240SOL    HW233183   0.871   4.491  17.662 -0.1005  1.5217 -3.9292
 7241SOL     OW33184   2.285   1.110   5.782  0.2571  0.1589 -0.3261
 7241SOL    HW133185   2.351   1.173   5.754  0.5569  0.5223  1.1922
 7241SOL    HW233186   2.296   1.049   5.710 -3.0372 -1.5080  0.5842
 7242SOL     OW33187   3.485   4.363   7.731  0.4917 -0.1845  0.4416
 7242SOL    HW133188   3.561   4.421   7.723  0.2469  0.0302 -0.2882
 7242SOL    HW233189   3.415   4.429   7.733  0.4704 -0.1906 -0.0718
 7243SOL     OW33190   2.407   4.207   4.563  0.2515 -0.2336  0.5952
 7243SOL    HW133191   2.453   4.267   4.505 -0.3654 -0.8965 -0.5810
 7243SOL    HW233192   2.459   4.129   4.542 -0.8040 -0.6251 -0.5998
 7244SOL     OW33193   0.745   0.974   3.496 -0.3778 -0.0988 -0.3719
 7244SOL    HW133194   0.807   0.957   3.425 -0.7674  0.7715 -0.9187
 7244SOL    HW233195   0.680   1.038   3.466  0.4675 -0.9903 -4.1667
 7245SOL     OW33196   0.590   0.192   1.103  0.1396 -0.1397  0.0231
 7245SOL    HW133197   0.640   0.241   1.038  1.2029 -0.7044  0.4236
 7245SOL    HW233198   0.604   0.246   1.181  1.6127  2.0199 -1.7520
 7246SOL     OW33199   1.929   0.737   6.875  0.0751  0.5199  0.7066
 7246SOL    HW133200   1.958   0.649   6.851  0.8348  0.1565  2.9584
 7246SOL    HW233201   1.941   0.778   6.790 -1.0274 -0.5042  0.0405
 7247SOL     OW33202   3.859   2.430  13.880 -0.1261 -0.2147  0.1887
 7247SOL    HW133203   3.774   2.393  13.906  0.7782 -1.5809  1.2220
 7247SOL    HW233204   3.906   2.399  13.958 -0.5291  0.5047  0.7221
 7248SOL     OW33205   3.586   0.876   7.746 -0.4302  0.0820 -0.1535
 7248SOL    HW133206   3.556   0.786   7.758 -1.5354  0.3694 -0.8257
 7248SOL    HW233207   3.670   0.863   7.703 -0.5672 -1.9847  0.1925
 7249SOL     OW33208   0.262   0.390   6.337  0.0255 -0.1856  0.0279
 7249SOL    HW133209   0.338   0.332   6.326  0.1591 -0.2845  1.3778
 7249SOL    HW233210   0.208   0.321   6.376  0.0943  0.1278  0.6754
 7250SOL     OW33211   2.228   1.261  17.568  0.4702 -0.1321 -0.1446
 7250SOL    HW133212   2.295   1.241  17.503  0.4204 -0.0844 -0.2100
 7250SOL    HW233213   2.152   1.301  17.527  0.3021 -0.0121  0.2810
 7251SOL     OW33214   3.496   0.500   7.473 -0.3841 -0.7087  0.2452
 7251SOL    HW133215   3.475   0.410   7.448  0.1495 -0.6032 -0.5892
 7251SOL    HW233216   3.411   0.545   7.470 -0.7271 -1.3670 -0.1016
 7252SOL     OW33217   0.188   2.870   7.394 -0.1229 -0.6143 -0.2730
 7252SOL    HW133218   0.265   2.816   7.372  2.4292  2.7565  0.3566
 7252SOL    HW233219   0.214   2.896   7.482 -0.9186  0.6362 -0.4117
 7253SOL     OW33220   3.234   1.215   2.300 -0.0843 -0.1078  0.2738
 7253SOL    HW133221   3.232   1.128   2.339  1.8852 -0.4450 -0.3791
 7253SOL    HW233222   3.325   1.232   2.272 -1.0787  0.2336 -2.7631
 7254SOL     OW33223   0.333   1.086   6.798  0.1223  0.3434 -0.3549
 7254SOL    HW133224   0.425   1.092   6.773 -0.1317  1.1133 -1.0923
 7254SOL    HW233225   0.307   1.012   6.743 -2.5140  0.2706  0.9837
 7255SOL     OW33226   1.217   4.513   5.746  0.3151  0.4003 -0.1377
 7255SOL    HW133227   1.261   4.429   5.757 -1.0827 -0.3480 -0.2626
 7255SOL    HW233228   1.268   4.539   5.669  1.2923 -1.0606  0.0213
 7256SOL     OW33229   0.350   2.161   4.759  0.4001  0.1280 -0.0917
 7256SOL    HW133230   0.332   2.067   4.766  1.3360 -0.1366 -1.2149
 7256SOL    HW233231   0.274   2.194   4.807 -0.0396  1.5657 -1.7979
 7257SOL     OW33232   3.401   1.210   6.714  0.1089  0.3635  0.8642
 7257SOL    HW133233   3.316   1.211   6.757 -0.7763 -1.0639 -0.8480
 7257SOL    HW233234   3.444   1.282   6.759  1.9241  0.6354 -1.2874
 7258SOL     OW33235   3.375   0.728   2.770 -0.2614  0.1015  0.0928
 7258SOL    HW133236   3.362   0.634   2.755 -0.4437 -0.0196  1.0251
 7258SOL    HW233237   3.471   0.731   2.760 -0.1308 -0.6076  1.0636
 7259SOL     OW33238   1.343   3.337   3.580  0.1188 -0.1343 -0.3174
 7259SOL    HW133239   1.263   3.334   3.529 -0.3329 -0.6510  0.4168
 7259SOL    HW233240   1.366   3.429   3.568  3.0007 -1.2997 -3.8968
 7260SOL     OW33241   2.764   2.722   8.598  0.3638  0.3137 -0.1593
 7260SOL    HW133242   2.748   2.810   8.633 -1.3794  0.8826 -2.4377
 7260SOL    HW233243   2.860   2.720   8.592  0.4545  0.9946  0.9070
 7261SOL     OW33244   2.923   0.785  12.104 -0.6889  0.1543  0.4050
 7261SOL    HW133245   2.889   0.697  12.092  1.2110 -0.2010 -2.3387
 7261SOL    HW233246   2.852   0.835  12.063 -0.9745  0.8535  1.7447
 7262SOL     OW33247   3.034   1.594   5.566 -0.0784  0.0846 -0.9306
 7262SOL    HW133248   3.074   1.602   5.653  0.9412 -0.2853 -1.3704
 7262SOL    HW233249   2.942   1.607   5.590 -0.0028 -1.2111  0.0902
 7263SOL     OW33250   2.318   4.611  14.728  0.2766  0.5313  0.4659
 7263SOL    HW133251   2.318   4.661  14.647 -2.0264 -0.3575 -0.0963
 7263SOL    HW233252   2.391   4.656  14.769  1.2548 -0.5569 -0.0793
 7264SOL     OW33253   0.931   0.030  13.378  0.2609 -0.1076  0.1599
 7264SOL    HW133254   0.960   4.689  13.440 -2.1854 -0.7039  0.6884
 7264SOL    HW233255   0.997   0.096  13.398  0.1140  0.1388 -0.1717
 7265SOL     OW33256   3.805   3.871   8.711 -0.4859 -0.9034  0.1873
 7265SOL    HW133257   3.825   3.962   8.687  0.4154 -1.6438 -1.8144
 7265SOL    HW233258   3.761   3.880   8.795  0.1940 -2.0833  0.6681
 7266SOL     OW33259   4.380   3.006   3.172 -0.2306  0.1955  0.3231
 7266SOL    HW133260   4.327   3.015   3.093 -0.7341  2.3773  0.9047
 7266SOL    HW233261   4.404   2.914   3.166  1.1837  0.6539 -1.0457
 7267SOL     OW33262   0.407   0.544   5.490 -0.1042 -0.1116 -0.6323
 7267SOL    HW133263   0.378   0.505   5.408 -0.2647 -0.3803 -0.4470
 7267SOL    HW233264   0.488   0.495   5.503  2.1063  3.4565 -0.7266
 7268SOL     OW33265   4.085   1.624  16.079  0.7722 -0.0816 -0.3395
 7268SOL    HW133266   4.014   1.657  16.134 -0.0748 -1.7268 -0.4293
 7268SOL    HW233267   4.060   1.531  16.078  1.0262 -0.1679  0.5947
 7269SOL     OW33268   2.054   1.280   9.088  0.1387  0.0662  0.3317
 7269SOL    HW133269   1.974   1.317   9.127 -0.2107 -2.0546  1.6081
 7269SOL    HW233270   2.024   1.192   9.067 -0.0866  0.0091  0.9008
 7270SOL     OW33271   2.733   3.823   4.999  0.1906 -0.2406  0.0724
 7270SOL    HW133272   2.819   3.810   4.960  0.5622  1.3645  0.3485
 7270SOL    HW233273   2.743   3.861   5.087 -2.8333 -0.4486  0.5090
 7271SOL     OW33274   1.360   0.612   3.158  0.1923 -0.3415 -0.3924
 7271SOL    HW133275   1.279   0.583   3.116 -0.7192 -0.5021  1.4376
 7271SOL    HW233276   1.401   0.643   3.078  0.4974 -0.9915 -0.4872
 7272SOL     OW33277   0.734   3.380   7.411  0.1903 -0.4023  0.1114
 7272SOL    HW133278   0.778   3.336   7.484  0.4043 -0.7935 -0.2537
 7272SOL    HW233279   0.640   3.368   7.427  0.0388  2.5260  1.3945
 7273SOL     OW33280   4.025   2.357   8.443 -0.2760  0.0680 -0.5958
 7273SOL    HW133281   4.018   2.397   8.530 -1.5354 -1.2267 -0.0777
 7273SOL    HW233282   4.013   2.433   8.388 -0.2681  1.7983  1.7812
 7274SOL     OW33283   3.703   3.766   4.680 -0.1456  0.8017 -0.2308
 7274SOL    HW133284   3.753   3.836   4.638 -1.7745  1.0814 -1.6731
 7274SOL    HW233285   3.740   3.773   4.768  0.2463 -0.7730 -0.2629
 7275SOL     OW33286   3.648   3.382   5.939  0.4015  0.0921 -0.2634
 7275SOL    HW133287   3.689   3.466   5.961  0.5016  0.0521 -0.2964
 7275SOL    HW233288   3.629   3.389   5.846  0.3827  2.5070 -0.0878
 7276SOL     OW33289   4.616   0.947   9.631 -0.7210  0.2323 -0.2838
 7276SOL    HW133290   4.575   0.864   9.653 -1.0888  0.0821 -1.5212
 7276SOL    HW233291   4.641   0.924   9.541 -0.4047  0.4746 -0.2613
 7277SOL     OW33292   2.703   4.629   3.137 -0.1148  0.2790  0.2432
 7277SOL    HW133293   2.774   4.672   3.184  0.3470  0.0717 -0.2726
 7277SOL    HW233294   2.627   4.683   3.162 -1.3984 -0.3658 -2.2441
 7278SOL     OW33295   0.777   2.189   5.745  0.2726  0.3026  0.2692
 7278SOL    HW133296   0.838   2.183   5.819  0.6869  2.5141  0.1052
 7278SOL    HW233297   0.724   2.113   5.770  3.5283 -2.1718 -0.2971
 7279SOL     OW33298   2.085   1.422   0.643  0.2454 -0.0367  0.1078
 7279SOL    HW133299   2.036   1.359   0.697 -0.6502 -0.4542 -1.1889
 7279SOL    HW233300   2.028   1.417   0.566 -1.7538 -1.2059  1.6548
 7280SOL     OW33301   3.560   2.788   5.476  0.3972  0.5716  0.2785
 7280SOL    HW133302   3.513   2.763   5.555 -2.4561 -0.8843 -1.8888
 7280SOL    HW233303   3.637   2.835   5.509 -0.7860  3.4329 -0.9777
 7281SOL     OW33304   0.982   1.099   4.662  0.0600  0.5154 -0.3359
 7281SOL    HW133305   1.031   1.179   4.680  0.1729  1.0015 -2.8050
 7281SOL    HW233306   0.923   1.136   4.596 -1.3053  1.3361  1.3513
 7282SOL     OW33307   4.351   3.352   6.104 -0.3441  0.2142 -0.7315
 7282SOL    HW133308   4.345   3.394   6.018  1.2808 -0.7653 -1.3343
 7282SOL    HW233309   4.433   3.393   6.132 -1.2495  0.5242  1.4085
 7283SOL     OW33310   1.783   2.476   4.213 -0.1221 -0.0187 -0.7619
 7283SOL    HW133311   1.805   2.394   4.168 -0.1578  1.2772 -3.1072
 7283SOL    HW233312   1.696   2.439   4.229 -0.0895 -0.0071 -0.5643
 7284SOL     OW33313   3.794   3.828  11.353  0.4347 -0.2330 -0.3275
 7284SOL    HW133314   3.755   3.800  11.270  0.5513  0.2283 -0.5350
 7284SOL    HW233315   3.873   3.774  11.362 -0.1314 -0.9462  0.4156
 7285SOL     OW33316   0.644   4.040  15.233  0.4534  0.5000  0.2239
 7285SOL    HW133317   0.669   4.119  15.281  0.5154  0.0972  0.8488
 7285SOL    HW233318   0.614   3.977  15.298 -0.4500  0.7359  0.0404
 7286SOL     OW33319   3.972   0.266   5.721 -0.0323 -0.0011  0.2491
 7286SOL    HW133320   3.934   0.278   5.807  0.7045 -1.8941  0.8387
 7286SOL    HW233321   3.940   0.350   5.688  1.8968  0.8218  0.4524
 7287SOL     OW33322   2.811   4.239   4.449  0.0097 -0.1728 -0.2064
 7287SOL    HW133323   2.902   4.246   4.478  0.3360  0.1486 -1.3237
 7287SOL    HW233324   2.779   4.200   4.531 -0.5823 -0.4593 -0.5776
 7288SOL     OW33325   3.503   2.811   7.969 -0.1215 -0.2107  0.0429
 7288SOL    HW133326   3.422   2.809   7.917  1.0505 -3.2522 -1.7017
 7288SOL    HW233327   3.465   2.790   8.054  0.1965  0.7928  0.4243
 7289SOL     OW33328   1.537   0.543  14.823 -0.3621  1.0162 -0.4486
 7289SOL    HW133329   1.608   0.578  14.769  1.1524 -1.4945 -0.1143
 7289SOL    HW233330   1.518   0.609  14.889 -1.5422  0.2454 -0.0067
 7290SOL     OW33331   3.130   3.080   0.520 -0.1111 -0.5895  0.4306
 7290SOL    HW133332   3.101   2.989   0.509 -2.2741  0.0979  0.4784
 7290SOL    HW233333   3.051   3.120   0.484 -0.4087  0.2743  2.0610
 7291SOL     OW33334   2.477   3.041   3.786  0.4934 -0.3642 -0.2943
 7291SOL    HW133335   2.508   2.954   3.808  0.9959 -0.1174 -0.0158
 7291SOL    HW233336   2.489   3.032   3.691 -1.0754 -1.4768 -0.3803
 7292SOL     OW33337   0.058   4.463   4.427  0.2897 -0.8207 -0.1026
 7292SOL    HW133338   0.046   4.376   4.387  0.5297 -0.1828 -1.5783
 7292SOL    HW233339   4.694   4.495   4.424  0.2476 -0.9897 -0.6934
 7293SOL     OW33340   2.026   4.540   3.371  0.0849 -0.0316 -0.3076
 7293SOL    HW133341   2.041   4.628   3.337  0.0454  0.1534  0.1511
 7293SOL    HW233342   1.985   4.498   3.296 -0.8023 -1.6074  1.0485
 7294SOL     OW33343   1.830   1.020   5.690  0.2276 -0.1149 -0.4771
 7294SOL    HW133344   1.876   1.089   5.643  0.5875  0.0015  0.0527
 7294SOL    HW233345   1.908   0.974   5.721  0.8678  0.3362 -1.4518
 7295SOL     OW33346   3.729   2.398   3.814  0.3308  0.0477 -0.3391
 7295SOL    HW133347   3.688   2.444   3.741  1.2190 -0.7204 -1.3210
 7295SOL    HW233348   3.820   2.401   3.785  0.4411 -0.2308 -0.0169
 7296SOL     OW33349   1.343   1.316   9.151  0.3030 -0.8858 -0.0268
 7296SOL    HW133350   1.344   1.226   9.117 -0.3340 -1.1913  0.7550
 7296SOL    HW233351   1.345   1.299   9.245  1.2191 -0.2649  0.0589
 7297SOL     OW33352   3.090   1.660  13.437 -0.2741  0.2227 -0.4697
 7297SOL    HW133353   3.016   1.631  13.490  0.2429 -0.0528  0.0941
 7297SOL    HW233354   3.148   1.585  13.441 -0.5961 -0.0533 -0.8988
 7298SOL     OW33355   2.397   3.466   9.440  0.2727 -0.1059 -0.1414
 7298SOL    HW133356   2.389   3.503   9.528 -0.4591 -0.5114 -0.0406
 7298SOL    HW233357   2.358   3.531   9.382 -3.3336 -2.6814 -0.5817
 7299SOL     OW33358   4.395   3.786   1.764 -0.6600  0.4707 -0.1447
 7299SOL    HW133359   4.393   3.828   1.850 -3.1412  1.4241 -0.6671
 7299SOL    HW233360   4.397   3.852   1.695  2.7744  0.4980 -0.0097
 7300SOL     OW33361   0.123   1.786  13.899 -0.4781  0.0184  0.7139
 7300SOL    HW133362   0.172   1.793  13.981 -0.6524  1.9789  0.6598
 7300SOL    HW233363   0.188   1.817  13.835  1.1070 -1.8091  1.4311
 7301SOL     OW33364   2.453   0.294   5.376 -1.1703  0.6642  0.3492
 7301SOL    HW133365   2.387   0.354   5.411 -0.6700 -0.9362  4.0062
 7301SOL    HW233366   2.401   0.215   5.389 -0.0648 -0.2775 -0.9377
 7302SOL     OW33367   2.113   4.266   3.971  0.2848 -0.1935 -0.7657
 7302SOL    HW133368   2.192   4.240   4.018  0.0895  0.9912  0.2245
 7302SOL    HW233369   2.140   4.235   3.885  1.2834 -0.5534 -0.3245
 7303SOL     OW33370   1.761   2.032   8.546 -0.5304 -0.5042  0.1449
 7303SOL    HW133371   1.804   1.974   8.609  0.3857  1.9124  1.7537
 7303SOL    HW233372   1.686   1.974   8.529  0.1434 -1.6378  1.0010
 7304SOL     OW33373   2.526   0.672   1.974  0.6691  0.1078 -0.0155
 7304SOL    HW133374   2.529   0.583   2.010  4.3097  0.5403  0.8020
 7304SOL    HW233375   2.614   0.679   1.937  0.2108  2.1817 -0.6611
 7305SOL     OW33376   4.216   2.028   6.798 -0.3229 -0.2846 -0.3754
 7305SOL    HW133377   4.135   2.077   6.784  0.2299  0.1286 -2.1220
 7305SOL    HW233378   4.191   1.947   6.843 -0.2066 -0.4777 -0.6623
 7306SOL     OW33379   3.097   1.348   1.165 -0.1903 -0.0567 -0.6780
 7306SOL    HW133380   3.071   1.433   1.201  3.9793  1.8958 -2.3027
 7306SOL    HW233381   3.192   1.346   1.167 -0.2097  1.7264  1.2296
 7307SOL     OW33382   0.141   2.912   6.372 -0.5912  0.2346  0.0827
 7307SOL    HW133383   0.189   2.851   6.316 -1.2462  0.8607 -1.1495
 7307SOL    HW233384   0.076   2.866   6.425 -0.5237  2.9441  2.4715
 7308SOL     OW33385   0.590   3.018   9.155 -0.6469 -0.0630 -0.1448
 7308SOL    HW133386   0.644   3.018   9.234  0.3647 -0.0850 -0.8282
 7308SOL    HW233387   0.561   2.927   9.159 -0.4216 -0.1985 -1.6888
 7309SOL     OW33388   4.384   2.815  13.713 -0.3400 -0.1195  0.4467
 7309SOL    HW133389   4.454   2.807  13.648 -1.5265  0.4845 -0.9048
 7309SOL    HW233390   4.308   2.789  13.661 -1.3639  2.9612  0.4048
 7310SOL     OW33391   0.437   4.233   5.724 -0.4511 -0.6653  0.0832
 7310SOL    HW133392   0.509   4.185   5.765  1.2141  2.7313  1.0825
 7310SOL    HW233393   0.361   4.190   5.764  0.5160 -0.5830  2.0456
 7311SOL     OW33394   2.276   3.093  14.856  0.0397  0.0771 -0.2719
 7311SOL    HW133395   2.231   3.048  14.928  1.4536  0.6968  1.0102
 7311SOL    HW233396   2.200   3.113  14.801 -1.0440 -1.2422  0.7586
 7312SOL     OW33397   4.402   1.465   0.169 -0.6109  0.1919  0.2171
 7312SOL    HW133398   4.457   1.391   0.197 -0.2156  0.3662 -0.1053
 7312SOL    HW233399   4.454   1.544   0.186 -0.2609 -0.1523  0.7765
 7313SOL     OW33400   4.136   3.534  17.108 -0.3109 -0.8269 -0.2370
 7313SOL    HW133401   4.190   3.548  17.185  1.1732 -2.2157 -1.0236
 7313SOL    HW233402   4.132   3.438  17.107 -0.7512 -0.8083 -1.6447
 7314SOL     OW33403   1.749   1.886   4.446  0.0769  0.0551 -0.8560
 7314SOL    HW133404   1.768   1.901   4.538  0.9774  0.4417 -1.1052
 7314SOL    HW233405   1.749   1.973   4.406  5.0661  0.2983 -0.2543
 7315SOL     OW33406   0.271   4.257   2.755 -0.0288 -0.2163  0.2855
 7315SOL    HW133407   0.198   4.208   2.793  1.8336 -2.2018  1.2873
 7315SOL    HW233408   0.318   4.185   2.713  0.9809 -0.3231  1.5799
 7316SOL     OW33409   3.157   0.427   4.702  0.3630 -0.1541  0.6056
 7316SOL    HW133410   3.223   0.365   4.732  1.0612  0.4458  0.3054
 7316SOL    HW233411   3.080   0.369   4.707  0.5719 -0.4832  0.0433
 7317SOL     OW33412   1.098   3.367   2.196 -1.0877  0.3527  0.0799
 7317SOL    HW133413   1.184   3.398   2.226 -1.7276  1.5598  0.6522
 7317SOL    HW233414   1.060   3.376   2.284 -1.5901  1.6901 -0.2745
 7318SOL     OW33415   1.867   2.970   5.879  0.0183  0.5693  0.0165
 7318SOL    HW133416   1.960   2.977   5.903  0.1608 -0.0970 -0.3202
 7318SOL    HW233417   1.836   2.948   5.967  0.2547  0.5762  0.1031
 7319SOL     OW33418   1.265   1.129   7.389  0.2107  0.3519  0.2359
 7319SOL    HW133419   1.226   1.074   7.457  1.6837 -0.2717  0.5981
 7319SOL    HW233420   1.267   1.085   7.304 -0.0812  0.8480 -0.0226
 7320SOL     OW33421   1.426   1.109  10.134  0.2448 -0.3681 -0.1827
 7320SOL    HW133422   1.351   1.049  10.133 -0.2452  0.2065  1.0210
 7320SOL    HW233423   1.505   1.056  10.136  0.0592 -0.6633 -0.5970
 7321SOL     OW33424   2.350   1.445   0.055 -0.5890 -0.0958 -0.4387
 7321SOL    HW133425   2.256   1.460   0.067 -0.2717 -0.0293  1.8811
 7321SOL    HW233426   2.348   1.371  17.698  2.3179  1.7320 -2.7353
 7322SOL     OW33427   3.296   0.883   7.745  0.6919 -0.3859 -0.3387
 7322SOL    HW133428   3.290   0.976   7.770  2.7344 -0.0164 -1.2297
 7322SOL    HW233429   3.384   0.868   7.710  1.4727 -0.6446  1.7307
 7323SOL     OW33430   2.048   4.239   9.730  0.3563 -0.5737  0.8597
 7323SOL    HW133431   2.074   4.209   9.817 -0.6888 -0.2590  1.2876
 7323SOL    HW233432   2.125   4.222   9.677  1.8126  1.5966  2.3097
 7324SOL     OW33433   2.473   0.518   1.661 -0.0167 -0.2886 -0.4094
 7324SOL    HW133434   2.567   0.506   1.654 -0.1078 -0.7197 -0.8719
 7324SOL    HW233435   2.469   0.557   1.574 -1.4747 -0.3177 -0.3558
 7325SOL     OW33436   1.135   3.592  12.146  0.3777  0.1502 -0.3023
 7325SOL    HW133437   1.143   3.684  12.172 -0.7848 -0.3226  1.7136
 7325SOL    HW233438   1.228   3.572  12.159 -0.0479 -0.9156  1.1092
 7326SOL     OW33439   4.561   4.568   7.613  0.1172 -0.4367  0.4554
 7326SOL    HW133440   4.533   4.647   7.660 -0.2804  0.2555 -0.9363
 7326SOL    HW233441   4.650   4.596   7.590 -0.4571  2.3923  1.5820
 7327SOL     OW33442   4.347   4.381   4.308 -0.0352 -0.0547 -0.1730
 7327SOL    HW133443   4.260   4.400   4.343  0.0110 -0.9989  0.4538
 7327SOL    HW233444   4.338   4.289   4.286  1.2065  0.2468 -1.8719
 7328SOL     OW33445   0.998   3.590   6.791  0.3946 -0.6301  0.0594
 7328SOL    HW133446   1.077   3.545   6.761  0.8281  1.9583 -2.7088
 7328SOL    HW233447   0.979   3.540   6.870 -0.5716  0.5721  0.5810
 7329SOL     OW33448   0.218   0.491  10.054 -0.2577  0.7417 -0.2104
 7329SOL    HW133449   0.264   0.530  10.128 -0.0065 -0.8235  0.4787
 7329SOL    HW233450   0.129   0.501  10.087 -0.3258 -2.1710  0.5193
 7330SOL     OW33451   0.618   1.717   8.661 -0.3152 -0.1658  0.1899
 7330SOL    HW133452   0.681   1.780   8.697  0.1498 -1.0942  0.9857
 7330SOL    HW233453   0.541   1.770   8.681 -0.1073  0.0859  0.3311
 7331SOL     OW33454   2.188   3.061  15.933 -0.6866 -0.2795 -0.1685
 7331SOL    HW133455   2.152   3.130  15.877  0.8263  0.2158 -0.5067
 7331SOL    HW233456   2.246   3.017  15.870 -1.5163 -3.3667  1.1920
 7332SOL     OW33457   2.495   1.091   8.649  0.6676 -0.4187  0.0947
 7332SOL    HW133458   2.518   1.183   8.659 -1.5162 -0.0837  2.0456
 7332SOL    HW233459   2.404   1.096   8.679 -0.3506 -0.2419 -3.0207
 7333SOL     OW33460   1.495   1.125   1.433  0.1682  0.0069 -0.7439
 7333SOL    HW133461   1.420   1.184   1.422  1.0635  1.8062  2.6774
 7333SOL    HW233462   1.458   1.037   1.431  2.3587 -0.9782  1.5927
 7334SOL     OW33463   0.166   0.838  13.042 -0.0115  0.0737 -0.3251
 7334SOL    HW133464   0.074   0.844  13.018 -0.2025  0.0973  0.4122
 7334SOL    HW233465   0.207   0.860  12.958 -1.3005  1.2495 -0.6408
 7335SOL     OW33466   0.028   1.194   7.221  0.8007 -0.1900 -0.1053
 7335SOL    HW133467   0.066   1.175   7.135 -1.1773 -0.8497 -0.8296
 7335SOL    HW233468   4.716   1.281   7.204  0.5729 -0.8665 -2.9428
 7336SOL     OW33469   3.835   2.044  17.009 -0.4834  0.2111 -0.0811
 7336SOL    HW133470   3.821   1.960  17.054  0.0978 -0.9796 -2.1143
 7336SOL    HW233471   3.876   2.090  17.083  1.6115 -1.1330 -0.3807
 7337SOL     OW33472   2.601   4.572   1.601 -0.3053 -0.2543  0.2177
 7337SOL    HW133473   2.549   4.509   1.650  0.7276 -1.4728 -0.2445
 7337SOL    HW233474   2.553   4.581   1.519 -0.7066 -1.6562  0.3029
 7338SOL     OW33475   1.575   2.624   0.624  0.5331 -0.6125 -0.1276
 7338SOL    HW133476   1.581   2.529   0.625 -0.1305 -0.6040  3.3659
 7338SOL    HW233477   1.556   2.651   0.714 -2.2718  0.5066 -1.0693
 7339SOL     OW33478   1.278   1.899   3.610  0.4040  0.5747 -0.1063
 7339SOL    HW133479   1.245   1.851   3.534  0.7757 -0.4576  0.3946
 7339SOL    HW233480   1.252   1.840   3.681  0.2017  0.5071 -0.2377
 7340SOL     OW33481   1.144   4.052   2.440  0.1314 -1.0123  0.6814
 7340SOL    HW133482   1.157   4.083   2.350  2.1365 -0.5625  1.1157
 7340SOL    HW233483   1.049   4.062   2.447  0.3690  1.7778 -0.0437
 7341SOL     OW33484   3.554   0.895   1.142 -0.2434 -0.0058 -0.7203
 7341SOL    HW133485   3.490   0.877   1.074  0.7392 -0.0922 -1.6270
 7341SOL    HW233486   3.637   0.868   1.103  0.7810  0.0822  1.4129
 7342SOL     OW33487   4.264   4.214   3.911 -0.2342  0.4932  0.4075
 7342SOL    HW133488   4.308   4.140   3.868  0.1996  1.1764 -0.3324
 7342SOL    HW233489   4.343   4.267   3.922  0.9705 -1.2142  0.0102
 7343SOL     OW33490   3.974   0.750  17.611  0.4913  0.1932 -0.3714
 7343SOL    HW133491   3.944   0.659  17.617  0.9047  0.0326 -0.7376
 7343SOL    HW233492   3.900   0.795  17.570 -0.3435 -1.5015 -0.7503
 7344SOL     OW33493   1.106   2.844   7.325  0.2361 -0.0933 -0.2757
 7344SOL    HW133494   1.106   2.932   7.287  1.6644  0.2754  0.5686
 7344SOL    HW233495   1.014   2.821   7.316 -0.1139  1.4043 -0.5214
 7345SOL     OW33496   0.148   3.502   9.304  0.7670  0.2406 -0.2508
 7345SOL    HW133497   0.239   3.529   9.314  0.8133  0.0524 -0.1694
 7345SOL    HW233498   0.157   3.460   9.219 -1.4334  1.8552 -1.2719
 7346SOL     OW33499   4.318   1.776   1.573  0.1326 -0.0095  0.2718
 7346SOL    HW133500   4.349   1.715   1.507 -0.8487  0.3130 -0.4910
 7346SOL    HW233501   4.400   1.809   1.609  1.8734 -1.6736 -2.1805
 7347SOL     OW33502   1.263   3.523  13.034  0.0830  0.3059 -0.7257
 7347SOL    HW133503   1.312   3.544  13.113 -1.3431  0.4281  0.1354
 7347SOL    HW233504   1.184   3.488  13.076 -0.5098  1.4043 -0.9248
 7348SOL     OW33505   0.586   4.054   9.009  0.1158 -0.2630 -0.0596
 7348SOL    HW133506   0.583   4.014   8.922  0.2771  1.4287 -0.8394
 7348SOL    HW233507   0.628   3.991   9.068 -1.4283 -1.6395 -0.4380
 7349SOL     OW33508   2.677   2.712   3.184 -0.0030  0.1743 -0.0048
 7349SOL    HW133509   2.647   2.628   3.151 -1.4437  0.2215  1.1568
 7349SOL    HW233510   2.606   2.763   3.144 -0.7973 -0.8223  0.1396
 7350SOL     OW33511   2.724   0.372   7.225 -0.5539 -0.1881 -0.6084
 7350SOL    HW133512   2.694   0.462   7.239 -0.6077 -0.4251  0.7619
 7350SOL    HW233513   2.637   0.333   7.217 -0.4501 -0.4520 -0.4460
 7351SOL     OW33514   0.607   2.811   7.266 -0.5662  0.0604 -0.4285
 7351SOL    HW133515   0.548   2.841   7.335  0.6492 -0.2876  0.7472
 7351SOL    HW233516   0.544   2.799   7.195 -1.6043 -1.4803  0.7614
 7352SOL     OW33517   2.855   0.973   0.047  0.7172  0.4218  0.1922
 7352SOL    HW133518   2.889   1.000   0.132 -1.1555  1.5475  0.5890
 7352SOL    HW233519   2.922   1.010  17.694 -1.6085  0.3310 -2.5962
 7353SOL     OW33520   3.191   1.073   4.957  0.2844 -0.5396 -0.3839
 7353SOL    HW133521   3.140   1.041   4.882  1.3040 -1.6381 -0.6138
 7353SOL    HW233522   3.223   1.160   4.936 -4.1228  1.5148  1.4353
 7354SOL     OW33523   3.023   0.141   4.170 -0.6899 -0.2336  0.7408
 7354SOL    HW133524   3.008   0.115   4.261 -0.6817 -0.1400  0.7688
 7354SOL    HW233525   2.951   0.090   4.131 -0.0238 -0.6353  0.0388
 7355SOL     OW33526   3.883   2.658   9.399  0.1165 -0.3447  0.5452
 7355SOL    HW133527   3.839   2.641   9.483  2.5799 -0.9051  1.7194
 7355SOL    HW233528   3.970   2.676   9.435  1.0945 -2.2315 -0.8597
 7356SOL     OW33529   3.174   2.051   4.394 -0.1817  0.6114  0.0916
 7356SOL    HW133530   3.236   2.022   4.462  0.5746 -0.5090 -1.0733
 7356SOL    HW233531   3.161   2.144   4.412 -1.2739  0.7869 -1.6199
 7357SOL     OW33532   4.255   1.190   2.655  0.5012 -0.3618  0.5334
 7357SOL    HW133533   4.315   1.206   2.728  0.7011  1.0104  0.0693
 7357SOL    HW233534   4.294   1.245   2.587  0.8220 -1.8110 -0.4367
 7358SOL     OW33535   0.229   0.026   6.068  0.3802  0.6931 -0.2246
 7358SOL    HW133536   0.318   0.059   6.058  1.2566 -1.0684  1.7384
 7358SOL    HW233537   0.182   0.091   6.120  1.3047  0.9330  0.2968
 7359SOL     OW33538   4.613   1.851   3.490  0.1634 -0.0253 -0.1438
 7359SOL    HW133539   4.528   1.849   3.534 -0.1142 -1.2365 -0.7401
 7359SOL    HW233540   4.661   1.784   3.539 -0.1181 -0.3606 -0.3235
 7360SOL     OW33541   0.367   0.841  15.539  0.5092  0.3098  0.3650
 7360SOL    HW133542   0.341   0.851  15.448 -0.8912 -1.1944  0.6109
 7360SOL    HW233543   0.437   0.780  15.518  0.2494  0.4490 -0.8540
 7361SOL     OW33544   1.821   0.667   1.676  0.2122 -0.9818 -0.4102
 7361SOL    HW133545   1.830   0.703   1.764  0.8135  0.8636 -1.2291
 7361SOL    HW233546   1.849   0.741   1.622  0.4608 -0.2676  0.7185
 7362SOL     OW33547   0.371   2.153   1.623 -0.3593  0.0047 -0.1146
 7362SOL    HW133548   0.358   2.073   1.572 -1.8021 -0.5619  1.1646
 7362SOL    HW233549   0.328   2.220   1.569 -0.5862  0.4515  0.6242
 7363SOL     OW33550   1.122   1.667   7.625  0.1500 -0.0384 -0.0467
 7363SOL    HW133551   1.079   1.664   7.711  1.5632  1.3830  0.7239
 7363SOL    HW233552   1.192   1.607   7.652 -2.0023 -3.3229 -1.7891
 7364SOL     OW33553   4.699   1.767   2.463 -0.8906  0.2831 -0.0596
 7364SOL    HW133554   0.047   1.759   2.404 -1.0741  0.0767 -0.2610
 7364SOL    HW233555   4.630   1.804   2.408  0.0573 -0.9415 -2.0822
 7365SOL     OW33556   3.366   3.138   4.501 -0.0387  0.0821  0.1434
 7365SOL    HW133557   3.347   3.092   4.419  0.2737  0.1577  0.0304
 7365SOL    HW233558   3.280   3.175   4.525  0.4551 -0.4169  2.6542
 7366SOL     OW33559   0.027   2.787   1.951 -0.2492 -0.6811  0.4062
 7366SOL    HW133560   4.712   2.769   2.036 -0.4808  3.2951  1.1271
 7366SOL    HW233561   0.120   2.779   1.974 -0.1217  2.2678  0.8624
 7367SOL     OW33562   4.111   1.177   2.902 -0.0145  0.2819 -0.0523
 7367SOL    HW133563   4.119   1.177   2.806  1.9288 -1.9289  0.1125
 7367SOL    HW233564   4.056   1.254   2.913  0.2001  0.5192 -0.6112
 7368SOL     OW33565   4.256   3.555  16.561  0.4046 -0.4567  0.6306
 7368SOL    HW133566   4.263   3.577  16.653  0.7230  1.3375  0.1738
 7368SOL    HW233567   4.329   3.611  16.533 -2.5856  2.3688 -1.4379
 7369SOL     OW33568   2.531   4.564   3.442  0.0659  0.1470 -0.3081
 7369SOL    HW133569   2.545   4.495   3.506  0.9662 -0.3785 -1.0678
 7369SOL    HW233570   2.449   4.541   3.399  1.2108  0.3063 -2.6091
 7370SOL     OW33571   0.172   3.405   3.293  0.4101 -0.1317  0.2256
 7370SOL    HW133572   0.093   3.398   3.240  2.4038 -2.5043 -2.5238
 7370SOL    HW233573   0.221   3.467   3.239 -0.1946 -2.9370 -3.6059
 7371SOL     OW33574   0.777   2.195   8.933  0.1121 -0.0146 -0.2680
 7371SOL    HW133575   0.707   2.257   8.913 -1.1587 -0.8926  1.4641
 7371SOL    HW233576   0.831   2.225   8.860  0.4344  2.8290  1.1194
 7372SOL     OW33577   2.589   1.073   1.368  0.4313  0.5422 -0.0833
 7372SOL    HW133578   2.575   0.979   1.381  1.3046  0.3636 -0.4725
 7372SOL    HW233579   2.684   1.068   1.379  0.4750 -0.1153 -0.7908
 7373SOL     OW33580   1.220   1.000   6.387  0.2200 -0.5357 -0.4075
 7373SOL    HW133581   1.282   0.980   6.317  1.1322 -0.5001  0.3907
 7373SOL    HW233582   1.177   1.083   6.362 -0.4759  0.0653  2.7879
 7374SOL     OW33583   4.621   1.699   0.917  0.0305 -0.0177 -0.6366
 7374SOL    HW133584   4.542   1.697   0.864  0.4409 -2.1598 -1.1631
 7374SOL    HW233585   4.670   1.630   0.871  1.4876 -0.1274  1.0545
 7375SOL     OW33586   1.244   4.437   3.840  0.1826 -0.0297  0.0231
 7375SOL    HW133587   1.339   4.446   3.833  0.3815 -0.8333  1.7290
 7375SOL    HW233588   1.212   4.527   3.831 -2.6259 -1.1402 -1.0561
 7376SOL     OW33589   0.713   0.915   5.924 -0.1759  0.2488 -0.4131
 7376SOL    HW133590   0.678   0.829   5.949  0.3594 -0.0160 -0.5694
 7376SOL    HW233591   0.632   0.963   5.908 -1.0597 -1.5644 -1.3807
 7377SOL     OW33592   3.073   3.439   7.308 -0.3839  0.1633  0.1678
 7377SOL    HW133593   3.134   3.418   7.238 -1.5628 -0.7687 -0.5748
 7377SOL    HW233594   3.068   3.534   7.295  2.6176  0.5720  1.8480
 7378SOL     OW33595   0.554   2.113  14.364 -0.0353 -0.4253  0.1315
 7378SOL    HW133596   0.603   2.065  14.431  0.6364  1.0911  0.7236
 7378SOL    HW233597   0.597   2.198  14.366 -1.5752  0.3526  0.3383
 7379SOL     OW33598   1.272   3.091   6.832  0.1750 -0.3758 -0.1681
 7379SOL    HW133599   1.179   3.114   6.841  0.2820 -0.0733  0.1460
 7379SOL    HW233600   1.265   2.996   6.842  3.5400 -0.6881 -1.0045
 7380SOL     OW33601   3.167   1.108   8.344 -0.1348 -0.2292 -0.1190
 7380SOL    HW133602   3.201   1.019   8.350  0.4109  0.1903  3.3436
 7380SOL    HW233603   3.229   1.143   8.281  0.7809 -0.0096  0.8999
 7381SOL     OW33604   0.086   4.415   7.077  0.3542 -0.4298 -0.1222
 7381SOL    HW133605   0.169   4.451   7.107  0.6625 -2.5511  1.5782
 7381SOL    HW233606   0.034   4.431   7.156 -0.0820  0.6900 -0.6324
 7382SOL     OW33607   0.669   3.144   8.628  0.4720 -0.4054  0.3644
 7382SOL    HW133608   0.762   3.166   8.615  0.9313 -2.7593 -0.3899
 7382SOL    HW233609   0.674   3.127   8.722 -3.5517  1.2051  0.8632
 7383SOL     OW33610   2.088   1.200   2.512  0.3074  0.1420 -0.4117
 7383SOL    HW133611   2.008   1.177   2.464  0.7847 -1.9639 -0.2170
 7383SOL    HW233612   2.060   1.247   2.590  0.2123  0.4315 -0.6193
 7384SOL     OW33613   4.434   0.105   6.596  0.8494 -0.2522 -0.0714
 7384SOL    HW133614   4.480   0.027   6.627  2.1897  0.5010 -0.1877
 7384SOL    HW233615   4.489   0.165   6.645 -0.3633  0.5636  0.3096
 7385SOL     OW33616   0.673   1.017  11.180  0.1900 -0.4204  0.5205
 7385SOL    HW133617   0.585   1.055  11.189 -0.3170 -1.7727  1.2037
 7385SOL    HW233618   0.665   0.937  11.230  2.6172 -2.1802 -1.9034
 7386SOL     OW33619   2.718   4.394   7.686 -0.4083  0.2249 -0.1326
 7386SOL    HW133620   2.797   4.393   7.632  1.3327 -0.4089  2.4064
 7386SOL    HW233621   2.676   4.314   7.656  0.0323 -0.9546  2.3822
 7387SOL     OW33622   0.833   2.613   5.896  0.3365  0.3355 -0.2972
 7387SOL    HW133623   0.920   2.626   5.860  0.2015 -2.3820 -1.5649
 7387SOL    HW233624   0.820   2.701   5.932  2.2062  0.1180  0.8775
 7388SOL     OW33625   3.081   3.084   5.387 -0.0499 -0.4301 -0.0758
 7388SOL    HW133626   3.116   3.171   5.366 -2.5360  1.0657  1.9159
 7388SOL    HW233627   3.005   3.075   5.330 -1.5849 -0.2315  1.9403
 7389SOL     OW33628   3.509   2.955   8.810 -0.6497  0.4105  0.3371
 7389SOL    HW133629   3.525   2.938   8.903  1.2911 -0.0898 -0.0813
 7389SOL    HW233630   3.562   2.895   8.757  0.4219  4.4313 -3.1381
 7390SOL     OW33631   4.600   3.889   9.784 -0.4438 -0.1936 -0.0342
 7390SOL    HW133632   4.624   3.978   9.759  0.2359  0.0452  1.4970
 7390SOL    HW233633   4.636   3.885   9.873 -0.4550 -0.2856 -0.0340
 7391SOL     OW33634   3.066   1.324  12.574  0.0368 -0.3837 -0.2383
 7391SOL    HW133635   3.095   1.281  12.494 -1.3220 -0.0034 -0.9340
 7391SOL    HW233636   3.094   1.256  12.636  1.0111  0.7202  0.5273
 7392SOL     OW33637   3.743   2.949   7.831  0.1243 -0.3563 -0.1112
 7392SOL    HW133638   3.766   2.932   7.922  1.5203  0.2331 -0.3654
 7392SOL    HW233639   3.651   2.921   7.833  0.1745 -0.6294 -1.5222
 7393SOL     OW33640   1.465   2.812   0.178  0.5367 -0.4379 -0.2677
 7393SOL    HW133641   1.513   2.761   0.243  2.0249  0.0340 -0.9923
 7393SOL    HW233642   1.530   2.880   0.157 -1.2211  1.7876  1.5583
 7394SOL     OW33643   3.193   2.991  15.650  0.2811  0.0307 -0.0937
 7394SOL    HW133644   3.153   2.929  15.711 -1.2946  1.1004 -0.0269
 7394SOL    HW233645   3.154   2.963  15.567  0.2485 -1.5753  0.4606
 7395SOL     OW33646   4.310   0.646  16.581  0.1924 -0.3041 -0.4297
 7395SOL    HW133647   4.365   0.601  16.645 -0.5043  0.0410  0.4181
 7395SOL    HW233648   4.290   0.732  16.618  2.1576 -0.0584  0.0427
 7396SOL     OW33649   4.102   4.118   8.823 -0.5285 -0.3615 -0.1415
 7396SOL    HW133650   4.014   4.092   8.795 -0.8125 -1.0975  1.4355
 7396SOL    HW233651   4.155   4.040   8.812  0.2692  0.0350  0.9067
 7397SOL     OW33652   2.701   4.095  12.571  0.7012 -0.0144 -0.1903
 7397SOL    HW133653   2.686   4.022  12.632  1.1575 -1.9307 -2.4037
 7397SOL    HW233654   2.632   4.066  12.511  0.1630 -1.5406  1.1422
 7398SOL     OW33655   2.580   0.573   4.610 -0.2684 -0.7164 -0.0953
 7398SOL    HW133656   2.506   0.583   4.551  1.2974 -1.7078 -2.2211
 7398SOL    HW233657   2.621   0.495   4.573 -2.4147 -1.5366 -0.7079
 7399SOL     OW33658   2.171   3.053   5.815 -0.8511  0.3688  0.0608
 7399SOL    HW133659   2.145   3.051   5.723 -2.9225 -0.9565  0.6640
 7399SOL    HW233660   2.246   3.113   5.812  1.4750 -2.5574 -1.1194
 7400SOL     OW33661   0.834   3.452   4.015  0.3452  0.5669 -0.4226
 7400SOL    HW133662   0.769   3.449   3.944 -0.8587  1.3769  0.6365
 7400SOL    HW233663   0.865   3.543   4.023  1.2140  0.2824 -0.6240
 7401SOL     OW33664   3.539   3.732  16.157 -0.5566 -0.6732  0.4868
 7401SOL    HW133665   3.626   3.698  16.179  0.4594  1.0064 -0.9668
 7401SOL    HW233666   3.551   3.796  16.087 -1.0295  0.1226  1.1288
 7402SOL     OW33667   1.592   1.106   5.573 -0.2220 -0.3796  0.3843
 7402SOL    HW133668   1.663   1.081   5.633 -0.9900  1.4279  2.0479
 7402SOL    HW233669   1.623   1.185   5.528 -1.3366  0.5007  1.1717
 7403SOL     OW33670   2.224   0.301   9.147  0.2711 -0.1473 -1.3549
 7403SOL    HW133671   2.305   0.353   9.148  0.0589  0.1538 -0.0893
 7403SOL    HW233672   2.226   0.256   9.062 -1.4669  0.0421 -1.4853
 7404SOL     OW33673   3.964   0.402   1.350  0.1129  0.0317 -0.4528
 7404SOL    HW133674   3.887   0.403   1.407 -0.6412  1.6626 -1.5184
 7404SOL    HW233675   4.030   0.374   1.413 -0.1527 -0.7141 -0.4960
 7405SOL     OW33676   0.319   4.292  10.977 -0.0978 -0.5555  0.4474
 7405SOL    HW133677   0.250   4.351  11.006 -1.1272 -1.2321 -0.6414
 7405SOL    HW233678   0.390   4.353  10.957 -1.1178  0.4719 -0.0397
 7406SOL     OW33679   1.660   0.110   2.839  0.3225  0.5044 -0.3292
 7406SOL    HW133680   1.591   0.045   2.830  1.1203 -0.6050  1.7596
 7406SOL    HW233681   1.651   0.134   2.931  1.5078  0.3170 -0.1566
 7407SOL     OW33682   1.052   2.619   9.993 -0.1353  0.0849 -0.4136
 7407SOL    HW133683   1.040   2.676   9.917 -0.1412 -0.5696 -0.9117
 7407SOL    HW233684   1.113   2.551   9.963 -1.8013 -1.4793 -0.2668
 7408SOL     OW33685   1.158   1.618   3.142 -0.0952  0.3590 -0.0063
 7408SOL    HW133686   1.090   1.683   3.158  0.4494  0.9148  0.0312
 7408SOL    HW233687   1.145   1.563   3.219  1.7855  0.9593  0.7442
 7409SOL     OW33688   1.062   1.498   8.962  0.1668  0.1118 -0.5767
 7409SOL    HW133689   1.038   1.414   9.000  1.1117  0.2596  0.3501
 7409SOL    HW233690   1.141   1.475   8.913 -1.9884  0.6243 -4.2326
 7410SOL     OW33691   2.878   1.507   0.804  0.0281 -0.1516 -0.7598
 7410SOL    HW133692   2.785   1.490   0.819 -0.0878  0.8000 -0.3533
 7410SOL    HW233693   2.888   1.601   0.819  0.8853 -0.0863 -1.7382
 7411SOL     OW33694   2.361   1.709  16.717 -0.0770 -0.3034  0.7670
 7411SOL    HW133695   2.360   1.625  16.672  2.7400 -0.0791  0.2836
 7411SOL    HW233696   2.444   1.712  16.763  0.9461 -1.9774 -0.9907
 7412SOL     OW33697   1.216   0.641   3.402  0.6187 -0.0600 -0.7173
 7412SOL    HW133698   1.255   0.706   3.344 -1.2295  0.0056 -1.8800
 7412SOL    HW233699   1.229   0.561   3.351 -0.4733 -0.2650 -0.6638
 7413SOL     OW33700   1.967   2.034   6.199 -0.4401  0.4697  0.1406
 7413SOL    HW133701   2.001   2.112   6.154  1.2313  0.0098  0.5833
 7413SOL    HW233702   1.885   2.011   6.156 -0.2259 -1.9189  1.0110
 7414SOL     OW33703   1.944   3.187   8.172  0.0803  0.5125 -0.1547
 7414SOL    HW133704   1.966   3.229   8.255 -2.3178  0.3609  0.5544
 7414SOL    HW233705   1.932   3.257   8.108 -0.3738 -0.3118 -0.9874
 7415SOL     OW33706   0.607   0.779   5.578 -0.1127 -0.7054 -0.2637
 7415SOL    HW133707   0.541   0.836   5.540 -0.0841 -0.3913  0.1543
 7415SOL    HW233708   0.559   0.698   5.593  1.7059 -1.7685 -0.1598
 7416SOL     OW33709   4.659   4.141  10.777  0.5530  0.4637 -0.5522
 7416SOL    HW133710   4.654   4.177  10.688  1.2530  1.9866  0.0339
 7416SOL    HW233711   4.580   4.086  10.786  0.3607  0.7283 -0.6188
 7417SOL     OW33712   1.917   3.455   6.603 -0.1699 -0.0448  0.4634
 7417SOL    HW133713   1.877   3.375   6.638 -1.1493  0.8583  1.3934
 7417SOL    HW233714   1.966   3.486   6.679 -2.9965 -0.5602  2.4992
 7418SOL     OW33715   3.415   1.412   8.780  0.1464 -0.1964  0.1129
 7418SOL    HW133716   3.378   1.347   8.720 -1.8695 -0.3551  1.5339
 7418SOL    HW233717   3.335   1.442   8.822 -0.6730  0.8195 -2.2146
 7419SOL     OW33718   0.992   4.136   8.029  0.2397  0.2933 -0.1346
 7419SOL    HW133719   1.023   4.063   8.082 -1.3912 -0.6973 -0.5355
 7419SOL    HW233720   1.073   4.186   8.020  0.4876 -0.4068 -1.9027
 7420SOL     OW33721   3.069   3.626   5.049  0.2107  0.2569  0.4852
 7420SOL    HW133722   3.040   3.717   5.060  0.3818  0.4292 -0.4858
 7420SOL    HW233723   3.034   3.606   4.963 -2.7167  1.2375  1.4346
 7421SOL     OW33724   0.285   1.781   0.936 -0.1076  0.6721 -0.8739
 7421SOL    HW133725   0.379   1.759   0.932  0.0229  0.9359  0.8237
 7421SOL    HW233726   0.250   1.692   0.941 -1.0513  1.0097 -1.6624
 7422SOL     OW33727   4.633   3.448   9.491  0.1202 -0.4943  0.2579
 7422SOL    HW133728   4.685   3.486   9.420  2.7696  2.6269  3.8393
 7422SOL    HW233729   4.700   3.452   9.558 -1.4971  2.8080  1.6875
 7423SOL     OW33730   1.233   1.345   5.219  0.3011 -0.2683  0.3450
 7423SOL    HW133731   1.193   1.266   5.183  0.2106 -0.1158  0.1082
 7423SOL    HW233732   1.174   1.397   5.164  1.0714  0.4009  0.1533
 7424SOL     OW33733   2.479   0.691   0.421 -0.4627 -0.1973 -0.2232
 7424SOL    HW133734   2.548   0.756   0.432 -1.3931  0.7079  0.2749
 7424SOL    HW233735   2.455   0.682   0.513  4.1758 -0.9360  0.8773
 7425SOL     OW33736   1.417   4.177   1.994  0.0547  0.0300 -0.1058
 7425SOL    HW133737   1.373   4.103   1.952 -0.0803 -0.2488  0.5197
 7425SOL    HW233738   1.480   4.206   1.928 -0.4580 -1.3175 -1.1800
 7426SOL     OW33739   2.970   0.723  13.902  0.4242 -0.2415 -0.3743
 7426SOL    HW133740   2.922   0.782  13.960  2.2195 -0.2076  1.1141
 7426SOL    HW233741   2.949   0.759  13.817 -1.7796  1.5420  0.9412
 7427SOL     OW33742   2.539   4.447   9.460 -0.2066  0.5615 -0.2809
 7427SOL    HW133743   2.514   4.492   9.379  0.8329  2.6055  0.5336
 7427SOL    HW233744   2.500   4.500   9.530  0.2429  0.8045 -0.2158
 7428SOL     OW33745   4.068   0.586   3.329  0.0752  0.3983 -0.0654
 7428SOL    HW133746   4.032   0.541   3.405 -1.4899  1.6495 -0.0474
 7428SOL    HW233747   3.993   0.619   3.279  1.1605  1.1794 -1.1835
 7429SOL     OW33748   3.985   1.166   7.543  0.4331 -0.7297 -0.3752
 7429SOL    HW133749   3.897   1.128   7.544 -1.3055  3.2332 -0.3460
 7429SOL    HW233750   3.971   1.236   7.479 -0.7794 -0.4909  0.1546
 7430SOL     OW33751   3.089   1.429   2.359 -0.2492  0.1730 -0.6992
 7430SOL    HW133752   3.081   1.412   2.453  0.6650 -2.2751 -1.0728
 7430SOL    HW233753   3.141   1.354   2.331 -0.7820 -0.1917 -0.7036
 7431SOL     OW33754   3.706   3.902   3.344  0.2498  0.3671 -0.5218
 7431SOL    HW133755   3.664   3.816   3.345 -0.9458  0.9265 -1.8722
 7431SOL    HW233756   3.741   3.901   3.254  0.7793 -1.4934 -0.3099
 7432SOL     OW33757   3.439   1.255   5.030 -0.3023  0.0538 -0.5965
 7432SOL    HW133758   3.534   1.251   5.020 -0.3312  2.1042 -1.6437
 7432SOL    HW233759   3.414   1.343   5.002 -0.1152  0.6867  1.2522
 7433SOL     OW33760   0.619   4.054   0.396 -0.1940 -0.1045 -0.1946
 7433SOL    HW133761   0.661   4.040   0.480 -1.7132 -1.1876  0.3740
 7433SOL    HW233762   0.573   3.972   0.380 -1.1441  0.7504 -1.8238
 7434SOL     OW33763   0.124   3.872   5.730  0.1056  0.1248  0.6862
 7434SOL    HW133764   0.158   3.960   5.746 -0.9317  0.4674  0.9951
 7434SOL    HW233765   0.083   3.851   5.814 -0.0918 -0.1433  0.5212
 7435SOL     OW33766   1.509   1.649   1.436  0.7552 -0.3797 -0.1869
 7435SOL    HW133767   1.569   1.577   1.453  0.3810 -0.6859 -0.1665
 7435SOL    HW233768   1.438   1.594   1.404  1.0387  0.1856 -1.8038
 7436SOL     OW33769   1.395   1.038   9.078 -0.0491  0.1900  0.6339
 7436SOL    HW133770   1.466   1.013   9.137  0.2117  1.0743  0.7046
 7436SOL    HW233771   1.364   0.948   9.073 -0.4725  0.3250  0.8383
 7437SOL     OW33772   2.013   1.595   7.935 -0.3907 -0.5393  0.3061
 7437SOL    HW133773   1.927   1.591   7.893 -0.8775 -1.7738  1.4274
 7437SOL    HW233774   2.001   1.656   8.008 -0.4057 -2.3642  1.8053
 7438SOL     OW33775   0.798   2.859   3.254 -0.4105 -0.6350 -0.8060
 7438SOL    HW133776   0.864   2.842   3.322 -1.5626 -1.5859  0.0774
 7438SOL    HW233777   0.856   2.845   3.179 -0.9433 -3.5707 -0.6844
 7439SOL     OW33778   0.295   3.184   3.385  0.2374 -0.3979  0.2846
 7439SOL    HW133779   0.375   3.222   3.350  0.5799 -0.9474  0.4672
 7439SOL    HW233780   0.234   3.256   3.372  0.7783 -0.2413 -1.3597
 7440SOL     OW33781   0.428   2.119   8.164 -0.7321 -0.3369 -0.0920
 7440SOL    HW133782   0.513   2.140   8.203  0.2867  1.0931 -3.0619
 7440SOL    HW233783   0.367   2.106   8.236 -2.6195  0.9748 -1.4378
 7441SOL     OW33784   0.821   4.287  16.656 -0.9157  0.2871 -0.5884
 7441SOL    HW133785   0.813   4.375  16.617  2.0483  0.8291  0.0049
 7441SOL    HW233786   0.827   4.239  16.573  1.6664 -0.3001 -0.0476
 7442SOL     OW33787   1.582   0.897  10.270 -0.3382  0.1424  0.3864
 7442SOL    HW133788   1.662   0.845  10.266  0.1535  0.9731 -0.6712
 7442SOL    HW233789   1.512   0.831  10.271 -0.4968  0.3409  2.0145
 7443SOL     OW33790   2.668   4.646  12.666  0.2105 -0.2091 -0.1963
 7443SOL    HW133791   2.709   4.725  12.700  0.1638 -0.7581  1.1657
 7443SOL    HW233792   2.741   4.590  12.640  0.7335 -0.1483  1.1542
 7444SOL     OW33793   0.343   3.347   4.802 -0.1319 -0.1710  0.3046
 7444SOL    HW133794   0.398   3.410   4.756  0.0269  0.1068  0.8698
 7444SOL    HW233795   0.279   3.331   4.733 -0.4306 -2.2161  1.0614
 7445SOL     OW33796   1.770   2.285  14.514 -0.4731  0.5053 -0.1897
 7445SOL    HW133797   1.700   2.252  14.458 -0.4664 -1.9845  1.2871
 7445SOL    HW233798   1.849   2.258  14.468  0.5143  1.5136  0.9379
 7446SOL     OW33799   1.839   0.911   4.296 -0.3848  0.3204 -0.1846
 7446SOL    HW133800   1.874   0.836   4.247  0.3141  0.3225  0.3187
 7446SOL    HW233801   1.751   0.924   4.260 -0.3561  0.5041 -0.1876
 7447SOL     OW33802   3.982   1.939  13.292  0.1695  0.1500  0.4585
 7447SOL    HW133803   3.908   1.895  13.251  0.1459 -0.0123  0.6708
 7447SOL    HW233804   3.981   1.895  13.377 -0.7671  0.1438  0.4433
 7448SOL     OW33805   3.376   3.333  15.666  0.2077  0.1978 -0.3254
 7448SOL    HW133806   3.363   3.406  15.726  1.9137  0.2207 -0.0016
 7448SOL    HW233807   3.452   3.366  15.619  0.1862  1.7896  0.7501
 7449SOL     OW33808   4.589   3.831  10.819  0.7241 -0.1500  0.0563
 7449SOL    HW133809   4.521   3.777  10.780  1.0836  0.1483 -0.9740
 7449SOL    HW233810   4.631   3.860  10.738 -0.4249 -0.1534 -0.5265
 7450SOL     OW33811   3.354   3.752   3.739  0.0234  0.1974 -0.8193
 7450SOL    HW133812   3.313   3.666   3.723 -1.2427  0.5956  0.2275
 7450SOL    HW233813   3.419   3.724   3.803 -1.4744 -0.2284  0.5139
 7451SOL     OW33814   3.339   0.037   3.018 -0.3514 -0.0055  0.3111
 7451SOL    HW133815   3.293   4.723   2.944  0.1730  2.5660 -1.3925
 7451SOL    HW233816   3.326   4.704   3.092 -2.2527  0.6695  0.5078
 7452SOL     OW33817   3.510   0.981   5.961  0.2911  0.1205 -0.5488
 7452SOL    HW133818   3.431   1.035   5.958  0.6308  0.6094 -0.6181
 7452SOL    HW233819   3.557   1.029   5.893 -2.4658  1.2852 -1.6479
 7453SOL     OW33820   3.289   3.607   9.468 -0.2137  0.5293 -0.2185
 7453SOL    HW133821   3.319   3.698   9.463  0.0297  0.4314 -0.5412
 7453SOL    HW233822   3.328   3.577   9.550  1.6931  0.5552 -1.1239
 7454SOL     OW33823   4.426   2.968   3.562 -0.1943 -0.4558  0.1464
 7454SOL    HW133824   4.462   2.986   3.475  0.0002  1.0280  0.5420
 7454SOL    HW233825   4.368   2.895   3.538  0.9362 -1.8187  1.5199
 7455SOL     OW33826   0.624   1.805   4.533 -0.0256 -0.4139  0.1425
 7455SOL    HW133827   0.531   1.827   4.542  0.8697  3.2223  0.6293
 7455SOL    HW233828   0.649   1.807   4.625  0.3270 -1.0884  0.0623
 7456SOL     OW33829   2.176   2.586   6.795  0.2290 -0.0702  0.2782
 7456SOL    HW133830   2.256   2.623   6.832  0.6969  1.1037 -1.8592
 7456SOL    HW233831   2.188   2.609   6.703 -1.1848  0.6577  0.2732
 7457SOL     OW33832   3.588   3.059   2.108  0.3659  0.0920  0.2692
 7457SOL    HW133833   3.628   3.143   2.084  1.0484 -0.2061  0.3565
 7457SOL    HW233834   3.543   3.050   2.024  1.0317  0.1878 -0.1024
 7458SOL     OW33835   1.544   4.362   2.662 -0.0070 -0.4198  0.1257
 7458SOL    HW133836   1.557   4.442   2.612  1.1874  0.9854  2.6875
 7458SOL    HW233837   1.495   4.323   2.589 -1.1911  0.4901  0.4428
 7459SOL     OW33838   4.228   3.920   6.738 -0.0328 -0.6522  0.4217
 7459SOL    HW133839   4.182   3.937   6.820 -1.1392 -2.0796  0.0862
 7459SOL    HW233840   4.192   3.988   6.682  3.2424 -0.5217 -1.5696
 7460SOL     OW33841   1.337   1.308   4.518 -0.3258 -0.2927 -0.1288
 7460SOL    HW133842   1.433   1.313   4.520 -0.3350  0.7210 -2.0802
 7460SOL    HW233843   1.321   1.228   4.467 -1.6633 -0.4576  0.5549
 7461SOL     OW33844   2.076   0.127  14.591  0.0531 -0.0403  0.3404
 7461SOL    HW133845   2.003   0.116  14.530 -0.6574  0.7151  1.0546
 7461SOL    HW233846   2.043   0.086  14.671 -0.0903  0.4769  0.5463
 7462SOL     OW33847   2.900   2.069   3.564  0.0755 -0.1212  0.0088
 7462SOL    HW133848   2.968   2.003   3.552  1.5140  0.7079  3.4328
 7462SOL    HW233849   2.872   2.050   3.654  0.0594 -0.5368 -0.0861
 7463SOL     OW33850   0.039   1.768   7.411 -1.0563 -0.1556  0.0043
 7463SOL    HW133851   0.090   1.699   7.368  0.3343  1.9727 -1.7511
 7463SOL    HW233852   4.717   1.717   7.477  0.3204 -0.9535  0.3964
 7464SOL     OW33853   4.066   3.511   5.796  0.7979  0.0785 -0.2100
 7464SOL    HW133854   3.994   3.492   5.736  0.5475  1.8212 -0.4870
 7464SOL    HW233855   4.065   3.607   5.789 -0.0727  0.2416  2.0538
 7465SOL     OW33856   2.294   0.016   2.687  0.0896 -0.0429  0.7674
 7465SOL    HW133857   2.342   0.071   2.625  1.1975 -0.5623  1.1571
 7465SOL    HW233858   2.210   0.056   2.666  0.6228  1.7642  2.1347
 7466SOL     OW33859   4.345   2.814   8.470  0.8175 -0.2294 -0.1711
 7466SOL    HW133860   4.399   2.798   8.547 -0.9071  1.9804  1.5067
 7466SOL    HW233861   4.404   2.877   8.428 -0.3941  0.2943 -1.0771
 7467SOL     OW33862   1.629   1.374   1.198 -0.2606  0.1143 -0.3524
 7467SOL    HW133863   1.644   1.384   1.292  0.3701  0.7514 -0.5225
 7467SOL    HW233864   1.715   1.402   1.168 -0.8108  0.9899 -1.1364
 7468SOL     OW33865   0.871   4.268  10.946  0.2901 -0.2181 -0.4000
 7468SOL    HW133866   0.790   4.224  10.970  0.6551 -1.0716 -0.7131
 7468SOL    HW233867   0.928   4.201  10.909 -1.5764 -0.9539 -1.9090
 7469SOL     OW33868   0.297   2.928   5.217  0.2332  0.0531 -0.2014
 7469SOL    HW133869   0.254   2.973   5.144 -0.1883  1.6531  1.0206
 7469SOL    HW233870   0.276   3.005   5.271 -1.7868 -0.7129  0.0851
 7470SOL     OW33871   1.566   0.897   6.499 -0.3170 -0.0963 -0.1011
 7470SOL    HW133872   1.489   0.854   6.537 -0.8109  2.0443  1.2988
 7470SOL    HW233873   1.623   0.824   6.472 -0.5921 -0.0460 -0.8136
 7471SOL     OW33874   3.406   0.411   5.578 -0.5014  0.0198  0.3320
 7471SOL    HW133875   3.464   0.454   5.515 -1.0886  1.0337  0.4724
 7471SOL    HW233876   3.473   0.380   5.639  1.9032  1.8926 -1.3428
 7472SOL     OW33877   1.241   3.926   0.562  0.3291 -0.1162  0.1506
 7472SOL    HW133878   1.225   4.019   0.552  0.3919 -0.2470 -1.1448
 7472SOL    HW233879   1.311   3.920   0.496 -2.0882 -2.0393 -2.2295
 7473SOL     OW33880   1.111   3.160   5.990  0.2637  0.2581  0.5421
 7473SOL    HW133881   1.143   3.094   5.929  0.0030  0.4551  0.1917
 7473SOL    HW233882   1.073   3.228   5.935  2.6643  0.8724 -0.3699
 7474SOL     OW33883   4.355   1.407   3.717  0.1367 -0.2725  0.0066
 7474SOL    HW133884   4.300   1.328   3.724  0.0675 -0.2186  0.0665
 7474SOL    HW233885   4.440   1.371   3.691 -1.3624 -1.1395 -3.7655
 7475SOL     OW33886   0.331   0.609   5.973  0.3361  0.3051 -0.1800
 7475SOL    HW133887   0.277   0.567   6.040  1.4699 -2.1798 -0.8283
 7475SOL    HW233888   0.268   0.642   5.909  1.9397 -0.0037 -1.9016
 7476SOL     OW33889   2.284   4.270   6.281  0.1736 -0.0931 -0.0153
 7476SOL    HW133890   2.304   4.198   6.339 -1.5317  0.5164  1.3205
 7476SOL    HW233891   2.294   4.338   6.348  1.0259 -0.4176  0.1715
 7477SOL     OW33892   2.719   0.483   4.026  0.4740 -0.0218 -0.1798
 7477SOL    HW133893   2.761   0.459   3.944  0.4178 -1.3563  0.1867
 7477SOL    HW233894   2.753   0.572   4.031  0.2421  0.0229  0.6962
 7478SOL     OW33895   2.916   2.961   2.078  0.0016 -0.4911  0.4682
 7478SOL    HW133896   2.932   2.886   2.020  1.7405 -0.4514  0.9065
 7478SOL    HW233897   2.988   3.016   2.048 -1.4716  0.9875 -0.3694
 7479SOL     OW33898   4.192   0.291  15.377 -0.5540  0.1078  0.3770
 7479SOL    HW133899   4.174   0.273  15.469 -3.5168 -1.2380 -0.4704
 7479SOL    HW233900   4.216   0.204  15.347  0.7889  0.8876 -0.7955
 7480SOL     OW33901   4.487   1.914   2.356 -0.2042 -0.2136  0.2201
 7480SOL    HW133902   4.456   1.972   2.426 -0.0959 -0.3525  0.3832
 7480SOL    HW233903   4.558   1.969   2.324 -0.8549 -0.7214 -2.0393
 7481SOL     OW33904   3.176   2.555   1.363 -0.1948 -0.3954 -0.3415
 7481SOL    HW133905   3.107   2.619   1.347  3.4184  4.1254  1.9452
 7481SOL    HW233906   3.138   2.505   1.435 -0.1702  1.4033  0.9288
 7482SOL     OW33907   0.634   3.376   4.649  0.1564  0.3172 -0.1699
 7482SOL    HW133908   0.607   3.384   4.558 -0.4091 -2.1688 -0.2337
 7482SOL    HW233909   0.594   3.452   4.692  1.8320  0.9120  0.3140
 7483SOL     OW33910   3.131   1.512   5.312  0.0942 -0.3746 -0.1525
 7483SOL    HW133911   3.064   1.541   5.249  2.1653 -0.9684 -2.6425
 7483SOL    HW233912   3.099   1.543   5.396  1.9076 -1.4752  0.9406
 7484SOL     OW33913   0.538   3.959  14.027  0.1647 -1.0827 -0.2267
 7484SOL    HW133914   0.567   3.924  13.943  1.1145 -0.7369 -0.0471
 7484SOL    HW233915   0.494   4.040  14.005  0.7924 -0.5195  0.5637
 7485SOL     OW33916   3.742   1.548   2.080 -0.5875 -0.2735 -0.2297
 7485SOL    HW133917   3.816   1.607   2.066 -0.4144  0.0004  1.8247
 7485SOL    HW233918   3.772   1.493   2.153  3.0093  0.2362 -1.3389
 7486SOL     OW33919   0.474   3.301   7.512  0.4440 -0.3671 -0.3062
 7486SOL    HW133920   0.516   3.313   7.598  0.6943  0.4725 -0.5466
 7486SOL    HW233921   0.381   3.320   7.525  0.2008 -0.5263 -1.8212
 7487SOL     OW33922   3.184   1.666  10.565  0.0664 -0.6632  0.2108
 7487SOL    HW133923   3.177   1.679  10.470 -2.6407 -0.0904  0.4877
 7487SOL    HW233924   3.121   1.733  10.590  0.8478  0.3578 -0.4982
 7488SOL     OW33925   4.565   0.301   0.810  0.0952  0.3263 -0.1146
 7488SOL    HW133926   4.606   0.222   0.845  0.1808 -0.1136 -1.2073
 7488SOL    HW233927   4.472   0.283   0.823  0.1933  1.1928  1.8221
 7489SOL     OW33928   0.461   1.063   5.908  0.0734 -0.1260 -0.7537
 7489SOL    HW133929   0.401   0.989   5.897 -0.0755 -0.3751  1.7072
 7489SOL    HW233930   0.393   1.130   5.911  0.5387  0.3909 -1.8244
 7490SOL     OW33931   3.087   4.708   4.930 -0.3124 -0.0230 -0.2912
 7490SOL    HW133932   3.136   0.047   4.980  0.3273  0.6948 -1.8447
 7490SOL    HW233933   3.084   0.029   4.846 -0.6802  0.3475 -0.0710
 7491SOL     OW33934   1.354   4.361   8.584 -0.2217  0.1832  0.7631
 7491SOL    HW133935   1.290   4.290   8.581 -0.2981  0.3611 -1.8152
 7491SOL    HW233936   1.324   4.419   8.515  0.4310  1.2759  1.3929
 7492SOL     OW33937   3.557   1.976   2.497 -0.3192  0.2465  0.1787
 7492SOL    HW133938   3.600   2.060   2.482 -0.4727  0.5008  1.1838
 7492SOL    HW233939   3.468   1.995   2.467 -0.0799  2.7163  1.0399
 7493SOL     OW33940   0.574   1.532   5.418  0.1066 -0.1047  0.1356
 7493SOL    HW133941   0.581   1.551   5.511 -0.1952 -0.5440  0.2515
 7493SOL    HW233942   0.659   1.501   5.388  0.6719 -0.6475  2.2899
 7494SOL     OW33943   0.436   1.912   8.845  0.0209  0.0244 -0.0323
 7494SOL    HW133944   0.513   1.880   8.893 -0.3256 -0.5355  0.1521
 7494SOL    HW233945   0.367   1.864   8.890 -0.7680  0.8424 -0.3726
 7495SOL     OW33946   1.436   0.469   1.164  0.1510  0.2618  0.0317
 7495SOL    HW133947   1.492   0.391   1.167  1.4053  1.0984 -1.2780
 7495SOL    HW233948   1.416   0.466   1.070 -0.0293  1.4408  0.0300
 7496SOL     OW33949   4.280   0.096   9.456  1.1142 -0.7303  0.1040
 7496SOL    HW133950   4.307   0.181   9.491 -1.4989  0.6126 -1.2056
 7496SOL    HW233951   4.237   0.061   9.534 -2.0121  0.5045 -1.0715
 7497SOL     OW33952   4.713   1.290   2.131  0.0772 -0.2774  0.3427
 7497SOL    HW133953   4.627   1.274   2.092 -0.0666 -2.7744  1.7454
 7497SOL    HW233954   4.688   1.363   2.189 -2.4169 -0.4901 -0.4748
 7498SOL     OW33955   1.111   3.155  11.882 -0.2593  0.5972  0.3396
 7498SOL    HW133956   1.030   3.177  11.929 -0.3511 -1.2609  1.0361
 7498SOL    HW233957   1.173   3.181  11.950 -2.1472  1.9009  1.5760
 7499SOL     OW33958   1.785   4.051   6.238  0.9496  0.2787 -0.0257
 7499SOL    HW133959   1.781   4.012   6.151  0.0311 -1.0180  0.6019
 7499SOL    HW233960   1.840   4.126   6.214 -0.3887  1.2388 -0.0868
 7500SOL     OW33961   2.029   3.128  14.700 -0.2297  0.2661  0.1658
 7500SOL    HW133962   2.017   3.063  14.631  1.7069  0.8985 -0.7617
 7500SOL    HW233963   1.944   3.120  14.745 -0.8507  1.2105 -0.8518
 7501SOL     OW33964   3.475   1.960   8.279 -0.4124  0.3709 -0.4999
 7501SOL    HW133965   3.568   1.971   8.299 -0.9731  1.4049  1.5382
 7501SOL    HW233966   3.435   2.003   8.354  0.4850 -0.5935  0.5262
 7502SOL     OW33967   0.768   3.151   0.930 -0.1583  0.0957 -0.6143
 7502SOL    HW133968   0.772   3.234   0.978 -1.2215 -0.2536  0.0727
 7502SOL    HW233969   0.780   3.184   0.841  1.7557 -0.7022 -0.6349
 7503SOL     OW33970   4.197   4.173  13.551 -0.2263  0.0890  0.1439
 7503SOL    HW133971   4.271   4.113  13.538 -0.1547  0.2394 -0.1622
 7503SOL    HW233972   4.201   4.204  13.460 -0.6749  0.9200  0.4172
 7504SOL     OW33973   1.507   1.404  11.403 -0.3966  0.1760  0.5371
 7504SOL    HW133974   1.593   1.444  11.414 -0.8662  2.0616 -2.5113
 7504SOL    HW233975   1.494   1.448  11.319  2.6280 -0.2665 -0.1477
 7505SOL     OW33976   3.174   0.869   3.362 -0.4566 -0.0906 -0.0989
 7505SOL    HW133977   3.257   0.916   3.369  0.0046 -0.6419 -2.0468
 7505SOL    HW233978   3.192   0.791   3.416 -0.4501  1.3950  2.0289
 7506SOL     OW33979   0.252   1.903  16.399  0.2261  0.4188  0.1628
 7506SOL    HW133980   0.159   1.883  16.414  0.1990 -0.7938 -1.6416
 7506SOL    HW233981   0.267   1.863  16.313  0.4445 -0.6784  0.7204
 7507SOL     OW33982   0.838   1.840   1.967 -0.5366  0.3240 -0.3730
 7507SOL    HW133983   0.887   1.912   1.927  1.8145 -2.5074 -2.6044
 7507SOL    HW233984   0.903   1.784   2.008  0.8963  1.2211 -1.4109
 7508SOL     OW33985   1.469   4.268   5.186 -0.2175  0.0012 -0.1946
 7508SOL    HW133986   1.400   4.332   5.204 -1.4733 -1.0106 -1.3769
 7508SOL    HW233987   1.494   4.299   5.099 -1.1921 -2.6889 -1.4359
 7509SOL     OW33988   4.274   1.006   8.961  0.0930 -0.1637 -0.7229
 7509SOL    HW133989   4.239   0.959   8.886 -0.8631  3.0513 -2.3236
 7509SOL    HW233990   4.190   1.045   8.988  0.6954 -0.0390  0.9754
 7510SOL     OW33991   1.992   3.440   6.938  0.3094  0.0512  0.1706
 7510SOL    HW133992   1.906   3.482   6.932 -0.4427 -1.4733  0.3428
 7510SOL    HW233993   1.969   3.351   6.963  0.7040 -0.6126 -1.8295
 7511SOL     OW33994   2.382   0.817  14.037  0.4052  0.2994  0.1079
 7511SOL    HW133995   2.419   0.732  14.014 -1.8325 -0.8654  0.7697
 7511SOL    HW233996   2.296   0.784  14.064 -0.1283  0.5094 -1.3162
 7512SOL     OW33997   0.642   4.243   6.771  0.8046 -0.2731 -0.0880
 7512SOL    HW133998   0.581   4.179   6.736 -1.2729  2.0166 -0.6785
 7512SOL    HW233999   0.638   4.220   6.864  1.6819  1.0984  0.3070
 7513SOL     OW34000   2.084   2.998   0.629 -0.1407  0.0391 -0.3077
 7513SOL    HW134001   2.167   3.041   0.608 -0.5587  0.7770 -0.4201
 7513SOL    HW234002   2.070   2.947   0.550  0.9964 -2.0320  0.8206
 7514SOL     OW34003   2.633   3.979  15.417  0.0448  0.1611 -0.6828
 7514SOL    HW134004   2.541   3.989  15.444  0.8115  0.9310  1.6053
 7514SOL    HW234005   2.629   3.910  15.350 -2.5660 -0.2826 -0.0917
 7515SOL     OW34006   4.478   0.007   7.378 -0.0491 -0.2497 -0.1329
 7515SOL    HW134007   4.505   4.671   7.447 -2.2044  0.7188  1.5603
 7515SOL    HW234008   4.387   0.013   7.405 -0.2404  0.0380 -0.8408
 7516SOL     OW34009   1.342   4.305   1.080 -0.0939  0.1922  0.5691
 7516SOL    HW134010   1.354   4.218   1.119 -3.3715 -0.1216  0.9396
 7516SOL    HW234011   1.302   4.347   1.157  0.9555 -0.0132  1.2182
 7517SOL     OW34012   4.685   3.264   8.306  0.1523 -0.1787 -0.5876
 7517SOL    HW134013   4.665   3.276   8.213 -2.1303  2.1334  0.1961
 7517SOL    HW234014   4.712   3.172   8.305  1.4870  0.2106  1.1961
 7518SOL     OW34015   0.813   4.053  16.822  0.1245 -0.0279  0.1167
 7518SOL    HW134016   0.869   4.013  16.756  3.0368  3.5492  0.4088
 7518SOL    HW234017   0.825   4.143  16.793 -3.4268 -0.2620 -2.1267
 7519SOL     OW34018   2.892   0.121   0.783 -0.2469  0.3886  0.0235
 7519SOL    HW134019   2.844   0.092   0.861 -1.3162  0.9910 -0.4080
 7519SOL    HW234020   2.837   0.088   0.712 -0.5150  1.2904 -0.1923
 7520SOL     OW34021   2.788   4.372   6.525  0.1721  0.4180 -0.0018
 7520SOL    HW134022   2.720   4.393   6.461  0.0926 -3.8946 -1.3721
 7520SOL    HW234023   2.781   4.277   6.533  0.3930  0.4075  0.0835
 7521SOL     OW34024   2.956   3.556   6.441  0.0135  0.5415  0.4886
 7521SOL    HW134025   3.035   3.569   6.389 -0.7683  1.0685 -0.5817
 7521SOL    HW234026   2.970   3.514   6.526  2.5749  1.9257  0.7215
 7522SOL     OW34027   3.360   0.215   4.762  0.3563  0.0928 -0.0067
 7522SOL    HW134028   3.280   0.164   4.753  0.9501 -0.7755 -0.3449
 7522SOL    HW234029   3.405   0.173   4.688  2.6021  1.9489  0.3034
 7523SOL     OW34030   4.427   1.616   7.304  1.0022 -0.2435  0.3053
 7523SOL    HW134031   4.409   1.677   7.376 -1.2447 -1.8904  1.1417
 7523SOL    HW234032   4.378   1.536   7.319  0.0865  1.0983  4.3704
 7524SOL     OW34033   1.319   1.205  17.570  0.3703  0.5848 -0.7810
 7524SOL    HW134034   1.298   1.293  17.539 -1.3795 -0.3155 -2.1869
 7524SOL    HW234035   1.414   1.202  17.576  0.2422 -1.9534 -0.0862
 7525SOL     OW34036   0.151   0.866   7.086  0.2296 -0.8393 -0.1414
 7525SOL    HW134037   0.156   0.953   7.045  0.9981 -0.7965  0.0444
 7525SOL    HW234038   0.245   0.850   7.089  0.3148 -0.3117  0.0621
 7526SOL     OW34039   4.188   3.197   5.005  0.2105 -0.3000 -0.0969
 7526SOL    HW134040   4.164   3.143   5.080 -0.0641  0.9621  0.7239
 7526SOL    HW234041   4.177   3.288   5.032 -1.3787 -0.1945 -1.0806
 7527SOL     OW34042   2.886   0.475   5.346  0.3176 -0.8522 -0.2027
 7527SOL    HW134043   2.936   0.394   5.342  0.0346 -1.0329 -0.0654
 7527SOL    HW234044   2.872   0.468   5.440  3.8517 -1.0082  0.2891
 7528SOL     OW34045   4.572   1.128  13.326 -0.6543 -0.2796 -0.3952
 7528SOL    HW134046   4.667   1.119  13.315 -0.5330  0.4753  0.0096
 7528SOL    HW234047   4.562   1.219  13.356  2.3203  0.4071 -1.4184
 7529SOL     OW34048   4.698   4.153   6.827 -0.4700  0.0557  0.1235
 7529SOL    HW134049   4.636   4.183   6.893  1.0628  0.1144  1.5365
 7529SOL    HW234050   4.645   4.095   6.772 -0.6395  0.5072 -0.1917
 7530SOL     OW34051   4.352   0.206   5.864 -0.0180  0.2094  0.3112
 7530SOL    HW134052   4.276   0.147   5.860  0.2830 -0.3807  2.7605
 7530SOL    HW234053   4.409   0.149   5.813  0.8135  1.6189 -0.3091
 7531SOL     OW34054   2.097   0.436   9.334  0.0408  0.3681  0.2145
 7531SOL    HW134055   2.176   0.490   9.332 -0.6909  1.4774  0.9649
 7531SOL    HW234056   2.124   0.385   9.257 -0.7650 -0.7911  0.6975
 7532SOL     OW34057   3.463   2.493   9.782  0.2510  0.1708  0.5739
 7532SOL    HW134058   3.472   2.486   9.687 -0.8647 -0.0626  0.4899
 7532SOL    HW234059   3.446   2.402   9.805  1.8412  0.0475  1.3015
 7533SOL     OW34060   3.158   4.202  16.340  0.6713  0.2934  0.2599
 7533SOL    HW134061   3.178   4.285  16.298  0.1538 -0.6123 -1.7780
 7533SOL    HW234062   3.136   4.140  16.270  0.3715  1.9418 -1.0906
 7534SOL     OW34063   0.351   4.053   9.439 -0.1971 -0.2825 -0.7161
 7534SOL    HW134064   0.281   4.006   9.484  1.8845 -1.0512  1.7274
 7534SOL    HW234065   0.301   4.094   9.368  0.2858  1.8618  0.1931
 7535SOL     OW34066   3.286   4.314   6.421 -0.2087 -0.1455  0.4285
 7535SOL    HW134067   3.321   4.313   6.510 -0.0704  0.1536  0.3767
 7535SOL    HW234068   3.201   4.356   6.437  0.3416  1.2807 -0.4700
 7536SOL     OW34069   3.034   0.340   8.690  0.3686  0.8267  0.1907
 7536SOL    HW134070   3.115   0.294   8.712  0.2062 -0.0118 -0.9529
 7536SOL    HW234071   2.974   0.269   8.715  0.3042 -0.6865 -4.2263
 7537SOL     OW34072   3.603   3.591   4.929 -0.0585 -0.1366 -0.2631
 7537SOL    HW134073   3.518   3.610   4.889  0.7218  3.6197 -0.1594
 7537SOL    HW234074   3.652   3.673   4.919  2.8406 -2.0053 -1.5658
 7538SOL     OW34075   2.738   4.170   9.167  0.1061  0.0189  0.4888
 7538SOL    HW134076   2.716   4.181   9.260  0.7207  2.4712  0.3263
 7538SOL    HW234077   2.745   4.074   9.164 -4.0398 -0.2987  2.0167
 7539SOL     OW34078   2.205   3.779   4.046  0.6616 -0.1655 -0.0156
 7539SOL    HW134079   2.120   3.800   4.006 -0.8202 -1.6777  2.4064
 7539SOL    HW234080   2.240   3.868   4.048  2.0298 -0.7636  2.0283
 7540SOL     OW34081   0.860   0.126   6.517  0.3761 -0.1444 -0.6610
 7540SOL    HW134082   0.947   0.152   6.549  0.5865 -1.8564  0.1716
 7540SOL    HW234083   0.812   0.138   6.599 -2.4203 -0.4318 -2.2719
 7541SOL     OW34084   0.116   3.936   1.593  0.5113 -0.0281  0.2897
 7541SOL    HW134085   0.049   3.901   1.534  0.4698  3.1912 -1.5997
 7541SOL    HW234086   0.196   3.908   1.549  0.3937 -1.0891  0.7587
 7542SOL     OW34087   0.074   2.265   7.615 -0.2630 -0.1445  0.0682
 7542SOL    HW134088   0.129   2.189   7.596 -0.7071 -0.6166  0.6890
 7542SOL    HW234089   0.141   2.332   7.602  0.8348 -1.3682 -0.6723
 7543SOL     OW34090   4.277   0.017   1.244  0.0753  0.2055 -0.0701
 7543SOL    HW134091   4.190   4.705   1.258  0.6872 -2.3124 -2.9864
 7543SOL    HW234092   4.325   4.668   1.209 -1.6937 -0.8877 -0.1424
 7544SOL     OW34093   0.379   3.596   7.740  0.1402 -0.1139  0.3989
 7544SOL    HW134094   0.388   3.607   7.646 -0.5799  2.5317  0.6170
 7544SOL    HW234095   0.285   3.580   7.746  0.6050 -2.7432  0.4322
 7545SOL     OW34096   1.437   2.408  11.739  0.3777  0.6603 -0.5064
 7545SOL    HW134097   1.476   2.345  11.679 -1.7332 -2.4065  1.3743
 7545SOL    HW234098   1.514   2.464  11.755  0.8681 -0.0280 -0.4731
 7546SOL     OW34099   3.317   2.802  17.475 -0.2925 -0.1268 -0.3278
 7546SOL    HW134100   3.308   2.823  17.568  1.4141  1.0338 -0.4156
 7546SOL    HW234101   3.265   2.875  17.441  0.8611 -0.0484 -1.9038
 7547SOL     OW34102   3.877   0.706  12.879  0.4757 -0.0908  0.3454
 7547SOL    HW134103   3.919   0.766  12.818 -0.8629 -0.2607 -0.7438
 7547SOL    HW234104   3.787   0.710  12.847  0.3743 -0.7404  0.5399
 7548SOL     OW34105   1.224   3.576   7.120 -0.3198 -0.0133 -0.2854
 7548SOL    HW134106   1.227   3.611   7.031  1.1421 -3.1645 -1.5012
 7548SOL    HW234107   1.308   3.610   7.152 -0.7443 -1.3699  2.3238
 7549SOL     OW34108   0.094   0.273   5.266 -0.1481 -0.0165 -0.2026
 7549SOL    HW134109   0.163   0.209   5.289  1.3464  1.2890 -1.0562
 7549SOL    HW234110   0.044   0.289   5.346  2.0478 -1.2489  1.4469
 7550SOL     OW34111   2.394   3.059  16.817 -0.0198 -0.3614  0.2999
 7550SOL    HW134112   2.422   3.061  16.725  0.7592 -0.8843  0.5209
 7550SOL    HW234113   2.429   3.144  16.842 -1.6218  0.2952  0.2771
 7551SOL     OW34114   3.474   1.512   2.132  0.3954 -0.2956 -0.1358
 7551SOL    HW134115   3.480   1.437   2.191  1.0480 -0.7698 -0.8193
 7551SOL    HW234116   3.564   1.543   2.135  0.0383  0.6694  0.7547
 7552SOL     OW34117   1.496   3.459   7.028 -0.1606 -0.2154 -0.1723
 7552SOL    HW134118   1.431   3.469   6.958  0.4742  1.4967 -0.5283
 7552SOL    HW234119   1.493   3.365   7.041 -3.0816  0.1496  1.8816
 7553SOL     OW34120   3.474   0.682  15.403  0.0360  0.6445  0.5678
 7553SOL    HW134121   3.541   0.730  15.452  1.4816 -1.4256  0.6213
 7553SOL    HW234122   3.484   0.600  15.451  1.8526  0.8075  0.4609
 7554SOL     OW34123   1.574   2.710  14.080  0.7360  0.0870 -0.5837
 7554SOL    HW134124   1.494   2.726  14.030  1.3604  0.9057 -1.3366
 7554SOL    HW234125   1.599   2.623  14.048  0.0474  0.1830 -1.3970
 7555SOL     OW34126   0.709   4.595   2.556 -0.1667 -0.0327 -0.2238
 7555SOL    HW134127   0.720   4.658   2.485  0.7130  1.1947  0.9924
 7555SOL    HW234128   0.618   4.569   2.544 -0.2810 -0.5266  1.6598
 7556SOL     OW34129   2.575   1.433   1.890 -0.2125 -0.0047  0.1503
 7556SOL    HW134130   2.624   1.499   1.842 -0.0393  0.0253  0.3745
 7556SOL    HW234131   2.593   1.449   1.982 -0.2479 -0.3916  0.2279
 7557SOL     OW34132   4.118   1.990   7.856  0.0353 -0.3908  0.5021
 7557SOL    HW134133   4.195   2.031   7.817 -0.0665 -0.9412 -0.2592
 7557SOL    HW234134   4.050   2.046   7.819 -0.1684 -0.8733  0.1463
 7558SOL     OW34135   3.790   4.485   4.525 -0.2644  0.5391  0.6625
 7558SOL    HW134136   3.844   4.552   4.484 -1.1756  0.7812 -0.1404
 7558SOL    HW234137   3.847   4.408   4.527 -0.0186  0.7300  0.9741
 7559SOL     OW34138   1.069   2.168   3.452  0.7140 -0.2094 -0.0614
 7559SOL    HW134139   1.039   2.226   3.383 -1.2398  0.1032  1.0526
 7559SOL    HW234140   1.085   2.233   3.520 -0.4213  0.1686 -0.1539
 7560SOL     OW34141   0.744   4.572   5.016 -0.1488  0.9198  0.2786
 7560SOL    HW134142   0.827   4.619   5.008  0.6526 -0.8287 -1.6233
 7560SOL    HW234143   0.708   4.582   4.927  0.2114  0.7124  0.1092
 7561SOL     OW34144   2.629   1.480   2.956 -0.1385  0.4206  0.0350
 7561SOL    HW134145   2.550   1.433   2.930  0.2695  1.1709 -2.5664
 7561SOL    HW234146   2.594   1.561   2.993 -2.7857  0.7566 -3.1634
 7562SOL     OW34147   2.871   2.734   9.749 -0.2002 -0.4502 -0.1069
 7562SOL    HW134148   2.798   2.674   9.737 -1.4616  0.3714  3.4819
 7562SOL    HW234149   2.852   2.790   9.674  1.1834  1.0476  0.6441
 7563SOL     OW34150   2.426   4.266   5.976  0.2936 -0.1631  0.6901
 7563SOL    HW134151   2.472   4.193   5.936  1.5708  0.9774  0.0848
 7563SOL    HW234152   2.381   4.220   6.047 -3.0157  1.1741 -0.5458
 7564SOL     OW34153   3.090   0.032   5.876  0.1133  0.1668 -0.1100
 7564SOL    HW134154   3.146   0.084   5.818  1.7281  0.2665  1.5276
 7564SOL    HW234155   3.144   4.707   5.937  1.6302  2.4596  0.4746
 7565SOL     OW34156   2.168   4.330  11.107 -0.0984 -0.3461  0.0095
 7565SOL    HW134157   2.133   4.345  11.195 -0.5410 -2.1104  0.1200
 7565SOL    HW234158   2.094   4.333  11.047 -0.4161 -0.4657  0.3976
 7566SOL     OW34159   4.334   1.697  15.938 -0.6182 -0.4333 -0.0002
 7566SOL    HW134160   4.262   1.663  15.992 -1.2064  1.6446  0.5565
 7566SOL    HW234161   4.385   1.617  15.931 -0.1673 -0.1239 -0.2782
 7567SOL     OW34162   2.981   3.482   4.813  0.2841  0.3344  0.5739
 7567SOL    HW134163   3.044   3.440   4.754 -0.5978  0.9571 -0.8062
 7567SOL    HW234164   2.902   3.450   4.770 -0.1236  0.1612  1.4566
 7568SOL     OW34165   1.101   3.448   2.463  0.3649  0.0780  0.1402
 7568SOL    HW134166   1.054   3.447   2.547 -1.1844 -0.1157 -0.7333
 7568SOL    HW234167   1.088   3.541   2.450 -0.6988  0.1343  1.5286
 7569SOL     OW34168   0.086   2.852   5.020  0.0271  0.0601  0.1735
 7569SOL    HW134169   0.069   2.822   5.110 -0.6981 -1.4958 -0.4815
 7569SOL    HW234170   0.046   2.939   5.013 -0.1342 -0.1163 -1.0948
 7570SOL     OW34171   0.712   1.469   9.493 -0.3753 -0.2085  0.4051
 7570SOL    HW134172   0.681   1.438   9.408  1.4669 -1.9645  0.3685
 7570SOL    HW234173   0.686   1.401   9.555 -0.8756  2.3697  3.0282
 7571SOL     OW34174   3.421   3.997  17.136  0.3359  0.2070  0.7351
 7571SOL    HW134175   3.509   3.960  17.125 -0.1085 -0.5181 -0.3907
 7571SOL    HW234176   3.390   3.943  17.209  0.0494 -1.8199 -0.8790
 7572SOL     OW34177   2.471   4.043   6.158 -0.1775 -0.4787 -0.4419
 7572SOL    HW134178   2.474   3.998   6.073 -0.3555 -0.0132 -0.6952
 7572SOL    HW234179   2.563   4.041   6.184  0.0145  1.4668 -0.9887
 7573SOL     OW34180   2.015   3.315   1.720  0.0637  0.0816 -0.4184
 7573SOL    HW134181   2.073   3.390   1.704  1.2614 -0.7145  0.1645
 7573SOL    HW234182   1.979   3.297   1.633 -0.7087  2.1974 -0.5388
 7574SOL     OW34183   1.871   0.855   6.357  0.3776 -0.0320  0.5559
 7574SOL    HW134184   1.893   0.883   6.268  0.9877 -2.0839  0.0597
 7574SOL    HW234185   1.826   0.773   6.338  1.1820 -0.0358 -1.3446
 7575SOL     OW34186   1.269   3.192   6.202  0.3948 -0.2644 -0.3966
 7575SOL    HW134187   1.196   3.193   6.140  1.5306 -0.2896 -1.7401
 7575SOL    HW234188   1.310   3.109   6.178  1.1962  0.0081  0.0202
 7576SOL     OW34189   3.971   0.812  12.651 -0.2338  0.2712 -0.0975
 7576SOL    HW134190   3.988   0.723  12.621 -2.0009 -0.3499  0.7406
 7576SOL    HW234191   4.047   0.867  12.630 -0.0884  0.6032  1.2512
 7577SOL     OW34192   2.498   0.222   4.798  0.3512 -0.0523  0.2175
 7577SOL    HW134193   2.540   0.303   4.828  3.4700 -2.3611  2.0371
 7577SOL    HW234194   2.437   0.212   4.872  4.7403 -2.5583  3.4547
 7578SOL     OW34195   2.544   2.654  13.725  0.1191 -0.1651  0.2456
 7578SOL    HW134196   2.616   2.685  13.671  0.2095 -3.1733 -1.3873
 7578SOL    HW234197   2.584   2.576  13.764 -0.6644 -1.3455 -1.2769
 7579SOL     OW34198   1.848   4.375   9.632 -0.2128 -0.2069 -0.0667
 7579SOL    HW134199   1.926   4.327   9.662  0.7942  1.5606  0.1654
 7579SOL    HW234200   1.797   4.379   9.713 -1.1391 -0.3398 -0.6566
 7580SOL     OW34201   4.533   4.158   4.560  0.4040 -0.7761  0.2186
 7580SOL    HW134202   4.475   4.232   4.579  2.0392  0.4737  0.3310
 7580SOL    HW234203   4.609   4.166   4.618  0.1290  0.4629  0.3984
 7581SOL     OW34204   4.555   4.313   9.246  0.2101  0.5135 -0.1642
 7581SOL    HW134205   4.493   4.314   9.172 -0.2619 -1.7871  0.1999
 7581SOL    HW234206   4.502   4.356   9.313  1.1169  0.2033  0.7424
 7582SOL     OW34207   4.355   2.947   4.901 -0.6083 -0.2470 -0.3139
 7582SOL    HW134208   4.340   3.007   4.973  1.5130  1.1168 -0.9931
 7582SOL    HW234209   4.270   2.960   4.859 -0.3485  1.1661 -0.4135
 7583SOL     OW34210   2.527   1.160   3.081 -0.0960  0.0105  0.4381
 7583SOL    HW134211   2.543   1.231   3.142 -0.3037  0.0621  0.4322
 7583SOL    HW234212   2.489   1.211   3.009  0.0678 -0.7335 -0.1855
 7584SOL     OW34213   2.288   3.396  16.889 -0.4973  0.7428 -0.2824
 7584SOL    HW134214   2.306   3.478  16.843 -1.3440  0.6102 -0.8572
 7584SOL    HW234215   2.232   3.357  16.822  1.5009  0.9247 -2.0455
 7585SOL     OW34216   1.563   4.449   4.176  0.0867 -0.0772  0.0667
 7585SOL    HW134217   1.471   4.467   4.158  0.2607 -0.4382 -1.2518
 7585SOL    HW234218   1.555   4.363   4.218 -0.4024 -0.9142 -1.7014
 7586SOL     OW34219   2.283   0.993   6.199  0.4530  0.0429 -0.1128
 7586SOL    HW134220   2.301   1.086   6.210 -2.8976  0.2740  3.6930
 7586SOL    HW234221   2.360   0.958   6.245 -0.7346 -1.4177  0.7678
 7587SOL     OW34222   0.241   0.500   7.816  0.2724  0.3734 -0.2612
 7587SOL    HW134223   0.176   0.532   7.879  0.2871  0.1125 -0.1139
 7587SOL    HW234224   0.307   0.567   7.833 -1.2681  1.4459  1.5632
 7588SOL     OW34225   0.954   2.346   7.715  0.1321  0.4901  0.5235
 7588SOL    HW134226   0.899   2.335   7.793 -1.3503 -1.4606 -0.7850
 7588SOL    HW234227   0.893   2.360   7.643 -1.1861  1.6222  1.8486
 7589SOL     OW34228   0.600   1.772   3.897 -0.1213  0.5882 -0.7449
 7589SOL    HW134229   0.689   1.801   3.877  0.7621 -0.5263  1.5430
 7589SOL    HW234230   0.591   1.682   3.866  3.0883 -0.6219  1.8487
 7590SOL     OW34231   0.040   2.243   6.924  0.0604  0.1321  0.4100
 7590SOL    HW134232   0.022   2.150   6.935  0.4602 -0.2223 -2.0930
 7590SOL    HW234233   4.680   2.270   6.892 -0.0636  1.7545  2.0732
 7591SOL     OW34234   3.171   3.882   0.637 -0.2374  0.4526  0.0977
 7591SOL    HW134235   3.123   3.892   0.554 -2.7985  2.6495  1.8364
 7591SOL    HW234236   3.255   3.924   0.617  0.6070 -0.2903  2.1713
 7592SOL     OW34237   4.164   3.717   6.296  0.7601 -0.6658  0.1144
 7592SOL    HW134238   4.211   3.711   6.213  1.0729 -1.1829  0.3351
 7592SOL    HW234239   4.098   3.650   6.276  0.5790 -0.9294  1.5955
 7593SOL     OW34240   0.026   1.193   7.493 -0.5424 -0.3349 -0.0790
 7593SOL    HW134241   0.040   1.163   7.404  0.7348  0.3775 -0.1258
 7593SOL    HW234242   4.664   1.154   7.495 -0.3046 -0.8641  0.4381
 7594SOL     OW34243   3.151   1.667   2.639 -0.0991  0.8988  0.1808
 7594SOL    HW134244   3.223   1.605   2.626 -1.5287 -0.8941  0.9834
 7594SOL    HW234245   3.177   1.753   2.604  1.0903  1.1570  1.6643
 7595SOL     OW34246   2.612   3.241   8.278 -0.0127 -0.0768 -0.2578
 7595SOL    HW134247   2.583   3.168   8.222  0.2066  0.4662 -1.0802
 7595SOL    HW234248   2.545   3.232   8.345 -0.6043  1.5173 -0.6502
 7596SOL     OW34249   2.076   2.811   5.496  0.0942 -0.5374 -0.0497
 7596SOL    HW134250   2.087   2.904   5.478 -0.4677 -0.5818 -0.6316
 7596SOL    HW234251   1.991   2.797   5.539 -1.7952  1.9424 -2.9519
 7597SOL     OW34252   2.368   4.677   0.524  0.3635  0.0094 -0.0411
 7597SOL    HW134253   2.360   4.724   0.441 -2.2593 -0.4820 -0.0710
 7597SOL    HW234254   2.282   4.651   0.558 -0.6343  2.5232 -0.6171
 7598SOL     OW34255   3.995   1.340   5.251  0.0424  0.4095 -0.6603
 7598SOL    HW134256   4.083   1.356   5.218  1.0780 -2.5182  0.7120
 7598SOL    HW234257   3.959   1.428   5.257  0.4733  0.4361  1.3724
 7599SOL     OW34258   0.729   1.698   2.799  0.1180  0.0686  0.0569
 7599SOL    HW134259   0.750   1.657   2.715  1.9527  0.9394  0.0824
 7599SOL    HW234260   0.650   1.746   2.775  0.0832 -0.4435 -0.8649
 7600SOL     OW34261   0.604   1.044   6.713 -0.5268 -0.2251 -0.2075
 7600SOL    HW134262   0.597   0.994   6.632  2.2396 -2.0223  0.6777
 7600SOL    HW234263   0.631   1.128   6.676 -0.0884 -0.3520 -0.1728
 7601SOL     OW34264   3.999   0.832   6.750  0.4837 -0.0982  0.5255
 7601SOL    HW134265   3.913   0.845   6.710  1.2338  0.3469 -0.9361
 7601SOL    HW234266   3.973   0.780   6.826 -1.6625 -1.0713 -0.8730
 7602SOL     OW34267   1.895   4.172   2.480  0.5085 -0.1948 -0.3039
 7602SOL    HW134268   1.830   4.140   2.542  0.9285  2.3201  1.4380
 7602SOL    HW234269   1.861   4.255   2.445 -0.4649 -1.0676 -1.4401
 7603SOL     OW34270   0.458   2.815   2.084  0.1152  0.0873  0.2666
 7603SOL    HW134271   0.375   2.861   2.098 -0.0824 -0.0653 -0.3812
 7603SOL    HW234272   0.486   2.842   1.996 -0.1285  1.8444  0.7309
 7604SOL     OW34273   0.278   0.061   7.881 -0.2069  0.8625  0.3675
 7604SOL    HW134274   0.361   0.107   7.897  0.4748 -0.0338 -0.6257
 7604SOL    HW234275   0.219   0.127   7.917 -0.3840  0.9884 -0.1563
 7605SOL     OW34276   0.445   0.159   6.030  0.8318 -0.0939  0.3282
 7605SOL    HW134277   0.521   0.101   6.033 -0.3171 -1.6019  0.2110
 7605SOL    HW234278   0.471   0.210   5.953  1.2068 -1.2748 -0.3277
 7606SOL     OW34279   3.046   4.468   6.517 -0.0171  0.1135 -0.3290
 7606SOL    HW134280   3.084   4.478   6.604 -1.4526 -2.3596  0.5762
 7606SOL    HW234281   2.954   4.444   6.532  0.1923 -0.7785 -0.4660
 7607SOL     OW34282   0.772   1.835   7.589  0.6251  0.3696 -0.4273
 7607SOL    HW134283   0.789   1.878   7.673  0.5766 -1.5434  0.5679
 7607SOL    HW234284   0.699   1.777   7.611 -0.3432  0.9658 -2.0220
 7608SOL     OW34285   1.500   0.609  17.363 -0.1371 -0.2779 -0.0832
 7608SOL    HW134286   1.594   0.617  17.380  0.1658 -2.4830 -0.7213
 7608SOL    HW234287   1.481   0.696  17.327 -0.9789 -0.4843 -0.1279
 7609SOL     OW34288   1.899   0.167  16.260 -0.0552  0.5141 -0.6064
 7609SOL    HW134289   1.910   0.133  16.348  0.4359  1.0925 -0.4475
 7609SOL    HW234290   1.847   0.096  16.221 -1.0978  0.3058  1.1757
 7610SOL     OW34291   2.320   3.522  13.417 -0.5789 -0.5017 -0.3315
 7610SOL    HW134292   2.365   3.497  13.336  0.8091  1.1496 -0.0539
 7610SOL    HW234293   2.248   3.577  13.385 -0.7469 -0.1355  0.6773
 7611SOL     OW34294   1.928   2.197   8.390  0.2681 -0.4175 -0.0892
 7611SOL    HW134295   1.860   2.235   8.334  0.5303 -1.0601 -0.8374
 7611SOL    HW234296   1.881   2.137   8.449 -0.9686 -0.4379 -1.0833
 7612SOL     OW34297   0.937   4.399   2.221  0.2802 -0.2728 -0.0285
 7612SOL    HW134298   1.026   4.423   2.194  0.1319  0.4132  0.1023
 7612SOL    HW234299   0.938   4.437   2.308  0.5078 -0.5052  0.0697
 7613SOL     OW34300   1.045   3.717   2.456 -0.4507  0.0481  0.3033
 7613SOL    HW134301   1.049   3.758   2.542 -0.8831  3.0878 -1.1119
 7613SOL    HW234302   0.959   3.730   2.417 -0.3671  0.8204  0.3742
 7614SOL     OW34303   3.849   1.818   0.468 -0.8564  0.7047  0.1029
 7614SOL    HW134304   3.846   1.840   0.561 -0.9231 -2.5021  0.8624
 7614SOL    HW234305   3.828   1.725   0.475 -0.4186  0.6365  0.5325
 7615SOL     OW34306   3.205   2.332   4.458  0.3804  0.4695  0.2346
 7615SOL    HW134307   3.208   2.421   4.423  0.5091  1.0256  1.6610
 7615SOL    HW234308   3.208   2.352   4.552  1.9062  2.3986 -0.2379
 7616SOL     OW34309   1.647   0.486   4.968 -0.3829 -0.0050  0.2981
 7616SOL    HW134310   1.655   0.415   4.904 -1.5738  1.4320 -1.4640
 7616SOL    HW234311   1.685   0.554   4.913  2.7654 -2.9660 -1.1936
 7617SOL     OW34312   1.122   1.617  11.852 -0.0504 -0.1543 -0.3348
 7617SOL    HW134313   1.208   1.630  11.813 -0.5677 -1.4907 -1.9365
 7617SOL    HW234314   1.124   1.686  11.917  0.1754 -1.5157  1.1144
 7618SOL     OW34315   0.485   0.615   7.854  0.2147 -0.0286 -0.6185
 7618SOL    HW134316   0.503   0.695   7.805  0.6874  0.0497 -0.3087
 7618SOL    HW234317   0.564   0.561   7.849  1.5780  1.7644  1.7872
 7619SOL     OW34318   4.279   4.331   1.022  0.0148 -0.6639  0.0125
 7619SOL    HW134319   4.340   4.372   1.084  0.1506 -1.0963  0.1684
 7619SOL    HW234320   4.345   4.300   0.961 -1.9093 -1.7274 -1.5366
 7620SOL     OW34321   3.955   0.572   5.233  0.1648  0.5123  0.3942
 7620SOL    HW134322   4.025   0.636   5.219  1.5538 -1.2970 -0.8620
 7620SOL    HW234323   3.995   0.495   5.193 -1.0059  1.0649 -1.8782
 7621SOL     OW34324   4.655   1.401   2.477  0.9656 -0.9845  0.2817
 7621SOL    HW134325   4.715   1.352   2.533  1.4619  0.2146  0.7968
 7621SOL    HW234326   4.678   1.490   2.503  0.9799 -0.5620 -1.1909
 7622SOL     OW34327   4.124   3.092  14.021  0.3911  0.2294  0.2325
 7622SOL    HW134328   4.099   3.184  14.019  0.6955  0.3392  1.7070
 7622SOL    HW234329   4.212   3.097  14.060  0.7935 -1.0580 -0.4835
 7623SOL     OW34330   2.777   3.253  13.592 -0.0756 -0.7495  0.3246
 7623SOL    HW134331   2.828   3.212  13.523  0.3247 -0.3974  0.4082
 7623SOL    HW234332   2.703   3.288  13.543  0.4547 -1.0791 -0.7188
 7624SOL     OW34333   3.913   3.862  10.601  0.1517 -0.2238 -0.0886
 7624SOL    HW134334   3.839   3.862  10.541  0.4105 -2.0880 -0.4113
 7624SOL    HW234335   3.973   3.801  10.558 -0.2859  0.1932 -1.2766
 7625SOL     OW34336   2.669   0.855   6.500  0.1161 -0.2832 -0.1682
 7625SOL    HW134337   2.626   0.844   6.416 -0.0985  0.6755 -0.1877
 7625SOL    HW234338   2.676   0.768   6.539  0.6776 -0.1473  0.0468
 7626SOL     OW34339   4.350   2.740   2.099  0.7688 -0.0948 -0.1650
 7626SOL    HW134340   4.292   2.672   2.133  0.0502  0.9487  0.6783
 7626SOL    HW234341   4.415   2.686   2.055  2.1492  1.0292  0.5058
 7627SOL     OW34342   0.588   3.307  15.910 -0.9338 -0.3071 -0.1841
 7627SOL    HW134343   0.669   3.354  15.927 -2.2059  2.2211 -1.0296
 7627SOL    HW234344   0.611   3.220  15.941 -1.4417  0.0831  1.3020
 7628SOL     OW34345   3.306   2.167   9.563 -0.4299  0.2323 -0.4130
 7628SOL    HW134346   3.361   2.187   9.639 -0.4436 -2.6839  0.3750
 7628SOL    HW234347   3.363   2.105   9.517 -0.7298 -0.4299  0.1038
 7629SOL     OW34348   3.905   1.011  14.987  0.5625 -0.1332 -0.0436
 7629SOL    HW134349   3.810   1.024  14.992  1.2445  3.9684  2.1097
 7629SOL    HW234350   3.931   0.958  15.062  1.2782 -0.9312 -0.8677
 7630SOL     OW34351   0.669   0.559   7.185  0.1356 -0.6422 -0.1315
 7630SOL    HW134352   0.731   0.591   7.251  0.3232 -1.2501 -0.0104
 7630SOL    HW234353   0.594   0.522   7.233  0.7922  0.4702  1.7597
 7631SOL     OW34354   0.396   3.356   8.053  0.3060  0.3965 -0.2857
 7631SOL    HW134355   0.311   3.317   8.037 -0.3189  1.5797  0.1544
 7631SOL    HW234356   0.450   3.277   8.063 -0.3898 -0.1364 -0.7570
 7632SOL     OW34357   0.805   4.628   6.746 -0.4326 -0.8395 -0.5859
 7632SOL    HW134358   0.714   4.648   6.724 -0.0769  0.5746 -0.7457
 7632SOL    HW234359   0.847   4.714   6.743 -2.1971  0.0933  1.1664
 7633SOL     OW34360   0.119   2.338   7.271  0.2731  0.0103 -0.1223
 7633SOL    HW134361   0.162   2.284   7.205 -0.8493 -2.5866  1.2712
 7633SOL    HW234362   0.149   2.297   7.352 -0.1787 -0.2344 -0.0790
 7634SOL     OW34363   2.339   0.238   7.957 -0.2781  0.3006 -0.3634
 7634SOL    HW134364   2.383   0.275   8.033 -0.5115  2.0486 -1.0845
 7634SOL    HW234365   2.407   0.175   7.932  0.7503  0.9014  0.9292
 7635SOL     OW34366   2.108   0.967   7.264 -0.0208 -0.0852  0.4690
 7635SOL    HW134367   2.197   0.953   7.296  0.2027 -0.9890 -0.5102
 7635SOL    HW234368   2.077   0.996   7.350  1.2560  0.0570  0.8741
 7636SOL     OW34369   2.961   1.282   5.721 -0.1855  0.6361  0.0632
 7636SOL    HW134370   2.879   1.274   5.672  0.1823  0.8634 -0.5960
 7636SOL    HW234371   3.015   1.267   5.643  0.6349  1.5512  0.4480
 7637SOL     OW34372   1.999   1.221   4.670  0.1447  0.2808  0.3522
 7637SOL    HW134373   1.926   1.189   4.616  0.7538 -1.3717  0.5106
 7637SOL    HW234374   2.017   1.142   4.721 -0.4403 -0.1875 -0.1594
 7638SOL     OW34375   2.471   4.153   8.529  0.1611 -0.2175  0.7326
 7638SOL    HW134376   2.433   4.240   8.530  1.2117  0.2487 -2.7586
 7638SOL    HW234377   2.390   4.102   8.535  0.3534 -0.5781  0.2269
 7639SOL     OW34378   0.635   2.875  12.213  0.3539  0.7581 -0.1213
 7639SOL    HW134379   0.683   2.908  12.289 -1.1732 -0.2030  1.2591
 7639SOL    HW234380   0.709   2.871  12.152  0.1677 -0.3373 -0.2898
 7640SOL     OW34381   2.245   4.201   2.824  0.1831 -0.2693 -0.0097
 7640SOL    HW134382   2.177   4.188   2.757 -0.5336  0.1162  0.6352
 7640SOL    HW234383   2.241   4.296   2.840 -0.4050 -0.7062  2.4112
 7641SOL     OW34384   4.021   2.686   1.866  0.0833  0.4983 -0.2882
 7641SOL    HW134385   4.086   2.644   1.810 -0.1585  0.2685 -0.3936
 7641SOL    HW234386   3.967   2.731   1.801 -2.7787 -2.2077  0.2297
 7642SOL     OW34387   1.881   2.831   3.353 -0.0544 -0.0518  0.2051
 7642SOL    HW134388   1.792   2.801   3.372  0.2504 -0.2012  1.4325
 7642SOL    HW234389   1.904   2.781   3.274 -1.3162  2.6831 -1.8853
 7643SOL     OW34390   2.661   3.802   0.963  0.1045  0.5103  0.7854
 7643SOL    HW134391   2.629   3.713   0.977 -0.0853  0.9521  3.2284
 7643SOL    HW234392   2.601   3.857   1.013 -0.8707 -1.1975  1.4712
 7644SOL     OW34393   0.845   0.857   7.940 -0.1961  0.4860  0.1465
 7644SOL    HW134394   0.761   0.894   7.912  0.9384  0.9743 -2.6053
 7644SOL    HW234395   0.890   0.940   7.953 -0.8195  0.7442  0.6431
 7645SOL     OW34396   0.497   2.965   1.789 -0.2985  0.3059 -0.0233
 7645SOL    HW134397   0.585   3.000   1.802  0.2706 -1.1574 -0.0310
 7645SOL    HW234398   0.444   3.029   1.837 -0.1719 -0.7203  1.4558
 7646SOL     OW34399   4.355   1.929  10.259  0.0090  0.0709 -0.1827
 7646SOL    HW134400   4.317   1.909  10.174 -1.7195 -0.5599  0.7398
 7646SOL    HW234401   4.357   2.025  10.267 -0.8732  0.1520 -0.9902
 7647SOL     OW34402   0.952   4.337   1.308 -0.0045 -0.4468 -0.0567
 7647SOL    HW134403   0.958   4.296   1.221  1.0060  1.2554 -0.7973
 7647SOL    HW234404   1.045   4.356   1.322 -0.1513 -0.3162  0.7471
 7648SOL     OW34405   3.395   2.722   1.282 -0.2023  0.3124 -0.9345
 7648SOL    HW134406   3.328   2.659   1.310 -1.4437  1.2851 -1.6972
 7648SOL    HW234407   3.412   2.700   1.190  0.0571  1.4766 -1.1620
 7649SOL     OW34408   0.957   0.870   6.839  0.8097 -0.0468  0.2628
 7649SOL    HW134409   0.937   0.919   6.759 -0.0874  0.8268  1.0180
 7649SOL    HW234410   0.954   0.788   6.791  0.4097  1.3050 -2.0401
 7650SOL     OW34411   4.350   1.189   3.399  0.4487 -0.1455 -0.2364
 7650SOL    HW134412   4.306   1.273   3.413  1.3440  0.1210  1.0241
 7650SOL    HW234413   4.332   1.168   3.308 -3.1678  2.3013 -0.0848
 7651SOL     OW34414   3.325   0.324  10.203  0.3146  0.9108 -0.2278
 7651SOL    HW134415   3.344   0.349  10.113  0.0014 -0.0558 -0.5635
 7651SOL    HW234416   3.233   0.348  10.192 -0.2262 -0.4556  1.2356
 7652SOL     OW34417   2.522   1.384   4.467 -0.0969  0.2125 -0.4269
 7652SOL    HW134418   2.469   1.419   4.395 -0.3107 -1.1604 -0.9326
 7652SOL    HW234419   2.475   1.301   4.475 -2.1153  1.6371  2.3093
 7653SOL     OW34420   4.607   2.170  17.551 -0.0045 -0.2216 -0.3165
 7653SOL    HW134421   4.602   2.262  17.527  1.9152  0.0388  0.2009
 7653SOL    HW234422   4.657   2.122  17.485  0.1708 -0.7745  0.2131
 7654SOL     OW34423   1.387   2.006   8.031  0.1304  0.0005 -0.1473
 7654SOL    HW134424   1.458   2.030   7.970  1.3768  0.8918  1.6531
 7654SOL    HW234425   1.322   2.076   8.037 -2.8692 -2.9548  1.6503
 7655SOL     OW34426   2.471   1.974   7.819  0.1683  0.1862  0.2214
 7655SOL    HW134427   2.468   2.057   7.867  0.3266  1.1023 -1.3092
 7655SOL    HW234428   2.438   1.917   7.888 -0.5174  1.0897  0.6409
 7656SOL     OW34429   1.876   2.913  12.296  0.1662  1.0249 -0.3626
 7656SOL    HW134430   1.930   2.835  12.283  0.6360  1.3938 -0.6042
 7656SOL    HW234431   1.794   2.867  12.313  1.1487 -0.2106  1.1006
 7657SOL     OW34432   0.269   2.485   2.818 -0.4315 -0.6857 -0.3384
 7657SOL    HW134433   0.329   2.427   2.769 -0.4466  0.3744 -1.6069
 7657SOL    HW234434   0.261   2.550   2.748  0.1220 -0.4092 -0.1463
 7658SOL     OW34435   0.513   0.304   7.540 -0.2523 -0.3125  0.8083
 7658SOL    HW134436   0.559   0.324   7.621  0.8279  2.7943 -0.5634
 7658SOL    HW234437   0.581   0.265   7.485 -0.7530  1.2005 -0.8549
 7659SOL     OW34438   0.308   1.942   8.604  0.6018 -0.3818  0.0986
 7659SOL    HW134439   0.217   1.929   8.631  1.3640 -3.8388  1.0335
 7659SOL    HW234440   0.350   1.957   8.689 -1.4482 -1.3977  1.2969
 7660SOL     OW34441   4.138   4.358   1.628  0.0951  0.2148 -0.0453
 7660SOL    HW134442   4.138   4.343   1.723 -1.8163 -2.9213 -0.5396
 7660SOL    HW234443   4.064   4.419   1.617 -0.6797 -0.4652  1.3507
 7661SOL     OW34444   3.885   3.383   7.986 -0.4555  0.1164  0.2727
 7661SOL    HW134445   3.946   3.437   7.935  1.8211 -1.7848  0.9722
 7661SOL    HW234446   3.822   3.365   7.916 -2.3530  1.5777  1.6303
 7662SOL     OW34447   2.823   2.811  12.187 -0.2860  0.1548 -0.5030
 7662SOL    HW134448   2.780   2.782  12.267  1.3410  1.3907  0.8180
 7662SOL    HW234449   2.915   2.802  12.210 -0.5553 -0.9184  0.1131
 7663SOL     OW34450   0.788   1.651  10.404 -0.1124  0.8070 -0.1380
 7663SOL    HW134451   0.834   1.617  10.481  0.7963  0.8095 -0.6813
 7663SOL    HW234452   0.823   1.740  10.405 -0.1634  0.8288 -0.6563
 7664SOL     OW34453   3.867   3.548   3.019 -0.4900 -0.0996 -0.0300
 7664SOL    HW134454   3.915   3.464   3.014  1.6175  1.0268  1.2404
 7664SOL    HW234455   3.867   3.574   3.111  1.7405 -2.8926  0.7760
 7665SOL     OW34456   2.320   3.460   4.727 -0.2411 -0.3337  0.4928
 7665SOL    HW134457   2.314   3.541   4.676  0.0294 -0.6501 -0.0367
 7665SOL    HW234458   2.252   3.406   4.685 -1.2995  1.1602  0.2780
 7666SOL     OW34459   0.916   0.443   8.573 -0.4297 -0.2113 -0.4211
 7666SOL    HW134460   0.985   0.395   8.527 -0.0885 -1.8167  1.7801
 7666SOL    HW234461   0.980   0.486   8.629  0.3182 -0.5726 -1.0053
 7667SOL     OW34462   1.154   1.945   7.822 -0.3427  0.1709 -0.0781
 7667SOL    HW134463   1.180   1.930   7.731  1.0388  1.6404  0.0797
 7667SOL    HW234464   1.170   2.039   7.829  0.1715  0.0954 -0.2162
 7668SOL     OW34465   1.137   0.339   5.983 -0.1358 -0.7905  0.4400
 7668SOL    HW134466   1.139   0.286   5.903  1.5733  1.8895 -1.2600
 7668SOL    HW234467   1.225   0.376   5.989 -0.7905  0.4426  2.2849
 7669SOL     OW34468   1.776   1.943   2.384  0.2420  0.1166 -0.0468
 7669SOL    HW134469   1.868   1.936   2.359 -0.1305 -2.7558 -0.6675
 7669SOL    HW234470   1.750   1.851   2.373 -2.0866  0.7692  0.1553
 7670SOL     OW34471   2.764   1.021   5.571 -0.0340 -0.1531 -0.2772
 7670SOL    HW134472   2.741   0.989   5.484 -1.0013 -1.5293  0.4853
 7670SOL    HW234473   2.839   0.965   5.588 -0.8732 -0.8468  1.1182
 7671SOL     OW34474   0.552   1.936   1.788  0.0391 -0.8783 -0.1192
 7671SOL    HW134475   0.514   2.006   1.735  1.1856 -2.0018 -2.3918
 7671SOL    HW234476   0.591   1.993   1.854  1.8613 -0.4734 -1.5480
 7672SOL     OW34477   3.239   1.894   8.144 -0.5950 -0.3171  0.3792
 7672SOL    HW134478   3.317   1.900   8.199 -0.5848 -0.2324  0.3557
 7672SOL    HW234479   3.185   1.834   8.197 -0.3566 -1.3888 -0.5960
 7673SOL     OW34480   3.809   0.967   9.485 -0.0070  0.2414  0.1057
 7673SOL    HW134481   3.762   0.961   9.402 -2.3742 -1.1483  1.5365
 7673SOL    HW234482   3.901   0.977   9.460 -0.0098 -2.8021 -1.1113
 7674SOL     OW34483   3.057   3.163   8.728 -0.3630  0.2252  0.1745
 7674SOL    HW134484   2.974   3.210   8.721 -1.2501 -1.3350  0.2791
 7674SOL    HW234485   3.029   3.115   8.806 -0.1232  0.4898  0.4261
 7675SOL     OW34486   1.363   2.651   1.359 -0.5163 -0.1091 -0.0791
 7675SOL    HW134487   1.323   2.570   1.391 -1.5410  0.2240 -0.5342
 7675SOL    HW234488   1.343   2.643   1.266  0.7015 -0.8642 -0.2817
 7676SOL     OW34489   3.736   1.237  16.491  0.3202  0.7372  0.3523
 7676SOL    HW134490   3.739   1.167  16.556 -0.9171 -1.0168 -1.4721
 7676SOL    HW234491   3.801   1.205  16.428 -1.0468 -0.6072 -0.3938
 7677SOL     OW34492   1.954   3.842   2.416  0.0656 -0.1040  0.6964
 7677SOL    HW134493   1.906   3.862   2.495 -0.8870 -1.4250  0.4518
 7677SOL    HW234494   1.881   3.854   2.355  1.4500  1.4020 -0.6694
 7678SOL     OW34495   2.395   1.312   2.892 -0.5338  0.0378  0.7151
 7678SOL    HW134496   2.327   1.376   2.911  0.0142  0.3708  1.5707
 7678SOL    HW234497   2.371   1.274   2.808 -0.2406  0.0113  0.6438
 7679SOL     OW34498   4.626   1.758   3.867  0.6185 -0.0969  0.1706
 7679SOL    HW134499   4.671   1.831   3.909 -0.1557  1.0041 -0.9324
 7679SOL    HW234500   4.618   1.690   3.934 -0.6015  0.0903  0.2100
 7680SOL     OW34501   4.436   0.351   7.546 -0.1990 -0.1143  0.1296
 7680SOL    HW134502   4.503   0.419   7.536 -0.5648  0.2179 -0.0136
 7680SOL    HW234503   4.483   0.288   7.491 -1.7849 -0.0454 -1.2894
 7681SOL     OW34504   4.244   2.714  10.895  0.0375  0.4237  0.7796
 7681SOL    HW134505   4.234   2.713  10.990 -2.3355  0.6288  0.5248
 7681SOL    HW234506   4.335   2.741  10.883 -0.7802  2.4230 -0.8708
 7682SOL     OW34507   0.390   3.030  15.307  0.0706  0.2218  0.1899
 7682SOL    HW134508   0.374   3.008  15.215  1.2558  1.5930 -0.3503
 7682SOL    HW234509   0.313   3.083  15.328 -0.8429 -0.2443 -2.0022
 7683SOL     OW34510   2.641   1.947   5.276 -0.4289  0.6231 -0.1051
 7683SOL    HW134511   2.596   1.862   5.267  1.0047  0.2126 -3.2258
 7683SOL    HW234512   2.584   2.009   5.230  0.4895 -1.5352 -4.2008
 7684SOL     OW34513   3.735   1.167   0.646 -0.4056 -0.2055  0.4519
 7684SOL    HW134514   3.829   1.171   0.659 -0.0991  1.1240 -2.2510
 7684SOL    HW234515   3.697   1.254   0.658  0.1890 -0.0341  1.0462
 7685SOL     OW34516   0.380   3.938  13.683  0.0824  0.3088 -0.1176
 7685SOL    HW134517   0.423   3.979  13.607 -1.4903 -0.3555 -1.3699
 7685SOL    HW234518   0.308   3.999  13.696 -0.7044  0.0586 -3.1925
 7686SOL     OW34519   2.631   0.777   6.867 -0.7332  0.5965  0.1683
 7686SOL    HW134520   2.599   0.706   6.812  0.0382  1.2852 -1.1627
 7686SOL    HW234521   2.633   0.854   6.809 -2.1829 -0.0614 -0.7555
 7687SOL     OW34522   0.892   3.130  13.882  0.1269  0.2663 -0.0642
 7687SOL    HW134523   0.911   3.136  13.975 -0.4538 -1.0444  0.1318
 7687SOL    HW234524   0.902   3.036  13.872  1.4180  0.6085 -2.2102
 7688SOL     OW34525   0.270   1.781   8.382  0.5089 -0.6016 -0.1897
 7688SOL    HW134526   0.309   1.860   8.418  2.3186 -1.1384 -0.9600
 7688SOL    HW234527   0.286   1.811   8.292  0.9767  2.3344  0.8633
 7689SOL     OW34528   0.854   3.286   7.635 -0.5724 -0.2117  0.1895
 7689SOL    HW134529   0.808   3.223   7.690  2.5895 -3.6053 -1.0495
 7689SOL    HW234530   0.864   3.359   7.695  1.3443 -0.4917  0.2157
 7690SOL     OW34531   3.050   2.754  16.319 -0.4431 -0.6120 -0.0845
 7690SOL    HW134532   3.099   2.672  16.333  0.4958 -0.6594 -3.6993
 7690SOL    HW234533   3.074   2.808  16.394 -2.0731  0.2273 -0.1703
 7691SOL     OW34534   1.502   3.604   7.475 -0.2210 -0.0384  0.0321
 7691SOL    HW134535   1.473   3.686   7.513 -0.8014 -2.0247  3.8941
 7691SOL    HW234536   1.505   3.629   7.382  0.5120 -0.4277 -0.0547
 7692SOL     OW34537   1.920   0.151   5.290  0.1677 -0.0279  0.1103
 7692SOL    HW134538   1.992   0.089   5.279  1.9923  2.1303  0.0616
 7692SOL    HW234539   1.857   0.124   5.222 -1.0530 -0.6708  1.4787
 7693SOL     OW34540   0.158   0.325   2.170  0.0061 -0.4495 -0.0984
 7693SOL    HW134541   0.248   0.294   2.181  0.3873  0.7985  0.3157
 7693SOL    HW234542   0.112   0.241   2.172  1.3220 -1.1446  0.5825
 7694SOL     OW34543   1.111   2.442   5.496 -0.2246 -0.2119  0.2514
 7694SOL    HW134544   1.110   2.389   5.576  1.1194 -1.2980 -0.4487
 7694SOL    HW234545   1.137   2.525   5.535 -0.3328 -0.6297  1.2213
 7695SOL     OW34546   4.099   0.880   4.717  0.1637 -0.1654  0.3654
 7695SOL    HW134547   4.025   0.935   4.689  0.1548 -0.3376  0.0424
 7695SOL    HW234548   4.092   0.797   4.670  0.3400  0.0455 -0.0367
 7696SOL     OW34549   0.779   3.147   7.175  0.3320 -0.9302 -0.0598
 7696SOL    HW134550   0.821   3.118   7.256 -0.2741 -1.6967 -0.0194
 7696SOL    HW234551   0.756   3.236   7.201 -1.8244 -1.5399  0.0963
 7697SOL     OW34552   4.444   0.074   8.230  0.1064  0.2932  0.2251
 7697SOL    HW134553   4.385   0.122   8.172 -0.5419  0.6041  1.1370
 7697SOL    HW234554   4.468   0.143   8.293 -0.1211 -0.0182  0.6547
 7698SOL     OW34555   0.586   0.422   4.654  0.1743  0.0518  0.9428
 7698SOL    HW134556   0.638   0.415   4.574  0.0562  0.2512  0.8500
 7698SOL    HW234557   0.517   0.357   4.638  0.7099 -0.7557  1.8888
 7699SOL     OW34558   4.499   2.489  15.652 -0.6342  0.1489 -0.0877
 7699SOL    HW134559   4.487   2.397  15.676  1.4836  0.2001  1.1236
 7699SOL    HW234560   4.441   2.537  15.710  1.1552  1.4557  0.5992
 7700SOL     OW34561   0.415   3.491  10.421 -0.1046 -0.4637  0.4161
 7700SOL    HW134562   0.357   3.415  10.413  0.0177 -0.2777 -2.3808
 7700SOL    HW234563   0.408   3.514  10.513  0.0496  0.7122  0.1300
 7701SOL     OW34564   1.737   3.613   6.464  0.5655 -0.1824 -0.2708
 7701SOL    HW134565   1.730   3.518   6.466  1.7621 -0.2623 -0.0825
 7701SOL    HW234566   1.826   3.608   6.499  0.3088 -2.6396  0.0219
 7702SOL     OW34567   1.958   2.944   1.932 -0.2232 -0.0025  0.2606
 7702SOL    HW134568   1.894   2.874   1.945  1.5860 -2.3612 -3.3380
 7702SOL    HW234569   2.037   2.893   1.915  0.4252  1.1045 -0.0013
 7703SOL     OW34570   0.312   0.903  10.300  0.2340 -0.3260 -0.4581
 7703SOL    HW134571   0.376   0.966  10.332 -1.5591  0.2450  1.9544
 7703SOL    HW234572   0.271   0.960  10.236 -0.8457 -0.6206 -0.0236
 7704SOL     OW34573   2.965   2.703   1.343  0.2184  0.4491  0.5427
 7704SOL    HW134574   2.930   2.740   1.262  1.7280  0.4924 -0.0980
 7704SOL    HW234575   2.884   2.680   1.389 -1.7615  0.9409 -2.7240
 7705SOL     OW34576   1.745   3.409   2.747 -0.9736  0.5227 -0.3183
 7705SOL    HW134577   1.753   3.475   2.678 -1.2448  1.5371  0.6231
 7705SOL    HW234578   1.767   3.335   2.690  0.4974 -0.5396  1.6277
 7706SOL     OW34579   3.091   3.929   4.482  0.0480 -0.0220  0.2926
 7706SOL    HW134580   3.125   3.990   4.547 -0.2168  1.2140 -0.7427
 7706SOL    HW234581   3.148   3.853   4.495 -1.8319 -1.2609  1.4300
 7707SOL     OW34582   0.793   2.264   4.570 -0.0489  0.0507  0.2424
 7707SOL    HW134583   0.701   2.238   4.573 -0.3443  1.0074 -0.3532
 7707SOL    HW234584   0.807   2.289   4.479  0.1574  0.8586  0.4915
 7708SOL     OW34585   3.469   0.232  11.122  0.1502 -0.2119 -0.3368
 7708SOL    HW134586   3.511   0.297  11.066 -0.4647  0.8133  0.3987
 7708SOL    HW234587   3.512   0.244  11.206  0.6539  0.2546 -0.6643
 7709SOL     OW34588   4.721   4.013   6.143 -0.2059  0.2219  0.8402
 7709SOL    HW134589   4.714   4.088   6.202  0.2566 -0.9754  2.4083
 7709SOL    HW234590   4.688   3.938   6.193 -1.4783 -0.1344 -0.5178
 7710SOL     OW34591   2.040   0.736   0.579  0.5742 -0.0922  0.1666
 7710SOL    HW134592   2.068   0.812   0.630  3.3710 -0.5999 -0.6387
 7710SOL    HW234593   2.117   0.681   0.571  0.9261  0.2607  1.1386
 7711SOL     OW34594   4.155   2.571   2.161 -0.3668 -0.2922  0.1401
 7711SOL    HW134595   4.065   2.600   2.179  0.2508  1.0738  1.0520
 7711SOL    HW234596   4.137   2.533   2.075 -0.6524 -1.7112  0.8192
 7712SOL     OW34597   2.037   4.223   1.186  0.1727  0.0545  0.2640
 7712SOL    HW134598   1.952   4.259   1.159  0.3412 -0.5211 -1.0370
 7712SOL    HW234599   2.046   4.261   1.273 -0.3141  2.4661 -0.7444
 7713SOL     OW34600   3.612   3.278   9.076 -0.4740  0.2270  0.0448
 7713SOL    HW134601   3.662   3.296   8.996  1.3933 -0.1069  1.1425
 7713SOL    HW234602   3.672   3.276   9.150  0.1291  1.6910 -0.3917
 7714SOL     OW34603   0.452   0.379  11.523 -0.5204 -0.0961  0.3172
 7714SOL    HW134604   0.530   0.343  11.480 -0.6199  0.1860 -0.0969
 7714SOL    HW234605   0.494   0.461  11.549  1.8332 -1.0743 -0.3761
 7715SOL     OW34606   3.683   1.961  15.613  0.0517 -0.1125  0.4482
 7715SOL    HW134607   3.608   1.948  15.671  0.9508 -0.2204  1.5977
 7715SOL    HW234608   3.731   1.883  15.639  4.5514  3.0433  1.5629
 7716SOL     OW34609   0.486   3.724   7.953  0.5204  0.3710 -0.1588
 7716SOL    HW134610   0.575   3.732   7.920  0.6827  0.7861  0.3821
 7716SOL    HW234611   0.443   3.693   7.874  1.8034 -0.0751 -0.6741
 7717SOL     OW34612   3.649   0.119   2.366 -0.0135  0.5414 -0.0177
 7717SOL    HW134613   3.638   0.037   2.416  1.2543  1.2888  1.5109
 7717SOL    HW234614   3.665   0.178   2.440 -0.2845  0.3177  0.2203
 7718SOL     OW34615   4.129   4.716   7.861  0.2218 -0.4076 -0.2723
 7718SOL    HW134616   4.185   0.061   7.828  0.3904 -0.1213  0.6094
 7718SOL    HW234617   4.078   0.040   7.925  1.5050  2.0239 -1.1106
 7719SOL     OW34618   3.384   2.778   8.213  0.4461  0.3897  0.4990
 7719SOL    HW134619   3.408   2.686   8.203  1.1396  0.5492  0.6929
 7719SOL    HW234620   3.297   2.775   8.252  0.3433 -0.3028  0.2056
 7720SOL     OW34621   0.996   0.859  11.165  0.0161 -0.3108  0.3703
 7720SOL    HW134622   0.919   0.813  11.129  0.2759 -0.4654  0.0068
 7720SOL    HW234623   0.968   0.945  11.134 -1.3415 -0.6942  0.5229
 7721SOL     OW34624   2.430   0.981   1.758  0.6421 -0.3370  0.0604
 7721SOL    HW134625   2.507   0.925   1.759 -1.0821 -2.7452 -0.0637
 7721SOL    HW234626   2.472   1.066   1.747 -1.2791  0.7523  1.2081
 7722SOL     OW34627   1.799   1.527  15.179  0.0310  0.4615 -0.6180
 7722SOL    HW134628   1.774   1.476  15.256  1.2952  0.7688 -0.0063
 7722SOL    HW234629   1.886   1.490  15.164 -1.6284 -3.5388 -0.3508
 7723SOL     OW34630   2.774   2.472   4.057  0.2085 -0.1338  0.2270
 7723SOL    HW134631   2.805   2.397   4.007  0.4691  1.6806 -2.3118
 7723SOL    HW234632   2.833   2.541   4.027 -1.6773  1.1475 -0.5173
 7724SOL     OW34633   0.226   1.921  12.961 -0.1523 -0.0546 -0.1361
 7724SOL    HW134634   0.274   1.961  12.888 -0.0264  1.8682  0.9785
 7724SOL    HW234635   0.138   1.943  12.928 -0.0397  1.4072  0.5040
 7725SOL     OW34636   1.812   3.002   4.059  0.1286 -0.3006 -0.2248
 7725SOL    HW134637   1.894   3.016   4.106 -0.9955 -1.5457  2.0813
 7725SOL    HW234638   1.827   2.907   4.054  0.0849 -0.3824  1.3249
 7726SOL     OW34639   3.520   4.314   8.414 -0.3570 -0.1675 -0.2176
 7726SOL    HW134640   3.546   4.254   8.485  0.9951  0.4141 -0.2156
 7726SOL    HW234641   3.532   4.271   8.330 -1.2669 -0.3710 -0.2422
 7727SOL     OW34642   4.542   0.976  17.024  0.0705 -0.1653  0.3889
 7727SOL    HW134643   4.537   0.902  17.085  0.2343  1.5949  2.4980
 7727SOL    HW234644   4.489   1.041  17.070  0.2449 -1.0236  1.8184
 7728SOL     OW34645   1.082   1.210   3.708 -0.1314 -0.3210 -0.2590
 7728SOL    HW134646   1.078   1.158   3.628 -3.1337 -3.3492  1.8856
 7728SOL    HW234647   0.999   1.179   3.743  0.1288 -0.3055  0.3779
 7729SOL     OW34648   1.659   2.544  11.717  0.2069  0.8319 -0.5218
 7729SOL    HW134649   1.628   2.632  11.697 -0.6036  0.3811 -1.2298
 7729SOL    HW234650   1.700   2.558  11.803 -0.8376  0.4061  0.0488
 7730SOL     OW34651   0.643   4.409   8.072 -0.2472  0.1270  0.1592
 7730SOL    HW134652   0.558   4.409   8.114  0.1733 -0.7638  0.9986
 7730SOL    HW234653   0.616   4.364   7.992 -2.0091 -3.4914  2.8114
 7731SOL     OW34654   2.904   3.862   4.305 -0.6026  0.4916  0.2460
 7731SOL    HW134655   2.905   3.769   4.329  2.8979  0.3905 -0.2535
 7731SOL    HW234656   2.971   3.883   4.371 -2.4293  0.3135  2.1443
 7732SOL     OW34657   0.854   2.715   9.811 -0.6133 -0.3138  0.0892
 7732SOL    HW134658   0.805   2.653   9.864 -0.9993 -0.3731 -0.3337
 7732SOL    HW234659   0.867   2.666   9.730  3.4553  1.5722 -0.3958
 7733SOL     OW34660   3.331   3.487  12.690 -0.2252  0.5598 -0.4441
 7733SOL    HW134661   3.297   3.438  12.765  0.6135  2.2376  1.0151
 7733SOL    HW234662   3.396   3.434  12.644 -0.8279 -0.3991 -0.1971
 7734SOL     OW34663   1.636   3.929   7.720  0.2362  0.3521 -0.4683
 7734SOL    HW134664   1.692   3.853   7.734  0.9403  0.9413 -0.0646
 7734SOL    HW234665   1.654   3.961   7.809  0.9452 -0.9784 -0.1336
 7735SOL     OW34666   1.873   0.694   9.992  0.8215  0.5591 -0.2652
 7735SOL    HW134667   1.925   0.707  10.071 -0.9707  1.8002  0.7137
 7735SOL    HW234668   1.860   0.599   9.999  0.0491  0.8915  2.6175
 7736SOL     OW34669   4.013   0.146   2.798 -0.2330 -0.0975 -0.4303
 7736SOL    HW134670   3.918   0.132   2.798 -0.2789  0.1997 -1.2670
 7736SOL    HW234671   4.024   0.176   2.708 -1.0116 -0.2511 -0.5742
 7737SOL     OW34672   4.566   0.456   6.854 -0.2120  0.1156 -0.1894
 7737SOL    HW134673   4.505   0.529   6.850 -2.3525 -1.6604 -0.2085
 7737SOL    HW234674   4.504   0.384   6.844 -0.1737 -0.0019  0.4013
 7738SOL     OW34675   1.417   2.391  12.737 -0.4072 -0.4849  0.1358
 7738SOL    HW134676   1.376   2.333  12.672  0.5665  1.3982 -2.1527
 7738SOL    HW234677   1.414   2.474  12.690 -0.2550 -0.4313  0.2231
 7739SOL     OW34678   4.433   3.340   7.784  0.0099 -0.3265  0.4694
 7739SOL    HW134679   4.442   3.405   7.854 -0.7493  0.0500  0.2190
 7739SOL    HW234680   4.384   3.394   7.722 -1.7447 -2.8857 -0.3838
 7740SOL     OW34681   1.356   3.548  13.288 -0.2927 -0.4290 -0.4218
 7740SOL    HW134682   1.370   3.459  13.319 -1.6634 -0.3453  0.4346
 7740SOL    HW234683   1.428   3.596  13.329 -0.0459 -1.4513  0.3490
 7741SOL     OW34684   0.030   2.387   5.271 -0.3335 -0.7642  0.0268
 7741SOL    HW134685   0.046   2.439   5.192  0.0103 -1.1644 -0.1654
 7741SOL    HW234686   0.119   2.355   5.284  0.5775  1.7439 -0.1468
 7742SOL     OW34687   3.840   1.625   7.182  0.2646  0.4255 -0.2339
 7742SOL    HW134688   3.905   1.600   7.248  1.0790  0.5722 -0.9766
 7742SOL    HW234689   3.881   1.586   7.105 -2.2380  0.5211 -1.6030
 7743SOL     OW34690   1.382   0.799   4.637 -0.4665 -0.3499 -0.1224
 7743SOL    HW134691   1.377   0.729   4.702  2.9763  0.5710  1.1327
 7743SOL    HW234692   1.316   0.859   4.673 -0.2878 -0.6330  0.6888
 7744SOL     OW34693   0.303   2.501  15.759 -0.1828 -0.2337 -0.1938
 7744SOL    HW134694   0.250   2.494  15.839 -2.4838  1.2067 -1.5955
 7744SOL    HW234695   0.242   2.520  15.688 -0.4685  0.1620  0.1551
 7745SOL     OW34696   4.556   4.130   7.767  0.0536  0.1182 -0.5066
 7745SOL    HW134697   4.583   4.054   7.820 -3.7020 -1.3954 -0.7741
 7745SOL    HW234698   4.462   4.127   7.786  0.3540 -1.5678  0.7385
 7746SOL     OW34699   2.940   2.092  13.603  0.3883  0.0092  0.4632
 7746SOL    HW134700   2.913   2.184  13.600  1.6504  0.3663  0.0420
 7746SOL    HW234701   2.891   2.056  13.677 -1.8187  2.1217  0.0153
 7747SOL     OW34702   1.515   1.217  10.586 -0.3971 -0.3355 -0.1526
 7747SOL    HW134703   1.576   1.150  10.615  0.7936  1.1281  0.7764
 7747SOL    HW234704   1.432   1.177  10.613  0.0040  1.7600  4.2855
 7748SOL     OW34705   2.529   4.608   2.384  0.0346 -0.7477 -0.0681
 7748SOL    HW134706   2.576   4.647   2.311  1.0063 -3.6025 -0.9544
 7748SOL    HW234707   2.512   4.686   2.437  1.4089  0.2076 -1.0438
 7749SOL     OW34708   2.263   4.582   9.609  0.4584  0.1756 -0.4046
 7749SOL    HW134709   2.265   4.488   9.625 -0.5138 -0.0079 -1.3186
 7749SOL    HW234710   2.205   4.580   9.533  0.1313  0.7239 -0.1711
 7750SOL     OW34711   0.518   0.178   5.454 -0.0659 -0.0677 -0.0688
 7750SOL    HW134712   0.587   0.244   5.452 -0.8203  0.7162 -0.0423
 7750SOL    HW234713   0.455   0.210   5.519 -0.2402  0.2355 -0.3922
 7751SOL     OW34714   4.264   1.061   7.858 -0.1890 -0.4682 -0.2889
 7751SOL    HW134715   4.327   0.991   7.845 -0.3928 -1.0857  2.0511
 7751SOL    HW234716   4.226   1.043   7.944 -0.4212  4.1661  0.6154
 7752SOL     OW34717   3.891   0.949   7.087 -0.7163 -0.7732 -0.3697
 7752SOL    HW134718   3.850   0.993   7.013  0.4377 -1.3910 -1.3899
 7752SOL    HW234719   3.907   0.862   7.051 -0.4121  0.0366 -2.1586
 7753SOL     OW34720   0.526   0.557   5.771  0.2775  0.0885  0.2303
 7753SOL    HW134721   0.453   0.574   5.831 -0.6879 -1.3836 -0.5102
 7753SOL    HW234722   0.602   0.588   5.819 -0.2254  1.9904 -0.2249
 7754SOL     OW34723   1.020   4.651   1.176  0.5845 -0.0212 -0.4893
 7754SOL    HW134724   0.980   4.580   1.126 -0.3863 -0.1843  0.5501
 7754SOL    HW234725   0.970   4.724   1.139  1.8651  1.4105  0.5969
 7755SOL     OW34726   4.526   1.860   4.702 -0.0789 -0.4486  0.6438
 7755SOL    HW134727   4.508   1.863   4.608  0.9381  0.4397  0.4851
 7755SOL    HW234728   4.444   1.890   4.742 -0.3959 -1.7976  1.0301
 7756SOL     OW34729   0.840   1.823  11.797 -0.3648  0.1770 -0.4947
 7756SOL    HW134730   0.872   1.912  11.815 -0.0040  0.0872 -0.6863
 7756SOL    HW234731   0.779   1.837  11.725  0.8998  1.5904 -1.3002
 7757SOL     OW34732   1.216   1.810  12.030  0.3082  0.7411  1.0290
 7757SOL    HW134733   1.207   1.786  12.122 -0.9848  1.7929  1.1780
 7757SOL    HW234734   1.302   1.847  12.012  0.9545 -1.1489  0.1862
 7758SOL     OW34735   3.539   2.464   9.498 -0.1700  0.3892  0.0320
 7758SOL    HW134736   3.510   2.554   9.484 -2.3199 -0.5100 -1.2672
 7758SOL    HW234737   3.508   2.425   9.416  1.5248  0.9973 -0.8997
 7759SOL     OW34738   3.590   2.519   6.903 -0.0780 -0.3434  0.0632
 7759SOL    HW134739   3.644   2.463   6.959  0.0157 -1.6867 -1.3883
 7759SOL    HW234740   3.624   2.609   6.903  0.1248 -0.4209  1.7044
 7760SOL     OW34741   3.093   2.635   7.299  0.4189  0.5393  0.0108
 7760SOL    HW134742   3.070   2.570   7.233 -0.8374  0.2120  0.7830
 7760SOL    HW234743   3.113   2.711   7.244  2.1819 -0.3763 -0.6292
 7761SOL     OW34744   1.445   2.618   3.626  0.5054 -0.3127  0.3104
 7761SOL    HW134745   1.506   2.675   3.579 -1.4848  1.0941 -0.5667
 7761SOL    HW234746   1.403   2.674   3.691 -0.7401 -0.0698 -0.6980
 7762SOL     OW34747   4.565   2.244   7.738 -0.0228 -0.1324 -0.0896
 7762SOL    HW134748   4.624   2.288   7.677  1.3140 -1.9245 -0.0741
 7762SOL    HW234749   4.604   2.164   7.771 -2.9976 -2.3873 -2.0026
 7763SOL     OW34750   4.608   0.567   7.479 -0.7413  0.2659  0.5218
 7763SOL    HW134751   4.560   0.616   7.413  0.3503  0.8346  0.1555
 7763SOL    HW234752   4.637   0.643   7.528  1.1611  1.4387 -2.4010
 7764SOL     OW34753   1.269   1.609   5.541 -0.1164 -0.3503  0.4379
 7764SOL    HW134754   1.280   1.539   5.605 -0.3786 -0.1166  0.7380
 7764SOL    HW234755   1.256   1.686   5.596  0.0116  0.3350 -0.4935
 7765SOL     OW34756   0.954   1.921   5.025  0.0816 -0.0373  0.0478
 7765SOL    HW134757   1.023   1.903   5.089  0.7568 -0.2957 -0.7509
 7765SOL    HW234758   1.013   1.925   4.950  0.9186 -0.4936  0.6905
 7766SOL     OW34759   4.180   2.922   5.699  0.3274 -0.1020  0.4550
 7766SOL    HW134760   4.180   2.849   5.760  0.5039 -0.1261  0.4276
 7766SOL    HW234761   4.122   2.883   5.633 -0.2296  0.7540  0.4340
 7767SOL     OW34762   2.972   3.491   5.277 -0.1908  0.0304  0.2373
 7767SOL    HW134763   3.013   3.408   5.299 -1.3090 -0.6728 -0.3468
 7767SOL    HW234764   3.004   3.516   5.190  1.8027  0.0302  0.9669
 7768SOL     OW34765   1.833   2.510  14.691  0.2347  0.0995  0.8266
 7768SOL    HW134766   1.866   2.572  14.625  1.0451 -0.8209  0.3695
 7768SOL    HW234767   1.816   2.438  14.630  0.1965  0.2271  0.6855
 7769SOL     OW34768   1.409   1.524   8.983 -0.2800  0.1592  0.1954
 7769SOL    HW134769   1.501   1.507   8.964 -1.1725 -0.8592 -3.2992
 7769SOL    HW234770   1.404   1.461   9.055  0.2388  0.1098  0.1900
 7770SOL     OW34771   3.750   2.094   7.852  0.5198 -0.3847  0.0186
 7770SOL    HW134772   3.811   2.161   7.882  1.6429 -0.4330 -2.1368
 7770SOL    HW234773   3.669   2.146   7.854  0.4994 -0.3734 -0.8056
 7771SOL     OW34774   3.140   0.518   0.419  0.8801  0.1321 -0.0020
 7771SOL    HW134775   3.133   0.564   0.336  0.5617  0.8356  0.4100
 7771SOL    HW234776   3.133   0.426   0.395  0.0481 -0.3691  2.1037
 7772SOL     OW34777   1.558   2.353   0.631 -0.0178  0.4521  0.0368
 7772SOL    HW134778   1.488   2.293   0.603 -0.5230  0.1421  1.9480
 7772SOL    HW234779   1.609   2.356   0.550  0.4841 -0.4564  0.3103
 7773SOL     OW34780   3.488   1.780  14.876 -0.0871 -0.4285  0.2484
 7773SOL    HW134781   3.582   1.777  14.896 -0.1518 -0.2305  0.5881
 7773SOL    HW234782   3.480   1.864  14.921  1.5665 -1.0876  1.7645
 7774SOL     OW34783   3.672   1.199   9.637 -0.6007 -0.2514  0.1733
 7774SOL    HW134784   3.731   1.257   9.686  0.8230 -1.4621 -0.1220
 7774SOL    HW234785   3.733   1.139   9.594 -0.8135 -0.7562  0.5777
 7775SOL     OW34786   4.546   3.283  11.844 -0.0591 -0.1009 -0.3313
 7775SOL    HW134787   4.634   3.267  11.876 -1.6019  0.2478  4.1066
 7775SOL    HW234788   4.516   3.369  11.875  0.8564 -0.1561  0.7019
 7776SOL     OW34789   1.772   0.227  15.880  0.5014 -0.9388 -0.4361
 7776SOL    HW134790   1.866   0.238  15.865  0.4763  0.0905  0.1528
 7776SOL    HW234791   1.742   0.292  15.817  0.4851 -1.2281 -0.7267
 7777SOL     OW34792   0.621   2.392  12.339 -0.6165  0.6007 -0.1501
 7777SOL    HW134793   0.615   2.462  12.274 -1.2902  0.5585 -0.1277
 7777SOL    HW234794   0.534   2.353  12.333 -1.1655  2.0563 -1.4273
 7778SOL     OW34795   4.224   1.022   4.520 -0.3489 -0.1818 -0.1812
 7778SOL    HW134796   4.215   0.983   4.606 -0.3216  2.0411  0.8400
 7778SOL    HW234797   4.246   0.954   4.457  1.4351 -1.5576  1.9433
 7779SOL     OW34798   3.813   3.891  10.856  0.0992 -0.1479 -0.6174
 7779SOL    HW134799   3.786   3.978  10.827 -0.8751  0.4877  2.2367
 7779SOL    HW234800   3.839   3.855  10.771 -1.5923 -1.3065 -0.6541
 7780SOL     OW34801   1.739   1.214   0.966 -0.2124  0.3783 -0.0820
 7780SOL    HW134802   1.685   1.215   0.886 -0.6574 -3.7235  0.1571
 7780SOL    HW234803   1.672   1.227   1.033  0.8417 -1.6051  1.3326
 7781SOL     OW34804   3.646   3.206   8.114  0.5327  0.2096 -0.2091
 7781SOL    HW134805   3.658   3.230   8.022 -0.5498  2.7049  0.3099
 7781SOL    HW234806   3.723   3.153   8.133 -1.1522 -2.5920 -1.1251
 7782SOL     OW34807   0.459   3.119   3.993  0.5201  0.5476 -0.2562
 7782SOL    HW134808   0.421   3.101   4.078  0.0150  0.6428 -0.4585
 7782SOL    HW234809   0.549   3.096   4.014 -0.8636 -1.4980  3.3259
 7783SOL     OW34810   1.919   3.864   6.394 -0.1845  0.4124 -0.1086
 7783SOL    HW134811   1.891   3.895   6.308  0.7834 -2.4762 -1.4803
 7783SOL    HW234812   1.877   3.778   6.393  0.8301 -0.0916  0.1902
 7784SOL     OW34813   3.431   2.512   8.217 -0.4065  0.0253 -0.3659
 7784SOL    HW134814   3.354   2.462   8.190 -1.0461  2.2066 -2.5557
 7784SOL    HW234815   3.434   2.494   8.311 -0.6073  1.8629 -0.0236
 7785SOL     OW34816   3.709   3.540   2.629  0.1407 -0.2164  0.0693
 7785SOL    HW134817   3.792   3.515   2.670  1.4720 -2.3858 -3.9462
 7785SOL    HW234818   3.741   3.593   2.555  2.3741  0.2777  1.4064
 7786SOL     OW34819   0.734   4.572  12.069  0.3266 -0.2811 -0.1810
 7786SOL    HW134820   0.737   4.555  11.975  1.0180  0.6920 -0.3268
 7786SOL    HW234821   0.821   4.550  12.102  0.1746  1.5832  1.4439
 7787SOL     OW34822   0.733   1.769   1.645  0.0083 -0.0463  0.2241
 7787SOL    HW134823   0.728   1.802   1.555  0.7307  1.0536  0.5897
 7787SOL    HW234824   0.671   1.832   1.684  0.1934  0.8539 -0.9518
 7788SOL     OW34825   2.901   3.243   0.783  0.2046 -0.3455  0.2295
 7788SOL    HW134826   2.949   3.161   0.775  2.5731  1.2377 -1.6421
 7788SOL    HW234827   2.961   3.299   0.830 -3.4865  1.3541  2.9281
 7789SOL     OW34828   3.921   2.141   9.577 -0.3202  0.1026  0.0299
 7789SOL    HW134829   3.987   2.171   9.515 -0.8789  1.5830  0.1523
 7789SOL    HW234830   3.880   2.066   9.535 -2.1024  0.6018  0.8719
 7790SOL     OW34831   4.421   4.040   6.296  0.4677 -0.4058  0.6885
 7790SOL    HW134832   4.444   4.063   6.206  0.8923 -4.0955 -0.1335
 7790SOL    HW234833   4.480   3.966   6.311  0.4177 -0.7209 -0.6440
 7791SOL     OW34834   0.976   3.782   4.785  0.1393 -0.1463 -0.0381
 7791SOL    HW134835   0.931   3.715   4.836 -0.7051  0.4292 -0.0163
 7791SOL    HW234836   1.067   3.767   4.811  0.1798 -1.0249 -0.6964
 7792SOL     OW34837   0.337   3.414  15.249 -0.5125 -0.5187 -0.2043
 7792SOL    HW134838   0.268   3.349  15.260 -1.7764  1.1659  1.7975
 7792SOL    HW234839   0.415   3.374  15.288 -0.7163  0.2922  1.0226
 7793SOL     OW34840   3.075   3.762   6.759 -0.0092  0.4057 -0.3594
 7793SOL    HW134841   3.148   3.736   6.702 -0.9360  1.8070 -2.2021
 7793SOL    HW234842   3.036   3.676   6.778 -0.8613  0.5420 -1.4317
 7794SOL     OW34843   1.035   0.585   1.264 -0.1603  0.5075 -0.0374
 7794SOL    HW134844   1.049   0.621   1.177 -2.5182 -1.7175 -1.3238
 7794SOL    HW234845   1.031   0.491   1.249 -1.5987  0.5830 -0.1513
 7795SOL     OW34846   0.127   3.139   5.005 -0.2406  0.0303 -0.6547
 7795SOL    HW134847   0.070   3.190   5.062 -0.8679 -2.3599  0.8693
 7795SOL    HW234848   0.198   3.202   4.999 -1.4924  1.6463  1.2334
 7796SOL     OW34849   1.090   1.978  12.458 -0.5123  1.1113  0.8854
 7796SOL    HW134850   1.169   1.931  12.432  0.3185  2.3144  1.2552
 7796SOL    HW234851   1.050   1.985  12.371 -0.2926 -0.4251  0.6568
 7797SOL     OW34852   1.866   1.949   6.562 -0.1013 -0.2915  0.3091
 7797SOL    HW134853   1.961   1.958   6.565  0.1319 -2.3741 -0.3760
 7797SOL    HW234854   1.842   1.893   6.488  0.1572 -1.2180  0.9159
 7798SOL     OW34855   4.565   0.972  17.422 -0.1656  0.6566 -0.2626
 7798SOL    HW134856   4.549   0.886  17.384 -2.4796  0.5847  0.8736
 7798SOL    HW234857   4.473   0.998  17.426 -0.0105  0.9594  1.3251
 7799SOL     OW34858   4.422   2.951   5.606 -0.1097  0.5587 -0.2882
 7799SOL    HW134859   4.404   2.989   5.520 -0.6667 -0.0482 -0.4407
 7799SOL    HW234860   4.337   2.938   5.646 -0.9142  3.4347 -1.0561
 7800SOL     OW34861   4.069   4.712  11.801  0.0193  0.2710  0.0465
 7800SOL    HW134862   4.069   0.080  11.821 -1.6045 -0.0039  1.3349
 7800SOL    HW234863   4.121   4.702  11.721 -2.6604  2.3934 -1.9852
 7801SOL     OW34864   3.714   2.933   2.797 -0.1071  0.4191  0.1503
 7801SOL    HW134865   3.807   2.914   2.787 -0.0471  1.3487 -1.0248
 7801SOL    HW234866   3.677   2.863   2.743  0.8049  0.7508 -0.9072
 7802SOL     OW34867   3.941   0.956   2.937 -0.8224  0.3497 -0.7286
 7802SOL    HW134868   3.896   0.986   2.857 -1.9208  1.9955  0.5145
 7802SOL    HW234869   3.973   1.042   2.966 -0.2686 -1.2414  3.2976
 7803SOL     OW34870   3.530   2.732  11.376 -0.0054  0.2295  0.3894
 7803SOL    HW134871   3.508   2.743  11.284 -3.7556  0.5584  1.3485
 7803SOL    HW234872   3.452   2.685  11.404 -0.5029 -0.7992 -2.7215
 7804SOL     OW34873   1.558   0.938   7.972  0.2129 -0.4919  0.4788
 7804SOL    HW134874   1.480   0.929   7.918 -0.5226 -1.4971  1.7159
 7804SOL    HW234875   1.511   0.959   8.053  2.8887 -0.6702  2.1041
 7805SOL     OW34876   3.725   0.431   7.709  0.3226 -0.2105  0.0346
 7805SOL    HW134877   3.682   0.353   7.742 -0.9198  0.9400  1.0956
 7805SOL    HW234878   3.667   0.453   7.637  0.2936 -0.0733  0.1003
 7806SOL     OW34879   4.023   2.023   0.523  0.0657 -0.0359  0.7088
 7806SOL    HW134880   3.945   1.973   0.498 -0.4283 -0.5391  3.2505
 7806SOL    HW234881   4.015   2.101   0.467 -2.4686 -0.6354  0.2023
 7807SOL     OW34882   0.656   4.578  12.983  0.4168  0.3658 -0.3767
 7807SOL    HW134883   0.746   4.548  12.976  0.1979 -0.1614 -0.9556
 7807SOL    HW234884   0.633   4.597  12.892  0.5096  1.0805 -0.2484
 7808SOL     OW34885   0.358   0.405   9.079  0.0727 -0.5940 -0.6842
 7808SOL    HW134886   0.442   0.360   9.085  0.2510 -0.3180 -1.0771
 7808SOL    HW234887   0.333   0.395   8.987  1.3473 -2.1835 -0.8657
 7809SOL     OW34888   1.167   2.291   5.733 -0.5427  0.0959 -0.1707
 7809SOL    HW134889   1.180   2.196   5.735 -0.0940  0.1451 -0.6619
 7809SOL    HW234890   1.196   2.312   5.821 -3.2640 -1.4468  1.1065
 7810SOL     OW34891   2.528   1.733   8.172  0.3540 -0.3272  0.1396
 7810SOL    HW134892   2.613   1.706   8.204 -0.0631 -0.9244  0.7424
 7810SOL    HW234893   2.492   1.647   8.150 -0.3336 -0.3985  1.5312
 7811SOL     OW34894   3.477   0.731   8.242 -0.0562 -0.2397  0.2811
 7811SOL    HW134895   3.438   0.649   8.273 -0.2202 -0.0694  0.5265
 7811SOL    HW234896   3.565   0.732   8.281 -1.2039  1.5751  2.8399
 7812SOL     OW34897   2.439   3.264   7.591  0.1696 -0.2450 -0.5853
 7812SOL    HW134898   2.503   3.292   7.657  0.0111 -1.8368  0.2218
 7812SOL    HW234899   2.353   3.287   7.625  0.5153  1.3743 -0.7950
 7813SOL     OW34900   1.406   0.452   7.876 -0.1231  0.1505 -0.0440
 7813SOL    HW134901   1.477   0.451   7.812 -0.9228 -0.6613 -0.9272
 7813SOL    HW234902   1.361   0.367   7.880  0.8918 -0.3527  0.7038
 7814SOL     OW34903   2.020   0.602   7.717 -0.3879 -0.8770 -0.5257
 7814SOL    HW134904   2.055   0.569   7.800 -1.6880 -0.9480  0.0036
 7814SOL    HW234905   1.963   0.670   7.752  1.9107  0.5892  0.3545
 7815SOL     OW34906   0.385   1.546   2.951  0.0405  0.1720  0.1529
 7815SOL    HW134907   0.291   1.564   2.950  0.3770  1.9152  0.8978
 7815SOL    HW234908   0.396   1.547   2.856  1.5380 -3.2226  0.3022
 7816SOL     OW34909   2.998   1.762   7.447  0.2793 -0.2814  0.3933
 7816SOL    HW134910   2.926   1.819   7.476 -0.6213 -0.5246 -1.3236
 7816SOL    HW234911   3.006   1.793   7.357 -0.4866 -1.4540 -0.0847
 7817SOL     OW34912   2.610   0.425   4.962  0.2000  0.1082  0.4081
 7817SOL    HW134913   2.612   0.467   5.048  0.9226 -0.5021  0.6829
 7817SOL    HW234914   2.598   0.499   4.903 -2.0818 -0.7977 -0.2788
 7818SOL     OW34915   3.007   2.726   2.600  0.1148  0.1605  0.3545
 7818SOL    HW134916   2.985   2.643   2.556 -0.1914  0.2991  0.2395
 7818SOL    HW234917   2.980   2.711   2.690  2.5989 -0.4619  0.9906
 7819SOL     OW34918   4.503   0.447  13.444  0.4879 -0.0176  0.1988
 7819SOL    HW134919   4.567   0.409  13.384  0.4797 -0.5319  0.5158
 7819SOL    HW234920   4.552   0.509  13.498  0.4622  0.9042 -0.8461
 7820SOL     OW34921   0.233   2.236   8.026 -0.1419  0.6004 -0.1212
 7820SOL    HW134922   0.308   2.195   8.068 -0.1914  0.6763  0.0429
 7820SOL    HW234923   0.198   2.304   8.084 -1.7755 -2.4365  2.4361
 7821SOL     OW34924   2.206   0.883   5.968 -0.2959 -0.4218 -0.0434
 7821SOL    HW134925   2.230   0.922   6.052  1.7509  2.9618 -2.2199
 7821SOL    HW234926   2.266   0.936   5.917 -0.1492  0.5093  1.0936
 7822SOL     OW34927   1.702   1.166   7.331  0.1206 -0.0147  0.5087
 7822SOL    HW134928   1.662   1.081   7.351  1.6257 -0.5591  1.2310
 7822SOL    HW234929   1.730   1.160   7.240 -2.9250  0.3737 -0.4223
 7823SOL     OW34930   1.171   1.788  10.519  0.0860  0.4616 -0.4475
 7823SOL    HW134931   1.177   1.719  10.584  0.9235  0.1013 -0.9011
 7823SOL    HW234932   1.239   1.764  10.456  0.5435  0.3104  0.1090
 7824SOL     OW34933   0.360   1.652   6.759 -0.0162  0.4091  0.1587
 7824SOL    HW134934   0.346   1.656   6.854  1.8689  1.1762  0.3893
 7824SOL    HW234935   0.301   1.720   6.725 -0.5663  0.0995  0.5064
 7825SOL     OW34936   4.628   1.944   5.671 -0.3533 -0.0896 -0.2638
 7825SOL    HW134937   4.678   1.862   5.664 -0.6452 -0.5756  3.7813
 7825SOL    HW234938   4.604   1.968   5.581  0.9428  0.7555 -0.3856
 7826SOL     OW34939   1.951   2.144  10.424 -0.1932  0.4629  0.0396
 7826SOL    HW134940   2.015   2.116  10.359 -0.9534 -0.1497 -0.4431
 7826SOL    HW234941   1.873   2.095  10.398  0.3104 -0.2273 -0.1670
 7827SOL     OW34942   2.543   3.971  15.790  0.2024  0.1455  0.0409
 7827SOL    HW134943   2.547   4.007  15.879 -1.9668  1.7743 -0.5186
 7827SOL    HW234944   2.450   3.959  15.770  0.2046  0.7736 -0.3507
 7828SOL     OW34945   1.748   1.246   8.684  0.0237 -0.2847  0.0505
 7828SOL    HW134946   1.800   1.210   8.612  0.6126 -1.1152  0.8938
 7828SOL    HW234947   1.816   1.280   8.743 -0.3686 -0.1030  0.3953
 7829SOL     OW34948   4.299   0.296   8.108 -0.7654  0.1553  0.2119
 7829SOL    HW134949   4.253   0.279   8.191  1.0507  2.1701  1.6223
 7829SOL    HW234950   4.225   0.308   8.048 -0.4007 -0.9301 -0.4546
 7830SOL     OW34951   2.546   2.983  14.887 -0.2598 -0.2663  0.1544
 7830SOL    HW134952   2.454   3.009  14.880  0.6674  2.1854 -2.9443
 7830SOL    HW234953   2.566   2.965  14.796 -1.8141 -0.7343 -0.0929
 7831SOL     OW34954   0.196   3.311   7.481 -0.7199 -0.1532  0.5066
 7831SOL    HW134955   0.186   3.262   7.563  1.8481  3.1467  2.7889
 7831SOL    HW234956   0.108   3.347   7.480 -0.3275  0.7394 -1.3008
 7832SOL     OW34957   0.540   3.930   8.766 -0.4473  0.4076 -0.6248
 7832SOL    HW134958   0.465   3.900   8.818  1.0075 -1.7408  0.2664
 7832SOL    HW234959   0.543   3.881   8.684 -4.9777  3.3404 -2.5490
 7833SOL     OW34960   4.243   1.017   8.108 -0.0005  0.6913  0.1654
 7833SOL    HW134961   4.260   0.974   8.191  1.0467 -0.3754 -0.6012
 7833SOL    HW234962   4.147   1.025   8.113 -0.0858 -1.8367  2.0753
 7834SOL     OW34963   0.699   0.971   3.760 -0.2648  0.2756 -0.3243
 7834SOL    HW134964   0.742   1.053   3.783  1.2956 -0.5845 -0.1098
 7834SOL    HW234965   0.725   0.954   3.669  0.9374  0.0510  0.0600
 7835SOL     OW34966   2.484   3.079   1.857 -0.5994 -0.0711 -0.2061
 7835SOL    HW134967   2.394   3.109   1.845 -0.0927  3.0201  3.9568
 7835SOL    HW234968   2.537   3.141   1.806 -0.8516  2.5375  2.7155
 7836SOL     OW34969   4.206   3.265   2.314  0.0639 -0.2099  0.2510
 7836SOL    HW134970   4.146   3.238   2.245  1.5013 -1.7099 -0.4285
 7836SOL    HW234971   4.263   3.326   2.266  0.8563 -1.5807 -0.5589
 7837SOL     OW34972   3.471   4.694   3.575  0.2580 -0.0794 -0.0401
 7837SOL    HW134973   3.516   4.714   3.493 -0.6398  1.6670 -0.1117
 7837SOL    HW234974   3.396   4.643   3.544 -0.1432  0.6670 -0.2967
 7838SOL     OW34975   2.513   4.179   4.874 -0.5368 -0.3807 -0.9217
 7838SOL    HW134976   2.451   4.106   4.866  0.0902 -1.2053  1.4940
 7838SOL    HW234977   2.559   4.173   4.791 -0.8811 -1.4274 -1.0466
 7839SOL     OW34978   3.478   2.683   4.328  0.0651  0.4710 -0.3244
 7839SOL    HW134979   3.487   2.751   4.261  2.5036 -1.2603 -1.7484
 7839SOL    HW234980   3.538   2.619   4.292 -0.6395 -0.4626  0.1619
 7840SOL     OW34981   2.464   4.316  10.696 -0.4750  0.4577 -0.2693
 7840SOL    HW134982   2.450   4.284  10.607  0.5698  0.2497 -0.3580
 7840SOL    HW234983   2.436   4.407  10.688  1.5201  1.2517  1.7202
 7841SOL     OW34984   0.218   2.341   6.555 -0.2042  0.1247 -0.3208
 7841SOL    HW134985   0.301   2.373   6.590 -0.8949  0.2983  1.1305
 7841SOL    HW234986   0.241   2.336   6.462 -0.3343 -0.3413 -0.3277
 7842SOL     OW34987   0.107   1.435   9.406  1.1567  0.1536  0.2654
 7842SOL    HW134988   0.022   1.460   9.370  0.4948 -1.4595  0.6955
 7842SOL    HW234989   0.149   1.415   9.323  1.4948 -1.4360  0.8231
 7843SOL     OW34990   3.988   3.975   4.959  0.4304 -0.3081 -0.6195
 7843SOL    HW134991   4.082   3.965   4.969  0.4602  0.6825  0.1565
 7843SOL    HW234992   3.975   4.065   4.928 -0.2145 -0.1482  0.1116
 7844SOL     OW34993   3.296   0.855   6.351 -0.4990 -0.4180 -0.1282
 7844SOL    HW134994   3.293   0.830   6.444  0.6754  0.1383  0.0560
 7844SOL    HW234995   3.303   0.950   6.358  0.0757 -0.5364  0.9339
 7845SOL     OW34996   3.659   0.030   5.325 -0.0291  0.0227 -0.0099
 7845SOL    HW134997   3.695   0.114   5.299 -0.8451  0.0927 -0.8979
 7845SOL    HW234998   3.576   0.041   5.279 -0.2057 -2.7249 -0.3762
 7846SOL     OW34999   3.548   0.543   0.469  0.5867 -0.1517  0.3492
 7846SOL    HW135000   3.581   0.501   0.549  1.4494 -0.9935 -0.4537
 7846SOL    HW235001   3.606   0.619   0.465 -0.7425  1.0279  2.7667
 7847SOL     OW35002   0.704   4.332   2.693 -0.0568  0.1657 -0.2959
 7847SOL    HW135003   0.720   4.420   2.659 -0.6846  0.9593  1.4520
 7847SOL    HW235004   0.678   4.296   2.609  1.0957 -2.4170  0.4749
 7848SOL     OW35005   1.154   2.064   3.135 -0.4787 -0.0024  0.1542
 7848SOL    HW135006   1.125   2.063   3.043  0.3121  0.5584 -0.0937
 7848SOL    HW235007   1.090   2.129   3.164  0.6698  0.3934  1.7404
 7849SOL     OW35008   3.091   1.819  10.043 -0.0924 -0.1791  0.4331
 7849SOL    HW135009   3.083   1.907  10.007 -2.7498 -0.2088  0.9683
 7849SOL    HW235010   3.180   1.829  10.078 -0.6518 -1.9951  2.3800
 7850SOL     OW35011   3.595   0.746   2.394 -0.3304 -0.2455  0.1428
 7850SOL    HW135012   3.653   0.674   2.417  2.3849  1.9222  0.0259
 7850SOL    HW235013   3.580   0.738   2.300  0.2020  0.3785 -0.0021
 7851SOL     OW35014   2.207   0.092   1.140  0.3396 -0.2540  0.1524
 7851SOL    HW135015   2.163   0.014   1.174  0.9398  0.6343  2.9311
 7851SOL    HW235016   2.154   0.105   1.061  1.1050  0.1750 -0.3046
 7852SOL     OW35017   2.309   4.494  13.336 -0.4961  0.3352 -0.3179
 7852SOL    HW135018   2.350   4.522  13.254  1.2227  0.4494  0.5863
 7852SOL    HW235019   2.387   4.509  13.389  0.5271 -1.2728 -1.3690
 7853SOL     OW35020   2.812   0.010   5.004 -0.3130  0.4663 -0.2040
 7853SOL    HW135021   2.907   0.007   5.013 -0.3306  2.2550  0.5578
 7853SOL    HW235022   2.793   4.650   5.042 -0.7578  0.0169 -1.4282
 7854SOL     OW35023   1.891   0.586   0.179 -0.2571  0.1067 -0.4553
 7854SOL    HW135024   1.913   0.539   0.099  1.6735 -0.7629  0.6085
 7854SOL    HW235025   1.942   0.538   0.244  0.2997  0.9720 -0.2534
 7855SOL     OW35026   3.356   1.491   2.584  0.1617  0.1018 -0.0777
 7855SOL    HW135027   3.312   1.407   2.572  1.8512 -1.0711  1.8454
 7855SOL    HW235028   3.425   1.486   2.517 -0.1556  0.2429 -0.4134
 7856SOL     OW35029   1.822   4.413   8.734  0.0298 -0.1592  0.1242
 7856SOL    HW135030   1.790   4.333   8.691 -0.2105  0.3958 -0.7456
 7856SOL    HW235031   1.751   4.474   8.714  1.3337  1.0674 -0.7690
 7857SOL     OW35032   2.695   3.836   6.896  0.5000  0.0070  0.1269
 7857SOL    HW135033   2.747   3.758   6.879  0.3557 -0.1158  0.2530
 7857SOL    HW235034   2.635   3.828   6.823 -0.2668  0.4709  0.7099
 7858SOL     OW35035   1.208   0.529   5.448 -0.0163  0.1590  0.0678
 7858SOL    HW135036   1.157   0.554   5.525  0.9808  0.3146  0.6736
 7858SOL    HW235037   1.285   0.582   5.469 -2.1699  3.2770  0.0951
 7859SOL     OW35038   3.379   2.641   0.440  0.0590  0.3269  0.0667
 7859SOL    HW135039   3.424   2.594   0.509  0.4879 -1.6457 -1.5591
 7859SOL    HW235040   3.443   2.630   0.370  1.0295  1.8259  0.7295
 7860SOL     OW35041   2.681   4.485   8.447 -0.0625 -0.5151  0.5094
 7860SOL    HW135042   2.711   4.435   8.370 -2.9055 -0.5710 -0.5613
 7860SOL    HW235043   2.597   4.441   8.462 -0.4416 -0.4532 -1.3265
 7861SOL     OW35044   3.215   4.208   7.880 -0.3115  0.0571  0.1138
 7861SOL    HW135045   3.234   4.277   7.942 -1.3529  1.5263 -1.2064
 7861SOL    HW235046   3.293   4.158   7.903  1.0835  0.9265 -2.6648
 7862SOL     OW35047   0.147   0.576   7.031  0.7298 -0.1729 -0.0903
 7862SOL    HW135048   0.166   0.669   7.042  0.9189 -0.2898  0.5597
 7862SOL    HW235049   0.137   0.546   7.122  0.9052  2.3625  0.7696
 7863SOL     OW35050   1.429   2.545  10.682 -0.0845  0.8005 -0.1348
 7863SOL    HW135051   1.448   2.528  10.774 -1.7748 -0.8962 -0.0912
 7863SOL    HW235052   1.485   2.622  10.667  1.0426  0.2059  1.0420
 7864SOL     OW35053   2.329   0.516   3.322 -0.4393 -0.1664 -0.2314
 7864SOL    HW135054   2.259   0.502   3.258  0.0809  1.0564 -1.0684
 7864SOL    HW235055   2.370   0.599   3.299  0.9704 -1.7758 -3.6460
 7865SOL     OW35056   1.539   4.522  10.964  0.2953 -0.6162 -0.0823
 7865SOL    HW135057   1.625   4.482  10.976  1.3429  1.3190 -1.1193
 7865SOL    HW235058   1.516   4.547  11.053 -0.5167 -1.3546 -0.0845
 7866SOL     OW35059   1.433   4.082  15.670  0.3835 -0.5324  0.0220
 7866SOL    HW135060   1.426   4.031  15.589  1.8609 -1.2351  0.3494
 7866SOL    HW235061   1.492   4.025  15.718 -0.0444 -1.5693 -0.6780
 7867SOL     OW35062   4.126   2.473   6.046 -0.1304  0.2771  0.4322
 7867SOL    HW135063   4.112   2.397   5.990  1.3365  2.2240 -2.5632
 7867SOL    HW235064   4.210   2.452   6.088  0.7038  1.5564 -0.6141
 7868SOL     OW35065   0.731   4.667  17.130  0.4343  0.3392  0.2356
 7868SOL    HW135066   0.778   0.013  17.171  1.1108  0.9680 -1.6101
 7868SOL    HW235067   0.766   4.666  17.040 -1.6529 -1.8059 -0.5425
 7869SOL     OW35068   0.009   4.089   9.358  0.3112  0.5433  0.5094
 7869SOL    HW135069   0.045   4.084   9.269  0.1648  0.8982  0.4320
 7869SOL    HW235070   4.674   4.163   9.349 -0.5588 -0.3150 -0.7778
 7870SOL     OW35071   3.497   4.707  17.064  0.0194 -0.6742  0.2793
 7870SOL    HW135072   3.536   4.620  17.078 -0.8107 -0.8677  1.4323
 7870SOL    HW235073   3.544   0.013  16.988 -1.0349 -0.7496 -0.4018
 7871SOL     OW35074   3.104   1.698  16.818  0.8892  0.2629 -0.4370
 7871SOL    HW135075   3.142   1.639  16.883  0.9174  0.3412 -0.3813
 7871SOL    HW235076   3.097   1.664  16.729 -0.0352  0.1391 -0.3195
 7872SOL     OW35077   3.862   0.145   1.467 -0.2789  0.1518  0.1421
 7872SOL    HW135078   3.934   0.194   1.428 -0.2218  1.1703  1.5324
 7872SOL    HW235079   3.841   0.076   1.404 -0.0286  0.3661 -0.1748
 7873SOL     OW35080   1.582   1.845   8.468  0.6636  0.7413  0.0130
 7873SOL    HW135081   1.536   1.760   8.471  0.4451  0.9498  2.8167
 7873SOL    HW235082   1.544   1.873   8.385  0.8190 -1.5117 -0.8379
 7874SOL     OW35083   0.504   0.726   7.464  0.6605 -0.1310 -0.1228
 7874SOL    HW135084   0.480   0.638   7.436 -0.0585 -0.4361  1.4573
 7874SOL    HW235085   0.577   0.715   7.525  0.8705 -2.4867 -0.8105
 7875SOL     OW35086   1.579   1.041   3.700 -0.4147  0.0140 -0.5477
 7875SOL    HW135087   1.506   0.999   3.654 -2.1985  0.9807  1.4060
 7875SOL    HW235088   1.651   0.984   3.672  0.7443 -0.1629  2.7974
 7876SOL     OW35089   3.478   0.814   4.461 -0.3113 -0.6453  0.2046
 7876SOL    HW135090   3.568   0.784   4.445 -0.3837 -0.9957  0.4480
 7876SOL    HW235091   3.442   0.773   4.382  0.2320 -1.3263  0.3074
 7877SOL     OW35092   2.071   3.042  13.386  0.4817  0.3855 -0.5391
 7877SOL    HW135093   2.090   3.133  13.408 -1.9887  1.0389 -1.0643
 7877SOL    HW235094   2.140   2.998  13.434 -2.4879 -2.2319  1.3413
 7878SOL     OW35095   4.440   2.853   6.036 -0.0014 -0.1915 -0.7531
 7878SOL    HW135096   4.454   2.827   5.945 -1.7874  1.1452 -1.4065
 7878SOL    HW235097   4.530   2.853   6.069 -0.5037 -1.7835  0.6216
 7879SOL     OW35098   2.624   0.891  10.888  0.0754  0.1773  0.2770
 7879SOL    HW135099   2.603   0.899  10.981 -0.1099  2.6834  0.0241
 7879SOL    HW235100   2.583   0.965  10.843  1.8904  1.7347  1.1777
 7880SOL     OW35101   3.871   1.430   1.707  0.0425  0.3014 -0.3100
 7880SOL    HW135102   3.937   1.438   1.776 -1.8850  0.8770  1.4522
 7880SOL    HW235103   3.915   1.457   1.627 -3.2218  2.0863 -1.4871
 7881SOL     OW35104   3.227   1.558  10.810  0.4615 -0.3086  0.5041
 7881SOL    HW135105   3.202   1.603  10.729 -1.6205 -1.8720  0.2896
 7881SOL    HW235106   3.323   1.565  10.814  0.3689  1.3058  0.1041
 7882SOL     OW35107   2.764   1.226   4.119  0.1488 -0.3392 -0.3210
 7882SOL    HW135108   2.743   1.153   4.061 -0.0172 -1.9617  1.7665
 7882SOL    HW235109   2.720   1.300   4.077 -0.3841 -1.4962 -1.7849
 7883SOL     OW35110   2.393   0.099   7.516 -0.1986  0.2453 -0.2838
 7883SOL    HW135111   2.357   0.052   7.592  1.3602  0.6727  0.7288
 7883SOL    HW235112   2.459   0.034   7.491 -0.6476 -0.7157  1.0008
 7884SOL     OW35113   3.785   2.164  11.718 -0.7844 -0.2794 -0.1545
 7884SOL    HW135114   3.821   2.081  11.749 -0.9974  0.3979  1.9201
 7884SOL    HW235115   3.810   2.159  11.626 -0.6840 -2.8793  0.0194
 7885SOL     OW35116   1.927   4.621   2.407  0.1392 -0.2925  0.1112
 7885SOL    HW135117   1.988   4.695   2.407 -0.3810  0.1311 -0.6624
 7885SOL    HW235118   1.866   4.654   2.341 -0.8553 -1.5282  0.4206
 7886SOL     OW35119   1.488   2.949   5.687  0.1349  0.3496 -0.6579
 7886SOL    HW135120   1.561   3.005   5.714  0.6659 -0.1182 -1.0948
 7886SOL    HW235121   1.533   2.866   5.704 -0.2903  0.0093 -1.1960
 7887SOL     OW35122   3.581   0.016   3.315 -0.1659  0.2258  0.1733
 7887SOL    HW135123   3.555   0.002   3.224 -0.5460  1.6196  0.0617
 7887SOL    HW235124   3.670   4.706   3.318  1.2270  3.5638 -2.1232
 7888SOL     OW35125   2.263   0.117   1.891  0.1567 -0.0477 -0.1865
 7888SOL    HW135126   2.184   0.074   1.859  0.1951 -0.2082 -0.0651
 7888SOL    HW235127   2.307   0.142   1.809  1.9801  3.2192  1.8049
 7889SOL     OW35128   1.825   0.771   3.358  0.2163 -0.5978 -0.5060
 7889SOL    HW135129   1.732   0.778   3.334  0.1353 -0.4389 -0.1387
 7889SOL    HW235130   1.837   0.677   3.372  1.1352 -0.4850 -0.5350
 7890SOL     OW35131   4.560   1.314   7.750  0.2508  0.1494  0.4235
 7890SOL    HW135132   4.642   1.265   7.757 -0.3332 -0.8771  0.0411
 7890SOL    HW235133   4.549   1.358   7.834 -0.1982  1.9549 -0.5721
 7891SOL     OW35134   2.213   3.520   9.725 -0.1313 -0.5162  0.4163
 7891SOL    HW135135   2.212   3.604   9.771 -0.4713  0.5138 -1.4437
 7891SOL    HW235136   2.244   3.463   9.795  2.8157  0.4570 -0.1227
 7892SOL     OW35137   2.047   2.011   6.871  0.4797  0.2801  0.7030
 7892SOL    HW135138   2.008   1.924   6.877 -0.1893  0.4791 -0.7111
 7892SOL    HW235139   2.082   2.010   6.782  1.2014  2.2347  0.9711
 7893SOL     OW35140   0.080   4.357   1.871 -0.2396  0.3100  0.7506
 7893SOL    HW135141   0.058   4.317   1.786 -1.0626  1.0621  0.6106
 7893SOL    HW235142   0.148   4.413   1.835  0.9684 -0.2848  2.1425
 7894SOL     OW35143   1.861   0.372   7.787  0.1453  0.2308 -0.1461
 7894SOL    HW135144   1.904   0.345   7.868 -1.4737 -2.0118 -0.0027
 7894SOL    HW235145   1.930   0.420   7.741  0.2253  0.7451  0.5045
 7895SOL     OW35146   3.887   2.018   0.042 -0.5079  0.0591 -0.2756
 7895SOL    HW135147   3.900   2.028  17.652 -3.5237  2.2399 -0.4633
 7895SOL    HW235148   3.939   1.939   0.054 -0.1300 -0.2822 -4.2088
 7896SOL     OW35149   2.543   1.948  17.020  0.6753 -0.3804 -0.3021
 7896SOL    HW135150   2.551   1.892  16.944 -0.8176 -1.6965  0.5013
 7896SOL    HW235151   2.537   2.036  16.983  0.8297 -0.3376 -0.2240
 7897SOL     OW35152   3.205   3.094  14.201 -0.2293  0.2822  0.2402
 7897SOL    HW135153   3.180   3.152  14.273 -3.7936 -0.5100 -0.3469
 7897SOL    HW235154   3.132   3.105  14.140 -0.4556 -0.7100  0.3251
 7898SOL     OW35155   0.067   1.852   4.329 -0.3421  0.5479 -0.7329
 7898SOL    HW135156   0.161   1.872   4.335  0.2593 -2.1311 -1.0214
 7898SOL    HW235157   0.030   1.923   4.277 -1.1802  0.4330 -0.2865
 7899SOL     OW35158   0.646   1.228  11.613  0.2826  0.5053 -0.0023
 7899SOL    HW135159   0.715   1.180  11.567  2.8700  1.2750  3.1375
 7899SOL    HW235160   0.676   1.319  11.613  0.2547  0.5079  1.0242
 7900SOL     OW35161   0.479   2.202   3.231  0.4558 -0.1496  0.0965
 7900SOL    HW135162   0.455   2.110   3.222 -0.6159  0.0163  1.4092
 7900SOL    HW235163   0.444   2.221   3.318 -1.0066  2.0466 -0.9975
 7901SOL     OW35164   2.957   1.291   3.321 -0.1293  0.3489  0.1300
 7901SOL    HW135165   3.046   1.259   3.335 -0.4311 -2.0201 -3.1941
 7901SOL    HW235166   2.962   1.329   3.233  1.3078  0.2074  0.1622
 7902SOL     OW35167   0.833   4.428   9.797  0.5922  0.1890  0.3055
 7902SOL    HW135168   0.792   4.344   9.819 -0.2254  0.5347  0.1019
 7902SOL    HW235169   0.827   4.483   9.875 -0.2110  0.5899 -0.0422
 7903SOL     OW35170   2.783   1.668   3.332  0.1951 -0.0476  0.6858
 7903SOL    HW135171   2.748   1.714   3.255 -1.3052  1.1001  2.0429
 7903SOL    HW235172   2.709   1.610   3.349 -2.1427  2.9961  1.0665
 7904SOL     OW35173   1.740   2.189  10.029 -0.2976  0.3245 -0.2997
 7904SOL    HW135174   1.729   2.094  10.017  0.0212  0.0273  1.8403
 7904SOL    HW235175   1.835   2.196  10.028 -0.1571 -1.6076 -0.2407
 7905SOL     OW35176   1.064   2.777   2.789 -0.3273  0.0520  0.2626
 7905SOL    HW135177   0.991   2.811   2.737  0.4976 -0.1522 -1.0377
 7905SOL    HW235178   1.134   2.780   2.724  0.1423 -1.2064  0.7110
 7906SOL     OW35179   2.928   1.611   5.154 -0.3830  0.2963 -0.2225
 7906SOL    HW135180   2.878   1.667   5.095 -2.4654 -0.2551  0.9936
 7906SOL    HW235181   2.917   1.529   5.107  0.0053  0.0051  0.1930
 7907SOL     OW35182   3.422   4.231   8.946  0.2879 -0.1851 -0.1607
 7907SOL    HW135183   3.366   4.168   8.990  1.7486 -1.5860 -0.3036
 7907SOL    HW235184   3.383   4.317   8.964  0.8780 -0.1773  1.0663
 7908SOL     OW35185   1.632   0.452   3.519  0.0814 -0.8353 -0.1691
 7908SOL    HW135186   1.563   0.487   3.577 -0.0765 -1.1599 -0.1633
 7908SOL    HW235187   1.596   0.364   3.511  1.2547 -1.3783  0.5206
 7909SOL     OW35188   1.640   1.917  16.979 -0.1824  0.1609 -0.1382
 7909SOL    HW135189   1.617   1.987  16.919  2.0232  0.1244 -1.0379
 7909SOL    HW235190   1.565   1.859  16.968 -0.0093 -0.4396  1.7651
 7910SOL     OW35191   0.382   2.489  15.115 -0.6111 -0.2914  0.3700
 7910SOL    HW135192   0.438   2.417  15.087 -2.5191 -2.2558  1.5606
 7910SOL    HW235193   0.291   2.463  15.101 -0.8995  1.7101 -1.4384
 7911SOL     OW35194   4.085   2.870   8.600  0.0216  0.6492  0.5016
 7911SOL    HW135195   4.148   2.851   8.670  0.4623 -1.5457 -0.4886
 7911SOL    HW235196   4.142   2.853   8.525  0.5940  1.2279  0.8063
 7912SOL     OW35197   2.826   3.643   0.112 -0.5082  0.3486 -0.3706
 7912SOL    HW135198   2.869   3.726   0.093 -0.8237  0.7696  0.7955
 7912SOL    HW235199   2.859   3.608   0.195 -1.5231 -1.9185 -0.9146
 7913SOL     OW35200   3.478   2.562   7.774 -0.3928 -0.1597 -0.3505
 7913SOL    HW135201   3.528   2.604   7.705 -0.2622  1.3236  0.6472
 7913SOL    HW235202   3.521   2.595   7.853  3.7277 -0.8292 -2.3397
 7914SOL     OW35203   4.044   3.864  15.212  0.1088 -0.5328  0.4919
 7914SOL    HW135204   3.951   3.841  15.219 -0.4388  1.0766 -1.4136
 7914SOL    HW235205   4.069   3.863  15.305 -1.1591 -0.3571  0.8506
 7915SOL     OW35206   2.278   1.690   3.968  0.0215  0.2092 -0.2382
 7915SOL    HW135207   2.229   1.770   3.991 -1.4358 -1.3154  1.9512
 7915SOL    HW235208   2.367   1.712   3.995 -0.7975  1.6851  1.2773
 7916SOL     OW35209   3.666   4.085   5.593 -0.4141  0.8391  0.1913
 7916SOL    HW135210   3.654   4.179   5.605  0.3473  1.1032 -1.1961
 7916SOL    HW235211   3.703   4.061   5.679 -0.2995 -1.5847 -0.5254
 7917SOL     OW35212   3.618   3.234   5.686 -0.4860  0.1451 -0.0521
 7917SOL    HW135213   3.531   3.195   5.677 -0.7961  1.1340 -1.4965
 7917SOL    HW235214   3.666   3.207   5.607  1.8241 -0.7783  1.6913
 7918SOL     OW35215   1.080   2.836   5.136  0.0285 -0.0876  0.5091
 7918SOL    HW135216   1.005   2.876   5.180 -0.9961 -1.3139 -0.1172
 7918SOL    HW235217   1.102   2.884   5.057 -2.5784 -1.9001 -1.3123
 7919SOL     OW35218   3.373   3.840   8.365 -0.3546 -0.5716 -0.4268
 7919SOL    HW135219   3.379   3.931   8.394 -0.4820 -0.3086 -1.2135
 7919SOL    HW235220   3.431   3.795   8.427 -0.3173 -0.7138 -0.5647
 7920SOL     OW35221   4.552   2.149   4.751 -0.2574  0.0939  0.5988
 7920SOL    HW135222   4.521   2.088   4.817  1.3645 -2.0192 -0.6001
 7920SOL    HW235223   4.626   2.100   4.716  1.1339  2.7857 -0.2644
 7921SOL     OW35224   2.699   0.972   3.038 -0.2327  0.1459  0.0503
 7921SOL    HW135225   2.636   1.043   3.027 -0.8462 -0.2046  1.3020
 7921SOL    HW235226   2.728   0.995   3.126  0.8134 -1.0268  0.0127
 7922SOL     OW35227   3.503   2.681   1.715  0.0785  0.3172 -0.2840
 7922SOL    HW135228   3.497   2.723   1.630  0.0499 -1.0380 -0.9586
 7922SOL    HW235229   3.450   2.602   1.702 -2.0347  1.5435  0.9146
 7923SOL     OW35230   1.648   0.183   4.911 -0.2304  0.0999  0.6840
 7923SOL    HW135231   1.564   0.194   4.955  0.1831  2.8045  0.8130
 7923SOL    HW235232   1.646   0.087   4.908 -1.4619  0.2347 -2.4431
 7924SOL     OW35233   4.362   1.531   7.770  0.4320 -0.4655 -0.6448
 7924SOL    HW135234   4.289   1.471   7.785 -0.7313  0.8040 -1.3366
 7924SOL    HW235235   4.420   1.496   7.839  2.0997  1.1629 -1.2167
 7925SOL     OW35236   0.534   2.741   9.177 -0.0590 -0.1483  0.7547
 7925SOL    HW135237   0.531   2.771   9.268  0.2809  0.1522  0.6644
 7925SOL    HW235238   0.546   2.647   9.186  2.3570  0.3368  2.6839
 7926SOL     OW35239   2.366   0.711  10.809  0.2027  0.7051  0.1543
 7926SOL    HW135240   2.364   0.618  10.788 -1.8586  0.6475  0.5537
 7926SOL    HW235241   2.457   0.729  10.831  0.1763 -0.8719  1.5334
 7927SOL     OW35242   4.216   1.172  16.706  0.1684 -0.7704 -0.0177
 7927SOL    HW135243   4.218   1.152  16.613  3.2042 -4.1030  0.7205
 7927SOL    HW235244   4.146   1.237  16.705 -1.2330 -2.2321  3.0801
 7928SOL     OW35245   2.867   1.366   4.761 -0.2340  0.4867  0.4385
 7928SOL    HW135246   2.853   1.387   4.854 -2.0048 -0.5756  0.4143
 7928SOL    HW235247   2.871   1.271   4.770  1.0242  0.5618  0.6795
 7929SOL     OW35248   2.843   0.239   6.590  0.3032  0.0232 -0.1012
 7929SOL    HW135249   2.874   0.199   6.509  2.0337 -0.5499  0.8281
 7929SOL    HW235250   2.857   0.167   6.652  0.7475 -0.3238 -0.5993
 7930SOL     OW35251   3.513   4.726  12.337  0.4947 -0.5234  0.1037
 7930SOL    HW135252   3.576   0.066  12.309 -1.6425  1.5485  0.2047
 7930SOL    HW235253   3.527   4.726  12.432 -0.3860  0.3371  0.2381
 7931SOL     OW35254   0.478   2.515   3.040 -0.4749  0.5252  0.0366
 7931SOL    HW135255   0.430   2.491   3.119  1.5030  1.2553  1.4747
 7931SOL    HW235256   0.413   2.525   2.971 -0.6957 -0.8840  0.0337
 7932SOL     OW35257   3.355   0.094   2.242 -0.4511  0.1603 -0.1061
 7932SOL    HW135258   3.398   0.166   2.288  0.0762  0.6290 -1.3649
 7932SOL    HW235259   3.425   0.054   2.192 -1.1958 -1.6367  0.2796
 7933SOL     OW35260   1.693   0.945  13.054  0.0572  0.1582  0.1106
 7933SOL    HW135261   1.664   0.908  12.971 -0.8419 -1.1133  0.9691
 7933SOL    HW235262   1.652   0.879  13.111  0.1688 -1.2991 -1.5227
 7934SOL     OW35263   2.996   3.513   2.969 -0.4065  0.0074 -0.4403
 7934SOL    HW135264   3.050   3.580   3.011 -1.6561 -0.0260  1.2390
 7934SOL    HW235265   2.911   3.555   2.982 -1.0075 -1.6122  0.8425
 7935SOL     OW35266   2.868   1.022  11.571 -0.0102  0.3554  0.5974
 7935SOL    HW135267   2.833   0.937  11.543 -1.3250  0.4449  1.9764
 7935SOL    HW235268   2.919   0.989  11.645 -0.3505  0.2931  0.8050
 7936SOL     OW35269   2.608   4.003  15.047  0.1498  0.1313 -0.0429
 7936SOL    HW135270   2.658   3.927  15.078  0.7204  0.5042 -0.0604
 7936SOL    HW235271   2.634   4.009  14.955  1.9787 -1.0140  0.4114
 7937SOL     OW35272   2.499   0.644   2.397 -0.2440  0.6469 -0.8262
 7937SOL    HW135273   2.556   0.602   2.461 -0.7376  0.6188 -0.4039
 7937SOL    HW235274   2.451   0.565   2.371 -1.1521  0.9022  0.0909
 7938SOL     OW35275   1.814   1.052  15.132 -0.1723  0.0608 -0.2527
 7938SOL    HW135276   1.772   0.974  15.169  1.8580  0.0793  2.1647
 7938SOL    HW235277   1.901   1.035  15.169 -0.3826  0.0573  0.2373
 7939SOL     OW35278   2.223   2.708   3.278 -0.1162 -0.2099  0.5381
 7939SOL    HW135279   2.265   2.656   3.346  0.0996  1.4818  1.6864
 7939SOL    HW235280   2.179   2.656   3.211 -1.2656 -0.3131  1.3736
 7940SOL     OW35281   2.074   0.186   4.221  0.1789  0.0509 -0.5466
 7940SOL    HW135282   2.093   0.169   4.128  2.0978  1.7231 -0.4577
 7940SOL    HW235283   2.161   0.196   4.258  0.5850 -0.0314 -1.4744
 7941SOL     OW35284   0.802   3.589   4.494  0.0219 -0.3026 -0.7474
 7941SOL    HW135285   0.833   3.670   4.455  1.6258 -0.2520  0.5930
 7941SOL    HW235286   0.756   3.630   4.567 -0.2733  1.1264 -1.7307
 7942SOL     OW35287   2.641   0.218  11.795  0.0296 -0.2634  0.1890
 7942SOL    HW135288   2.597   0.297  11.763  2.5106  1.2241  0.4362
 7942SOL    HW235289   2.649   0.161  11.719  0.4276  0.9964 -0.6968
 7943SOL     OW35290   0.350   0.015   6.544 -0.3520 -0.5726  0.1849
 7943SOL    HW135291   0.294   0.072   6.597  0.9407 -0.2650  1.2458
 7943SOL    HW235292   0.381   0.074   6.475 -0.7901  2.6534  2.7217
 7944SOL     OW35293   2.573   4.513  13.453 -0.1220  0.7122 -0.1106
 7944SOL    HW135294   2.587   4.466  13.535  1.2661  0.2298 -0.6221
 7944SOL    HW235295   2.652   4.489  13.406  0.7737 -1.0732  2.3148
 7945SOL     OW35296   2.760   3.502   3.841 -0.3456 -0.1527 -0.4855
 7945SOL    HW135297   2.744   3.552   3.761 -1.5283 -0.5521 -0.4835
 7945SOL    HW235298   2.755   3.412   3.809 -1.4210  0.5991 -2.4160
 7946SOL     OW35299   2.419   0.950   8.428  0.4851  0.0435 -0.6655
 7946SOL    HW135300   2.381   1.028   8.387  1.2189 -0.1825 -1.7611
 7946SOL    HW235301   2.458   0.984   8.509  0.6613 -1.3525 -0.1658
 7947SOL     OW35302   1.661   3.367   0.258 -0.1947 -0.4019  0.3960
 7947SOL    HW135303   1.726   3.304   0.288  0.7305  1.2291  1.8276
 7947SOL    HW235304   1.647   3.413   0.340  1.5534  0.3811  0.2604
 7948SOL     OW35305   3.011   3.499  11.250  0.2688  0.3553  0.0673
 7948SOL    HW135306   3.078   3.469  11.313 -1.9455  0.1720  2.3412
 7948SOL    HW235307   3.029   3.428  11.189 -1.0178  0.0786  0.0149
 7949SOL     OW35308   3.988   1.423   5.602  0.0502 -0.6497  0.2590
 7949SOL    HW135309   4.075   1.384   5.591  0.2642 -0.0544 -0.1406
 7949SOL    HW235310   3.951   1.404   5.515 -0.7621  0.6650  0.3173
 7950SOL     OW35311   2.001   1.452  13.736  0.8303 -0.7310  0.2962
 7950SOL    HW135312   2.002   1.437  13.830  0.5428  1.6346  0.6842
 7950SOL    HW235313   2.090   1.472  13.707  0.1617 -0.5959 -1.6480
 7951SOL     OW35314   0.944   1.736   8.918  0.2604  0.0471  0.2479
 7951SOL    HW135315   0.939   1.722   9.012  0.8748  1.6772  0.5225
 7951SOL    HW235316   0.986   1.653   8.895  1.9001  0.3137  2.3146
 7952SOL     OW35317   0.569   0.877   7.778 -0.6863 -0.2898  0.2710
 7952SOL    HW135318   0.581   0.946   7.713 -1.1153 -1.6980 -1.3066
 7952SOL    HW235319   0.506   0.924   7.833 -1.0282  0.4189 -0.7380
 7953SOL     OW35320   2.573   2.005  13.850  0.3258 -0.5204  0.2554
 7953SOL    HW135321   2.536   2.034  13.766  0.7692 -0.5758  0.0428
 7953SOL    HW235322   2.662   2.039  13.850 -0.5129  1.6496  0.7414
 7954SOL     OW35323   2.710   4.013  13.048 -0.1791 -0.1804 -0.4161
 7954SOL    HW135324   2.702   4.080  13.117  0.4862  0.5301 -1.0223
 7954SOL    HW235325   2.805   3.999  13.046 -0.2020 -0.1398 -2.0036
 7955SOL     OW35326   1.263   2.155  11.507 -0.3897 -0.5816  0.5621
 7955SOL    HW135327   1.216   2.132  11.587 -3.2840 -0.3127 -1.0890
 7955SOL    HW235328   1.247   2.084  11.445 -1.2556 -0.6161  0.8238
 7956SOL     OW35329   1.413   2.836   7.947  0.0116 -0.1504 -0.0610
 7956SOL    HW135330   1.412   2.796   7.860  0.0062  2.3970 -1.2374
 7956SOL    HW235331   1.442   2.771   8.011  0.9052 -1.4504 -1.7754
 7957SOL     OW35332   1.426   1.301   7.149  0.1388  0.1611 -0.0905
 7957SOL    HW135333   1.389   1.303   7.060  0.6651 -0.0648 -0.3172
 7957SOL    HW235334   1.507   1.257   7.122  0.2931  1.3221 -1.5284
 7958SOL     OW35335   0.482   3.885   7.361 -0.1322  0.2467  0.0356
 7958SOL    HW135336   0.505   3.978   7.365  0.7957 -0.0422  1.8352
 7958SOL    HW235337   0.481   3.874   7.266  1.7079  0.0114  0.0512
 7959SOL     OW35338   0.894   2.520   6.189  0.5705  0.0869 -0.4846
 7959SOL    HW135339   0.886   2.526   6.094  0.4620  0.4750 -0.4513
 7959SOL    HW235340   0.917   2.613   6.197  0.9831 -0.0357 -0.2165
 7960SOL     OW35341   0.066   0.636   1.148  0.1690  0.4323 -0.6816
 7960SOL    HW135342   0.099   0.696   1.080  1.1913  1.2227  0.5062
 7960SOL    HW235343   0.063   0.697   1.221  1.6740  2.3021 -2.1590
 7961SOL     OW35344   1.710   2.174  12.649  0.2326 -0.2714  0.1579
 7961SOL    HW135345   1.702   2.203  12.559 -0.7649  1.9154  0.9434
 7961SOL    HW235346   1.654   2.097  12.645  1.8104 -1.4976  1.8281
 7962SOL     OW35347   1.147   0.844   1.005 -0.5343 -0.0303  0.6009
 7962SOL    HW135348   1.205   0.801   0.942 -0.8111 -2.1065  1.7396
 7962SOL    HW235349   1.211   0.895   1.054  0.1702 -1.7381  1.4601
 7963SOL     OW35350   1.616   2.801   4.603  0.4672  0.2721  0.2198
 7963SOL    HW135351   1.524   2.821   4.591  1.1678  1.6727 -2.9003
 7963SOL    HW235352   1.630   2.709   4.582 -1.4779  0.0906 -0.2460
 7964SOL     OW35353   2.015   4.398   8.435  0.1545  0.3719  0.3953
 7964SOL    HW135354   2.059   4.407   8.520  0.8498  4.4649 -0.3949
 7964SOL    HW235355   1.972   4.483   8.428 -1.4957 -0.2762  2.8578
 7965SOL     OW35356   4.432   2.300   8.601  0.5344  0.2754 -0.1976
 7965SOL    HW135357   4.421   2.388   8.564 -1.2230 -0.2361 -0.9132
 7965SOL    HW235358   4.374   2.307   8.677  0.4490 -0.8969 -0.1572
 7966SOL     OW35359   2.780   1.766   4.952  0.2550  0.4012 -0.0047
 7966SOL    HW135360   2.685   1.771   4.939 -0.3012 -1.9064  3.2178
 7966SOL    HW235361   2.814   1.834   4.894 -0.2681  0.7664  0.1212
 7967SOL     OW35362   1.563   3.361   7.388  0.7473 -0.0209  0.7376
 7967SOL    HW135363   1.516   3.444   7.394 -0.4747 -0.6005 -0.7843
 7967SOL    HW235364   1.634   3.399   7.440  1.4585 -0.1597 -0.1373
 7968SOL     OW35365   3.856   0.273   8.927 -0.4938  0.4572 -0.4266
 7968SOL    HW135366   3.873   0.365   8.946  1.5397 -0.6443  3.0047
 7968SOL    HW235367   3.767   0.276   8.962 -0.9642  3.1140 -1.8432
 7969SOL     OW35368   3.284   1.533   4.320 -0.0633 -0.4537 -0.3069
 7969SOL    HW135369   3.296   1.491   4.406  1.5037 -1.6774 -1.1168
 7969SOL    HW235370   3.371   1.503   4.294  0.2194  0.3165 -0.2322
 7970SOL     OW35371   3.164   3.867   8.185 -0.1983  0.0236  0.1869
 7970SOL    HW135372   3.217   3.941   8.213  0.4378  0.3895 -2.0019
 7970SOL    HW235373   3.217   3.792   8.211 -1.0051 -0.6336 -0.0667
 7971SOL     OW35374   4.003   1.174   0.670 -0.1007  0.1369  0.3266
 7971SOL    HW135375   3.996   1.092   0.622 -0.6445  1.4518 -1.8604
 7971SOL    HW235376   4.015   1.236   0.598 -0.4625  1.9500  1.8362
 7972SOL     OW35377   2.032   1.652   5.769 -0.5092 -0.3932 -0.4644
 7972SOL    HW135378   2.115   1.662   5.722 -0.3910 -0.3449 -0.2418
 7972SOL    HW235379   1.993   1.723   5.718  2.8453 -0.1064 -2.6199
 7973SOL     OW35380   1.729   2.621   6.964 -0.2010 -0.5514 -0.4017
 7973SOL    HW135381   1.639   2.644   6.986 -0.4250 -0.7483 -1.0984
 7973SOL    HW235382   1.729   2.536   7.006 -2.5900 -0.0151  0.6570
 7974SOL     OW35383   3.056   1.598   1.264 -0.9130  0.3867  0.1326
 7974SOL    HW135384   3.044   1.628   1.354  0.7672  0.7470  0.2227
 7974SOL    HW235385   3.143   1.628   1.239 -0.0798  0.5628  3.1514
 7975SOL     OW35386   2.742   1.816   2.404  0.6230 -0.0733 -0.1986
 7975SOL    HW135387   2.765   1.803   2.496 -0.7171 -0.4090  0.0970
 7975SOL    HW235388   2.817   1.862   2.367  0.1583  0.7505 -0.1265
 7976SOL     OW35389   1.122   2.411   8.026  0.1661 -0.0420 -0.2075
 7976SOL    HW135390   1.072   2.335   7.997 -0.3932  0.8414 -1.5557
 7976SOL    HW235391   1.199   2.412   7.970 -0.8034 -2.0581 -1.5807
 7977SOL     OW35392   1.237   4.704   0.264  0.2705 -0.4310  0.4773
 7977SOL    HW135393   1.279   4.698   0.349 -2.2568 -1.9624  1.6123
 7977SOL    HW235394   1.276   0.061   0.235  0.2523  0.0612  1.8497
 7978SOL     OW35395   4.339   0.309   2.855  0.2863 -0.1663 -0.2192
 7978SOL    HW135396   4.339   0.258   2.774 -0.3818 -1.6456  0.7163
 7978SOL    HW235397   4.365   0.390   2.810  1.2072 -0.3748 -0.0602
 7979SOL     OW35398   0.169   3.321   2.833 -0.1223  0.0852 -0.3157
 7979SOL    HW135399   0.107   3.254   2.803 -0.2247 -0.1718  0.4766
 7979SOL    HW235400   0.226   3.328   2.756 -1.9246 -0.6081 -1.7067
 7980SOL     OW35401   3.366   4.130   3.346  0.2526 -0.0068 -0.6518
 7980SOL    HW135402   3.388   4.061   3.283  0.1029  0.1153 -0.8363
 7980SOL    HW235403   3.286   4.159   3.302  0.7746 -0.5458 -1.9719
 7981SOL     OW35404   1.164   2.225   7.828 -0.0475 -0.1125  0.6413
 7981SOL    HW135405   1.083   2.246   7.782  0.7127  0.0158 -0.6191
 7981SOL    HW235406   1.224   2.281   7.780 -1.7725 -0.1108 -1.4924
 7982SOL     OW35407   0.538   3.289   3.292  0.5971 -0.0970 -0.7651
 7982SOL    HW135408   0.569   3.377   3.315  1.6816 -0.2785 -1.4871
 7982SOL    HW235409   0.600   3.236   3.342 -0.7811 -1.7456 -0.8128
 7983SOL     OW35410   1.908   2.069   3.697 -0.0705 -0.5348 -0.2528
 7983SOL    HW135411   1.903   2.031   3.785  0.9393  0.7135  0.3590
 7983SOL    HW235412   1.866   2.004   3.641 -0.0717 -2.2797  1.7393
 7984SOL     OW35413   0.762   1.898   1.388 -0.7192  0.3475 -0.5643
 7984SOL    HW135414   0.819   1.970   1.364 -1.0751  0.5621 -0.7598
 7984SOL    HW235415   0.744   1.868   1.299 -0.5458  1.6636 -1.0349
 7985SOL     OW35416   3.824   0.041   7.847 -0.0048  0.7931 -0.0240
 7985SOL    HW135417   3.858   0.092   7.921  0.3919  0.2813  0.1525
 7985SOL    HW235418   3.889   0.044   7.777 -0.6177  3.7757 -0.4549
 7986SOL     OW35419   0.917   1.769  17.296  0.2488  0.7088  0.8545
 7986SOL    HW135420   0.840   1.821  17.321  0.8968  1.5081  1.1992
 7986SOL    HW235421   0.901   1.781  17.203 -1.2562 -3.1837  0.6110
 7987SOL     OW35422   2.834   4.504  13.334  0.4864 -0.0274  0.2330
 7987SOL    HW135423   2.888   4.489  13.256 -1.0828 -0.2863 -0.7918
 7987SOL    HW235424   2.902   4.523  13.399  0.3994  0.3845  0.2008
 7988SOL     OW35425   3.182   0.594  15.932 -0.3723 -0.6754 -0.2339
 7988SOL    HW135426   3.260   0.539  15.929  0.1868  0.1309 -0.1555
 7988SOL    HW235427   3.211   0.682  15.953 -0.1343 -1.2125  1.6936
 7989SOL     OW35428   0.974   3.376   5.782 -0.6788 -0.5498  0.3014
 7989SOL    HW135429   1.043   3.335   5.730  1.5984  0.9792  2.1134
 7989SOL    HW235430   0.959   3.463   5.744  0.1534 -0.4163  0.2859
 7990SOL     OW35431   3.720   3.741   7.380  0.1297  0.4143 -0.0785
 7990SOL    HW135432   3.684   3.803   7.316 -0.8811 -0.3914 -0.3012
 7990SOL    HW235433   3.749   3.787   7.458  2.1631 -2.2386  0.7178
 7991SOL     OW35434   2.517   3.057   2.912 -0.1859 -1.1481  0.3198
 7991SOL    HW135435   2.569   2.987   2.874  2.4012  0.6850  0.4531
 7991SOL    HW235436   2.586   3.094   2.968  0.6898 -2.8575  0.3585
 7992SOL     OW35437   1.860   2.386  15.613  0.8079 -0.0266  0.3096
 7992SOL    HW135438   1.807   2.333  15.553  1.3746  0.3968 -0.5565
 7992SOL    HW235439   1.912   2.431  15.547  0.0490  0.8696  0.3198
 7993SOL     OW35440   3.052   3.291   3.818 -0.4469 -0.2234 -0.2629
 7993SOL    HW135441   3.012   3.323   3.737  0.0042  1.9249  0.3380
 7993SOL    HW235442   3.130   3.345   3.833 -0.4944  0.1043 -1.1554
 7994SOL     OW35443   0.765   3.019   4.994  0.1888  0.5475 -0.4261
 7994SOL    HW135444   0.727   3.057   4.915  2.7596  0.5591 -1.6381
 7994SOL    HW235445   0.694   3.035   5.057  0.0711 -0.6610 -0.2490
 7995SOL     OW35446   1.419   1.718   7.323 -0.5867  0.2914 -0.0976
 7995SOL    HW135447   1.498   1.665   7.325  0.4146  1.8085  0.8853
 7995SOL    HW235448   1.352   1.651   7.340 -0.2803  0.0901  0.3313
 7996SOL     OW35449   1.751   0.485   8.074  0.1952 -0.6285  0.2887
 7996SOL    HW135450   1.666   0.496   8.118  0.4085 -1.2562  0.8691
 7996SOL    HW235451   1.742   0.532   7.991 -0.0933 -0.6692  0.2942
 7997SOL     OW35452   2.693   3.562  16.291  0.2236  0.0285 -0.9649
 7997SOL    HW135453   2.674   3.624  16.220 -0.4349 -1.0983 -1.7694
 7997SOL    HW235454   2.632   3.590  16.359 -0.7167  1.3281 -2.3312
 7998SOL     OW35455   0.855   3.169  11.984 -0.3107 -0.0641  0.1636
 7998SOL    HW135456   0.767   3.130  11.987  0.0831 -0.9425  0.2799
 7998SOL    HW235457   0.850   3.260  12.013  0.1775 -1.0513  3.3307
 7999SOL     OW35458   4.526   4.555   4.426  0.2105 -0.5291  0.8635
 7999SOL    HW135459   4.467   4.624   4.458 -0.3867 -1.0562  0.8960
 7999SOL    HW235460   4.463   4.494   4.389 -1.1135  1.1211  0.3785
 8000SOL     OW35461   4.579   3.522   4.876 -0.0143 -0.3709  0.4397
 8000SOL    HW135462   4.600   3.480   4.793 -0.0106  0.1699  0.1641
 8000SOL    HW235463   4.620   3.609   4.875  0.1803 -0.4548  0.9171
 8001SOL     OW35464   0.968   2.495  16.814  0.2002 -0.3180 -0.0906
 8001SOL    HW135465   1.029   2.569  16.811 -1.1707  0.8281  0.3282
 8001SOL    HW235466   0.891   2.522  16.865  1.4560  0.7470  1.2570
 8002SOL     OW35467   1.017   0.347  17.301 -0.0517 -0.1904  0.2142
 8002SOL    HW135468   1.085   0.388  17.354  0.5305 -2.4379  1.1712
 8002SOL    HW235469   0.936   0.359  17.350  0.6391 -0.5868  1.4380
 8003SOL     OW35470   3.306   3.106  17.411 -0.0899  0.5938 -0.7009
 8003SOL    HW135471   3.395   3.103  17.446 -0.8166 -2.1809  0.8891
 8003SOL    HW235472   3.326   3.144  17.325  0.8493  1.3273 -0.1575
 8004SOL     OW35473   1.825   4.135   5.966 -0.0244 -0.8888  0.0475
 8004SOL    HW135474   1.916   4.149   5.938  0.8583 -0.8541  2.9190
 8004SOL    HW235475   1.789   4.066   5.911 -2.0912  0.7068 -0.5929
 8005SOL     OW35476   2.519   1.651   0.962  0.7403 -0.2141 -0.0002
 8005SOL    HW135477   2.515   1.571   0.911 -1.4267  0.2402 -0.5651
 8005SOL    HW235478   2.598   1.624   1.009  0.4014  0.6425  1.0852
 8006SOL     OW35479   3.166   1.988   3.023 -0.3305 -0.0598  0.4013
 8006SOL    HW135480   3.207   2.056   2.969  0.4670 -0.4831  0.4677
 8006SOL    HW235481   3.178   2.032   3.107  0.0800 -0.7008  0.6777
 8007SOL     OW35482   4.335   4.455  11.801  0.6353  0.5322 -0.2354
 8007SOL    HW135483   4.316   4.539  11.761  0.2353 -0.1030 -1.3901
 8007SOL    HW235484   4.354   4.394  11.730  1.6243  1.4954 -0.7914
 8008SOL     OW35485   1.505   0.393  14.433  0.1329 -0.1461  0.6054
 8008SOL    HW135486   1.443   0.372  14.503 -1.2460 -1.6869 -1.1013
 8008SOL    HW235487   1.591   0.398  14.474  1.0316  0.9137 -1.4532
 8009SOL     OW35488   2.469   3.467   5.443  0.1225  0.0859  0.3743
 8009SOL    HW135489   2.538   3.452   5.379 -1.3662  0.4154 -1.3171
 8009SOL    HW235490   2.514   3.482   5.526  4.2404 -1.1815 -1.6720
 8010SOL     OW35491   0.491   2.643  12.213 -0.5203 -0.5742  0.4438
 8010SOL    HW135492   0.551   2.717  12.220 -2.2114  0.9034 -0.3011
 8010SOL    HW235493   0.477   2.631  12.119  0.2653  0.4668  0.1956
 8011SOL     OW35494   4.027   2.548   6.549  0.4900 -0.2118 -0.5359
 8011SOL    HW135495   4.011   2.518   6.459  1.2033  1.2385 -1.1333
 8011SOL    HW235496   4.029   2.460   6.587 -0.6939 -0.7427 -1.6882
 8012SOL     OW35497   2.139   3.306  13.442  0.3122  0.2648 -0.4987
 8012SOL    HW135498   2.208   3.373  13.434  1.1133 -0.5983 -0.7571
 8012SOL    HW235499   2.114   3.311  13.534  2.0264  0.9777 -0.0589
 8013SOL     OW35500   4.156   0.413   8.829 -0.1350 -0.4904 -0.1678
 8013SOL    HW135501   4.182   0.321   8.820  2.8019  0.2421  0.8230
 8013SOL    HW235502   4.106   0.418   8.747 -2.1746  0.0418  1.1240
 8014SOL     OW35503   3.503   3.347  12.537  0.5390  0.6486  0.4662
 8014SOL    HW135504   3.532   3.372  12.449  0.9245  0.1476  0.4482
 8014SOL    HW235505   3.577   3.287  12.552 -0.0682 -0.5368 -1.2918
 8015SOL     OW35506   4.259   3.248   9.379  0.2913 -0.3691  0.2580
 8015SOL    HW135507   4.262   3.309   9.452 -3.1919 -2.0544  1.8506
 8015SOL    HW235508   4.190   3.296   9.334  1.4698  0.6159 -0.4740
 8016SOL     OW35509   0.744   3.647  16.586 -0.3207 -0.0661 -0.4674
 8016SOL    HW135510   0.712   3.736  16.571  0.1115  0.3335  1.0334
 8016SOL    HW235511   0.674   3.605  16.636  2.3246  1.6463  4.6706
 8017SOL     OW35512   0.236   1.348   6.714 -0.0272 -0.2161 -0.4216
 8017SOL    HW135513   0.158   1.339   6.658 -1.2008  0.6756  1.0672
 8017SOL    HW235514   0.269   1.259   6.721  1.7223  0.3953 -1.0217
 8018SOL     OW35515   1.585   1.402   5.484  0.4902 -0.0479  0.1675
 8018SOL    HW135516   1.553   1.423   5.396  0.5942 -2.4828 -0.4576
 8018SOL    HW235517   1.562   1.475   5.542 -2.2804 -1.9205  1.4478
 8019SOL     OW35518   1.426   3.040   3.538 -0.2850  0.7610 -0.5497
 8019SOL    HW135519   1.384   3.126   3.546  2.4587  2.0198  0.1981
 8019SOL    HW235520   1.400   3.019   3.448  2.9605 -2.1534 -0.7833
 8020SOL     OW35521   1.385   3.779  10.021  0.4977 -0.0955  0.2416
 8020SOL    HW135522   1.341   3.737   9.946  2.2298 -1.0461 -0.2374
 8020SOL    HW235523   1.452   3.827   9.973  0.0439 -0.9762 -1.2849
 8021SOL     OW35524   0.821   0.814   8.551 -0.4429 -0.2234 -0.0201
 8021SOL    HW135525   0.914   0.791   8.561 -0.6093 -0.3166  1.2672
 8021SOL    HW235526   0.788   0.733   8.511  1.5139 -1.2034  0.3102
 8022SOL     OW35527   0.499   3.368   7.810 -0.1998 -0.3466  0.2205
 8022SOL    HW135528   0.462   3.365   7.898  1.0288  0.4337  0.7528
 8022SOL    HW235529   0.468   3.453   7.781  0.1308 -0.0162  0.8522
 8023SOL     OW35530   2.904   0.263   4.716 -0.1424  0.4836  0.2827
 8023SOL    HW135531   2.824   0.234   4.673  0.3548 -0.6101  0.1025
 8023SOL    HW235532   2.865   0.350   4.731 -2.6157 -0.4146 -0.9499
 8024SOL     OW35533   1.899   0.231   3.269 -0.0326  0.6347 -0.3127
 8024SOL    HW135534   1.985   0.189   3.260  1.4355  3.4313  0.9383
 8024SOL    HW235535   1.879   0.194   3.355 -0.8644  2.0759  0.1052
 8025SOL     OW35536   1.810   2.305   5.729 -0.1534  0.3451  0.2679
 8025SOL    HW135537   1.792   2.392   5.765  0.5974 -0.0324  1.5518
 8025SOL    HW235538   1.905   2.300   5.739 -0.2495  1.6372  1.9001
 8026SOL     OW35539   2.701   0.411   6.443 -0.0749  0.4610 -0.0175
 8026SOL    HW135540   2.728   0.355   6.516  0.3322  1.7744  0.8349
 8026SOL    HW235541   2.623   0.357   6.430  1.7461 -2.3861  0.8840
 8027SOL     OW35542   0.167   0.284  16.676 -0.4429 -0.2106 -0.7189
 8027SOL    HW135543   0.132   0.252  16.759 -2.1503 -2.1504 -2.1723
 8027SOL    HW235544   0.256   0.257  16.700 -0.8601 -0.4324  0.5444
 8028SOL     OW35545   4.599   4.257  10.510  0.4178 -0.2848  0.5086
 8028SOL    HW135546   4.539   4.324  10.543  0.0017  0.3156 -1.4965
 8028SOL    HW235547   4.646   4.311  10.447  1.2898 -1.2283  0.3479
 8029SOL     OW35548   2.491   2.814  13.094  0.4763 -0.1427  0.0902
 8029SOL    HW135549   2.459   2.762  13.020  0.2425  2.1318 -1.4156
 8029SOL    HW235550   2.441   2.776  13.166  0.0918 -0.1097 -0.1582
 8030SOL     OW35551   1.442   0.877  17.313  0.1963  0.0435 -0.7553
 8030SOL    HW135552   1.406   0.891  17.400  1.5587  0.6335 -0.2868
 8030SOL    HW235553   1.363   0.899  17.264  0.9434 -1.6489 -2.7424
 8031SOL     OW35554   0.919   3.125  13.459 -0.6822 -0.3899  0.0106
 8031SOL    HW135555   0.946   3.043  13.499  1.0285  0.6560  0.9881
 8031SOL    HW235556   0.895   3.087  13.375  0.3925 -0.6950 -0.1536
 8032SOL     OW35557   3.742   1.780  14.941  0.1443 -0.1299  0.2307
 8032SOL    HW135558   3.754   1.847  15.009  1.3861 -0.0414 -0.0622
 8032SOL    HW235559   3.814   1.717  14.951 -0.8264 -1.7783 -3.2080
 8033SOL     OW35560   4.413   0.994   4.208  0.0038 -0.1704 -0.0609
 8033SOL    HW135561   4.398   0.915   4.260  1.0541 -0.0072  0.4920
 8033SOL    HW235562   4.444   1.057   4.273 -0.4914 -0.2391  0.2424
 8034SOL     OW35563   2.801   3.897  16.854  0.3839  0.0332  0.0280
 8034SOL    HW135564   2.840   3.985  16.858  1.2683 -0.2584 -1.9334
 8034SOL    HW235565   2.732   3.913  16.790  0.0191 -1.3162  0.0878
 8035SOL     OW35566   1.920   1.704  13.413 -0.2028  0.3792 -0.1116
 8035SOL    HW135567   1.980   1.691  13.340  1.1016 -1.6316  1.3188
 8035SOL    HW235568   1.837   1.679  13.371 -1.2719  2.3661  0.8119
 8036SOL     OW35569   1.594   1.641   8.106  0.1757  0.6532 -0.4656
 8036SOL    HW135570   1.565   1.727   8.136 -1.2266  0.1002 -0.2220
 8036SOL    HW235571   1.652   1.607   8.174  0.3569 -1.3609 -1.6378
 8037SOL     OW35572   1.943   1.855   5.222 -0.1951  0.1964  0.5398
 8037SOL    HW135573   1.874   1.810   5.271 -0.5043 -1.0660 -1.0561
 8037SOL    HW235574   1.976   1.783   5.168 -1.8444 -1.0196  1.1658
 8038SOL     OW35575   3.899   1.056   4.650  0.0913 -0.2043  0.0366
 8038SOL    HW135576   3.807   1.072   4.627 -0.2802 -1.5138  0.6076
 8038SOL    HW235577   3.940   1.091   4.571 -0.4698 -0.5367 -0.4054
 8039SOL     OW35578   1.146   1.702   3.759  0.0174 -0.9348 -0.3647
 8039SOL    HW135579   1.062   1.742   3.784  0.1675 -0.7318 -0.1811
 8039SOL    HW235580   1.107   1.620   3.729  0.3631 -1.6445  1.1508
 8040SOL     OW35581   1.048   3.349  10.106 -0.2973 -0.2983 -0.3027
 8040SOL    HW135582   1.108   3.417  10.137  0.8212 -1.2971 -0.2664
 8040SOL    HW235583   0.983   3.410  10.072 -0.8622 -0.5399  0.3377
 8041SOL     OW35584   2.612   2.118   3.325 -0.2477  0.5746  0.1213
 8041SOL    HW135585   2.587   2.093   3.413 -0.4777 -2.6963 -0.8824
 8041SOL    HW235586   2.561   2.199   3.313 -0.2539  0.4148 -0.9461
 8042SOL     OW35587   3.797   1.550   3.403  0.1684  0.1821  0.2878
 8042SOL    HW135588   3.807   1.645   3.407 -3.9267  0.7486 -1.9089
 8042SOL    HW235589   3.720   1.532   3.457  0.6703  0.1541  0.9879
 8043SOL     OW35590   1.624   3.160  16.704  0.3063  0.2547  0.0767
 8043SOL    HW135591   1.632   3.166  16.799  0.6648  0.8643  0.0151
 8043SOL    HW235592   1.541   3.206  16.689  1.2398  0.9330 -2.9408
 8044SOL     OW35593   0.413   0.753   5.194  0.5051 -0.0502  1.1336
 8044SOL    HW135594   0.442   0.662   5.199  0.6099  0.0587  2.4819
 8044SOL    HW235595   0.318   0.749   5.203  0.3676 -0.4412 -0.4805
 8045SOL     OW35596   4.058   1.598   8.415  1.1063  0.7190  0.2423
 8045SOL    HW135597   4.058   1.616   8.509 -1.3695  1.5236  0.0937
 8045SOL    HW235598   3.974   1.554   8.401  0.5021  1.5947  1.1210
 8046SOL     OW35599   2.129   1.007   4.823 -0.4135  0.1760 -0.2669
 8046SOL    HW135600   2.068   0.936   4.840  0.6462 -0.4851  0.7657
 8046SOL    HW235601   2.195   0.972   4.764  0.1354  1.0046 -0.1525
 8047SOL     OW35602   0.138   3.366   4.352  0.2991 -0.2891 -0.4255
 8047SOL    HW135603   0.106   3.403   4.270 -0.7085 -0.0206  0.0865
 8047SOL    HW235604   0.067   3.310   4.381  1.1288 -1.5586 -0.8363
 8048SOL     OW35605   1.163   0.103   0.689 -0.0105  0.0944 -0.6168
 8048SOL    HW135606   1.212   0.159   0.750 -2.4119  2.3005 -0.6748
 8048SOL    HW235607   1.105   0.173   0.658 -0.3202 -0.4967 -1.3461
 8049SOL     OW35608   1.344   3.842  10.923  0.0660  0.0142 -0.4168
 8049SOL    HW135609   1.351   3.919  10.867  0.5729 -0.6141 -1.2230
 8049SOL    HW235610   1.250   3.835  10.939  0.0741 -2.3469 -1.4244
 8050SOL     OW35611   2.000   3.927  16.915 -0.0318  0.2933  0.2535
 8050SOL    HW135612   2.036   3.928  16.826  0.2331 -0.6646  0.3478
 8050SOL    HW235613   2.077   3.940  16.972 -0.6469 -1.9197  1.5671
 8051SOL     OW35614   2.147   4.564   6.918 -0.0223  0.4550 -0.1711
 8051SOL    HW135615   2.092   4.558   6.996  1.4296  1.3246  0.9289
 8051SOL    HW235616   2.084   4.576   6.847 -0.4414 -0.3805  0.0638
 8052SOL     OW35617   2.273   4.392   3.605 -0.2750  0.4389  0.2728
 8052SOL    HW135618   2.265   4.485   3.626  0.7027  0.6444 -0.2246
 8052SOL    HW235619   2.287   4.392   3.510 -1.1592  1.9265  0.1560
 8053SOL     OW35620   1.369   0.208   9.749 -0.4451  0.2339  0.0876
 8053SOL    HW135621   1.363   0.241   9.839 -1.0804  2.3766 -0.7551
 8053SOL    HW235622   1.278   0.184   9.729 -0.3821  2.4501 -2.7718
 8054SOL     OW35623   0.301   1.964   2.343 -0.2551  0.5446  0.0945
 8054SOL    HW135624   0.359   1.948   2.269 -1.2774 -1.3391 -0.3008
 8054SOL    HW235625   0.234   2.015   2.297 -0.5144  0.5387  0.4648
 8055SOL     OW35626   2.342   1.878   1.147  0.1077 -0.0501  0.4518
 8055SOL    HW135627   2.271   1.844   1.093 -0.1107  0.2624  0.5388
 8055SOL    HW235628   2.390   1.797   1.162 -0.3301 -0.3592  0.1754
 8056SOL     OW35629   3.611   4.073   6.599 -0.3376  0.6311  0.0081
 8056SOL    HW135630   3.667   4.063   6.522 -0.0140  1.2299  0.1621
 8056SOL    HW235631   3.647   4.156   6.631 -1.2469  0.1870  2.1573
 8057SOL     OW35632   0.548   4.240   0.932  0.2616  0.5723  0.0227
 8057SOL    HW135633   0.512   4.291   0.860 -0.2767 -0.2723 -0.3077
 8057SOL    HW235634   0.577   4.304   0.997 -0.2299  0.2556  0.5634
 8058SOL     OW35635   3.094   3.832  13.246  0.3356 -0.5548  0.0779
 8058SOL    HW135636   3.182   3.867  13.257  0.4307  0.3235 -3.6814
 8058SOL    HW235637   3.079   3.795  13.333  2.2322 -1.2296  0.1224
 8059SOL     OW35638   0.149   0.822   4.835  0.2419 -0.5103 -0.0317
 8059SOL    HW135639   0.111   0.859   4.914 -2.1415  0.0467 -1.4330
 8059SOL    HW235640   0.162   0.905   4.789 -0.2509 -0.6768 -0.4647
 8060SOL     OW35641   4.629   3.338  16.100  0.3563  0.2257  0.4378
 8060SOL    HW135642   4.709   3.314  16.052  0.4506  1.0450  0.1848
 8060SOL    HW235643   4.573   3.366  16.028  1.2005 -0.8979 -0.6630
 8061SOL     OW35644   1.915   3.881   5.650 -0.5248  0.4325 -0.1817
 8061SOL    HW135645   1.904   3.854   5.559 -0.5302 -1.7412  0.4742
 8061SOL    HW235646   1.953   3.803   5.689  0.6013  0.1598 -1.8072
 8062SOL     OW35647   2.817   0.449   3.423  0.2795 -0.7574  0.3701
 8062SOL    HW135648   2.760   0.526   3.414 -0.0459 -1.1237 -0.6436
 8062SOL    HW235649   2.896   0.501   3.409 -0.3505  0.5465  1.5658
 8063SOL     OW35650   1.657   0.028   0.952  0.2275  0.2659 -0.0522
 8063SOL    HW135651   1.678   0.048   0.861  2.4273  0.0093  0.4034
 8063SOL    HW235652   1.698   4.667   0.943  1.5648  0.7259  1.6753
 8064SOL     OW35653   2.978   0.641   7.327 -0.0132  0.3438 -0.1787
 8064SOL    HW135654   2.909   0.616   7.388  1.4939 -0.9798  0.9866
 8064SOL    HW235655   2.935   0.692   7.259 -1.1237 -0.7041 -0.2443
 8065SOL     OW35656   2.297   0.566   8.166  0.3409  0.3525  0.1535
 8065SOL    HW135657   2.339   0.488   8.203 -4.3787 -1.0051  2.6471
 8065SOL    HW235658   2.379   0.609   8.141  1.8631 -2.3041  0.5337
 8066SOL     OW35659   1.715   1.664   6.686  0.8843  0.4366 -0.5551
 8066SOL    HW135660   1.661   1.586   6.685  3.3822 -1.3131  0.6449
 8066SOL    HW235661   1.657   1.730   6.647 -0.4181  0.6633  1.7980
 8067SOL     OW35662   2.881   2.068   3.017  0.4421 -0.2535 -0.0851
 8067SOL    HW135663   2.861   2.084   3.109  0.1393 -0.3595 -0.1317
 8067SOL    HW235664   2.971   2.037   3.024  1.4406  2.6094 -0.0164
 8068SOL     OW35665   2.347   3.933  14.862  0.2508 -0.0568  0.1407
 8068SOL    HW135666   2.252   3.931  14.856  0.2393  0.1660  0.2808
 8068SOL    HW235667   2.374   3.954  14.772 -0.9588 -0.0770 -0.2287
 8069SOL     OW35668   3.076   1.241  16.594 -0.0302 -0.9438 -0.7281
 8069SOL    HW135669   3.035   1.326  16.578 -0.4655 -0.7270  1.5868
 8069SOL    HW235670   3.099   1.249  16.686  2.1646 -0.1642 -1.3501
 8070SOL     OW35671   2.822   3.339   8.406 -0.4691 -0.4361  0.0605
 8070SOL    HW135672   2.785   3.297   8.329 -0.6568 -1.9558  0.9809
 8070SOL    HW235673   2.747   3.329   8.465 -0.6292  0.5987  0.0265
 8071SOL     OW35674   3.345   1.703   5.352 -0.3048 -0.5036  1.0097
 8071SOL    HW135675   3.295   1.772   5.309 -0.5901 -0.6699  1.0654
 8071SOL    HW235676   3.284   1.630   5.337 -1.4530 -0.0449  3.4374
 8072SOL     OW35677   4.301   2.936   9.731  0.6061 -0.3501 -0.1709
 8072SOL    HW135678   4.374   2.905   9.678 -0.8539  0.8891 -2.9044
 8072SOL    HW235679   4.344   2.915   9.814 -0.9792 -0.7781  0.5323
 8073SOL     OW35680   3.956   0.732   8.733  0.1415  0.2093 -0.1150
 8073SOL    HW135681   4.009   0.666   8.688 -0.4612 -0.9825  0.9340
 8073SOL    HW235682   3.979   0.811   8.685 -0.2772 -0.6723 -1.7803
 8074SOL     OW35683   4.223   4.678   7.549  0.2723  0.1886 -0.3217
 8074SOL    HW135684   4.253   0.018   7.612 -0.5304 -1.7473  2.0608
 8074SOL    HW235685   4.128   4.684   7.551  0.2426 -0.7153  1.1699
 8075SOL     OW35686   0.248   3.184   5.307 -0.4896  0.3847  0.7207
 8075SOL    HW135687   0.310   3.237   5.257  0.7537 -2.6739 -0.9914
 8075SOL    HW235688   0.165   3.207   5.263 -0.1189  0.0714 -0.1505
 8076SOL     OW35689   1.030   1.195   2.826 -0.1715  0.1820 -0.2433
 8076SOL    HW135690   1.080   1.272   2.854 -0.2156 -0.0032  0.3396
 8076SOL    HW235691   1.076   1.120   2.862 -0.5129  0.3190  0.4720
 8077SOL     OW35692   4.382   0.078   2.700 -0.9197  0.6937  0.2990
 8077SOL    HW135693   4.330   0.016   2.751  2.0165 -3.1841 -1.4334
 8077SOL    HW235694   4.326   0.093   2.624  0.1975 -3.3344 -1.3352
 8078SOL     OW35695   3.290   4.294   4.198  0.4387 -0.3219 -0.4585
 8078SOL    HW135696   3.354   4.345   4.248 -0.3696  0.9487 -0.7288
 8078SOL    HW235697   3.326   4.306   4.110  3.1037 -4.3611  0.0716
 8079SOL     OW35698   4.106   4.040  15.017 -0.3795 -0.6858  0.2463
 8079SOL    HW135699   4.138   4.083  15.096  1.7978 -0.7379 -0.6058
 8079SOL    HW235700   4.090   3.960  15.068 -2.1526 -0.7490 -0.4122
 8080SOL     OW35701   0.465   1.256   7.805 -0.3809  0.5699 -0.4023
 8080SOL    HW135702   0.396   1.262   7.871 -0.2829  1.4779 -0.3833
 8080SOL    HW235703   0.410   1.284   7.732  0.9390  0.8859 -1.2790
 8081SOL     OW35704   2.793   3.855   3.709 -0.1003 -0.2142 -0.4235
 8081SOL    HW135705   2.702   3.858   3.738 -0.4751 -0.8772 -1.5363
 8081SOL    HW235706   2.812   3.949   3.720  0.6590 -0.1852 -1.9560
 8082SOL     OW35707   0.923   4.176   2.054  0.2227 -0.4992  0.2725
 8082SOL    HW135708   0.847   4.120   2.069 -1.7648  2.3818  0.9402
 8082SOL    HW235709   0.904   4.249   2.112 -2.5789 -0.5266 -0.5929
 8083SOL     OW35710   4.319   1.678   0.431 -0.3753 -0.1102  0.2807
 8083SOL    HW135711   4.277   1.759   0.402  0.1672 -0.0174 -0.2289
 8083SOL    HW235712   4.247   1.616   0.446  0.9048 -1.4411  0.8646
 8084SOL     OW35713   0.150   2.516   8.542 -0.1049  0.0187 -0.2697
 8084SOL    HW135714   0.070   2.514   8.489 -0.4163  0.4563  0.1865
 8084SOL    HW235715   0.132   2.487   8.631 -0.0765  0.3056 -0.1705
 8085SOL     OW35716   3.171   3.373  17.251 -0.8255  0.5368  0.2899
 8085SOL    HW135717   3.167   3.461  17.213 -0.1203  0.2579 -0.4346
 8085SOL    HW235718   3.239   3.329  17.200 -0.9946  0.4714  0.1214
 8086SOL     OW35719   1.189   0.566   7.206  0.2318  0.0191 -0.2750
 8086SOL    HW135720   1.208   0.635   7.142  3.1541  1.6693  2.3759
 8086SOL    HW235721   1.200   0.622   7.283 -0.7488 -0.3577  0.1460
 8087SOL     OW35722   3.869   0.191  16.462 -0.1790 -0.2985  0.5736
 8087SOL    HW135723   3.897   0.160  16.375 -0.1746  2.3623 -0.3588
 8087SOL    HW235724   3.945   0.165  16.513  0.5330  1.5479  0.4475
 8088SOL     OW35725   0.197   2.948  17.116 -0.2324 -0.4214  0.9503
 8088SOL    HW135726   0.276   2.997  17.139 -1.7195  1.6104  1.7465
 8088SOL    HW235727   0.232   2.881  17.058 -0.2434 -0.8525  1.4459
 8089SOL     OW35728   2.882   3.711   5.393  0.2317  0.2363  0.4115
 8089SOL    HW135729   2.909   3.645   5.329 -0.2287 -0.6442  1.1172
 8089SOL    HW235730   2.801   3.678   5.433  1.5764 -3.0788  0.3832
 8090SOL     OW35731   3.455   1.658  12.147 -0.8502  0.4754  0.2351
 8090SOL    HW135732   3.474   1.722  12.215 -1.6695  0.0973  0.8232
 8090SOL    HW235733   3.372   1.685  12.106  0.4609  2.7814 -0.9196
 8091SOL     OW35734   0.953   1.672   4.822 -0.6159  0.0715 -0.0219
 8091SOL    HW135735   0.917   1.759   4.804  0.5330  0.4308 -0.5895
 8091SOL    HW235736   0.974   1.640   4.734  0.2161 -0.7246  0.4735
 8092SOL     OW35737   3.081   1.678   8.690 -0.6079  0.0038  0.0631
 8092SOL    HW135738   3.078   1.582   8.693  1.1869  0.0317  2.8538
 8092SOL    HW235739   3.099   1.694   8.783 -0.3705  1.5366 -0.2521
 8093SOL     OW35740   3.803   1.332   7.058 -0.6384 -0.8310 -0.2082
 8093SOL    HW135741   3.760   1.262   7.108 -0.8782 -0.7135 -0.2512
 8093SOL    HW235742   3.727   1.379   7.024 -0.1834 -1.8099 -2.6508
 8094SOL     OW35743   2.105   3.010   3.959 -0.0548 -0.3059 -0.1865
 8094SOL    HW135744   2.140   3.074   3.898 -0.1431  0.5126  0.6217
 8094SOL    HW235745   2.123   2.925   3.917  1.5421  0.0074 -0.1058
 8095SOL     OW35746   4.661   4.248   6.306  0.5069 -0.0871 -0.3188
 8095SOL    HW135747   4.587   4.276   6.361  1.6793 -0.8265  1.6348
 8095SOL    HW235748   0.012   4.274   6.357 -0.1247  0.0149  0.5803
 8096SOL     OW35749   2.186   3.763  16.542 -0.0121  0.5216 -0.0458
 8096SOL    HW135750   2.110   3.803  16.500 -1.8615 -2.1621  0.7116
 8096SOL    HW235751   2.157   3.676  16.514  2.1826  0.0578 -0.9048
 8097SOL     OW35752   1.838   0.595  15.909  0.2828  0.9073 -0.1096
 8097SOL    HW135753   1.913   0.542  15.882  1.0041  1.7607  0.2031
 8097SOL    HW235754   1.809   0.541  15.983 -0.3022 -0.3637 -1.2652
 8098SOL     OW35755   2.515   0.906   4.068  0.6373  0.1368  0.1125
 8098SOL    HW135756   2.604   0.884   4.039  1.2823  1.9220  0.7061
 8098SOL    HW235757   2.501   0.862   4.152 -5.8995  1.1745 -0.4140
 8099SOL     OW35758   2.287   1.010   1.150 -0.2599  0.3593 -0.1398
 8099SOL    HW135759   2.328   1.059   1.079  0.6096  1.6792  1.2798
 8099SOL    HW235760   2.332   0.927   1.137  2.5141  1.4645  2.5858
 8100SOL     OW35761   4.543   2.399   1.361  0.3478  0.1832  0.3632
 8100SOL    HW135762   4.505   2.486   1.353 -0.6303 -0.2474  0.3349
 8100SOL    HW235763   4.510   2.370   1.276  1.0834  1.2086 -0.2675
 8101SOL     OW35764   4.113   0.133  16.608  0.5016 -0.7482  0.0285
 8101SOL    HW135765   4.166   0.206  16.576 -0.5582 -0.8376 -1.9695
 8101SOL    HW235766   4.102   0.155  16.700  1.5292 -1.2992  0.2880
 8102SOL     OW35767   1.263   1.528   0.131 -0.5604  0.4556  0.1821
 8102SOL    HW135768   1.187   1.574   0.167 -0.1390 -0.7719  2.6705
 8102SOL    HW235769   1.259   1.564   0.043  1.3706  1.4670  0.5184
 8103SOL     OW35770   1.720   4.077   8.438  0.2774  0.0300 -0.6099
 8103SOL    HW135771   1.662   4.136   8.486 -1.9533 -0.5924 -2.5487
 8103SOL    HW235772   1.794   4.079   8.498 -1.4841  0.6832  1.5618
 8104SOL     OW35773   2.419   0.664   6.082  0.6587  0.6281  0.2901
 8104SOL    HW135774   2.373   0.684   6.001 -0.1491 -0.2944  0.5226
 8104SOL    HW235775   2.353   0.677   6.150  0.5198  1.6875 -0.0563
 8105SOL     OW35776   3.964   4.068   3.397 -0.5007 -0.1884  0.1322
 8105SOL    HW135777   3.922   4.126   3.460  1.0976 -0.3087  1.3242
 8105SOL    HW235778   3.896   4.001   3.393 -1.0852  0.3321  1.4657
 8106SOL     OW35779   2.751   1.406   9.195  0.0099  0.3560 -0.0153
 8106SOL    HW135780   2.694   1.434   9.267  0.4353  0.0773  0.4336
 8106SOL    HW235781   2.690   1.430   9.125  0.4467 -1.0671 -0.8861
 8107SOL     OW35782   3.107   3.720  16.471 -0.4699 -0.5782  0.4987
 8107SOL    HW135783   3.190   3.674  16.455 -0.2381 -0.5973  1.7378
 8107SOL    HW235784   3.126   3.766  16.553 -1.9561 -1.4848  1.3297
 8108SOL     OW35785   2.104   3.929   7.889 -0.4963 -0.4338 -0.4869
 8108SOL    HW135786   2.100   3.903   7.797 -0.3533 -0.2306 -0.5493
 8108SOL    HW235787   2.064   3.852   7.930  0.9678 -0.1523  1.4983
 8109SOL     OW35788   3.948   1.492   8.002 -0.0012 -0.0508 -0.2845
 8109SOL    HW135789   3.891   1.430   8.048 -0.6498  0.9918  0.3270
 8109SOL    HW235790   4.023   1.496   8.062 -1.9647 -0.2935  2.2150
 8110SOL     OW35791   4.649   0.469   9.309  0.1677  0.2210 -0.1174
 8110SOL    HW135792   4.592   0.412   9.258 -0.9793  1.0865  0.1873
 8110SOL    HW235793   4.616   0.557   9.291  1.9813  1.0773  0.8085
 8111SOL     OW35794   4.678   3.778   3.686  0.1772 -0.4867 -0.1455
 8111SOL    HW135795   4.630   3.780   3.604 -0.9675 -1.4246  0.5007
 8111SOL    HW235796   0.046   3.771   3.666 -0.0424 -0.8027 -1.0319
 8112SOL     OW35797   3.319   3.832  17.367  0.9086 -0.0117 -0.3176
 8112SOL    HW135798   3.311   3.748  17.412 -0.1835  0.2483 -0.0297
 8112SOL    HW235799   3.230   3.850  17.336  1.1282  0.7227 -0.5248
 8113SOL     OW35800   4.650   3.335   8.946 -0.0884  0.3704 -0.5852
 8113SOL    HW135801   4.561   3.368   8.933 -0.5539 -1.3618 -1.8637
 8113SOL    HW235802   4.702   3.415   8.940  0.6845 -0.1363 -0.6345
 8114SOL     OW35803   0.142   1.486   4.935 -0.3218  0.1907  0.5902
 8114SOL    HW135804   0.061   1.529   4.907  0.7834  2.2761  0.6640
 8114SOL    HW235805   0.182   1.466   4.850  0.0355  0.1440  0.7700
 8115SOL     OW35806   1.106   4.358   4.048 -0.4974  0.9781  0.4201
 8115SOL    HW135807   1.158   4.383   3.971 -1.3487  0.0105 -0.4722
 8115SOL    HW235808   1.177   4.326   4.103 -1.7885 -2.1415  0.2510
 8116SOL     OW35809   2.943   0.788   1.427  0.0631  0.2580 -0.4786
 8116SOL    HW135810   2.983   0.787   1.340  1.5059 -2.2902  0.2256
 8116SOL    HW235811   2.936   0.696   1.454 -3.4946  0.4178 -0.8331
 8117SOL     OW35812   3.184   1.118   0.428  0.1599 -0.3500  0.1105
 8117SOL    HW135813   3.246   1.065   0.479  0.3616 -0.6594 -0.4587
 8117SOL    HW235814   3.188   1.200   0.477 -1.5295 -0.7861  0.9619
 8118SOL     OW35815   3.005   3.764   4.777  0.4053  0.4909  0.5824
 8118SOL    HW135816   3.092   3.750   4.740 -0.0791 -2.5917  0.6248
 8118SOL    HW235817   2.962   3.693   4.730  0.9914 -0.1169  0.9776
 8119SOL     OW35818   1.403   1.186   6.500  0.4608  0.9007 -0.1799
 8119SOL    HW135819   1.358   1.103   6.485  1.2104  0.5531 -0.5205
 8119SOL    HW235820   1.493   1.171   6.470  1.3675  1.9207  2.0428
 8120SOL     OW35821   3.272   3.872   8.668  0.1598 -0.4736 -0.1380
 8120SOL    HW135822   3.357   3.887   8.710  0.9869 -0.0343 -1.9611
 8120SOL    HW235823   3.225   3.955   8.675  0.1656 -0.5326  0.6633
 8121SOL     OW35824   2.581   1.808   2.166 -0.0746  0.6038  0.8093
 8121SOL    HW135825   2.625   1.742   2.111 -1.8416  0.0029  0.1069
 8121SOL    HW235826   2.617   1.783   2.251  1.6265 -1.3137 -0.4532
 8122SOL     OW35827   0.522   3.724   6.605  0.1957  0.0810 -0.5843
 8122SOL    HW135828   0.616   3.736   6.588  0.1170  0.5947 -0.6735
 8122SOL    HW235829   0.524   3.650   6.666  1.0159  2.2702  2.0576
 8123SOL     OW35830   1.073   0.116  16.861 -0.0467 -0.5432  0.2868
 8123SOL    HW135831   1.169   0.123  16.863  0.0507 -1.0272 -2.0261
 8123SOL    HW235832   1.049   0.203  16.828 -0.3085 -0.7989 -0.1961
 8124SOL     OW35833   4.264   2.313  10.651 -0.1629  0.4127  0.8753
 8124SOL    HW135834   4.355   2.338  10.666 -0.1469  0.6568  0.3934
 8124SOL    HW235835   4.224   2.400  10.644  0.9722  0.8020 -0.7856
 8125SOL     OW35836   4.431   4.507  13.250 -0.4594  0.0053  0.2069
 8125SOL    HW135837   4.461   4.513  13.341  0.1664  0.3288 -0.0227
 8125SOL    HW235838   4.489   4.440  13.215 -0.5451 -0.0167  0.1081
 8126SOL     OW35839   4.706   1.624   3.615 -0.6871 -0.0167  0.5744
 8126SOL    HW135840   0.074   1.604   3.608 -0.6683 -0.3039  1.6162
 8126SOL    HW235841   4.684   1.584   3.699  0.0482 -0.6905  0.4483
 8127SOL     OW35842   1.633   3.334   6.421  0.6700 -0.0872 -0.2561
 8127SOL    HW135843   1.634   3.247   6.381  1.9722  0.2317 -0.9273
 8127SOL    HW235844   1.545   3.333   6.459  1.7562  0.1152  2.2431
 8128SOL     OW35845   0.698   0.105   1.888  0.2646 -0.0520 -0.4687
 8128SOL    HW135846   0.784   0.124   1.924 -0.3246  2.0215 -0.1531
 8128SOL    HW235847   0.653   0.190   1.883 -2.6740 -1.5620 -0.0069
 8129SOL     OW35848   0.988   1.496   2.024  0.2379  0.2557  0.0845
 8129SOL    HW135849   0.897   1.468   2.022 -0.0272  1.0253  1.2543
 8129SOL    HW235850   0.998   1.516   1.931  1.4049  1.6745  0.5173
 8130SOL     OW35851   0.584   2.937   4.491  0.5313  0.3600 -0.6528
 8130SOL    HW135852   0.597   3.012   4.434  0.8271 -1.7026 -3.3070
 8130SOL    HW235853   0.536   2.977   4.564  2.5480  0.9049  0.3806
 8131SOL     OW35854   0.949   1.879   4.193 -0.2452  0.1429 -0.0944
 8131SOL    HW135855   0.998   1.801   4.222  1.6268  1.4601  0.3225
 8131SOL    HW235856   0.915   1.909   4.277 -0.2647 -1.2842  0.4077
 8132SOL     OW35857   1.143   1.245   8.175  0.3432 -0.8553 -0.4321
 8132SOL    HW135858   1.191   1.327   8.162  1.0562 -1.4116 -1.2459
 8132SOL    HW235859   1.135   1.250   8.270  1.3650  1.4115 -0.4491
 8133SOL     OW35860   0.312   2.867   6.006  0.2687  0.2813 -0.1578
 8133SOL    HW135861   0.361   2.922   6.067 -0.2757 -0.7950  1.2549
 8133SOL    HW235862   0.313   2.782   6.050 -0.8607 -0.3524 -1.3626
 8134SOL     OW35863   2.438   1.561   4.699 -0.2779  0.4000  0.0920
 8134SOL    HW135864   2.380   1.500   4.743  0.8226 -1.3000 -0.8050
 8134SOL    HW235865   2.464   1.505   4.626  3.7585  0.9430  1.1059
 8135SOL     OW35866   2.120   0.766   3.240 -0.5143 -0.1619 -0.6136
 8135SOL    HW135867   2.199   0.776   3.294 -1.2836  0.4340  0.3936
 8135SOL    HW235868   2.054   0.803   3.298 -1.5566 -0.5391 -1.5432
 8136SOL     OW35869   3.682   0.258  13.687  0.0924  0.1396  0.1279
 8136SOL    HW135870   3.623   0.307  13.745 -0.5105  1.6057 -1.7162
 8136SOL    HW235871   3.762   0.297  13.724  0.4137  0.2978 -0.7362
 8137SOL     OW35872   3.865   2.526   4.444 -0.5714 -0.3865 -0.4647
 8137SOL    HW135873   3.944   2.572   4.472 -0.4551 -0.2562 -1.0064
 8137SOL    HW235874   3.817   2.581   4.381 -0.8858 -0.2657 -0.1217
 8138SOL     OW35875   1.095   3.034  11.220 -0.3968  0.3149 -0.1291
 8138SOL    HW135876   1.185   3.035  11.253  0.0955 -1.5432 -1.4334
 8138SOL    HW235877   1.065   2.945  11.235 -0.2023  0.2086 -0.3694
 8139SOL     OW35878   3.838   0.076  12.629  0.0667  0.6658  0.2939
 8139SOL    HW135879   3.864   0.109  12.542  2.1607  0.1947  0.7381
 8139SOL    HW235880   3.910   0.114  12.680  0.0661  0.4773  0.4342
 8140SOL     OW35881   1.823   4.659  11.896  0.1426 -0.3662  0.1674
 8140SOL    HW135882   1.871   4.626  11.820  0.5100  0.0771  0.2071
 8140SOL    HW235883   1.893   4.709  11.938  1.2829 -1.5063 -0.3755
 8141SOL     OW35884   0.702   0.412   3.875 -0.0716 -0.6577  0.1478
 8141SOL    HW135885   0.730   0.490   3.828 -2.1808 -1.2931 -2.1650
 8141SOL    HW235886   0.690   0.446   3.964 -0.2361  1.1026 -0.5625
 8142SOL     OW35887   2.084   2.688   4.016  0.1726  0.5379 -0.1033
 8142SOL    HW135888   2.039   2.670   3.933 -1.3799  2.5003  0.3091
 8142SOL    HW235889   2.168   2.722   3.987  0.7151 -1.3176 -0.7133
 8143SOL     OW35890   4.035   2.349   0.622  0.3911  0.1953  0.4005
 8143SOL    HW135891   4.117   2.380   0.582  0.9211  1.6515  2.6312
 8143SOL    HW235892   4.040   2.254   0.624 -0.5389  0.1703  1.2833
 8144SOL     OW35893   3.813   0.851   3.481 -0.1504  0.4928 -0.0590
 8144SOL    HW135894   3.849   0.930   3.521 -1.5526  0.3697  1.5023
 8144SOL    HW235895   3.827   0.871   3.389 -0.6160  0.1680 -0.1998
 8145SOL     OW35896   4.514   2.728   5.770  0.1086 -0.1911  0.0503
 8145SOL    HW135897   4.606   2.748   5.753  0.9732 -1.8828  2.7721
 8145SOL    HW235898   4.477   2.804   5.726 -1.6764 -1.2421 -0.2690
 8146SOL     OW35899   3.570   1.494   4.193 -0.0843 -0.0087  0.4227
 8146SOL    HW135900   3.637   1.431   4.220 -1.9850 -2.4338 -0.5221
 8146SOL    HW235901   3.625   1.566   4.161  1.6618 -1.0937  0.9967
 8147SOL     OW35902   4.467   3.283   5.024 -0.2001 -0.7143 -0.3704
 8147SOL    HW135903   4.519   3.358   4.993 -1.7879  0.2209 -0.7636
 8147SOL    HW235904   4.386   3.307   4.979  1.5894 -0.9050 -3.7081
 8148SOL     OW35905   1.900   4.629   9.597 -0.3887  0.7011 -0.2157
 8148SOL    HW135906   1.859   4.653   9.680  0.3673  2.0113 -0.2353
 8148SOL    HW235907   1.865   4.540   9.602  0.8308  0.2182 -0.3074
 8149SOL     OW35908   1.931   3.982   0.698 -0.1264 -0.1721  0.9684
 8149SOL    HW135909   1.871   3.918   0.661 -0.3769  1.7390 -1.9868
 8149SOL    HW235910   1.922   3.975   0.793  1.2224  0.6438  1.1539
 8150SOL     OW35911   2.908   4.125   6.233  0.1702  0.3823  0.5925
 8150SOL    HW135912   2.930   4.056   6.170  0.1503  0.6067  0.3419
 8150SOL    HW235913   2.956   4.098   6.312  0.4500 -0.8167  0.0083
 8151SOL     OW35914   0.819   4.513   1.977  0.6798 -0.6237  0.5973
 8151SOL    HW135915   0.861   4.479   2.056  1.6522 -0.8569 -0.0104
 8151SOL    HW235916   0.753   4.445   1.970 -0.2811  0.3415  0.3429
 8152SOL     OW35917   0.155   3.310   4.048 -0.7549  0.0644 -0.2029
 8152SOL    HW135918   0.250   3.309   4.063 -0.7587  1.0728 -0.0881
 8152SOL    HW235919   0.171   3.327   3.955  2.4266 -0.8827  0.1774
 8153SOL     OW35920   2.609   3.011   7.335  0.6645 -0.5663  0.0030
 8153SOL    HW135921   2.635   2.999   7.426  1.1292 -0.9714 -0.1827
 8153SOL    HW235922   2.623   2.927   7.292 -0.4220 -0.0328 -1.3834
 8154SOL     OW35923   3.854   0.663  10.656  0.1828  0.1763  0.3224
 8154SOL    HW135924   3.792   0.637  10.588 -0.2351 -1.2996  1.2619
 8154SOL    HW235925   3.889   0.577  10.678 -0.3602 -0.1108  0.0506
 8155SOL     OW35926   3.111   3.221  11.200  0.3032 -0.7074 -0.4304
 8155SOL    HW135927   3.139   3.201  11.289 -0.5113 -0.3318 -0.0968
 8155SOL    HW235928   3.048   3.150  11.186 -1.6387  0.9462 -0.0850
 8156SOL     OW35929   3.728   0.313   4.267  0.2421  0.7578  0.4115
 8156SOL    HW135930   3.685   0.228   4.251  1.5182 -0.4465  3.4325
 8156SOL    HW235931   3.706   0.358   4.185 -1.3458 -1.5602 -0.4379
 8157SOL     OW35932   0.464   2.525  17.044 -0.2311 -0.2846 -0.0261
 8157SOL    HW135933   0.399   2.454  17.036 -0.2237 -0.1002 -1.8082
 8157SOL    HW235934   0.498   2.514  17.132 -0.0742  0.5025  0.0123
 8158SOL     OW35935   0.895   3.190   4.280  0.2931 -0.0254  0.2902
 8158SOL    HW135936   0.911   3.284   4.266 -0.0897  0.0386  0.2784
 8158SOL    HW235937   0.970   3.163   4.333 -2.5116 -2.2906  3.0596
 8159SOL     OW35938   2.005   2.668   5.086 -0.2515 -0.4341 -0.2670
 8159SOL    HW135939   1.941   2.737   5.106 -0.1389 -0.4888  0.2781
 8159SOL    HW235940   1.947   2.608   5.038 -0.3575  0.5126 -1.3365
 8160SOL     OW35941   0.528   1.736   9.828 -0.4346 -0.2979 -0.3904
 8160SOL    HW135942   0.463   1.747   9.898  0.1811 -2.3049  0.5002
 8160SOL    HW235943   0.470   1.674   9.783  0.2203 -0.5973 -0.8107
 8161SOL     OW35944   1.061   0.841   4.462 -0.1239 -0.4504 -0.2760
 8161SOL    HW135945   1.100   0.871   4.544 -2.3055 -0.0026  0.5887
 8161SOL    HW235946   1.059   0.922   4.410  3.2934 -0.3689 -0.2558
 8162SOL     OW35947   3.970   2.740  11.599 -0.1057  0.3507 -0.2715
 8162SOL    HW135948   3.999   2.746  11.508  0.1367 -0.2948 -0.2360
 8162SOL    HW235949   4.059   2.736  11.633  0.4553 -1.7609 -2.0402
 8163SOL     OW35950   3.285   1.212   8.613  0.4484 -0.2108 -0.6548
 8163SOL    HW135951   3.362   1.171   8.573  1.8547  3.5541 -1.8067
 8163SOL    HW235952   3.243   1.142   8.663 -1.0296  1.7429  0.8641
 8164SOL     OW35953   0.864   4.521   0.973 -0.5141  0.9129 -0.5606
 8164SOL    HW135954   0.768   4.525   0.976 -0.5419 -0.1249  0.1073
 8164SOL    HW235955   0.891   4.594   0.918 -0.5626  0.0801 -1.7000
 8165SOL     OW35956   1.092   2.334   5.013  0.8662  0.1314 -0.3576
 8165SOL    HW135957   1.047   2.406   5.058  2.4331  0.5920  0.4737
 8165SOL    HW235958   1.038   2.329   4.934 -0.2982  0.9015  0.3883
 8166SOL     OW35959   4.172   1.529   5.221  0.4274  0.2235  0.2726
 8166SOL    HW135960   4.157   1.623   5.233  0.1813  0.0897  1.0107
 8166SOL    HW235961   4.231   1.517   5.296  1.5441  1.9998 -0.3123
 8167SOL     OW35962   2.840   0.226   1.839 -0.1557  0.7532 -0.3506
 8167SOL    HW135963   2.773   0.181   1.787 -0.3982  0.2395  0.4040
 8167SOL    HW235964   2.889   0.149   1.868  1.1801  1.7358  0.0147
 8168SOL     OW35965   3.732   2.496   7.496  0.3712 -0.7799  0.5239
 8168SOL    HW135966   3.701   2.577   7.536 -1.6292 -1.9084  1.2357
 8168SOL    HW235967   3.823   2.516   7.476  0.0220  0.7207  0.3936
 8169SOL     OW35968   3.163   2.918   7.317 -0.0702  0.0978  0.0780
 8169SOL    HW135969   3.108   2.935   7.394 -0.3572  0.5106 -0.2189
 8169SOL    HW235970   3.122   2.936   7.233 -0.8517 -0.8793  0.2473
 8170SOL     OW35971   3.315   1.303  12.371 -0.1518 -0.4163  0.1075
 8170SOL    HW135972   3.381   1.373  12.370 -0.1092 -0.5187 -2.6954
 8170SOL    HW235973   3.340   1.260  12.453  2.3669 -0.2031 -0.5717
 8171SOL     OW35974   0.716   0.932   8.238 -0.3153  0.0738  0.7200
 8171SOL    HW135975   0.805   0.895   8.231 -1.2266 -1.5044 -2.8664
 8171SOL    HW235976   0.663   0.854   8.257 -0.4883  0.5828  2.2915
 8172SOL     OW35977   1.721   3.519  14.287 -0.2378 -0.5627  0.4582
 8172SOL    HW135978   1.776   3.511  14.366  0.2379 -0.4582  0.1348
 8172SOL    HW235979   1.665   3.592  14.312 -1.5758 -1.7824  1.0257
 8173SOL     OW35980   0.448   2.478   0.151  0.3504  0.6328  0.0857
 8173SOL    HW135981   0.411   2.487   0.239 -0.7758  0.3114 -0.3619
 8173SOL    HW235982   0.525   2.534   0.165  0.6234 -0.2451  2.1667
 8174SOL     OW35983   3.229   0.232   1.357  0.0175  0.3157 -0.2817
 8174SOL    HW135984   3.246   0.140   1.336 -2.1488 -0.7314  2.5409
 8174SOL    HW235985   3.138   0.237   1.330 -0.3169 -2.4896  0.3513
 8175SOL     OW35986   2.148   3.638  15.536  0.0704 -0.0961  0.0921
 8175SOL    HW135987   2.064   3.611  15.573 -0.6539  1.5884 -0.3118
 8175SOL    HW235988   2.205   3.685  15.597  0.4422 -0.6355  0.1561
 8176SOL     OW35989   2.997   3.970   7.385 -0.1112 -0.4518 -0.0341
 8176SOL    HW135990   3.072   4.003   7.435 -1.6423  0.7064  1.4888
 8176SOL    HW235991   3.004   4.033   7.313  0.6754 -0.0648  0.3779
 8177SOL     OW35992   0.140   0.027   4.493 -0.0171  0.8459 -0.2819
 8177SOL    HW135993   0.065   0.080   4.522  0.7373  1.2942  0.8799
 8177SOL    HW235994   0.125   0.042   4.400 -1.8393  0.8905  0.0265
 8178SOL     OW35995   2.313   2.779   4.256  0.2972 -0.3854  0.3924
 8178SOL    HW135996   2.354   2.862   4.281 -2.9241  1.5048 -0.5324
 8178SOL    HW235997   2.293   2.806   4.166  0.4183  1.4642  0.9041
 8179SOL     OW35998   2.990   3.905   6.100 -0.1663  0.0630  0.1297
 8179SOL    HW135999   2.923   3.844   6.131 -0.0432 -0.2891 -0.3061
 8179SOL    HW236000   3.071   3.858   6.118  0.5767  1.0081 -0.7863
 8180SOL     OW36001   0.517   2.313   7.198  0.3395 -0.0942 -0.6148
 8180SOL    HW136002   0.566   2.395   7.188 -0.8514  1.1185  3.3755
 8180SOL    HW236003   0.501   2.290   7.107 -1.1851 -2.2254  0.2156
 8181SOL     OW36004   2.949   1.416   7.637 -0.1762  0.3165  0.1741
 8181SOL    HW136005   2.983   1.332   7.605 -2.7417  0.4858 -3.0534
 8181SOL    HW236006   2.870   1.389   7.684 -0.5567 -0.1577 -0.7432
 8182SOL     OW36007   3.579   1.474   6.136  0.1704  0.9935  0.9759
 8182SOL    HW136008   3.508   1.410   6.144 -0.0168  0.8261 -1.9002
 8182SOL    HW236009   3.616   1.446   6.051 -1.5392 -0.7809  0.8024
 8183SOL     OW36010   3.259   0.204   5.730  0.1171 -0.1155 -0.2511
 8183SOL    HW136011   3.322   0.233   5.796 -1.1504 -0.0563  0.9413
 8183SOL    HW236012   3.253   0.278   5.670 -0.0194 -0.0905 -0.2067
 8184SOL     OW36013   3.957   4.660   4.385 -0.5080  0.1873 -0.1516
 8184SOL    HW136014   3.993   0.021   4.406 -3.0457  1.2635 -0.1656
 8184SOL    HW236015   3.995   4.656   4.298  1.5862  0.2582  0.7532
 8185SOL     OW36016   3.495   2.011   1.813 -0.5554 -0.2296 -0.1848
 8185SOL    HW136017   3.403   1.994   1.793 -0.8188  1.1043 -0.1350
 8185SOL    HW236018   3.508   1.940   1.876  0.7803  0.1100 -0.0764
 8186SOL     OW36019   1.031   2.361  17.091 -0.0749 -0.0361  0.4620
 8186SOL    HW136020   1.095   2.422  17.127  0.2775  2.7103 -4.8293
 8186SOL    HW236021   1.052   2.364  16.998 -3.6960  1.2078 -0.3212
 8187SOL     OW36022   4.645   1.208  10.835  0.2097 -0.3217 -0.0664
 8187SOL    HW136023   4.614   1.131  10.883 -2.2561  1.0465  0.4991
 8187SOL    HW236024   4.597   1.274  10.884 -1.5159  0.1338 -2.3738
 8188SOL     OW36025   3.262   3.797  15.947 -0.6259  0.5151  0.0710
 8188SOL    HW136026   3.306   3.857  16.008  1.8294 -0.0489 -1.1528
 8188SOL    HW236027   3.202   3.861  15.908  0.5411  1.3658 -0.3480
 8189SOL     OW36028   4.081   0.163   4.615  0.2723  0.2706 -0.1837
 8189SOL    HW136029   4.048   0.171   4.526  1.3250  0.2734 -0.5757
 8189SOL    HW236030   4.039   0.242   4.649 -1.7062 -1.0762  0.5067
 8190SOL     OW36031   1.726   2.785   6.121  0.0189 -0.2454 -0.0251
 8190SOL    HW136032   1.714   2.832   6.204 -1.4882  1.2460 -1.0940
 8190SOL    HW236033   1.671   2.707   6.127  0.2675 -0.4897 -0.9554
 8191SOL     OW36034   4.240   3.692   6.549 -0.2763 -0.0022 -0.4871
 8191SOL    HW136035   4.231   3.722   6.459 -2.2166  0.0483 -0.2952
 8191SOL    HW236036   4.255   3.773   6.598  0.0746  0.1493 -0.8519
 8192SOL     OW36037   0.694   2.534   8.127  0.4359 -0.7230  0.3467
 8192SOL    HW136038   0.718   2.501   8.214 -0.2591  0.1297  0.8687
 8192SOL    HW236039   0.781   2.566   8.105  0.8254 -1.4561  0.8226
 8193SOL     OW36040   2.979   4.229  16.571 -0.0399  0.6113 -0.3359
 8193SOL    HW136041   3.053   4.205  16.515  0.8290  2.6816 -0.0717
 8193SOL    HW236042   2.908   4.170  16.546  1.3305 -1.3655  0.5181
 8194SOL     OW36043   4.077   2.486   5.571 -0.7501  0.3926  0.0072
 8194SOL    HW136044   4.164   2.510   5.603 -0.8708  0.2595  0.4407
 8194SOL    HW236045   4.060   2.408   5.624 -0.0424 -0.2617 -0.7356
 8195SOL     OW36046   1.431   1.353  13.848 -0.3942 -0.1222 -0.5330
 8195SOL    HW136047   1.507   1.318  13.802  0.3550  1.7713 -0.7230
 8195SOL    HW236048   1.473   1.365  13.933 -1.2196 -0.8371 -0.0227
 8196SOL     OW36049   0.076   4.701   0.214 -0.3501 -0.1405 -0.0127
 8196SOL    HW136050   4.724   4.667   0.169  0.3259 -1.0724 -0.4668
 8196SOL    HW236051   0.047   4.704   0.305 -0.0480 -2.1589  0.1624
 8197SOL     OW36052   0.712   2.346   2.650  0.0859  0.5042  0.5751
 8197SOL    HW136053   0.643   2.406   2.677 -1.9867 -0.3963 -2.6963
 8197SOL    HW236054   0.785   2.405   2.669 -0.0898  0.4810  1.3136
 8198SOL     OW36055   3.153   1.892   4.830 -0.1389  0.6320 -0.5506
 8198SOL    HW136056   3.071   1.933   4.803 -0.6065 -1.1090 -1.7679
 8198SOL    HW236057   3.208   1.971   4.830 -1.0924  1.2863 -0.3529
 8199SOL     OW36058   3.309   3.028   2.209  0.0011 -0.3105  0.6948
 8199SOL    HW136059   3.362   2.979   2.271  0.0968 -2.6051 -1.2096
 8199SOL    HW236060   3.355   3.012   2.127 -1.2100  0.9710 -0.2257
 8200SOL     OW36061   0.261   1.906   3.760 -0.8905 -0.6250 -0.0686
 8200SOL    HW136062   0.239   1.866   3.676 -1.1115  1.6027 -1.0479
 8200SOL    HW236063   0.357   1.906   3.753 -0.9976 -1.6296 -1.6069
 8201SOL     OW36064   3.784   3.906   7.661  0.5066  0.0457  0.2089
 8201SOL    HW136065   3.860   3.848   7.660  0.9572  0.6351 -0.1910
 8201SOL    HW236066   3.775   3.944   7.748  0.2710 -0.8568  0.5671
 8202SOL     OW36067   4.207   1.803  15.022  0.0056  0.7948  0.6177
 8202SOL    HW136068   4.128   1.783  14.972  1.2620 -1.2467 -0.5399
 8202SOL    HW236069   4.272   1.746  14.983  0.4342  1.0449  0.9693
 8203SOL     OW36070   2.650   3.322   8.700  0.1587  0.5397 -0.0654
 8203SOL    HW136071   2.695   3.325   8.784  1.3338 -0.3180 -0.6488
 8203SOL    HW236072   2.607   3.407   8.701 -0.4776  0.2019  0.4208
 8204SOL     OW36073   4.439   0.336   7.151  0.0238 -0.0687 -0.0611
 8204SOL    HW136074   4.477   0.424   7.151  0.7260 -0.3724  1.4500
 8204SOL    HW236075   4.352   0.359   7.119 -0.1222 -0.0945  0.3204
 8205SOL     OW36076   4.098   3.674  12.709 -0.7511 -0.0912 -0.5978
 8205SOL    HW136077   4.174   3.623  12.737 -0.3636 -0.0354 -1.5537
 8205SOL    HW236078   4.116   3.758  12.752 -0.6801  0.3654 -1.5084
 8206SOL     OW36079   0.461   3.589   1.448 -1.1029  0.7351  0.7044
 8206SOL    HW136080   0.481   3.682   1.455 -1.4135  0.8091  0.6361
 8206SOL    HW236081   0.402   3.584   1.373 -2.3567  0.9429  1.6721
 8207SOL     OW36082   1.613   1.240   0.719 -0.1166  1.1216  0.2598
 8207SOL    HW136083   1.521   1.254   0.742 -0.3708 -0.7865  0.3615
 8207SOL    HW236084   1.604   1.283   0.634 -0.8235 -0.2829 -0.3742
 8208SOL     OW36085   0.828   1.988   4.411  0.2844  0.0345 -0.6827
 8208SOL    HW136086   0.747   1.941   4.431 -0.8500  2.2255 -0.2511
 8208SOL    HW236087   0.804   2.079   4.396  2.6257  0.3049 -2.8275
 8209SOL     OW36088   1.814   4.691   9.977  0.2191 -0.4714  0.1337
 8209SOL    HW136089   1.885   4.701  10.040  0.9164 -1.5656 -0.4735
 8209SOL    HW236090   1.737   4.687  10.034  0.8505 -2.4666  0.8377
 8210SOL     OW36091   2.627   2.590   6.728  0.1760  0.2962 -0.0009
 8210SOL    HW136092   2.615   2.496   6.713  1.4356  0.2742 -0.8135
 8210SOL    HW236093   2.708   2.593   6.778 -0.0015  1.7285  0.2096
 8211SOL     OW36094   1.240   4.459   1.259 -0.4623 -0.3676 -0.3667
 8211SOL    HW136095   1.171   4.522   1.282  0.0567  0.2288 -0.4370
 8211SOL    HW236096   1.308   4.524   1.239  0.4826 -1.0467  0.6591
 8212SOL     OW36097   0.154   1.133  15.235  0.5568 -0.0022 -0.0903
 8212SOL    HW136098   0.192   1.208  15.189  1.1503 -0.0403  0.3372
 8212SOL    HW236099   0.178   1.161  15.323 -0.2138  0.1397  0.0754
 8213SOL     OW36100   1.192   2.611   0.682 -0.0122 -0.2211  0.1530
 8213SOL    HW136101   1.179   2.517   0.695  1.1582 -0.4919 -0.7061
 8213SOL    HW236102   1.283   2.616   0.654 -0.3550 -2.3639 -1.3475
 8214SOL     OW36103   4.610   1.942   8.415 -0.4695  0.1649  0.0456
 8214SOL    HW136104   4.638   1.997   8.488  0.1937  0.3100 -0.3236
 8214SOL    HW236105   4.679   1.876   8.412  1.4983  2.3224 -1.2976
 8215SOL     OW36106   4.273   4.707   4.485 -0.0668  0.8250 -0.5264
 8215SOL    HW136107   4.231   0.025   4.560 -0.6702 -1.5876  0.5500
 8215SOL    HW236108   4.331   0.057   4.480  1.2143 -0.1064  0.3174
 8216SOL     OW36109   0.206   0.516   2.580 -0.5038 -0.4395 -0.1129
 8216SOL    HW136110   0.111   0.527   2.585 -0.1570  2.5424  0.1214
 8216SOL    HW236111   0.243   0.525   2.492 -1.3283  1.1416 -0.3019
 8217SOL     OW36112   2.511   3.726  14.988  0.3954 -0.5324  0.1890
 8217SOL    HW136113   2.466   3.809  14.976 -0.1635 -0.6326  1.5818
 8217SOL    HW236114   2.578   3.737  14.920 -0.3830  0.3751 -0.4254
 8218SOL     OW36115   1.302   0.295  10.473 -0.4595  0.0053 -0.0589
 8218SOL    HW136116   1.247   0.372  10.455  1.6637  1.2298 -1.3618
 8218SOL    HW236117   1.252   0.245  10.537  1.3633 -0.4909  0.9479
 8219SOL     OW36118   0.906   1.075  14.594 -0.0532  0.3601  0.3470
 8219SOL    HW136119   0.902   0.984  14.564  0.1911 -0.2309  2.1055
 8219SOL    HW236120   0.908   1.078  14.690  2.0222 -0.0844  0.3024
 8220SOL     OW36121   1.696   4.030   4.110  0.7991  0.0646 -0.3012
 8220SOL    HW136122   1.764   4.088   4.144  0.8275  0.3585 -0.8424
 8220SOL    HW236123   1.748   3.958   4.074  0.5501  0.5799 -1.7017
 8221SOL     OW36124   4.270   1.436  17.502 -0.1851  0.4599  0.2767
 8221SOL    HW136125   4.299   1.386  17.579 -0.6740  3.2601  2.2780
 8221SOL    HW236126   4.203   1.373  17.474  0.3085  0.3584 -0.6951
 8222SOL     OW36127   1.690   0.187  11.941  0.3725  0.2889  1.0284
 8222SOL    HW136128   1.746   0.136  11.882 -0.4798 -0.0068  0.4853
 8222SOL    HW236129   1.696   0.136  12.022  3.5588 -1.9165 -0.6158
 8223SOL     OW36130   4.173   0.591  11.754 -0.5703 -0.3448 -0.4172
 8223SOL    HW136131   4.176   0.644  11.675 -4.6744 -1.2273 -1.1363
 8223SOL    HW236132   4.237   0.525  11.726  0.8822  1.4904 -1.4096
 8224SOL     OW36133   4.429   0.530  16.250 -0.5350  0.4610  0.3602
 8224SOL    HW136134   4.427   0.475  16.328  1.2938  0.0698  0.1478
 8224SOL    HW236135   4.499   0.585  16.285  1.7737 -1.3562 -1.4279
 8225SOL     OW36136   2.070   0.798  12.113  0.2202 -0.5255 -0.1801
 8225SOL    HW136137   2.090   0.786  12.205  0.7200 -0.2242 -0.2477
 8225SOL    HW236138   2.149   0.769  12.067  0.2862 -0.8474  0.1456
 8226SOL     OW36139   1.784   0.565   8.607 -0.0793  0.4414 -0.2777
 8226SOL    HW136140   1.824   0.516   8.535 -0.6488 -0.7749  0.2210
 8226SOL    HW236141   1.845   0.550   8.680 -0.6864 -2.7636 -0.4151
 8227SOL     OW36142   0.421   1.805  11.468 -1.1969  0.7336  0.0023
 8227SOL    HW136143   0.334   1.844  11.468 -1.1007  0.9515 -0.9174
 8227SOL    HW236144   0.419   1.760  11.383  1.6731  1.7487 -0.6046
 8228SOL     OW36145   1.682   1.441  12.808  0.2607 -0.1252 -0.3302
 8228SOL    HW136146   1.615   1.389  12.851  0.7880  0.9853  1.8540
 8228SOL    HW236147   1.764   1.393  12.819 -0.5726 -1.6227 -0.7543
 8229SOL     OW36148   2.780   0.564   7.529  0.3618  0.0186 -0.0587
 8229SOL    HW136149   2.718   0.615   7.476  1.0420  2.0200  1.0923
 8229SOL    HW236150   2.725   0.505   7.579 -0.4908 -0.3716 -1.4441
 8230SOL     OW36151   3.333   3.423   9.102  0.1950  0.3783  0.4658
 8230SOL    HW136152   3.293   3.359   9.043 -0.0281  0.6623  0.3091
 8230SOL    HW236153   3.427   3.409   9.090 -0.1939 -2.0053  0.0823
 8231SOL     OW36154   3.149   1.901  11.084  0.2820  0.0937  0.2368
 8231SOL    HW136155   3.189   1.814  11.080  0.6980  0.3953 -2.0962
 8231SOL    HW236156   3.139   1.923  10.991 -0.6578  0.1495  0.3556
 8232SOL     OW36157   1.835   0.102  17.442  0.6514 -0.4258 -0.2246
 8232SOL    HW136158   1.875   0.016  17.460  0.9756 -0.6771 -2.1955
 8232SOL    HW236159   1.748   0.083  17.479  1.6748 -1.4880  1.6746
 8233SOL     OW36160   1.206   1.029   2.994  0.2439  0.4727  0.2044
 8233SOL    HW136161   1.224   0.951   2.942  0.1004 -0.3138  1.3413
 8233SOL    HW236162   1.294   1.062   3.014 -0.4941  1.9923  0.9711
 8234SOL     OW36163   2.855   2.915   5.726 -0.5062 -0.1086  0.2100
 8234SOL    HW136164   2.921   2.848   5.708 -0.8117 -0.7614  1.5532
 8234SOL    HW236165   2.912   2.989   5.703 -0.3648 -0.4651 -0.5867
 8235SOL     OW36166   1.136   0.068   7.823 -0.2026 -0.1759  0.0119
 8235SOL    HW136167   1.080   0.054   7.899  0.3914  1.8712  0.8230
 8235SOL    HW236168   1.131   4.708   7.780 -0.9017 -1.3540  2.4251
 8236SOL     OW36169   1.947   1.138   0.535  0.7199 -0.6470 -0.2754
 8236SOL    HW136170   2.010   1.107   0.600  0.5019 -1.9496 -0.6893
 8236SOL    HW236171   1.985   1.103   0.455  2.0954 -2.5964  1.2239
 8237SOL     OW36172   2.220   3.048   7.140  0.0954  0.3045  0.4477
 8237SOL    HW136173   2.283   3.077   7.206 -0.9849  1.4009  0.9944
 8237SOL    HW236174   2.140   3.037   7.192 -1.2233 -1.1498 -1.8777
 8238SOL     OW36175   1.580   4.168   9.222 -0.2652  0.0074 -0.0684
 8238SOL    HW136176   1.668   4.200   9.241 -0.1196 -0.1948 -0.3928
 8238SOL    HW236177   1.531   4.235   9.270 -1.5614  0.1065 -1.5266
 8239SOL     OW36178   2.703   4.149   6.928 -0.3292 -0.5687  0.0954
 8239SOL    HW136179   2.752   4.138   7.009 -0.6555  1.9564  0.6452
 8239SOL    HW236180   2.686   4.056   6.912  0.9582 -0.7968  0.0446
 8240SOL     OW36181   2.712   2.386   7.937 -0.0183  0.2394  0.2939
 8240SOL    HW136182   2.734   2.452   7.871  1.0720  0.3233  0.7350
 8240SOL    HW236183   2.758   2.430   8.009 -0.2914 -0.7854  1.0945
 8241SOL     OW36184   0.688   3.296   0.299 -0.4325 -0.5255  0.5892
 8241SOL    HW136185   0.689   3.344   0.382 -0.6449 -2.1500  1.5347
 8241SOL    HW236186   0.768   3.329   0.260 -0.8373 -0.1523  0.0690
 8242SOL     OW36187   1.250   2.113   6.715  0.1192 -0.6533  0.3190
 8242SOL    HW136188   1.286   2.167   6.644 -2.5235  1.4370  0.5735
 8242SOL    HW236189   1.335   2.084   6.749 -0.2466 -0.7991  1.1019
 8243SOL     OW36190   2.144   3.386   4.514  0.2942 -0.2520  0.2828
 8243SOL    HW136191   2.191   3.365   4.433  1.0186  1.5613  0.2204
 8243SOL    HW236192   2.081   3.316   4.527  0.4218 -0.2732  0.7910
 8244SOL     OW36193   0.995   2.775   3.077 -0.0584 -0.0029 -0.3258
 8244SOL    HW136194   1.023   2.815   2.995 -3.2560  0.7198 -1.0774
 8244SOL    HW236195   0.927   2.713   3.053 -1.8363  1.3648  1.1356
 8245SOL     OW36196   1.240   3.662   8.320  0.0957 -0.1451  0.5985
 8245SOL    HW136197   1.266   3.742   8.275 -2.8316  1.6738  2.1139
 8245SOL    HW236198   1.309   3.634   8.379  0.9925  1.6076  0.3915
 8246SOL     OW36199   0.192   3.792  10.410 -0.4706 -0.0036 -0.0634
 8246SOL    HW136200   0.144   3.838  10.479  0.3510  1.0132 -0.1605
 8246SOL    HW236201   0.250   3.731  10.456 -1.1390 -0.4556  0.1760
 8247SOL     OW36202   1.891   0.330   4.824  0.2253 -0.5081 -0.5471
 8247SOL    HW136203   1.950   0.362   4.893  1.6659 -1.9180 -1.1269
 8247SOL    HW236204   1.842   0.260   4.867 -1.3610  1.1821  0.4344
 8248SOL     OW36205   0.269   4.629   5.563  0.0864 -0.2862 -0.9946
 8248SOL    HW136206   0.214   4.592   5.631 -1.1039  0.9123 -1.3079
 8248SOL    HW236207   0.269   4.723   5.583  0.4813 -0.5850  0.4069
 8249SOL     OW36208   0.745   2.644  17.319 -0.4731 -0.5216  0.4558
 8249SOL    HW136209   0.805   2.616  17.388  1.5344  0.2344 -0.9802
 8249SOL    HW236210   0.682   2.572  17.316  0.2517 -1.0915 -0.9612
 8250SOL     OW36211   0.904   4.602   8.986 -0.1619  0.3351  1.2393
 8250SOL    HW136212   0.813   4.586   8.960  0.2484  0.6265 -0.4200
 8250SOL    HW236213   0.899   4.606   9.081  0.0530 -2.2121  1.3480
 8251SOL     OW36214   0.929   2.221   4.792  0.2235 -0.1577  0.5431
 8251SOL    HW136215   0.844   2.202   4.832 -0.8743  0.2810 -1.6096
 8251SOL    HW236216   0.898   2.270   4.716 -1.2606 -1.0207  0.5820
 8252SOL     OW36217   0.416   3.607  13.720 -0.3571 -0.5257  0.8516
 8252SOL    HW136218   0.331   3.577  13.751 -0.6080  0.2047  0.8714
 8252SOL    HW236219   0.407   3.702  13.711 -1.5115 -0.5214  2.0780
 8253SOL     OW36220   1.479   2.930  17.457 -0.3472  0.3085 -0.6196
 8253SOL    HW136221   1.406   2.966  17.406  0.2397  2.9028  0.3633
 8253SOL    HW236222   1.453   2.839  17.470 -1.8103  0.6808 -0.8933
 8254SOL     OW36223   2.298   4.146   7.914  0.1616  0.5943 -0.1929
 8254SOL    HW136224   2.248   4.065   7.920  0.2663  0.6042  0.9451
 8254SOL    HW236225   2.302   4.153   7.819 -0.9470 -2.5638 -0.4641
 8255SOL     OW36226   4.155   4.411   4.490  0.0278  0.0553  0.0955
 8255SOL    HW136227   4.069   4.370   4.478  0.4942 -1.4537  1.9079
 8255SOL    HW236228   4.132   4.504   4.487  0.4360  0.1676  0.3268
 8256SOL     OW36229   3.062   3.627  16.167  0.8564 -0.2363 -0.0816
 8256SOL    HW136230   3.157   3.620  16.171  0.7768  0.4044  2.4742
 8256SOL    HW236231   3.045   3.594  16.255 -0.4219  0.7382  0.0353
 8257SOL     OW36232   4.579   3.813   6.321  0.2663 -0.1465 -0.5626
 8257SOL    HW136233   4.563   3.720   6.305  2.1730 -0.2698 -1.7564
 8257SOL    HW236234   4.598   3.812   6.415 -2.0162 -2.8020 -0.1334
 8258SOL     OW36235   0.567   2.693   4.842  0.2724 -0.0251  0.0701
 8258SOL    HW136236   0.566   2.720   4.934  1.5540  0.4060 -0.0469
 8258SOL    HW236237   0.652   2.726   4.812  0.7153 -2.5807 -1.4400
 8259SOL     OW36238   0.025   1.477  10.247 -0.2759  0.3581  0.0339
 8259SOL    HW136239   0.056   1.517  10.328  1.1799 -0.6260 -0.0428
 8259SOL    HW236240   4.710   1.400  10.285 -0.1640  0.0315 -0.5027
 8260SOL     OW36241   2.944   0.389   1.647 -1.2450 -0.4710 -0.6644
 8260SOL    HW136242   3.038   0.370   1.638 -1.1565 -0.4619  0.1809
 8260SOL    HW236243   2.916   0.331   1.718 -2.1428 -0.3509 -0.9229
 8261SOL     OW36244   4.669   0.161  12.840  0.4475  0.3149 -0.6266
 8261SOL    HW136245   4.582   0.201  12.829  0.6814  1.2921  1.1139
 8261SOL    HW236246   0.006   0.211  12.787 -0.5952  0.1229 -2.0419
 8262SOL     OW36247   3.962   1.016   0.897  0.2566 -0.0798  0.1796
 8262SOL    HW136248   3.977   1.084   0.831  0.7164 -1.0067 -0.6638
 8262SOL    HW236249   4.050   0.984   0.915  1.1378  2.0158 -0.3433
 8263SOL     OW36250   2.519   3.858   3.754 -0.4547  0.4499  0.5845
 8263SOL    HW136251   2.488   3.787   3.810  0.4271  0.5035  1.1420
 8263SOL    HW236252   2.486   3.929   3.809 -0.4281  1.8956 -1.2702
 8264SOL     OW36253   3.942   3.276   6.180 -0.4239 -0.3939 -0.1328
 8264SOL    HW136254   3.958   3.368   6.201 -1.9276 -0.2284  0.3167
 8264SOL    HW236255   4.029   3.242   6.201  0.6607  1.8826 -0.9428
 8265SOL     OW36256   3.429   0.315   0.306 -0.0737  0.1316  0.1319
 8265SOL    HW136257   3.448   0.359   0.389  0.6766 -0.1458  0.1069
 8265SOL    HW236258   3.335   0.297   0.314  0.1238 -0.8190  0.2969
 8266SOL     OW36259   0.907   1.386   3.138  0.0819  0.0408  0.8812
 8266SOL    HW136260   0.977   1.321   3.136 -0.5871 -0.7719  3.0833
 8266SOL    HW236261   0.888   1.412   3.048 -2.7120  0.7642  1.6682
 8267SOL     OW36262   1.737   0.714   7.868  0.1111  0.5839  0.3512
 8267SOL    HW136263   1.822   0.759   7.861 -0.0128  1.2943  3.3413
 8267SOL    HW236264   1.699   0.762   7.942  1.8004 -0.2446  1.7659
 8268SOL     OW36265   1.418   3.863   6.100  0.5024  0.2302  0.0009
 8268SOL    HW136266   1.332   3.821   6.100 -0.0733  1.3737 -1.8060
 8268SOL    HW236267   1.468   3.784   6.079  0.9743  0.0776  1.7285
 8269SOL     OW36268   0.743   3.437   7.921 -0.3922 -0.1975  0.1270
 8269SOL    HW136269   0.755   3.532   7.916  1.4480 -0.4329  0.1360
 8269SOL    HW236270   0.652   3.427   7.894 -0.4731  4.1496 -1.2133
 8270SOL     OW36271   0.121   1.441   6.299 -0.1664  0.8452  0.2138
 8270SOL    HW136272   0.186   1.444   6.370 -1.6296 -0.2522  1.6119
 8270SOL    HW236273   0.114   1.349   6.271 -0.5249  1.6305 -2.2332
 8271SOL     OW36274   3.694   0.838   9.724  0.7177 -0.2736  0.0092
 8271SOL    HW136275   3.744   0.872   9.650  0.1735  1.1087  0.2646
 8271SOL    HW236276   3.753   0.769   9.754  1.7623  1.0228  0.9470
 8272SOL     OW36277   1.328   2.490   7.858 -0.2003  0.4552 -0.2711
 8272SOL    HW136278   1.338   2.570   7.807  0.0746  2.2067  2.5519
 8272SOL    HW236279   1.420   2.471   7.874  0.4496  2.3787 -1.7887
 8273SOL     OW36280   4.157   1.687   7.989 -0.2326  0.1249  0.2804
 8273SOL    HW136281   4.171   1.616   8.052 -1.1668  1.3031  1.8009
 8273SOL    HW236282   4.136   1.631   7.914  2.1025  1.2246 -1.2008
 8274SOL     OW36283   4.134   4.239  11.834  0.7525 -0.0923 -0.0406
 8274SOL    HW136284   4.132   4.203  11.745 -0.5494 -1.3547  0.4893
 8274SOL    HW236285   4.197   4.311  11.826  1.4619 -0.8015 -0.8459
 8275SOL     OW36286   3.714   0.470  11.672 -0.5231 -0.2359 -0.1923
 8275SOL    HW136287   3.628   0.508  11.652 -0.5612  0.4168  1.2868
 8275SOL    HW236288   3.764   0.510  11.601 -1.1650 -1.4148 -1.3089
 8276SOL     OW36289   4.387   1.778   7.097 -0.4930  0.0038  0.4229
 8276SOL    HW136290   4.396   1.840   7.169  0.8232  1.1151 -0.6883
 8276SOL    HW236291   4.392   1.697   7.148 -0.2229 -0.0864  0.2540
 8277SOL     OW36292   4.702   4.455   0.841  0.3975 -0.0855  0.4248
 8277SOL    HW136293   0.059   4.492   0.872 -0.0160  0.3604  1.0198
 8277SOL    HW236294   4.646   4.519   0.887 -0.5228  1.2966 -2.5905
 8278SOL     OW36295   3.983   4.657   4.777 -0.2342 -0.2741 -0.2086
 8278SOL    HW136296   4.009   4.711   4.703 -1.0172 -1.9124 -1.6553
 8278SOL    HW236297   3.900   4.704   4.789 -0.3012 -0.5809  0.5289
 8279SOL     OW36298   3.365   3.045   5.679 -0.0218  0.7091 -0.1159
 8279SOL    HW136299   3.325   3.061   5.593  0.0947  1.2059 -0.0802
 8279SOL    HW236300   3.377   2.950   5.678 -0.3834  0.6658 -0.4501
 8280SOL     OW36301   3.390   4.720   7.051 -0.3242  0.0726  0.2830
 8280SOL    HW136302   3.461   4.658   7.070 -0.1749 -0.1263 -0.9187
 8280SOL    HW236303   3.416   0.057   7.119 -1.3153  0.2867  0.4632
 8281SOL     OW36304   2.928   1.475   7.358  0.3124  0.4216 -0.4131
 8281SOL    HW136305   2.926   1.504   7.449 -1.1592 -0.2668 -0.2207
 8281SOL    HW236306   2.838   1.485   7.328  0.7473  1.8639 -1.2233
 8282SOL     OW36307   1.901   4.221   0.543  0.5761 -0.1145 -0.8132
 8282SOL    HW136308   1.811   4.240   0.569  0.1126 -2.2539 -0.8313
 8282SOL    HW236309   1.920   4.138   0.587  1.9467  0.0463 -1.1088
 8283SOL     OW36310   3.132   3.630   8.754 -0.4059  0.1497  0.1298
 8283SOL    HW136311   3.106   3.576   8.680  2.4133 -1.0371  0.0151
 8283SOL    HW236312   3.182   3.695   8.704 -1.1435 -0.6670 -1.6643
 8284SOL     OW36313   2.246   0.880   9.473 -0.0589 -0.5497 -0.0133
 8284SOL    HW136314   2.154   0.867   9.450  0.2436 -0.0874 -1.5297
 8284SOL    HW236315   2.285   0.799   9.440 -0.6842 -0.2907 -1.3873
 8285SOL     OW36316   0.817   2.871   7.543  0.4462  0.2645 -0.0584
 8285SOL    HW136317   0.864   2.940   7.497  0.9836 -0.1930 -0.2060
 8285SOL    HW236318   0.731   2.864   7.501  2.1928  0.7162 -3.7128
 8286SOL     OW36319   2.312   1.181   4.444 -0.2030 -0.0910 -0.3800
 8286SOL    HW136320   2.281   1.130   4.520 -1.2771  1.0418 -0.0575
 8286SOL    HW236321   2.230   1.176   4.395  0.6732  0.7327 -1.8952
 8287SOL     OW36322   0.270   2.406   6.882 -0.3195 -0.6103  0.3234
 8287SOL    HW136323   0.198   2.358   6.923 -1.1374  0.4639  0.1239
 8287SOL    HW236324   0.346   2.350   6.899  0.2773  0.5841  1.6719
 8288SOL     OW36325   1.281   2.943  10.116  0.4235  0.2331 -1.0741
 8288SOL    HW136326   1.223   2.896  10.055  0.4310 -2.3499  0.9290
 8288SOL    HW236327   1.251   3.034  10.124  0.1577  0.0418  0.1175
 8289SOL     OW36328   4.575   0.279  10.226  0.0925  0.0798  0.0209
 8289SOL    HW136329   4.489   0.276  10.182  1.0022 -0.2633 -1.7284
 8289SOL    HW236330   4.618   0.361  10.206  1.4350 -0.8140 -0.7396
 8290SOL     OW36331   1.341   3.846   9.017 -0.3004 -0.2824 -0.2917
 8290SOL    HW136332   1.327   3.834   9.111 -1.7544 -1.7978 -0.7023
 8290SOL    HW236333   1.403   3.774   9.006 -0.3738 -0.6278  1.5874
 8291SOL     OW36334   3.553   0.549   3.358  0.1204  0.2840  0.4615
 8291SOL    HW136335   3.605   0.483   3.312 -0.0025  0.0916  0.6040
 8291SOL    HW236336   3.489   0.484   3.385 -0.7069  1.4947  1.4046
 8292SOL     OW36337   2.652   1.443   8.351 -0.3129 -0.4455 -0.2323
 8292SOL    HW136338   2.639   1.369   8.291  0.4264 -1.5253  0.9464
 8292SOL    HW236339   2.711   1.501   8.304 -1.0310  1.3092  1.0110
 8293SOL     OW36340   2.576   1.428   9.881 -0.3652  0.2942 -0.0065
 8293SOL    HW136341   2.577   1.448   9.974 -0.3247  0.7442 -0.1009
 8293SOL    HW236342   2.525   1.346   9.880  0.0089  0.0604  0.4523
 8294SOL     OW36343   3.671   0.499   6.914  0.6371 -0.2133 -0.2006
 8294SOL    HW136344   3.669   0.456   6.828 -0.2098 -0.8825  0.1525
 8294SOL    HW236345   3.593   0.469   6.960  0.6869 -0.6573 -0.4008
 8295SOL     OW36346   2.464   1.879   1.505 -0.0212 -0.2539  0.7246
 8295SOL    HW136347   2.504   1.941   1.444  2.0747 -3.4334 -1.0873
 8295SOL    HW236348   2.381   1.877   1.457  0.0033  0.8674  0.6251
 8296SOL     OW36349   2.319   1.568   8.033 -0.3684  0.0578  0.3489
 8296SOL    HW136350   2.345   1.481   8.005 -0.5711  0.3727 -0.7983
 8296SOL    HW236351   2.231   1.560   7.997 -0.6428 -0.0819  1.0520
 8297SOL     OW36352   1.121   1.343   4.671  0.6266  0.1679  0.1780
 8297SOL    HW136353   1.206   1.349   4.626  1.9601 -0.2152  2.6460
 8297SOL    HW236354   1.140   1.391   4.752  1.1066  0.0095  0.1560
 8298SOL     OW36355   2.137   4.536  12.977  0.1807  0.0816  0.5186
 8298SOL    HW136356   2.228   4.563  12.986  0.4183 -0.5514  0.0328
 8298SOL    HW236357   2.152   4.445  12.950  0.4222  0.5087 -0.7684
 8299SOL     OW36358   2.699   1.626   8.726 -0.2590  0.2758  0.1734
 8299SOL    HW136359   2.760   1.562   8.690 -0.2255  1.0921 -1.1949
 8299SOL    HW236360   2.627   1.576   8.766  1.9917 -2.0410  1.3049
 8300SOL     OW36361   2.626   3.940  14.737  0.1399 -0.1595 -0.4360
 8300SOL    HW136362   2.695   3.882  14.704  0.1715 -0.8893  0.9314
 8300SOL    HW236363   2.634   4.026  14.694 -0.4806 -0.6140 -1.4750
 8301SOL     OW36364   3.814   2.018  13.745 -0.0436 -0.0161 -0.1170
 8301SOL    HW136365   3.741   2.065  13.785 -1.1808 -0.3596 -1.7927
 8301SOL    HW236366   3.885   2.078  13.765 -0.7547  0.5254  0.7713
 8302SOL     OW36367   1.940   4.316   5.499 -0.1984 -0.0288  0.9416
 8302SOL    HW136368   2.011   4.316   5.563  0.9543 -0.4063 -0.3306
 8302SOL    HW236369   1.924   4.222   5.493  3.3083 -0.4876 -1.7387
 8303SOL     OW36370   3.788   0.851  15.242 -0.7286  0.3459  0.2514
 8303SOL    HW136371   3.747   0.874  15.159  1.6288 -1.7907 -1.5125
 8303SOL    HW236372   3.838   0.776  15.210  1.2125  0.7963  2.2173
 8304SOL     OW36373   3.418   1.432   4.550 -0.2809 -0.6336  0.3860
 8304SOL    HW136374   3.358   1.464   4.616 -0.9320 -1.0587 -0.0040
 8304SOL    HW236375   3.504   1.458   4.586 -0.3781 -1.2780  1.0647
 8305SOL     OW36376   2.216   3.922   2.400  0.3987  0.5356  0.0931
 8305SOL    HW136377   2.200   4.008   2.437  3.7223  1.4817 -0.6102
 8305SOL    HW236378   2.130   3.884   2.382 -0.3199  2.0437  0.3376
 8306SOL     OW36379   1.109   3.917   8.167 -0.7109  0.4306  0.1702
 8306SOL    HW136380   1.204   3.911   8.161 -0.9649 -1.4146 -1.8223
 8306SOL    HW236381   1.098   3.917   8.262  0.5226 -1.3798  0.3115
 8307SOL     OW36382   1.591   2.182   7.904  0.1475 -0.6699  0.1541
 8307SOL    HW136383   1.607   2.272   7.875  0.7373 -1.0599 -0.7466
 8307SOL    HW236384   1.599   2.192   7.999 -0.5574  1.2389  0.0030
 8308SOL     OW36385   1.676   2.797   8.664 -0.0231 -0.1818 -0.1117
 8308SOL    HW136386   1.761   2.793   8.621  0.4071 -0.0309  0.7243
 8308SOL    HW236387   1.692   2.779   8.757 -1.6030 -1.0556 -0.0163
 8309SOL     OW36388   2.263   2.952  13.625 -0.3194 -0.2082 -0.2080
 8309SOL    HW136389   2.293   2.997  13.705 -1.5911 -1.4521  0.9711
 8309SOL    HW236390   2.347   2.936  13.583 -0.7107 -0.9123 -0.7229
 8310SOL     OW36391   0.215   1.409   9.152  0.1945 -0.3774  0.3459
 8310SOL    HW136392   0.157   1.435   9.080  0.2819 -0.1418  0.3616
 8310SOL    HW236393   0.221   1.315   9.131 -0.8199 -0.8829  2.3379
 8311SOL     OW36394   0.658   0.819   4.432 -0.1587  0.0393  0.1677
 8311SOL    HW136395   0.706   0.741   4.460 -1.2481 -1.0780 -1.0238
 8311SOL    HW236396   0.566   0.796   4.446 -0.5212 -1.4657 -4.4818
 8312SOL     OW36397   2.733   4.088   7.909  0.0385 -0.4658 -0.1841
 8312SOL    HW136398   2.757   4.022   7.844 -1.8129 -0.6998 -0.6286
 8312SOL    HW236399   2.666   4.041   7.960 -1.0593 -1.4618 -2.5492
 8313SOL     OW36400   1.186   0.761   6.994  0.3924 -0.2303 -0.1772
 8313SOL    HW136401   1.223   0.838   6.952 -1.7520 -0.7571 -3.0086
 8313SOL    HW236402   1.097   0.773   6.961  0.8695 -2.3343 -2.2556
 8314SOL     OW36403   0.592   3.511   1.185  0.3262 -0.4001  0.1407
 8314SOL    HW136404   0.601   3.518   1.280  0.5674  3.8421 -0.1655
 8314SOL    HW236405   0.606   3.604   1.164 -0.3516 -0.1170  0.9758
 8315SOL     OW36406   0.026   2.929   6.750  0.3752 -0.2497  0.2631
 8315SOL    HW136407   0.116   2.951   6.728  0.2307 -0.5336 -0.6229
 8315SOL    HW236408   0.005   2.842   6.714 -1.8809 -0.7169  2.7242
 8316SOL     OW36409   4.007   2.949   7.226  0.1410  0.1493  0.6492
 8316SOL    HW136410   3.946   2.919   7.293  1.1074  0.1479  1.5180
 8316SOL    HW236411   3.962   2.940   7.142  1.0833  0.6212  0.0934
 8317SOL     OW36412   0.421   0.169   6.301 -0.3977 -0.2974  0.1607
 8317SOL    HW136413   0.431   0.196   6.209 -2.4739  0.1154  0.0552
 8317SOL    HW236414   0.508   0.134   6.320 -0.5101  0.0450  1.2629
 8318SOL     OW36415   4.523   0.045   5.684  0.0339 -0.1684 -0.1876
 8318SOL    HW136416   4.545   4.705   5.750  0.0901  1.7036  1.6364
 8318SOL    HW236417   4.441   0.004   5.654  1.1390 -3.0387  0.7051
 8319SOL     OW36418   4.416   2.912   5.309 -0.1217 -0.0102 -0.0526
 8319SOL    HW136419   4.501   2.925   5.350 -0.0800 -0.2711 -0.0565
 8319SOL    HW236420   4.439   2.874   5.225  0.4140  0.5497 -0.1578
 8320SOL     OW36421   2.552   2.505  11.208  0.1696 -0.1483  0.5884
 8320SOL    HW136422   2.643   2.528  11.225 -0.2175  1.7632  0.1248
 8320SOL    HW236423   2.502   2.550  11.276  0.4549 -1.3550  1.5942
 8321SOL     OW36424   2.709   0.097  10.384  0.7024 -0.0122 -0.2310
 8321SOL    HW136425   2.753   0.179  10.405 -3.0665  1.9032  0.1897
 8321SOL    HW236426   2.780   0.032  10.380  0.9647  0.2105  0.7558
 8322SOL     OW36427   4.344   1.594   5.432  0.3148 -0.1572  1.1082
 8322SOL    HW136428   4.310   1.655   5.497 -1.3284  0.8554 -0.6798
 8322SOL    HW236429   4.416   1.648   5.400 -2.2247  2.1359 -0.7084
 8323SOL     OW36430   1.670   0.472   4.155  0.4331 -0.1984 -0.2311
 8323SOL    HW136431   1.610   0.411   4.112  0.0246  0.4389 -0.5677
 8323SOL    HW236432   1.722   0.495   4.078  0.1456  1.8855  0.2107
 8324SOL     OW36433   4.723   0.232  16.438 -0.0906  0.2814 -0.1312
 8324SOL    HW136434   0.032   0.245  16.527 -0.3756 -0.0391  0.0294
 8324SOL    HW236435   0.079   0.223  16.389 -0.6238  3.1400 -1.5048
 8325SOL     OW36436   1.286   0.685   4.002 -0.3126 -0.0572 -0.6187
 8325SOL    HW136437   1.361   0.737   3.974 -1.5908  2.3716  0.5357
 8325SOL    HW236438   1.221   0.718   3.940  0.1981  0.2298 -1.0061
 8326SOL     OW36439   0.680   2.495   7.804  0.5485 -0.1959  0.6850
 8326SOL    HW136440   0.646   2.503   7.894  2.5686  1.7657  1.2654
 8326SOL    HW236441   0.713   2.584   7.795 -2.4578  0.4577 -3.6021
 8327SOL     OW36442   3.112   2.449  17.500  0.1494 -0.0531  0.3868
 8327SOL    HW136443   3.093   2.479  17.588 -1.8959  2.0354 -0.7742
 8327SOL    HW236444   3.207   2.461  17.494  0.4006 -1.6200  1.2755
 8328SOL     OW36445   1.417   3.551  10.352 -0.0140 -0.8879 -0.4084
 8328SOL    HW136446   1.466   3.556  10.435  1.5727  1.5760 -1.4919
 8328SOL    HW236447   1.417   3.643  10.328 -1.6734 -0.0077  2.8827
 8329SOL     OW36448   4.174   0.036   6.495 -0.0999  0.2919 -0.0934
 8329SOL    HW136449   4.254   0.077   6.460 -0.1803  0.2267 -0.3513
 8329SOL    HW236450   4.209   0.006   6.579 -0.3736 -1.1175 -0.4817
 8330SOL     OW36451   3.659   4.207  14.150 -0.7783 -0.2585 -0.1995
 8330SOL    HW136452   3.654   4.171  14.239 -0.5116 -0.7365 -0.3764
 8330SOL    HW236453   3.753   4.224  14.145 -0.3616 -2.7294 -0.9248
 8331SOL     OW36454   4.348   1.965   7.278 -0.2539 -0.5544 -0.9137
 8331SOL    HW136455   4.298   2.045   7.260 -2.6552 -1.5879  1.1799
 8331SOL    HW236456   4.305   1.940   7.359  3.1752 -1.5381  0.5796
 8332SOL     OW36457   3.759   2.604   2.613  0.1186  0.5535  0.0704
 8332SOL    HW136458   3.753   2.630   2.705 -0.8111  1.8050 -0.3397
 8332SOL    HW236459   3.852   2.590   2.598 -0.2654  0.5089 -2.3762
 8333SOL     OW36460   1.118   0.277   0.438 -0.5007  0.4497 -0.1220
 8333SOL    HW136461   1.038   0.297   0.488  0.2035  1.1637  0.7280
 8333SOL    HW236462   1.081   0.241   0.358  2.7339 -1.2439 -0.8573
 8334SOL     OW36463   3.954   4.349   8.030 -0.1802 -0.0204 -0.0644
 8334SOL    HW136464   3.948   4.304   8.115 -0.9158 -1.1100 -0.7005
 8334SOL    HW236465   4.024   4.412   8.049 -1.0593  0.5285  1.3732
 8335SOL     OW36466   4.551   1.912   1.757 -0.1147  0.4854  0.6613
 8335SOL    HW136467   4.618   1.970   1.793 -0.3001  0.7765  0.5290
 8335SOL    HW236468   4.595   1.875   1.680 -0.5693 -0.2716  0.7676
 8336SOL     OW36469   1.029   3.124   6.997  0.2366 -0.8285 -0.6451
 8336SOL    HW136470   1.068   3.115   7.084  0.9921 -1.6733 -1.0694
 8336SOL    HW236471   1.025   3.219   6.988  0.5129 -0.6567  1.1141
 8337SOL     OW36472   0.475   1.008   5.534 -0.0389 -0.4079  0.2390
 8337SOL    HW136473   0.527   1.047   5.605  1.1201  3.5329 -2.7479
 8337SOL    HW236474   0.391   1.049   5.557  1.0998  2.4443 -0.6964
 8338SOL     OW36475   0.980   2.335  17.394 -0.5867 -0.2628  0.2717
 8338SOL    HW136476   0.938   2.255  17.425 -0.7443 -1.0562 -1.9569
 8338SOL    HW236477   0.960   2.329  17.300  1.6902 -1.8592 -0.0934
 8339SOL     OW36478   1.066   1.261   1.659  0.5228  0.3323 -0.1027
 8339SOL    HW136479   1.064   1.180   1.608 -1.2447 -0.3292  1.0064
 8339SOL    HW236480   1.158   1.267   1.685  0.8012 -0.7053 -0.8122
 8340SOL     OW36481   0.933   4.335   9.549  0.1827  0.1378  0.4180
 8340SOL    HW136482   0.934   4.379   9.634 -0.4026 -1.7583  1.4167
 8340SOL    HW236483   0.845   4.298   9.558  1.0597 -1.9329  0.5924
 8341SOL     OW36484   0.639   0.448   3.020 -0.2815  0.2948  0.4885
 8341SOL    HW136485   0.592   0.516   2.972  0.9755  0.6746 -0.1975
 8341SOL    HW236486   0.659   0.373   2.963 -0.7879 -0.0635  0.7834
 8342SOL     OW36487   3.587   4.672   3.056  0.3828 -0.9951 -0.1871
 8342SOL    HW136488   3.510   4.722   3.031  1.3544 -0.4747 -2.1259
 8342SOL    HW236489   3.570   4.595   3.003  1.3314 -1.8658  0.7702
 8343SOL     OW36490   0.702   1.801   6.038 -0.4102  0.1793 -0.6307
 8343SOL    HW136491   0.769   1.848   6.088  1.4894 -1.5294 -1.5617
 8343SOL    HW236492   0.701   1.712   6.072  0.9114 -1.1044 -3.9018
 8344SOL     OW36493   1.740   1.385   2.501 -0.6937 -0.0530  0.2007
 8344SOL    HW136494   1.649   1.357   2.504 -0.3915 -0.8569  1.7470
 8344SOL    HW236495   1.772   1.300   2.472 -1.8017 -1.0515  1.9242
 8345SOL     OW36496   3.109   2.802   4.818  0.0827  0.2629 -0.2555
 8345SOL    HW136497   3.175   2.784   4.884 -0.0596 -0.8299 -0.4072
 8345SOL    HW236498   3.072   2.885   4.848 -2.6590 -0.9543 -0.2758
 8346SOL     OW36499   3.895   3.797   4.233  0.4937  0.6396  0.6465
 8346SOL    HW136500   3.952   3.721   4.222  0.3527  0.3114  2.1854
 8346SOL    HW236501   3.946   3.875   4.212 -2.5148  2.0299 -1.3991
 8347SOL     OW36502   4.534   4.329   8.809  0.4816  0.4090  0.3246
 8347SOL    HW136503   4.558   4.237   8.810 -0.5872  0.1510  1.9287
 8347SOL    HW236504   4.476   4.328   8.886 -0.8840 -2.5872 -0.7467
 8348SOL     OW36505   1.182   4.152   8.574 -0.2620  0.2539 -0.9282
 8348SOL    HW136506   1.185   4.066   8.531  1.4522  1.2600 -2.7858
 8348SOL    HW236507   1.119   4.128   8.642 -2.0346  0.8887 -2.3540
 8349SOL     OW36508   3.575   2.313  16.232 -0.1573 -0.5189  0.2565
 8349SOL    HW136509   3.495   2.281  16.275 -1.1644 -0.3691 -1.4894
 8349SOL    HW236510   3.580   2.258  16.153 -1.1588 -0.1367 -0.0751
 8350SOL     OW36511   1.678   3.699  10.149 -0.3651  0.1571  0.2507
 8350SOL    HW136512   1.685   3.762  10.078  2.3688 -1.8892 -1.3193
 8350SOL    HW236513   1.606   3.736  10.200  0.7202  1.4333  0.8527
 8351SOL     OW36514   3.250   3.776   0.279  0.4263 -0.0836 -0.3282
 8351SOL    HW136515   3.193   3.846   0.312  0.0995  1.3277 -3.9130
 8351SOL    HW236516   3.302   3.752   0.356 -0.9349 -0.4426  0.4752
 8352SOL     OW36517   0.024   4.677  12.553  0.9337  0.5441 -0.0791
 8352SOL    HW136518   0.019   0.038  12.512 -0.0766 -0.5877 -2.3609
 8352SOL    HW236519   0.098   4.649  12.499 -0.6663 -3.5898 -0.1804
 8353SOL     OW36520   1.498   3.940   2.943  0.7780  0.4559  0.7454
 8353SOL    HW136521   1.562   3.877   2.912 -1.8521 -2.5529  1.4982
 8353SOL    HW236522   1.533   3.954   3.031 -0.1144  0.4639  1.1005
 8354SOL     OW36523   3.735   2.599  11.485 -0.1806 -0.2084  0.6179
 8354SOL    HW136524   3.784   2.650  11.550 -0.2412  0.5177  0.1045
 8354SOL    HW236525   3.653   2.643  11.460  0.0178 -0.7696 -1.0087
 8355SOL     OW36526   4.414   1.773   7.855  0.5109  0.0790  0.3447
 8355SOL    HW136527   4.393   1.683   7.833 -3.2952  1.0592 -0.1414
 8355SOL    HW236528   4.360   1.777   7.934 -0.0033 -1.1379  0.0535
 8356SOL     OW36529   3.284   4.125  15.602 -0.0712 -0.0970 -0.6073
 8356SOL    HW136530   3.298   4.037  15.565 -0.8255 -0.6687  0.4718
 8356SOL    HW236531   3.230   4.167  15.535 -1.9913 -1.1695  0.2547
 8357SOL     OW36532   4.644   0.897  15.910  0.2744  0.5610  0.8582
 8357SOL    HW136533   4.716   0.948  15.875 -0.0717  0.1455 -0.4591
 8357SOL    HW236534   4.568   0.947  15.878  2.3731  2.9637 -0.3528
 8358SOL     OW36535   0.201   4.598  12.357  0.3177  0.2517 -0.4456
 8358SOL    HW136536   0.150   4.530  12.312  0.4389  0.8465 -1.4718
 8358SOL    HW236537   0.254   4.638  12.289  1.4867 -1.1977 -0.3824
 8359SOL     OW36538   3.024   1.346   8.197 -0.1664  0.0932 -0.6640
 8359SOL    HW136539   3.083   1.417   8.223  1.1302 -1.0969 -0.3684
 8359SOL    HW236540   3.056   1.283   8.262 -0.7659  0.1941 -0.2694
 8360SOL     OW36541   3.815   0.437   3.717 -0.6121  0.1379 -0.0506
 8360SOL    HW136542   3.790   0.529   3.715 -3.4213 -0.5768  2.2067
 8360SOL    HW236543   3.730   0.397   3.700 -0.4511  0.3349 -1.2781
 8361SOL     OW36544   3.140   0.704  15.683 -0.2449  0.3438 -0.2281
 8361SOL    HW136545   3.182   0.783  15.648  0.6471  0.6944  1.6645
 8361SOL    HW236546   3.141   0.730  15.775  0.6385 -1.2178  0.1968
 8362SOL     OW36547   2.835   3.839   6.450  0.0989  0.3197  0.7413
 8362SOL    HW136548   2.865   3.749   6.457  1.1846  0.6842  0.8503
 8362SOL    HW236549   2.912   3.881   6.412  0.5733 -1.6252 -0.4596
 8363SOL     OW36550   0.345   2.572   2.140  0.5374  0.1227  0.3932
 8363SOL    HW136551   0.423   2.625   2.149 -0.8174  2.3756 -1.1866
 8363SOL    HW236552   0.372   2.550   2.051 -2.1186 -2.8884  0.3247
 8364SOL     OW36553   1.262   1.241   1.345 -0.1941 -0.1661  0.0464
 8364SOL    HW136554   1.283   1.323   1.389 -0.1114  0.5146 -1.2870
 8364SOL    HW236555   1.187   1.215   1.399 -1.1722  0.8858 -0.8137
 8365SOL     OW36556   0.052   3.027   8.144  0.0976 -0.6933  0.2408
 8365SOL    HW136557   0.012   2.949   8.106 -0.9898 -0.5557  1.0654
 8365SOL    HW236558   0.088   2.997   8.228  1.4745  0.8734  0.2158
 8366SOL     OW36559   3.772   4.272   0.856 -0.6364  0.1885 -0.1080
 8366SOL    HW136560   3.745   4.277   0.947 -0.0324 -1.1066  0.1459
 8366SOL    HW236561   3.701   4.317   0.810 -0.6127  2.7754  2.4802
 8367SOL     OW36562   1.613   0.925   7.378 -0.3952 -0.2042 -0.1296
 8367SOL    HW136563   1.683   0.864   7.353 -1.7223 -1.3955 -0.9079
 8367SOL    HW236564   1.587   0.898   7.466 -3.0658 -0.6487 -1.0822
 8368SOL     OW36565   1.394   0.773   9.143 -0.1208 -0.0417 -0.2985
 8368SOL    HW136566   1.461   0.724   9.191 -0.0585 -3.4745 -3.9322
 8368SOL    HW236567   1.322   0.710   9.142 -0.5168  0.4200 -0.7756
 8369SOL     OW36568   0.647   4.588   4.729 -1.0125  0.4127 -0.3376
 8369SOL    HW136569   0.614   4.555   4.646 -0.7418 -2.0434  0.5541
 8369SOL    HW236570   0.738   4.557   4.727 -0.7735  0.9737  1.8327
 8370SOL     OW36571   0.209   1.556   3.947 -0.7086 -0.4072  0.5600
 8370SOL    HW136572   0.129   1.576   3.995 -0.9083 -0.1380  0.1255
 8370SOL    HW236573   0.263   1.566   4.025 -0.7779 -0.9083  0.6669
 8371SOL     OW36574   3.478   3.758  15.651 -0.1172  0.5657  0.3811
 8371SOL    HW136575   3.527   3.676  15.657  0.8436  1.0544 -0.6857
 8371SOL    HW236576   3.536   3.822  15.691  1.6012  0.0936 -1.3412
 8372SOL     OW36577   4.594   4.656   2.954 -0.1454  0.0971  0.0210
 8372SOL    HW136578   4.533   4.584   2.972 -0.0168 -0.2319 -0.8493
 8372SOL    HW236579   4.537   0.007   2.961 -1.5534 -0.7683 -1.8733
 8373SOL     OW36580   3.219   1.542  17.010 -0.4441 -0.4391  0.4364
 8373SOL    HW136581   3.305   1.575  16.983 -1.7412  1.1606 -1.7281
 8373SOL    HW236582   3.223   1.555  17.105  0.7386 -0.2377  0.3617
 8374SOL     OW36583   1.441   4.273  10.906 -0.4717  0.6526 -0.6336
 8374SOL    HW136584   1.460   4.364  10.930  1.3099  0.2351 -0.4513
 8374SOL    HW236585   1.528   4.236  10.895 -0.5602  0.2969 -0.1678
 8375SOL     OW36586   4.560   4.051   8.875 -0.8664  0.2722  0.4125
 8375SOL    HW136587   4.509   4.029   8.953  0.2322 -1.1681  0.7131
 8375SOL    HW236588   4.538   3.983   8.811  0.5753  1.4808 -1.3559
 8376SOL     OW36589   3.676   1.188   1.101 -0.0918 -0.0415  0.0922
 8376SOL    HW136590   3.668   1.138   1.019 -0.2560 -0.3127  0.2761
 8376SOL    HW236591   3.733   1.258   1.068  0.7827 -0.2345  1.1968
 8377SOL     OW36592   0.183   3.711   2.750  0.2163 -1.2078 -0.3501
 8377SOL    HW136593   0.092   3.739   2.739  0.8522  1.1861  0.5432
 8377SOL    HW236594   0.174   3.700   2.844 -0.3649 -0.5946 -0.3355
 8378SOL     OW36595   0.093   0.703   4.596  0.0246 -0.1393 -0.1847
 8378SOL    HW136596   0.007   0.663   4.585 -0.4626  1.3118 -1.7081
 8378SOL    HW236597   0.082   0.747   4.680  2.2465 -1.1641  0.6385
 8379SOL     OW36598   3.392   4.370  15.415 -0.3739 -0.0767 -0.3352
 8379SOL    HW136599   3.452   4.299  15.435 -0.4066  0.4955  1.8563
 8379SOL    HW236600   3.323   4.331  15.361 -2.9916  1.8626  1.6012
 8380SOL     OW36601   2.686   4.136   2.142 -0.1853  0.1039  0.2272
 8380SOL    HW136602   2.674   4.199   2.213  1.2738  0.0747  0.5065
 8380SOL    HW236603   2.665   4.059   2.195  1.9156  0.1941  1.2147
 8381SOL     OW36604   1.544   1.873   3.352 -0.0713  0.0956  0.1372
 8381SOL    HW136605   1.469   1.926   3.380  0.7597  0.8097  0.9653
 8381SOL    HW236606   1.500   1.794   3.318  3.0916 -1.0702 -1.2008
 8382SOL     OW36607   3.950   0.817  13.206  0.7484 -0.0585 -0.1707
 8382SOL    HW136608   3.950   0.722  13.201  2.3419 -0.1894  2.0968
 8382SOL    HW236609   4.026   0.838  13.261  0.3532  2.7695 -0.6816
 8383SOL     OW36610   3.751   1.548  10.253  0.0847  0.4726 -0.1111
 8383SOL    HW136611   3.706   1.467  10.278 -0.5859  0.0946 -2.5376
 8383SOL    HW236612   3.804   1.554  10.333  0.4301  0.2959 -0.3247
 8384SOL     OW36613   1.610   0.525  17.676  0.0765  0.2239 -0.3897
 8384SOL    HW136614   1.541   0.591  17.678 -0.1448 -0.0346  0.6789
 8384SOL    HW236615   1.561   0.443  17.666 -0.4349  0.5498 -0.5109
 8385SOL     OW36616   0.534   2.098   3.807  0.3130 -0.5741  0.0984
 8385SOL    HW136617   0.570   2.052   3.731  0.4943  1.9311 -1.3404
 8385SOL    HW236618   0.604   2.100   3.872  0.9868  2.2666 -0.7037
 8386SOL     OW36619   3.530   1.099   6.943 -0.0236 -0.3282  0.2928
 8386SOL    HW136620   3.482   1.103   6.860  0.3301  0.9412  0.1553
 8386SOL    HW236621   3.452   1.098   6.999 -1.2867  0.3740 -1.4677
 8387SOL     OW36622   4.478   2.028   3.891  0.1713 -0.7837  0.5314
 8387SOL    HW136623   4.536   1.996   3.823  0.6933  2.7581 -0.6698
 8387SOL    HW236624   4.513   2.117   3.904 -0.1868 -0.7932  1.6140
 8388SOL     OW36625   1.081   1.805   2.613  0.3410  0.0540  0.2690
 8388SOL    HW136626   1.009   1.861   2.586 -0.5452 -1.2138 -0.0185
 8388SOL    HW236627   1.031   1.735   2.655 -1.7815  2.5741  1.9530
 8389SOL     OW36628   3.117   3.380   8.033 -0.3813  0.0426 -0.1784
 8389SOL    HW136629   3.138   3.414   8.120  2.1854  0.3595 -0.9033
 8389SOL    HW236630   3.202   3.397   7.990  0.2409  1.1367  1.4743
 8390SOL     OW36631   1.573   0.054  16.323  0.3304  0.4420 -0.2334
 8390SOL    HW136632   1.552   4.687  16.329  0.0296  0.4679 -0.8890
 8390SOL    HW236633   1.604   0.064  16.233 -0.0973  0.8723 -0.3363
 8391SOL     OW36634   2.053   3.475   6.326 -0.2013  0.2874  0.1890
 8391SOL    HW136635   2.051   3.396   6.272  4.8565  1.0013 -1.0256
 8391SOL    HW236636   2.009   3.447   6.406 -1.6096 -1.1859 -1.0862
 8392SOL     OW36637   2.811   2.840   6.993  0.4206  0.0169 -0.5375
 8392SOL    HW136638   2.784   2.748   7.004  1.1512  0.0484  1.5386
 8392SOL    HW236639   2.730   2.890   6.988  0.5999  0.1756 -1.7703
 8393SOL     OW36640   0.213   3.366   8.395  0.0978 -0.4910  0.2900
 8393SOL    HW136641   0.133   3.334   8.352 -0.3813  0.7445  0.2774
 8393SOL    HW236642   0.176   3.360   8.483  0.0491  0.3843  0.3238
 8394SOL     OW36643   1.070   0.548   7.593 -0.2483  0.6116  0.5360
 8394SOL    HW136644   1.129   0.608   7.640  0.6169  0.1206  0.0815
 8394SOL    HW236645   1.114   0.465   7.611  1.5084  1.1774 -1.1604
 8395SOL     OW36646   0.526   1.700  10.174  0.5281  0.1317  1.0493
 8395SOL    HW136647   0.526   1.678  10.267  0.1140  0.0240  1.0254
 8395SOL    HW236648   0.616   1.677  10.151  0.5637 -0.1611  1.4840
 8396SOL     OW36649   3.104   2.817   6.084  0.0528  0.4300 -0.3200
 8396SOL    HW136650   3.090   2.734   6.039 -0.8940  0.3569  0.1063
 8396SOL    HW236651   3.180   2.793   6.137  0.3192  2.9007  0.4202
 8397SOL     OW36652   3.076   1.240   6.516  0.2661  0.7957 -0.3789
 8397SOL    HW136653   2.995   1.199   6.485  0.4552 -1.0245  1.5262
 8397SOL    HW236654   3.048   1.327   6.544  2.5295  1.4863 -0.2757
 8398SOL     OW36655   2.825   0.547   1.440  0.4268  0.3115  0.2093
 8398SOL    HW136656   2.841   0.489   1.514  0.2492  0.9466  0.7448
 8398SOL    HW236657   2.812   0.477   1.376  2.2257 -0.0163  0.1986
 8399SOL     OW36658   3.289   3.888  10.689 -0.5092 -0.1120 -0.3715
 8399SOL    HW136659   3.310   3.978  10.716 -1.0978  0.6457 -2.4329
 8399SOL    HW236660   3.354   3.833  10.733 -1.3867  0.6968  1.9214
 8400SOL     OW36661   2.548   2.286  11.380  0.6103  0.1962  0.2246
 8400SOL    HW136662   2.528   2.342  11.455 -1.1176  0.8232 -0.6924
 8400SOL    HW236663   2.556   2.349  11.307 -1.3520  1.5444  1.1666
 8401SOL     OW36664   1.274   4.190   0.843  0.1820 -0.1575  0.3522
 8401SOL    HW136665   1.201   4.245   0.869 -0.8581  0.1934 -3.2649
 8401SOL    HW236666   1.327   4.203   0.921  0.1115  0.4182  0.3052
 8402SOL     OW36667   2.718   4.355   8.185  0.0409  0.1502 -0.5684
 8402SOL    HW136668   2.791   4.401   8.144 -0.1977 -0.6060 -1.8141
 8402SOL    HW236669   2.655   4.375   8.116 -0.2639  0.5078 -0.1888
 8403SOL     OW36670   3.133   2.001  12.697  0.3756  0.1076 -0.2402
 8403SOL    HW136671   3.126   1.923  12.752 -2.1773 -0.0356 -0.7657
 8403SOL    HW236672   3.214   1.978  12.653  0.5661 -0.9220  0.6496
 8404SOL     OW36673   0.397   4.184  13.976  0.5277  0.3568  0.0357
 8404SOL    HW136674   0.381   4.231  14.058  0.7431 -0.6855  0.6857
 8404SOL    HW236675   0.401   4.257  13.915  1.4941 -0.8221 -1.3241
 8405SOL     OW36676   3.446   2.626   1.010  0.5028  0.3796 -0.9263
 8405SOL    HW136677   3.418   2.535   1.001  0.8759  0.1856 -0.0910
 8405SOL    HW236678   3.384   2.679   0.960  0.5419  0.0214 -1.3499
 8406SOL     OW36679   1.580   0.403   3.231  0.2616  0.3201  0.6692
 8406SOL    HW136680   1.488   0.378   3.237  0.8130 -2.1594 -1.2248
 8406SOL    HW236681   1.596   0.428   3.322  0.3794 -0.2435  0.8007
 8407SOL     OW36682   4.622   1.278  14.082  0.0366 -0.6525 -0.5991
 8407SOL    HW136683   4.686   1.314  14.143  0.6472  0.4384 -1.8680
 8407SOL    HW236684   4.654   1.188  14.070  0.9240 -0.4641  0.3671
 8408SOL     OW36685   3.873   1.011  16.374  0.3892 -1.1555  0.1153
 8408SOL    HW136686   3.847   0.919  16.367  0.1029 -1.0919  0.3094
 8408SOL    HW236687   3.934   1.019  16.301  1.8678 -2.2411  1.2201
 8409SOL     OW36688   4.599   1.259   6.343 -0.0533  0.4604 -0.2004
 8409SOL    HW136689   4.627   1.297   6.259 -0.2565 -3.4349 -2.0254
 8409SOL    HW236690   4.613   1.166   6.325 -0.1162  0.7615 -1.8431
 8410SOL     OW36691   1.623   2.730   0.382 -0.0101 -0.4593 -0.2366
 8410SOL    HW136692   1.710   2.690   0.375  0.0582 -0.4868  0.7384
 8410SOL    HW236693   1.594   2.674   0.455 -0.5839 -0.5720 -0.5568
 8411SOL     OW36694   0.987   3.039  10.512 -0.5182  0.0416 -0.0883
 8411SOL    HW136695   0.942   2.971  10.462 -3.0013  0.6223  1.3916
 8411SOL    HW236696   0.961   3.016  10.602 -0.9677  1.2825  0.0987
 8412SOL     OW36697   2.488   3.240   2.341 -0.1642  0.5076 -0.1693
 8412SOL    HW136698   2.445   3.200   2.416  1.9837 -1.1888  0.1615
 8412SOL    HW236699   2.429   3.315   2.331 -1.8421 -0.7614  0.2220
 8413SOL     OW36700   2.223   1.129   6.693 -0.5157 -0.1645 -0.3006
 8413SOL    HW136701   2.281   1.143   6.619 -1.2014  0.9978 -0.6196
 8413SOL    HW236702   2.139   1.116   6.649 -1.3879  0.4065  1.1806
 8414SOL     OW36703   4.164   1.830   8.277  0.7368 -0.0094  0.3591
 8414SOL    HW136704   4.216   1.895   8.324 -2.4901  1.4392  1.8995
 8414SOL    HW236705   4.127   1.774   8.345 -0.4399 -1.2076 -1.2504
 8415SOL     OW36706   4.594   4.648   8.560  0.7465 -0.3204  0.1335
 8415SOL    HW136707   4.593   4.718   8.496  1.2457  0.1188  0.6032
 8415SOL    HW236708   4.530   4.584   8.528 -1.2415  1.8480 -0.2647
 8416SOL     OW36709   0.018   2.548   3.497 -0.3988 -0.7719  0.0217
 8416SOL    HW136710   4.721   2.564   3.589 -0.4535  1.3455 -0.3536
 8416SOL    HW236711   4.716   2.633   3.462  0.6178  0.1092  1.3404
 8417SOL     OW36712   0.434   3.985   0.922  0.1930 -0.0221 -0.1235
 8417SOL    HW136713   0.467   4.074   0.935  3.2702 -1.1880 -0.0822
 8417SOL    HW236714   0.503   3.944   0.870 -0.9454 -1.3038 -0.6318
 8418SOL     OW36715   0.731   0.601   8.167 -0.0329  0.3628  0.1512
 8418SOL    HW136716   0.700   0.603   8.257  1.4271 -1.2059  0.6978
 8418SOL    HW236717   0.821   0.570   8.173  0.1611  0.7346 -0.8281
 8419SOL     OW36718   3.430   1.807   8.616 -0.5918  0.3366  0.2077
 8419SOL    HW136719   3.403   1.818   8.707  1.1363  1.8742  0.5460
 8419SOL    HW236720   3.419   1.890   8.570 -1.8239  0.3077  0.4512
 8420SOL     OW36721   3.040   4.712   8.583 -0.1038  0.4488  0.0940
 8420SOL    HW136722   2.994   0.036   8.651 -0.5449 -1.2935  1.0722
 8420SOL    HW236723   3.102   4.661   8.635  0.8619 -1.5921 -3.0619
 8421SOL     OW36724   3.370   1.973   4.566 -0.4177 -0.2152  0.3610
 8421SOL    HW136725   3.425   1.922   4.626 -1.1537  1.1751  2.2114
 8421SOL    HW236726   3.399   2.061   4.589  1.7577 -0.6856 -0.5223
 8422SOL     OW36727   4.033   3.335   3.013 -0.1470 -0.5841 -0.0292
 8422SOL    HW136728   4.107   3.394   2.995 -1.0920  0.1985 -1.3606
 8422SOL    HW236729   4.036   3.285   2.931  2.3427 -0.3038 -0.1206
 8423SOL     OW36730   0.723   2.007   9.970  0.8501  0.1498  0.0542
 8423SOL    HW136731   0.646   1.965   9.931 -0.3007  0.1440  2.3006
 8423SOL    HW236732   0.666   2.054  10.031  1.2298 -0.8456  1.1709
 8424SOL     OW36733   0.755   1.646  12.012  1.1885 -0.4764 -0.2273
 8424SOL    HW136734   0.765   1.724  11.957  2.3382 -1.4053 -1.3568
 8424SOL    HW236735   0.789   1.583  11.948 -0.8699 -0.6101 -1.1942
 8425SOL     OW36736   3.517   0.518   4.534  0.2294  0.3231  0.3496
 8425SOL    HW136737   3.576   0.592   4.522  0.4406  0.0335 -0.3878
 8425SOL    HW236738   3.485   0.502   4.445  1.7230 -0.3619 -0.0771
 8426SOL     OW36739   1.398   3.345   2.269  0.1742 -0.0352  0.5134
 8426SOL    HW136740   1.427   3.370   2.182  0.7037  1.6936  1.1704
 8426SOL    HW236741   1.427   3.254   2.270 -2.2734 -0.7994  1.7962
 8427SOL     OW36742   1.617   3.459   0.512  0.5078 -0.2693  0.7955
 8427SOL    HW136743   1.670   3.508   0.574 -0.3685  1.2349  0.3587
 8427SOL    HW236744   1.533   3.468   0.557  0.3017 -1.3098  0.6168
 8428SOL     OW36745   4.380   2.127   1.710 -0.2159 -0.6793 -0.1775
 8428SOL    HW136746   4.299   2.077   1.714 -0.4672 -0.2808 -0.3718
 8428SOL    HW236747   4.453   2.065   1.702 -0.1371 -0.6780  0.5262
 8429SOL     OW36748   1.226   3.559   6.226 -0.0689  0.0415  0.5944
 8429SOL    HW136749   1.169   3.495   6.184  1.1865  0.1001 -1.2520
 8429SOL    HW236750   1.158   3.622   6.251 -3.2340 -2.7237 -1.0976
 8430SOL     OW36751   2.343   0.434   7.507 -0.2499 -0.2983  0.4393
 8430SOL    HW136752   2.350   0.431   7.602 -0.9247 -1.9665  0.4407
 8430SOL    HW236753   2.373   0.346   7.485  0.9951  0.3530 -0.4632
 8431SOL     OW36754   4.328   0.469   6.007  0.0056  0.5765 -0.4927
 8431SOL    HW136755   4.364   0.384   5.980 -1.0233  0.0483 -0.2335
 8431SOL    HW236756   4.311   0.500   5.918 -2.1439  0.4731 -0.1397
 8432SOL     OW36757   0.999   4.509  12.179  0.1287 -0.0872  0.4674
 8432SOL    HW136758   1.072   4.479  12.124  0.7331 -0.0742  1.2759
 8432SOL    HW236759   1.027   4.479  12.265  0.7528 -0.3345  0.1865
 8433SOL     OW36760   0.914   2.810   3.980 -0.3673 -0.3872  0.7372
 8433SOL    HW136761   0.842   2.868   4.007 -0.8568 -0.6584  0.0149
 8433SOL    HW236762   0.992   2.866   3.982 -0.0802 -0.7625 -0.3101
 8434SOL     OW36763   3.430   1.683  15.887 -0.1143  0.5139 -0.3033
 8434SOL    HW136764   3.394   1.655  15.971 -2.2154  0.3657 -1.2582
 8434SOL    HW236765   3.466   1.601  15.855  0.0811  0.5074 -0.0704
 8435SOL     OW36766   0.499   2.204   5.509  0.1130  0.1966  0.5269
 8435SOL    HW136767   0.429   2.224   5.570 -1.4803  1.1454 -1.6292
 8435SOL    HW236768   0.458   2.164   5.432 -0.9886 -1.9273  2.2039
 8436SOL     OW36769   3.632   1.505   1.264 -0.2163 -0.3101 -0.1781
 8436SOL    HW136770   3.608   1.532   1.176 -1.6195  1.8014  0.8590
 8436SOL    HW236771   3.715   1.458   1.254  0.5328  0.9466  0.2378
 8437SOL     OW36772   1.124   4.233   9.136  0.7270  0.4807 -0.3793
 8437SOL    HW136773   1.103   4.148   9.174 -2.2253  1.0599 -0.7105
 8437SOL    HW236774   1.210   4.216   9.099  0.8020 -1.6118  0.8013
 8438SOL     OW36775   2.087   4.652   5.968 -0.4473  0.4784  0.0019
 8438SOL    HW136776   2.005   4.608   5.945 -0.9145  1.7671 -0.8121
 8438SOL    HW236777   2.124   4.591   6.031 -0.1132  0.1944 -0.4678
 8439SOL     OW36778   3.375   0.193   3.685  0.9118  0.5077  0.2669
 8439SOL    HW136779   3.400   0.109   3.648 -1.7808 -0.5136  0.7589
 8439SOL    HW236780   3.313   0.172   3.754  0.3249  1.0031 -0.1080
 8440SOL     OW36781   0.011   0.264   3.003  0.2685  0.2933  0.2345
 8440SOL    HW136782   4.663   0.206   3.022  1.8160 -1.7872 -0.0226
 8440SOL    HW236783   0.007   0.327   3.075 -0.1150  0.1680  0.3218
 8441SOL     OW36784   1.489   3.342  11.791  0.0557  0.5734 -0.3645
 8441SOL    HW136785   1.550   3.404  11.831 -1.2723  0.9632  1.0548
 8441SOL    HW236786   1.513   3.348  11.698  1.3764  0.4774 -0.0275
 8442SOL     OW36787   4.102   3.635   4.217  0.6743 -0.0697 -0.1740
 8442SOL    HW136788   4.101   3.608   4.125 -1.2562  0.9942 -0.4701
 8442SOL    HW236789   4.097   3.547   4.253  0.0697 -0.3128 -0.8325
 8443SOL     OW36790   4.371   1.362   4.807  0.4381 -0.3884 -0.2248
 8443SOL    HW136791   4.335   1.425   4.746 -0.6682 -1.2644 -0.4767
 8443SOL    HW236792   4.466   1.362   4.795  0.6141  2.3535  1.2267
 8444SOL     OW36793   4.700   3.492  14.990  0.2106  0.4082  0.1643
 8444SOL    HW136794   4.709   3.403  15.023 -0.9561 -0.0214 -0.7100
 8444SOL    HW236795   4.638   3.476  14.920  2.2869 -2.0935 -1.1269
 8445SOL     OW36796   3.078   4.509   6.233  0.4966 -0.1721  0.0307
 8445SOL    HW136797   3.086   4.507   6.329 -4.4656  0.1500  0.4201
 8445SOL    HW236798   2.984   4.522   6.226  0.6441  0.8926  0.0648
 8446SOL     OW36799   1.039   2.332   2.669 -0.6253  0.1899  0.1365
 8446SOL    HW136800   1.050   2.414   2.716 -0.6907 -0.2286  0.8805
 8446SOL    HW236801   1.111   2.328   2.606  0.2019 -1.1959  1.1664
 8447SOL     OW36802   0.497   2.249   7.562  0.5595  0.0817 -0.2055
 8447SOL    HW136803   0.493   2.238   7.657 -2.8388  1.0574 -0.2442
 8447SOL    HW236804   0.440   2.325   7.552 -1.5534 -0.9556  4.0393
 8448SOL     OW36805   0.781   4.408   0.593  0.6858  0.0363 -0.6051
 8448SOL    HW136806   0.714   4.470   0.564  1.0261 -0.1389 -1.7608
 8448SOL    HW236807   0.787   4.438   0.684  0.3948 -2.5071  0.2411
 8449SOL     OW36808   0.362   4.379   0.206 -0.0459  0.1154  0.1352
 8449SOL    HW136809   0.273   4.346   0.219  0.2340 -0.1219  1.3572
 8449SOL    HW236810   0.355   4.372   0.110 -1.5285 -0.3480  0.2842
 8450SOL     OW36811   0.640   2.682  11.027  0.1563 -0.6579  0.4447
 8450SOL    HW136812   0.702   2.754  11.034 -1.5508  0.8861 -0.2284
 8450SOL    HW236813   0.622   2.666  11.119 -2.6453  1.0848  0.1923
 8451SOL     OW36814   1.333   3.643   5.637  0.1604 -0.0899 -0.4221
 8451SOL    HW136815   1.246   3.645   5.597  0.3597  1.8042 -0.7822
 8451SOL    HW236816   1.322   3.566   5.693  1.6442  0.5360  0.7387
 8452SOL     OW36817   0.415   0.682   9.575  0.4569  0.8754 -0.3078
 8452SOL    HW136818   0.486   0.716   9.629 -2.2567  1.2023  3.0561
 8452SOL    HW236819   0.366   0.762   9.559 -0.5927  0.7541  2.2761
 8453SOL     OW36820   1.653   1.052  14.907 -0.1309  0.0604 -0.0680
 8453SOL    HW136821   1.706   1.068  14.985  0.4220  0.1778 -0.4732
 8453SOL    HW236822   1.672   1.130  14.856 -0.2434  0.6399  0.7804
 8454SOL     OW36823   1.753   3.296   3.266 -0.4355 -0.3551 -0.2869
 8454SOL    HW136824   1.735   3.204   3.251 -3.5786  0.1794  0.1156
 8454SOL    HW236825   1.787   3.318   3.179 -1.2029  0.4879 -0.3802
 8455SOL     OW36826   0.285   1.409   7.032 -0.2442 -0.3427  0.1590
 8455SOL    HW136827   0.241   1.338   7.079 -1.8396  2.5674  3.0492
 8455SOL    HW236828   0.293   1.377   6.942 -0.0229  1.2711 -0.3941
 8456SOL     OW36829   0.903   2.085  11.900 -0.2828 -0.3986  0.0243
 8456SOL    HW136830   0.934   2.093  11.990  0.9657  0.7295 -0.5117
 8456SOL    HW236831   0.821   2.135  11.896 -0.8775 -1.4077 -0.5974
 8457SOL     OW36832   0.046   3.003   1.739 -0.0905 -0.0457 -0.6920
 8457SOL    HW136833   0.031   2.923   1.789  1.5300  0.3417  0.4164
 8457SOL    HW236834   0.130   3.028   1.777 -0.3301  0.1871 -0.3111
 8458SOL     OW36835   4.147   3.984   6.338  0.0417  0.4113  0.0917
 8458SOL    HW136836   4.144   3.890   6.323 -0.3320  0.6476 -1.3655
 8458SOL    HW236837   4.238   4.005   6.314 -0.7854  1.1431 -2.4001
 8459SOL     OW36838   3.647   2.264   7.387  0.1941  0.1914 -0.2339
 8459SOL    HW136839   3.737   2.243   7.362  1.0401  2.4957  0.8037
 8459SOL    HW236840   3.660   2.338   7.447 -0.9470  0.4475 -0.3044
 8460SOL     OW36841   3.866   0.863   3.180 -0.1881 -0.1182 -0.4997
 8460SOL    HW136842   3.781   0.823   3.163 -0.1284  0.3387 -1.8810
 8460SOL    HW236843   3.885   0.890   3.090 -1.7076  0.5806 -0.5999
 8461SOL     OW36844   4.427   3.043  11.965  0.0422 -0.0248  0.3483
 8461SOL    HW136845   4.353   3.067  12.020 -0.3503 -2.2224  0.7638
 8461SOL    HW236846   4.461   3.128  11.937 -0.7002 -0.0834 -0.7299
 8462SOL     OW36847   2.057   4.578  13.511 -0.3276 -0.3551  0.4109
 8462SOL    HW136848   2.115   4.524  13.563  0.0006 -1.2996 -0.9208
 8462SOL    HW236849   2.063   4.536  13.425 -1.0425  2.8753 -1.2101
 8463SOL     OW36850   0.072   1.640  10.010  0.2927  0.5940  0.0705
 8463SOL    HW136851   0.063   1.569   9.945  0.7881  1.5464 -1.0468
 8463SOL    HW236852   0.033   1.597  10.086  0.4501 -1.7890 -1.1818
 8464SOL     OW36853   0.660   0.385  16.811  0.2587  0.0795 -0.6522
 8464SOL    HW136854   0.666   0.295  16.778  1.7764  0.0261 -0.1989
 8464SOL    HW236855   0.700   0.432  16.738  0.8657  1.2045  0.4031
 8465SOL     OW36856   4.268   3.068   7.528 -0.4381 -0.3755 -0.8871
 8465SOL    HW136857   4.241   2.978   7.511 -0.8528 -0.1134 -1.5928
 8465SOL    HW236858   4.285   3.069   7.623 -0.5681  1.1772 -0.8750
 8466SOL     OW36859   4.273   0.434   9.344 -0.4512  0.3462 -0.2626
 8466SOL    HW136860   4.224   0.471   9.270  0.0249  1.0616 -0.2189
 8466SOL    HW236861   4.210   0.419   9.414  1.1336  3.1778  1.7916
 8467SOL     OW36862   0.695   0.736  13.551 -0.1817 -0.1019 -0.3552
 8467SOL    HW136863   0.747   0.659  13.574  3.6191  2.8475  0.8282
 8467SOL    HW236864   0.607   0.701  13.536 -0.2198  0.3493 -1.2092
 8468SOL     OW36865   1.537   2.674   4.198  0.1960  0.3088  0.2006
 8468SOL    HW136866   1.613   2.726   4.225 -1.5506  3.3898 -0.7938
 8468SOL    HW236867   1.471   2.733   4.234 -0.2626  0.0296 -0.1815
 8469SOL     OW36868   0.278   0.834  10.599  0.6933 -0.1150  0.3280
 8469SOL    HW136869   0.268   0.886  10.520  3.1220  1.3340  0.9734
 8469SOL    HW236870   0.200   0.873  10.637 -1.2805 -2.6286 -1.0822
 8470SOL     OW36871   4.314   4.129   4.192  0.0347 -0.1371  0.2820
 8470SOL    HW136872   4.364   4.048   4.187  2.1425  1.1742  0.1453
 8470SOL    HW236873   4.254   4.102   4.121  1.1826 -3.6319  0.6479
 8471SOL     OW36874   0.297   3.858  14.860 -0.1001 -0.4930 -0.6063
 8471SOL    HW136875   0.286   3.767  14.888 -1.3889  0.0292  0.5555
 8471SOL    HW236876   0.327   3.905  14.938 -1.9598 -1.1189  0.4748
 8472SOL     OW36877   2.387   0.931   3.001 -0.2550  0.0265 -0.1254
 8472SOL    HW136878   2.422   1.004   3.052 -1.3388 -0.3841  1.2054
 8472SOL    HW236879   2.428   0.941   2.915 -1.2039 -0.6570 -0.6476
 8473SOL     OW36880   0.472   2.200   6.923 -0.5802  0.6027  0.1860
 8473SOL    HW136881   0.416   2.128   6.894 -0.0317  0.8570 -1.5089
 8473SOL    HW236882   0.552   2.156   6.952 -0.8328  1.6769  2.4592
 8474SOL     OW36883   2.931   2.499   6.784  0.5246  0.0884  0.2090
 8474SOL    HW136884   2.969   2.545   6.859 -0.1064  1.9109 -0.5919
 8474SOL    HW236885   2.925   2.410   6.819 -0.7470  0.0628 -0.0816
 8475SOL     OW36886   1.386   3.259   0.178  0.0551  0.3921  0.0525
 8475SOL    HW136887   1.409   3.210   0.099 -0.8741 -1.3056  0.8370
 8475SOL    HW236888   1.470   3.298   0.202  0.2798  1.6245 -2.7613
 8476SOL     OW36889   0.128   2.739  13.577  0.2374  0.5559 -0.7746
 8476SOL    HW136890   0.117   2.779  13.490  2.2157  2.7854 -0.0038
 8476SOL    HW236891   0.095   2.651  13.559  3.8443 -0.8875 -0.1858
 8477SOL     OW36892   2.656   0.252  14.434  0.2142 -0.0432 -0.1960
 8477SOL    HW136893   2.627   0.274  14.346  1.6271 -1.3173 -0.9726
 8477SOL    HW236894   2.746   0.285  14.439  0.7089 -1.3952 -0.1650
 8478SOL     OW36895   3.400   3.861   9.452  0.0918  0.8749 -0.4095
 8478SOL    HW136896   3.478   3.900   9.493 -0.1476 -1.2775  2.1000
 8478SOL    HW236897   3.426   3.856   9.360  0.0001 -1.6338 -0.2964
 8479SOL     OW36898   0.030   2.130   1.735 -0.2260  0.7919 -0.2347
 8479SOL    HW136899   0.122   2.102   1.731  0.3087  2.5089 -0.2165
 8479SOL    HW236900   0.005   2.141   1.644 -0.7982  0.6698 -0.0891
 8480SOL     OW36901   3.960   2.971   6.478 -0.0118  0.0359  0.2083
 8480SOL    HW136902   4.053   2.955   6.496  0.1734  0.3892 -0.4579
 8480SOL    HW236903   3.953   2.937   6.389 -1.7766  1.4472 -0.1782
 8481SOL     OW36904   0.014   2.785  13.312 -0.0314  0.1353 -0.4266
 8481SOL    HW136905   0.084   2.820  13.257  0.1100  0.7033  0.1166
 8481SOL    HW236906   4.704   2.718  13.254  0.5123  0.7781 -1.5051
 8482SOL     OW36907   0.087   1.124   2.314  0.3582  0.0170 -0.1570
 8482SOL    HW136908   0.042   1.191   2.261 -0.5730 -1.2940 -1.0157
 8482SOL    HW236909   0.171   1.170   2.324  0.3686 -0.0721  0.1580
 8483SOL     OW36910   3.102   1.637   9.830  0.1308  0.0024  0.4836
 8483SOL    HW136911   3.119   1.603   9.918 -1.8487 -2.5986 -0.1368
 8483SOL    HW236912   3.147   1.721   9.836 -1.8858  1.0860  0.5967
 8484SOL     OW36913   2.438   1.617  15.847 -0.1551 -0.1257  0.2834
 8484SOL    HW136914   2.471   1.530  15.825  0.0991 -0.3789  1.6541
 8484SOL    HW236915   2.368   1.633  15.784 -1.4199 -4.6605  0.4837
 8485SOL     OW36916   2.181   2.708   7.542 -0.1256 -0.2215  0.0486
 8485SOL    HW136917   2.275   2.711   7.527 -0.3577  0.0278 -1.4106
 8485SOL    HW236918   2.175   2.613   7.555 -0.1046  0.1513  2.6360
 8486SOL     OW36919   1.899   4.457   1.844 -0.2520  0.4965 -0.2403
 8486SOL    HW136920   1.941   4.462   1.929 -2.4911  3.4629  0.6822
 8486SOL    HW236921   1.901   4.363   1.826  2.7514  0.7251 -1.0836
 8487SOL     OW36922   4.550   3.552   6.183 -0.0431  0.2949 -0.0677
 8487SOL    HW136923   4.512   3.548   6.271  1.8414 -0.8573  0.6887
 8487SOL    HW236924   4.642   3.530   6.200  0.1347  0.2692 -1.0507
 8488SOL     OW36925   3.612   2.247   2.179 -0.7735  0.1856 -0.2930
 8488SOL    HW136926   3.705   2.270   2.170 -0.6001 -0.8319 -1.0947
 8488SOL    HW236927   3.592   2.256   2.086 -2.0863 -1.9536 -0.1996
 8489SOL     OW36928   4.254   2.826  11.146  0.2924  0.1932 -0.0790
 8489SOL    HW136929   4.241   2.900  11.205 -1.5391 -0.4810  0.3415
 8489SOL    HW236930   4.223   2.748  11.191 -0.4331  0.5517  0.0414
 8490SOL     OW36931   1.704   3.045  12.048 -0.3957  0.1474 -0.2620
 8490SOL    HW136932   1.701   2.971  12.108 -0.1730  0.9510  0.7448
 8490SOL    HW236933   1.731   3.012  11.963  0.7874  1.5007 -0.4115
 8491SOL     OW36934   4.511   0.843   9.018 -0.2498 -0.2513 -0.4292
 8491SOL    HW136935   4.481   0.765   8.972  1.2435 -1.2706  0.3247
 8491SOL    HW236936   4.427   0.888   9.015 -0.0441  0.1222 -0.5280
 8492SOL     OW36937   2.923   1.085   0.278  0.3694 -0.2502 -0.1793
 8492SOL    HW136938   2.972   1.109   0.357 -0.4521 -3.2299  1.2064
 8492SOL    HW236939   2.889   1.170   0.249 -0.6821 -1.2547 -1.8848
 8493SOL     OW36940   0.203   2.418  10.345 -0.5742  0.2095 -0.1220
 8493SOL    HW136941   0.231   2.507  10.364  0.0852  0.1204 -0.6493
 8493SOL    HW236942   0.188   2.380  10.431  0.0343  1.6292  0.6025
 8494SOL     OW36943   1.220   3.564  16.054  0.9091 -0.5253 -0.3325
 8494SOL    HW136944   1.203   3.656  16.031 -1.2198 -1.1673 -1.3402
 8494SOL    HW236945   1.187   3.565  16.144 -0.9448  1.5891 -1.0265
 8495SOL     OW36946   3.217   4.596  17.013  0.2344  0.0738  0.2990
 8495SOL    HW136947   3.175   4.631  17.091 -1.3370  0.3197 -0.6422
 8495SOL    HW236948   3.306   4.580  17.043  1.1444  0.4019 -2.1633
 8496SOL     OW36949   1.407   0.343  15.040  0.0607 -0.3480  0.1077
 8496SOL    HW136950   1.413   0.439  15.047 -2.0946 -0.3296  1.7330
 8496SOL    HW236951   1.327   0.339  15.093  0.3414  0.1680  0.5662
 8497SOL     OW36952   3.682   4.589   7.696  0.3561 -0.2084  0.0573
 8497SOL    HW136953   3.740   4.625   7.763  0.9364 -0.7884 -0.1383
 8497SOL    HW236954   3.684   4.663   7.635 -0.6815 -0.5942 -0.4584
 8498SOL     OW36955   2.616   2.326   2.402 -0.3108 -0.8800 -0.2019
 8498SOL    HW136956   2.610   2.267   2.327  3.3188 -0.0139 -1.1669
 8498SOL    HW236957   2.581   2.260   2.462 -1.4964 -0.2578 -0.2190
 8499SOL     OW36958   0.945   0.207   4.635  0.2311  0.7704 -0.1593
 8499SOL    HW136959   1.039   0.223   4.626  0.3346  0.1107 -0.1853
 8499SOL    HW236960   0.915   0.270   4.701  1.3628 -0.0787  1.1429
 8500SOL     OW36961   3.620   2.370   3.227 -0.0080  0.3577 -0.4397
 8500SOL    HW136962   3.561   2.417   3.169  1.9712  1.6185 -1.4040
 8500SOL    HW236963   3.563   2.295   3.245 -0.4394  0.9337  0.6247
 8501SOL     OW36964   1.615   4.524   3.029  0.2247 -0.5435 -0.4775
 8501SOL    HW136965   1.672   4.477   2.969  1.6986 -0.1751  0.6287
 8501SOL    HW236966   1.547   4.560   2.973 -0.5077  0.0704  0.8192
 8502SOL     OW36967   4.322   2.863   6.774  0.5836  0.0806 -0.1177
 8502SOL    HW136968   4.232   2.846   6.803  0.7098  0.9590  0.8017
 8502SOL    HW236969   4.350   2.773   6.789  0.5729  0.1553  0.3651
 8503SOL     OW36970   1.926   1.611   3.578 -0.5153 -0.3544 -0.2501
 8503SOL    HW136971   1.874   1.692   3.577  0.4292  0.2555  0.2925
 8503SOL    HW236972   2.002   1.646   3.624 -0.3908  0.1572 -0.8431
 8504SOL     OW36973   2.069   1.168   5.966 -0.2453  0.0500 -0.7742
 8504SOL    HW136974   2.153   1.153   5.924 -0.1565 -3.0384  0.4811
 8504SOL    HW236975   2.016   1.146   5.889  0.0777 -3.1557 -0.0598
 8505SOL     OW36976   1.880   2.947   7.657 -0.2177 -0.1132 -0.1435
 8505SOL    HW136977   1.800   2.942   7.605 -0.1622  1.6911 -0.4072
 8505SOL    HW236978   1.860   2.955   7.750  1.6190 -0.6847  0.3134
 8506SOL     OW36979   4.601   4.541   1.802  0.1710  0.1434  0.1118
 8506SOL    HW136980   4.594   4.478   1.731  0.1128 -1.2771  1.3692
 8506SOL    HW236981   4.654   4.495   1.867 -1.2751 -1.2188  0.3032
 8507SOL     OW36982   4.397   1.622   3.248 -0.3747 -0.1866 -0.1676
 8507SOL    HW136983   4.482   1.617   3.290 -0.8424 -2.1854  0.5380
 8507SOL    HW236984   4.377   1.529   3.256 -1.8962  0.1392 -0.0433
 8508SOL     OW36985   4.431   4.480   1.230 -0.3777 -0.0658  0.5050
 8508SOL    HW136986   4.505   4.468   1.290  0.2317 -0.4068 -0.3123
 8508SOL    HW236987   4.361   4.432   1.273  1.1597 -2.0583  0.7795
 8509SOL     OW36988   4.006   3.393   9.269 -0.6441 -0.6394 -0.1406
 8509SOL    HW136989   3.954   3.325   9.313 -0.1584  0.0751  1.5512
 8509SOL    HW236990   3.952   3.465   9.300  2.4402  1.0529  1.2494
 8510SOL     OW36991   2.620   1.571   2.664 -0.4114  0.6452 -0.2598
 8510SOL    HW136992   2.553   1.607   2.722 -1.2648 -0.6255 -0.4604
 8510SOL    HW236993   2.699   1.573   2.718 -0.5567  0.7618 -0.0546
 8511SOL     OW36994   4.566   4.353   3.310 -0.0850  0.1386  0.4093
 8511SOL    HW136995   4.495   4.367   3.373 -2.9471 -2.9299 -2.1076
 8511SOL    HW236996   4.559   4.428   3.252  0.3633 -0.1773 -0.0578
 8512SOL     OW36997   3.046   3.791   3.381  0.0714  0.1074 -0.0821
 8512SOL    HW136998   3.056   3.753   3.469 -0.3228  2.1927  0.8864
 8512SOL    HW236999   2.962   3.835   3.388 -0.3664 -0.7617  0.0832
 8513SOL     OW37000   2.005   0.989   5.114 -0.3438  0.3877 -0.2729
 8513SOL    HW137001   2.070   1.029   5.172  1.4445 -1.1441 -1.2359
 8513SOL    HW237002   2.044   0.902   5.102 -2.4310 -0.6974  0.9165
 8514SOL     OW37003   1.170   4.252   9.497  0.1531 -0.4017 -0.2215
 8514SOL    HW137004   1.076   4.270   9.508 -0.1252 -0.5643 -2.3049
 8514SOL    HW237005   1.196   4.216   9.581 -0.3753 -0.7271 -0.1983
 8515SOL     OW37006   2.653   0.548   3.684  0.2082 -0.1474 -0.2601
 8515SOL    HW137007   2.573   0.572   3.731 -0.0682 -0.2477 -0.6712
 8515SOL    HW237008   2.634   0.567   3.592  1.1493  0.2367 -0.3792
 8516SOL     OW37009   3.388   3.031  13.472 -0.6016 -0.4622 -0.1977
 8516SOL    HW137010   3.332   2.986  13.409 -0.6615  2.5893 -2.2942
 8516SOL    HW237011   3.367   2.986  13.554  0.3494 -1.2729 -0.3915
 8517SOL     OW37012   1.393   1.492   3.611 -0.0709  0.2040  0.6670
 8517SOL    HW137013   1.399   1.454   3.524 -1.0788 -0.4407  0.8766
 8517SOL    HW237014   1.484   1.481   3.640  0.5736  0.5370 -1.2232
 8518SOL     OW37015   0.309   1.688   3.272  0.1697  0.6001 -0.1271
 8518SOL    HW137016   0.323   1.594   3.272  3.4710  1.0836 -1.4948
 8518SOL    HW237017   0.255   1.696   3.193 -0.2275 -0.8544 -0.0011
 8519SOL     OW37018   3.889   3.278  14.965 -0.3262  0.3016  0.4216
 8519SOL    HW137019   3.804   3.290  15.006 -1.0529 -1.6846 -0.5067
 8519SOL    HW237020   3.865   3.254  14.875 -1.9127 -1.6047  1.3702
 8520SOL     OW37021   3.866   1.275   3.419 -0.0546  0.3611  0.1974
 8520SOL    HW137022   3.794   1.246   3.363  1.7156 -1.2144 -1.2246
 8520SOL    HW237023   3.828   1.358   3.450  0.7085  0.6968  0.2238
 8521SOL     OW37024   2.790   1.720   6.032  0.0190  0.3363 -0.1280
 8521SOL    HW137025   2.863   1.773   6.064  0.8871 -1.2976  0.5922
 8521SOL    HW237026   2.730   1.787   5.999 -0.0320 -0.1322 -0.9938
 8522SOL     OW37027   2.941   3.265   4.984 -0.3153  0.1825 -0.3400
 8522SOL    HW137028   2.973   3.353   4.962 -2.5530  1.1820  0.4070
 8522SOL    HW237029   2.871   3.252   4.921 -0.0997 -0.2875 -0.4798
 8523SOL     OW37030   3.620   2.070   8.958 -0.6716  0.3051  0.3332
 8523SOL    HW137031   3.559   2.025   8.901  2.7133 -2.0279 -1.4449
 8523SOL    HW237032   3.574   2.153   8.971 -0.5835  0.1517  1.6408
 8524SOL     OW37033   1.945   3.561  14.910  0.2995 -0.2544 -0.4562
 8524SOL    HW137034   1.955   3.480  14.860  0.0343 -1.0708  0.8163
 8524SOL    HW237035   1.996   3.619  14.854  2.2968 -1.3111  0.2572
 8525SOL     OW37036   3.568   1.137   2.050 -0.3304 -0.3769  0.0211
 8525SOL    HW137037   3.641   1.102   2.101 -1.8384 -1.4716  1.4178
 8525SOL    HW237038   3.620   1.182   1.984 -1.5559  0.4160 -0.4126
 8526SOL     OW37039   4.166   2.945  15.226 -0.6840 -0.5624  0.3561
 8526SOL    HW137040   4.225   2.871  15.243 -0.4272 -0.5882 -0.6607
 8526SOL    HW237041   4.096   2.925  15.289 -1.0398  2.6848  1.0021
 8527SOL     OW37042   3.538   3.003  11.224  0.0345 -0.0202 -0.2859
 8527SOL    HW137043   3.517   2.911  11.205 -0.8149 -0.1677  1.3532
 8527SOL    HW237044   3.453   3.030  11.260 -0.2796  0.7077 -1.5798
 8528SOL     OW37045   0.634   1.276   7.397 -0.1641 -0.4461  0.7728
 8528SOL    HW137046   0.624   1.319   7.482 -1.3943 -0.4554  0.6246
 8528SOL    HW237047   0.646   1.184   7.423 -1.5337 -0.0645  2.6714
 8529SOL     OW37048   2.845   3.366  10.406 -0.2971  0.2628  0.3641
 8529SOL    HW137049   2.763   3.380  10.453 -0.4934  1.8728 -0.4477
 8529SOL    HW237050   2.907   3.429  10.442  0.6874 -0.7188  0.3822
 8530SOL     OW37051   4.618   3.486   8.430  0.1066  0.3367 -0.3027
 8530SOL    HW137052   4.653   3.448   8.511 -3.5038 -0.4338  0.9081
 8530SOL    HW237053   4.603   3.408   8.376 -1.0176 -0.7387  1.5773
 8531SOL     OW37054   4.643   1.915   7.197 -0.3125  0.5808 -0.3484
 8531SOL    HW137055   4.558   1.952   7.219 -1.5229 -0.5075 -3.2659
 8531SOL    HW237056   4.666   1.861   7.273  1.9608 -0.1432 -1.5447
 8532SOL     OW37057   0.595   2.340  11.138  0.0422 -0.3051 -0.1252
 8532SOL    HW137058   0.505   2.349  11.107  0.1859  0.1878 -0.4078
 8532SOL    HW237059   0.600   2.415  11.198 -1.3842  0.3645 -0.8454
 8533SOL     OW37060   4.659   1.017  14.292  0.0023  0.0570 -0.6065
 8533SOL    HW137061   4.580   1.018  14.345  0.5180 -1.2150  0.1825
 8533SOL    HW237062   4.707   1.088  14.336  0.8444 -0.2400 -1.0386
 8534SOL     OW37063   4.375   0.027   3.316 -0.1539 -0.0247  0.2765
 8534SOL    HW137064   4.357   0.121   3.314 -1.5409 -0.3137 -0.7600
 8534SOL    HW237065   4.356   0.015   3.409 -0.7695  2.0322  0.3908
 8535SOL     OW37066   3.723   3.025   2.404 -0.4105 -0.5183 -0.7258
 8535SOL    HW137067   3.681   2.939   2.403  1.1877 -1.3085  0.5098
 8535SOL    HW237068   3.682   3.067   2.329 -1.9153  0.2308  0.5125
 8536SOL     OW37069   0.242   4.465   8.385 -0.1345 -0.0491 -0.1354
 8536SOL    HW137070   0.278   4.429   8.465  0.5194 -0.2560 -0.5252
 8536SOL    HW237071   0.240   4.558   8.407 -0.6612 -0.2865  0.7969
 8537SOL     OW37072   4.603   2.002   4.145 -0.0514 -1.1030  0.2837
 8537SOL    HW137073   4.616   2.090   4.110 -2.1044 -0.3483  1.4579
 8537SOL    HW237074   4.533   1.965   4.091 -0.5987 -0.6031  0.6563
 8538SOL     OW37075   2.317   0.552   8.520 -0.3764  0.0444  0.0397
 8538SOL    HW137076   2.243   0.496   8.497 -0.7559  1.5838 -2.4605
 8538SOL    HW237077   2.309   0.561   8.615 -2.3835 -2.7232  0.1580
 8539SOL     OW37078   4.635   4.407  17.352 -0.8454 -0.7365 -0.6679
 8539SOL    HW137079   4.587   4.331  17.382  0.9028 -1.2592  0.8078
 8539SOL    HW237080   4.603   4.408  17.262  0.1415 -1.2069 -1.0257
 8540SOL     OW37081   0.531   0.815  17.342  0.8563 -0.1331 -0.4861
 8540SOL    HW137082   0.442   0.780  17.344  0.1972  1.6783  2.3138
 8540SOL    HW237083   0.576   0.756  17.282  0.0401  1.8864 -3.1023
 8541SOL     OW37084   3.245   3.266   5.238 -0.2172 -0.4650 -0.2597
 8541SOL    HW137085   3.264   3.359   5.237  2.2619 -0.9664 -0.2963
 8541SOL    HW237086   3.264   3.249   5.145  0.6066 -1.9822  0.1869
 8542SOL     OW37087   3.779   1.519   0.519  0.6770 -0.1897  0.3479
 8542SOL    HW137088   3.714   1.480   0.460  0.8115 -0.0097  0.0799
 8542SOL    HW237089   3.761   1.473   0.601  4.5506  0.6647  1.6865
 8543SOL     OW37090   3.193   1.738  13.179 -0.5173  0.0554  0.7149
 8543SOL    HW137091   3.142   1.715  13.257  0.5242  2.7904  2.1962
 8543SOL    HW237092   3.278   1.767  13.211  0.0332 -1.0770  0.3035
 8544SOL     OW37093   1.661   2.527   1.233  0.2406  0.2013 -0.0632
 8544SOL    HW137094   1.694   2.615   1.250  2.5576 -1.1214  2.4187
 8544SOL    HW237095   1.645   2.493   1.322  0.0977  0.9972  0.2125
 8545SOL     OW37096   0.406   2.544   5.716  0.0131 -0.2513  0.1311
 8545SOL    HW137097   0.390   2.451   5.703  0.1081 -0.2935  0.3224
 8545SOL    HW237098   0.490   2.529   5.758  0.8810 -0.5736 -1.7193
 8546SOL     OW37099   1.265   4.317   0.159 -0.7621 -0.4287 -0.0412
 8546SOL    HW137100   1.320   4.275   0.092  0.1254 -1.7911  1.5338
 8546SOL    HW237101   1.245   4.403   0.123  0.3983  0.0273  0.4039
 8547SOL     OW37102   3.820   4.521   3.551  0.0927 -0.5438 -0.0071
 8547SOL    HW137103   3.851   4.519   3.461  2.0403  0.8659  0.6239
 8547SOL    HW237104   3.902   4.516   3.601  0.2892 -0.8213 -0.3534
 8548SOL     OW37105   1.201   3.520   1.696 -0.2746 -0.5081  0.3852
 8548SOL    HW137106   1.141   3.571   1.750 -1.2922 -1.6002  0.2793
 8548SOL    HW237107   1.152   3.485   1.621  1.3394  1.9353 -1.7845
 8549SOL     OW37108   2.660   4.571   5.838 -0.2187  0.4942  0.4115
 8549SOL    HW137109   2.648   4.499   5.776 -0.9904  0.4909  0.5612
 8549SOL    HW237110   2.595   4.548   5.905 -0.5987 -0.2916 -0.2195
 8550SOL     OW37111   4.040   4.265  13.763 -0.1396  0.5325  0.1179
 8550SOL    HW137112   4.087   4.347  13.780  2.1258 -0.2654 -2.3338
 8550SOL    HW237113   4.103   4.220  13.707 -0.9532  1.0794 -1.2383
 8551SOL     OW37114   1.886   2.769  11.029 -0.0016  0.2882  0.2107
 8551SOL    HW137115   1.971   2.738  11.060 -0.4986  0.0541  1.3418
 8551SOL    HW237116   1.904   2.857  10.997 -0.6800 -0.2144 -1.5425
 8552SOL     OW37117   0.018   4.028  11.026 -0.1253 -0.2147  0.3200
 8552SOL    HW137118   4.720   4.050  10.936 -0.5318  0.7265  0.6484
 8552SOL    HW237119   0.112   4.046  11.030 -0.4634  1.5327  0.4827
 8553SOL     OW37120   3.593   0.573  11.372  0.2923  0.0169  0.1456
 8553SOL    HW137121   3.570   0.618  11.291  1.6506 -0.3383 -0.4381
 8553SOL    HW237122   3.643   0.644  11.412  1.5883 -2.0809  2.2679
 8554SOL     OW37123   3.363   3.266   1.235  0.3476  0.1577  0.3116
 8554SOL    HW137124   3.416   3.330   1.189  2.2264 -1.0550  0.7851
 8554SOL    HW237125   3.405   3.182   1.217 -0.0129  0.2194 -0.7912
 8555SOL     OW37126   4.620   0.059   2.567 -0.5106  0.0184  0.5069
 8555SOL    HW137127   4.685   0.076   2.635  0.9892 -0.8180 -0.7157
 8555SOL    HW237128   4.540   0.075   2.618 -0.5844 -1.3308  0.8104
 8556SOL     OW37129   0.774   2.283   6.655  0.1316  0.1382 -0.7375
 8556SOL    HW137130   0.829   2.320   6.586 -1.2926  0.9288 -1.4410
 8556SOL    HW237131   0.838   2.241   6.713  0.0680  0.0273 -0.7467
 8557SOL     OW37132   1.950   4.706   7.601  0.6322 -0.5533 -0.1479
 8557SOL    HW137133   1.980   0.059   7.646 -2.6323  1.0297 -0.6805
 8557SOL    HW237134   1.895   4.669   7.670 -1.1101  0.5016 -0.9761
 8558SOL     OW37135   4.400   3.968   3.785  0.4979 -0.8853  0.3045
 8558SOL    HW137136   4.471   4.009   3.736 -0.4203  2.2489  1.6247
 8558SOL    HW237137   4.355   3.928   3.711 -2.0750 -0.9619  1.8863
 8559SOL     OW37138   1.743   2.250   1.969  0.0737 -0.6083  0.5319
 8559SOL    HW137139   1.745   2.280   2.060 -0.5764  1.4545 -0.1364
 8559SOL    HW237140   1.653   2.218   1.957 -1.6427  3.4891  2.4457
 8560SOL     OW37141   1.294   1.463  12.873 -0.0067 -0.1452 -0.2266
 8560SOL    HW137142   1.312   1.378  12.832  0.0094  0.6863 -1.9565
 8560SOL    HW237143   1.272   1.503  12.789  0.8241 -1.2899 -0.9952
 8561SOL     OW37144   2.840   2.068   7.040  0.0782  0.3367  0.3997
 8561SOL    HW137145   2.904   1.997   7.030  0.6836  0.7420  1.4220
 8561SOL    HW237146   2.756   2.022   7.039  0.1088  0.2854  0.1711
 8562SOL     OW37147   2.954   0.639   7.908  0.2427  0.5649  0.0287
 8562SOL    HW137148   2.981   0.558   7.951 -3.0785  0.6619  2.3053
 8562SOL    HW237149   2.889   0.667   7.972  0.1874  0.3002  0.0891
 8563SOL     OW37150   0.537   3.673   7.518  0.3119  0.5700 -0.0247
 8563SOL    HW137151   0.503   3.734   7.452  0.9560 -0.6850 -1.5311
 8563SOL    HW237152   0.630   3.694   7.510  0.0888  0.6479 -2.4904
 8564SOL     OW37153   1.474   1.011  12.013  0.2410 -0.0466  0.0137
 8564SOL    HW137154   1.386   1.006  12.050 -0.0733  0.1188 -0.7140
 8564SOL    HW237155   1.461   1.060  11.932 -0.1426  2.1612  1.4012
 8565SOL     OW37156   1.254   2.652   3.911  0.5327 -0.5507  0.1512
 8565SOL    HW137157   1.218   2.587   3.851  0.1521  0.8035 -1.0748
 8565SOL    HW237158   1.196   2.658   3.987 -1.0240  0.3153 -1.1184
 8566SOL     OW37159   4.477   2.339  14.058  0.5341 -0.3415 -0.0607
 8566SOL    HW137160   4.428   2.370  13.982  0.1472 -0.4164  0.1631
 8566SOL    HW237161   4.402   2.290  14.091  0.2888 -0.5559 -0.9256
 8567SOL     OW37162   1.968   0.894  16.794  0.2468 -0.0710  0.0694
 8567SOL    HW137163   1.999   0.803  16.792 -4.0297 -1.5373  0.4003
 8567SOL    HW237164   1.982   0.904  16.888  0.5953 -1.5944  0.1875
 8568SOL     OW37165   2.870   4.237   2.570  0.7178  0.5018  1.1045
 8568SOL    HW137166   2.811   4.312   2.567 -0.5222 -0.4760  1.2026
 8568SOL    HW237167   2.810   4.171   2.538  0.5404  0.9941  0.4200
 8569SOL     OW37168   1.861   4.191   9.055 -0.1418  0.3805  0.0878
 8569SOL    HW137169   1.871   4.110   9.104  0.0767 -0.3625 -1.1752
 8569SOL    HW237170   1.800   4.167   8.985  3.7200 -1.9513 -2.4479
 8570SOL     OW37171   3.264   0.202   5.406 -0.5593 -0.0046  0.0361
 8570SOL    HW137172   3.178   0.169   5.433 -0.3727  0.7967  1.6405
 8570SOL    HW237173   3.303   0.212   5.493 -0.5137  0.1836 -0.0051
 8571SOL     OW37174   3.904   2.936   3.340  0.0845 -0.3268  0.3432
 8571SOL    HW137175   3.932   2.961   3.252 -2.6582 -0.5919 -0.6091
 8571SOL    HW237176   3.840   2.870   3.314  0.1428 -0.3271  0.2015
 8572SOL     OW37177   1.527   1.748   4.753 -0.3155 -0.0128 -0.5169
 8572SOL    HW137178   1.523   1.702   4.669  0.9622  0.0065 -0.5842
 8572SOL    HW237179   1.460   1.811   4.725  0.2875  2.1158  2.7201
 8573SOL     OW37180   2.411   2.513   4.174  0.0820 -0.5891 -0.6856
 8573SOL    HW137181   2.377   2.602   4.173  0.5151 -0.4013  0.5820
 8573SOL    HW237182   2.436   2.505   4.082  0.5995  3.8499 -0.9275
 8574SOL     OW37183   1.734   1.080   3.121 -0.2744  0.6286  0.3406
 8574SOL    HW137184   1.791   1.058   3.047 -0.2965  0.4694  0.3710
 8574SOL    HW237185   1.790   1.099   3.196 -0.5997  1.8397  0.2887
 8575SOL     OW37186   2.444   4.715  12.809 -0.5203  0.3534 -0.3979
 8575SOL    HW137187   2.512   4.669  12.761 -0.3705 -0.7151  0.8394
 8575SOL    HW237188   2.467   4.692  12.899 -2.0366  0.1459 -0.0501
 8576SOL     OW37189   1.654   1.633  12.623  0.3280 -0.0318  0.1746
 8576SOL    HW137190   1.579   1.585  12.588 -0.8902  1.2059  1.0536
 8576SOL    HW237191   1.681   1.563  12.682  1.5515  1.0752  0.9327
 8577SOL     OW37192   3.297   2.003   5.797  0.7144 -0.5612 -0.2532
 8577SOL    HW137193   3.293   2.028   5.889 -1.6955  0.2006 -0.5616
 8577SOL    HW237194   3.218   1.952   5.784  1.1023 -1.5619  1.3854
 8578SOL     OW37195   3.361   3.348   8.467 -0.2138  0.5385 -0.5398
 8578SOL    HW137196   3.319   3.365   8.551  0.0161  1.9560 -0.7078
 8578SOL    HW237197   3.398   3.262   8.488 -0.0182  0.8034  0.2030
 8579SOL     OW37198   4.725   3.717   8.312  0.0140 -0.4108  0.2554
 8579SOL    HW137199   0.050   3.679   8.240 -0.0001 -1.6660  0.9065
 8579SOL    HW237200   4.696   3.636   8.355 -0.0342 -1.8241 -2.4386
 8580SOL     OW37201   2.759   3.382  15.037  0.0413  0.2759  0.0595
 8580SOL    HW137202   2.733   3.297  15.073 -2.7767  2.0447  2.1637
 8580SOL    HW237203   2.733   3.369  14.946  1.6574  1.5014 -0.5767
 8581SOL     OW37204   3.586   1.168  12.197 -0.3504  0.3446  0.4575
 8581SOL    HW137205   3.585   1.262  12.210  0.4146  0.3840  0.2175
 8581SOL    HW237206   3.510   1.152  12.142  0.2541 -1.0817  0.0210
 8582SOL     OW37207   1.380   0.348   5.743 -0.0925 -0.1489 -0.0477
 8582SOL    HW137208   1.339   0.342   5.656  0.3433 -0.1779 -0.2481
 8582SOL    HW237209   1.452   0.286   5.733 -0.4234 -0.6072  0.4447
 8583SOL     OW37210   3.025   0.706   4.798  0.1564  0.1575 -0.5001
 8583SOL    HW137211   3.013   0.796   4.766  0.8238  0.3521 -0.2022
 8583SOL    HW237212   3.120   0.699   4.791  0.0790 -0.8566 -0.4829
 8584SOL     OW37213   1.637   4.329   5.977 -0.0241  0.4546 -0.0323
 8584SOL    HW137214   1.702   4.260   5.965  0.1046  0.3486  1.2338
 8584SOL    HW237215   1.609   4.294   6.061  0.1784 -0.3337 -0.2926
 8585SOL     OW37216   0.899   0.808  14.500 -0.5161  0.9128 -0.1212
 8585SOL    HW137217   0.889   0.752  14.424  0.1531  0.3093  0.2401
 8585SOL    HW237218   0.973   0.772  14.549 -2.2869 -1.1844  1.0201
 8586SOL     OW37219   0.615   0.523   6.526  0.1371 -0.3448  0.2271
 8586SOL    HW137220   0.689   0.484   6.479 -0.2155 -2.5438  1.4556
 8586SOL    HW237221   0.628   0.491   6.616 -0.5044  2.2108  1.2113
 8587SOL     OW37222   1.728   1.994   6.928  0.0552 -0.1976 -0.5003
 8587SOL    HW137223   1.816   1.971   6.899  0.1779 -0.8636  0.4293
 8587SOL    HW237224   1.752   2.046   7.005 -0.9681 -0.2543 -0.1459
 8588SOL     OW37225   4.659   2.497   8.397  0.5502 -0.2956 -0.6201
 8588SOL    HW137226   4.574   2.454   8.410  0.1507  0.4868 -0.6353
 8588SOL    HW237227   4.679   2.462   8.310  0.6285  0.3825 -0.8743
 8589SOL     OW37228   1.247   4.637  12.412 -0.4836  0.3759  0.0094
 8589SOL    HW137229   1.165   4.686  12.416  0.5942  1.9017  3.7201
 8589SOL    HW237230   1.218   4.548  12.435  1.7447 -0.4182 -0.2603
 8590SOL     OW37231   1.779   4.616  11.219  0.5978  0.2349  0.1198
 8590SOL    HW137232   1.793   4.533  11.174 -1.1347 -1.6922  3.2062
 8590SOL    HW237233   1.683   4.622  11.219  0.6088  0.3511  1.0158
 8591SOL     OW37234   1.878   0.775   1.919 -0.4175  0.0942  0.0511
 8591SOL    HW137235   1.933   0.697   1.915 -0.0466  0.2332  2.8462
 8591SOL    HW237236   1.940   0.827   1.970 -1.4381  2.4107 -1.0641
 8592SOL     OW37237   0.256   3.127  13.428 -0.2123  0.0052 -0.5634
 8592SOL    HW137238   0.319   3.196  13.409 -0.7794  1.1987  1.9176
 8592SOL    HW237239   0.293   3.078  13.502 -0.4206 -2.1060 -1.8418
 8593SOL     OW37240   0.902   4.615   6.382 -1.1127  0.3828  0.5130
 8593SOL    HW137241   0.898   4.692   6.439 -0.8072  0.3400  0.5928
 8593SOL    HW237242   0.951   4.558   6.441 -3.1919  0.0241  1.8645
 8594SOL     OW37243   1.160   0.278   9.295  0.2154  0.5449 -0.2592
 8594SOL    HW137244   1.151   0.318   9.208 -1.1115 -0.5535 -0.6150
 8594SOL    HW237245   1.073   0.241   9.306 -0.2470  2.0985  1.3149
 8595SOL     OW37246   3.046   4.325   5.405  0.5687 -0.4152 -0.6768
 8595SOL    HW137247   3.024   4.395   5.467  0.8512 -1.3836  0.5333
 8595SOL    HW237248   3.110   4.275   5.457 -0.1975 -2.0043 -1.2667
 8596SOL     OW37249   0.680   0.122  13.095 -0.0886 -0.2014  0.3918
 8596SOL    HW137250   0.638   0.206  13.076  0.3091 -0.0012  0.3907
 8596SOL    HW237251   0.754   0.131  13.035 -0.4779 -0.3206 -0.1052
 8597SOL     OW37252   4.200   2.349   2.774  0.1648 -0.2013 -0.4286
 8597SOL    HW137253   4.145   2.421   2.806  0.2875 -0.7947  1.0975
 8597SOL    HW237254   4.283   2.395   2.757  1.8116 -3.4175 -1.0949
 8598SOL     OW37255   1.042   2.366   9.780 -0.2581 -0.4964 -0.0216
 8598SOL    HW137256   1.065   2.279   9.748 -0.1246 -0.4849  0.0396
 8598SOL    HW237257   0.970   2.341   9.838  0.1807 -1.2877  0.1854
 8599SOL     OW37258   1.389   0.371  13.603 -0.3182 -0.0078 -0.2693
 8599SOL    HW137259   1.406   0.377  13.509 -0.9787  2.1740 -0.2596
 8599SOL    HW237260   1.436   0.289  13.617  1.5373  1.4784  2.1382
 8600SOL     OW37261   0.407   3.314   5.651 -0.3345 -0.3022 -0.0579
 8600SOL    HW137262   0.337   3.376   5.670  0.1612  0.3719 -0.4475
 8600SOL    HW237263   0.379   3.235   5.698 -0.6146  0.5497  1.2143
 8601SOL     OW37264   4.478   4.544   6.510 -0.3050 -0.5126  0.0201
 8601SOL    HW137265   4.518   4.488   6.577  3.8457  1.2926 -0.9651
 8601SOL    HW237266   4.546   4.545   6.443  0.7301 -0.0606  1.0733
 8602SOL     OW37267   2.960   2.242   4.216 -0.3534 -0.0608  0.2168
 8602SOL    HW137268   3.041   2.192   4.222  0.8327  1.9701  1.1932
 8602SOL    HW237269   2.912   2.199   4.145 -2.0121 -0.2670  1.4879
 8603SOL     OW37270   3.927   0.486  17.655 -0.0237  0.2010 -0.3996
 8603SOL    HW137271   3.985   0.465   0.024  0.0868  2.6322  0.1904
 8603SOL    HW237272   3.869   0.410  17.661  0.2716  0.0401  0.4967
 8604SOL     OW37273   3.530   3.339   4.850 -0.2878  0.4530 -0.0775
 8604SOL    HW137274   3.548   3.427   4.883  2.2189 -1.1185  2.8453
 8604SOL    HW237275   3.602   3.288   4.887 -0.5992  0.6485  0.8006
 8605SOL     OW37276   0.953   1.876  10.410 -0.5002 -0.0047  0.1309
 8605SOL    HW137277   1.033   1.852  10.458  0.2262  0.4474 -0.8549
 8605SOL    HW237278   0.995   1.951  10.368 -0.5666 -0.9891 -1.6819
 8606SOL     OW37279   4.394   4.223   9.684  0.4638 -0.3119  0.2692
 8606SOL    HW137280   4.379   4.306   9.639  0.7658 -0.2711  0.2457
 8606SOL    HW237281   4.368   4.236   9.775  1.7567  2.8684  0.1799
 8607SOL     OW37282   0.244   3.817   3.853 -0.0244  0.2192 -0.0071
 8607SOL    HW137283   0.335   3.828   3.878 -0.2456  1.5287  0.2362
 8607SOL    HW237284   0.205   3.888   3.904 -0.9383 -1.2635  1.3527
 8608SOL     OW37285   3.552   3.008   2.997  0.5692  0.5137  0.0661
 8608SOL    HW137286   3.611   2.991   2.923 -0.8114  1.2185 -1.1853
 8608SOL    HW237287   3.584   3.091   3.031  1.1127  0.6617 -0.7926
 8609SOL     OW37288   0.163   0.179   6.752 -0.2462 -0.0668 -0.0340
 8609SOL    HW137289   0.131   0.268   6.760  0.0794  0.0339  0.1447
 8609SOL    HW237290   0.234   0.189   6.816  0.5843  0.5241 -1.0457
 8610SOL     OW37291   2.857   2.006   4.771 -0.4634  0.0551  0.7200
 8610SOL    HW137292   2.775   2.056   4.764 -0.7811 -0.6257 -0.3687
 8610SOL    HW237293   2.909   2.059   4.832  1.7548 -2.2152  0.8133
 8611SOL     OW37294   3.199   1.545   8.927  0.4953 -0.1807 -0.5683
 8611SOL    HW137295   3.114   1.544   8.972  0.3647  0.5072 -0.7951
 8611SOL    HW237296   3.248   1.607   8.981 -0.0883 -2.2389  2.3586
 8612SOL     OW37297   2.817   2.002   7.463 -0.0445  0.0486  0.1377
 8612SOL    HW137298   2.752   1.943   7.426  0.8802 -1.5912  1.1749
 8612SOL    HW237299   2.765   2.035   7.536  1.1097  1.8725  0.1618
 8613SOL     OW37300   0.079   0.990  10.733 -0.3015  0.4144  0.0322
 8613SOL    HW137301   0.057   0.942  10.812 -0.3519  1.2732  0.5367
 8613SOL    HW237302   0.061   1.081  10.758 -2.3176  0.1987 -0.6180
 8614SOL     OW37303   2.759   0.884   7.354  0.6517  0.2837  0.7161
 8614SOL    HW137304   2.702   0.899   7.278  1.2364 -1.1335 -0.0076
 8614SOL    HW237305   2.715   0.934   7.422  0.7591  0.5927  0.5612
 8615SOL     OW37306   3.124   3.475   2.032  0.5962  0.0683 -0.1081
 8615SOL    HW137307   3.202   3.487   1.978  0.9233 -1.0225  0.1097
 8615SOL    HW237308   3.168   3.403   2.078 -1.7546  0.5435  2.8546
 8616SOL     OW37309   1.831   4.594  12.835  0.3789 -0.1928 -0.0059
 8616SOL    HW137310   1.768   4.547  12.780  0.2298 -2.3392  2.0199
 8616SOL    HW237311   1.889   4.629  12.767  0.3418 -1.4916 -0.7158
 8617SOL     OW37312   1.888   3.274   7.395 -0.0568  0.0228  0.2899
 8617SOL    HW137313   1.939   3.211   7.343 -1.8075 -0.1586 -1.1736
 8617SOL    HW237314   1.807   3.276   7.345  0.0907 -1.7102 -0.0326
 8618SOL     OW37315   3.008   0.873   7.140 -0.4920 -0.1168  0.3618
 8618SOL    HW137316   2.941   0.812   7.108 -0.9575  0.3158  0.5195
 8618SOL    HW237317   2.967   0.959   7.135 -0.5178 -0.1677 -0.3066
 8619SOL     OW37318   2.182   4.394   8.202 -0.5655  0.0718  0.2578
 8619SOL    HW137319   2.101   4.416   8.247 -1.4192 -0.9847 -0.7551
 8619SOL    HW237320   2.174   4.299   8.192 -0.2035  0.0879 -0.2173
 8620SOL     OW37321   3.190   1.445  15.533 -1.3576 -0.2765  0.2930
 8620SOL    HW137322   3.169   1.512  15.598  1.3918  1.6924 -0.8558
 8620SOL    HW237323   3.115   1.450  15.474 -0.2628  0.3746 -1.0356
 8621SOL     OW37324   0.661   1.317   8.133  0.0872  0.5466  0.5105
 8621SOL    HW137325   0.694   1.275   8.212 -0.2808  0.9408  0.8695
 8621SOL    HW237326   0.573   1.339   8.164  0.1781  1.1070  0.3658
 8622SOL     OW37327   2.973   3.950  13.051  0.0682  0.1147  0.1243
 8622SOL    HW137328   3.041   3.912  13.107  1.2305  3.4365  0.9745
 8622SOL    HW237329   2.999   3.918  12.964  1.4867  0.9972  0.2229
 8623SOL     OW37330   3.484   1.428   6.841  0.0932 -0.2054 -0.0575
 8623SOL    HW137331   3.498   1.455   6.932  0.5439 -0.5497 -0.0240
 8623SOL    HW237332   3.571   1.448   6.807 -0.9587  2.0269 -1.4054
 8624SOL     OW37333   0.698   4.152   9.568  0.5118 -0.1604 -0.3693
 8624SOL    HW137334   0.632   4.212   9.534  0.5348  0.7378  1.2328
 8624SOL    HW237335   0.692   4.164   9.662  0.2056  3.5376 -0.8690
 8625SOL     OW37336   0.637   3.053   3.429 -0.2626 -0.1663  0.4803
 8625SOL    HW137337   0.662   2.985   3.367  3.0458 -0.4827  2.1836
 8625SOL    HW237338   0.557   3.010   3.461 -0.2548  0.0413  0.7888
 8626SOL     OW37339   3.793   0.696   3.717 -0.2556 -0.3052 -0.4521
 8626SOL    HW137340   3.794   0.724   3.626  2.0416 -2.7132 -1.1480
 8626SOL    HW237341   3.858   0.749   3.763 -0.0179 -1.0517  0.0624
 8627SOL     OW37342   3.805   3.998  15.001  0.1873 -0.4122 -0.1268
 8627SOL    HW137343   3.726   4.008  14.947 -1.1482 -1.5199  1.6273
 8627SOL    HW237344   3.858   4.065  14.958  0.9908 -1.6373 -1.0440
 8628SOL     OW37345   0.114   3.501   7.752  0.3525  0.1600 -0.9130
 8628SOL    HW137346   0.051   3.465   7.691  0.0497  1.7366 -1.5487
 8628SOL    HW237347   0.079   3.485   7.839 -0.8430  0.8062 -1.2752
 8629SOL     OW37348   2.144   2.153  16.115 -0.2529 -0.5996  0.1358
 8629SOL    HW137349   2.086   2.144  16.191 -0.7343 -1.5858 -0.3590
 8629SOL    HW237350   2.094   2.128  16.038 -0.7201 -1.2426  0.6416
 8630SOL     OW37351   1.677   1.675   2.334 -0.0834 -0.1533 -0.2255
 8630SOL    HW137352   1.687   1.662   2.240 -0.3477  1.0789 -0.4264
 8630SOL    HW237353   1.598   1.623   2.351  1.0457 -2.4038 -1.8676
 8631SOL     OW37354   1.625   4.441   7.385  0.0574 -0.7972 -0.2369
 8631SOL    HW137355   1.692   4.494   7.342 -2.3311  0.5264 -2.2729
 8631SOL    HW237356   1.654   4.451   7.476 -1.7061 -2.9229  0.5508
 8632SOL     OW37357   0.083   1.187   9.743 -1.0411 -0.2214  0.3391
 8632SOL    HW137358   0.167   1.190   9.698 -0.1649 -1.1040  1.9329
 8632SOL    HW237359   0.026   1.147   9.677  0.0283 -1.5007  0.2007
 8633SOL     OW37360   2.354   2.558   7.194  0.3465 -0.0384 -0.1360
 8633SOL    HW137361   2.398   2.587   7.274 -0.2552  2.2880 -0.6611
 8633SOL    HW237362   2.290   2.492   7.222 -0.1017  0.7806  0.7645
 8634SOL     OW37363   2.663   1.502   7.288  0.4173  0.4621  0.2006
 8634SOL    HW137364   2.639   1.420   7.246 -1.3311  1.7784 -1.3504
 8634SOL    HW237365   2.597   1.555   7.243  0.3749  0.9179  0.8006
 8635SOL     OW37366   1.028   2.903  13.560 -0.5289 -0.4861 -0.0902
 8635SOL    HW137367   0.977   2.845  13.616  0.6470 -0.5483  0.9301
 8635SOL    HW237368   1.105   2.847  13.553 -2.5553 -3.5001  1.8726
 8636SOL     OW37369   1.938   4.607   3.621  0.1227 -0.3274  0.0690
 8636SOL    HW137370   1.870   4.542   3.637  0.4516 -0.7185 -0.1446
 8636SOL    HW237371   1.982   4.560   3.550 -0.5853 -0.4247 -0.3017
 8637SOL     OW37372   1.836   2.011   8.057 -0.0668 -0.4711 -0.3271
 8637SOL    HW137373   1.766   1.987   7.996 -0.7457  2.2355 -0.6095
 8637SOL    HW237374   1.785   2.077   8.104  0.4409 -0.6941  0.5345
 8638SOL     OW37375   2.998   1.390   4.039  0.3015  0.1831  0.0596
 8638SOL    HW137376   3.009   1.470   4.091  1.3610  0.3585 -0.4345
 8638SOL    HW237377   2.945   1.337   4.098  1.0113  1.4802  1.8631
 8639SOL     OW37378   0.051   1.906   8.727 -0.7360 -0.1301  0.3294
 8639SOL    HW137379   0.012   1.982   8.683 -0.6159 -2.0797 -3.1063
 8639SOL    HW237380   4.698   1.862   8.760 -1.5889  0.7204 -0.5533
 8640SOL     OW37381   4.621   0.805   7.623  0.2368 -0.0504 -0.2643
 8640SOL    HW137382   4.558   0.876   7.611 -1.0738 -1.1778 -0.1082
 8640SOL    HW237383   4.681   0.817   7.550 -1.7223  1.6777 -1.5667
 8641SOL     OW37384   1.356   3.505   0.650  0.7446 -0.1133  0.6475
 8641SOL    HW137385   1.341   3.416   0.682 -0.0384  0.6824  2.4981
 8641SOL    HW237386   1.282   3.519   0.592 -0.5282 -1.4239  1.9745
 8642SOL     OW37387   4.706   1.236   4.171  0.2394  1.2289 -0.0343
 8642SOL    HW137388   4.622   1.260   4.131 -1.2492 -0.0019  2.3198
 8642SOL    HW237389   4.678   1.210   4.259  0.2063  0.7835 -0.1759
 8643SOL     OW37390   2.846   2.193   6.765  0.1203 -0.1335 -0.7208
 8643SOL    HW137391   2.844   2.131   6.838  1.1373 -0.2983 -0.8269
 8643SOL    HW237392   2.897   2.137   6.707  1.1569 -1.4121  1.3962
 8644SOL     OW37393   1.703   3.494   7.625  0.2030  0.4966  0.0138
 8644SOL    HW137394   1.681   3.440   7.701 -2.0809  0.6570 -0.5223
 8644SOL    HW237395   1.618   3.530   7.601  0.2803  0.7757  0.1574
 8645SOL     OW37396   1.169   0.559  15.203 -0.1872 -0.1807 -0.4264
 8645SOL    HW137397   1.110   0.510  15.146 -0.5669 -1.4947  1.0946
 8645SOL    HW237398   1.199   0.486  15.257  2.9247 -0.2464 -2.3071
 8646SOL     OW37399   1.720   3.068   3.126  0.0822  0.4701 -0.7469
 8646SOL    HW137400   1.696   3.095   3.038 -1.3856 -2.2116 -1.1611
 8646SOL    HW237401   1.666   2.990   3.132  3.8865 -2.0330  1.2213
 8647SOL     OW37402   1.652   0.430   9.697  0.1073 -0.4973  0.0002
 8647SOL    HW137403   1.747   0.436   9.702 -0.0008  0.7285  0.6273
 8647SOL    HW237404   1.641   0.394   9.609 -0.7873 -0.8011  0.2294
 8648SOL     OW37405   3.248   2.871   5.431 -0.4999 -0.0429 -0.5255
 8648SOL    HW137406   3.325   2.922   5.406  0.1974  0.1099  2.0025
 8648SOL    HW237407   3.182   2.937   5.412  1.3337  1.6247 -1.1172
 8649SOL     OW37408   1.915   1.832  11.733  0.0117 -0.1633  0.1131
 8649SOL    HW137409   1.833   1.804  11.774  0.7540 -0.9997  1.0212
 8649SOL    HW237410   1.879   1.865  11.651 -1.3104  1.7942  1.4912
 8650SOL     OW37411   3.052   4.452   4.812 -0.5156 -0.2967 -0.2227
 8650SOL    HW137412   3.045   4.417   4.901 -3.4599  1.0415  0.0641
 8650SOL    HW237413   3.090   4.535   4.841  0.9092 -0.9705 -0.1459
 8651SOL     OW37414   1.884   1.288   1.406  0.0494  0.3214  0.8632
 8651SOL    HW137415   1.979   1.281   1.404  0.1141  0.6617  2.7118
 8651SOL    HW237416   1.866   1.202   1.367  0.4991  0.3108  0.6831
 8652SOL     OW37417   0.312   2.488  12.658  0.7021 -0.3710  0.1272
 8652SOL    HW137418   0.256   2.418  12.623  0.8754  0.3728 -1.6241
 8652SOL    HW237419   0.309   2.543  12.580  1.8232  0.8608  0.9472
 8653SOL     OW37420   0.021   1.671  10.950  0.0881 -0.1002  0.2705
 8653SOL    HW137421   0.109   1.705  10.932 -0.2025  0.1428 -0.7257
 8653SOL    HW237422   0.025   1.597  10.889 -2.1413 -0.3591  0.4296
 8654SOL     OW37423   2.202   3.992  11.991  0.2546 -0.1139  0.5610
 8654SOL    HW137424   2.194   4.076  11.946 -1.1264 -0.2163  0.6062
 8654SOL    HW237425   2.296   3.983  12.006  0.6029 -2.9841 -3.3751
 8655SOL     OW37426   3.998   1.771   5.888  0.2267 -0.0798 -0.1456
 8655SOL    HW137427   4.050   1.692   5.876 -1.5374 -1.1142 -0.8810
 8655SOL    HW237428   3.925   1.733   5.839 -0.1572  1.5606 -0.8359
 8656SOL     OW37429   3.441   4.072   2.761 -0.6361  0.0693  0.0735
 8656SOL    HW137430   3.531   4.084   2.731 -0.9551  0.9978 -0.4927
 8656SOL    HW237431   3.407   4.160   2.746  0.3070  0.3130 -0.6741
 8657SOL     OW37432   0.588   4.513   8.919 -0.1536 -0.2927 -0.5069
 8657SOL    HW137433   0.604   4.439   8.977  1.6800  0.6564  0.2322
 8657SOL    HW237434   0.523   4.479   8.858 -0.5733 -1.4127  0.5602
 8658SOL     OW37435   4.685   4.191  15.458 -0.1246 -0.0196  0.3578
 8658SOL    HW137436   0.037   4.142  15.434  0.5632 -0.3997  3.3674
 8658SOL    HW237437   4.676   4.185  15.554 -0.3908  0.6033  0.3747
 8659SOL     OW37438   2.956   4.696   3.225  0.0037 -0.2834 -0.6353
 8659SOL    HW137439   2.990   4.606   3.222 -1.5720 -0.9165  0.4852
 8659SOL    HW237440   2.959   4.706   3.130  2.4721  0.6150 -0.4583
 8660SOL     OW37441   2.667   3.752  17.604  0.2841  0.1066 -0.2277
 8660SOL    HW137442   2.620   3.824  17.563 -1.4226 -1.0085 -0.2577
 8660SOL    HW237443   2.757   3.782  17.613 -0.0513  1.6198 -1.9292
 8661SOL     OW37444   3.241   3.804   7.089 -0.1104 -0.0455  0.0485
 8661SOL    HW137445   3.192   3.861   7.031  1.8467  1.1392 -0.4424
 8661SOL    HW237446   3.331   3.819   7.061  0.9614 -1.0825  2.9399
 8662SOL     OW37447   4.000   0.979   8.611 -0.3429  0.3269 -0.3353
 8662SOL    HW137448   3.941   1.043   8.652 -0.9562 -1.0575  0.9446
 8662SOL    HW237449   4.081   1.022   8.584 -0.5567  0.5312 -0.6458
 8663SOL     OW37450   1.727   3.757   2.871 -0.1676  0.4175 -0.1316
 8663SOL    HW137451   1.794   3.713   2.924 -2.2128 -2.1279  0.3172
 8663SOL    HW237452   1.784   3.800   2.807 -0.0785  2.2850  1.2003
 8664SOL     OW37453   2.387   1.025   8.054  0.2920 -0.4329  0.2643
 8664SOL    HW137454   2.431   0.992   7.976 -0.0499  0.3665 -0.2589
 8664SOL    HW237455   2.342   0.944   8.077  0.1568  0.0351  1.7005
 8665SOL     OW37456   2.707   1.249   1.067  0.5655  0.1980  0.6826
 8665SOL    HW137457   2.775   1.195   1.108  2.1024  2.1337  0.7106
 8665SOL    HW237458   2.754   1.329   1.042 -0.2861  0.9336  1.4773
 8666SOL     OW37459   2.210   1.908   1.394  0.2407 -0.5323 -0.8234
 8666SOL    HW137460   2.141   1.973   1.382  0.2185  0.2394  3.2871
 8666SOL    HW237461   2.248   1.903   1.307 -0.3320 -2.1412 -0.9866
 8667SOL     OW37462   1.510   2.539   3.969  0.3283 -0.1155 -0.2837
 8667SOL    HW137463   1.460   2.612   3.932  1.0931 -0.5311 -2.1439
 8667SOL    HW237464   1.502   2.575   4.057  1.6948  1.3185 -0.7316
 8668SOL     OW37465   1.189   2.597   7.021 -0.2759  0.4647 -0.3730
 8668SOL    HW137466   1.141   2.612   7.102  0.3052 -1.1674  0.2672
 8668SOL    HW237467   1.172   2.508   6.991 -1.5582  1.1476 -1.6740
 8669SOL     OW37468   0.445   2.195   4.288  0.5351  0.2637  0.4720
 8669SOL    HW137469   0.489   2.235   4.363 -0.2542  0.6702  0.7198
 8669SOL    HW237470   0.424   2.271   4.234  2.3496 -1.4747 -2.7200
 8670SOL     OW37471   3.595   3.591   7.818 -0.0507 -0.0728  0.0388
 8670SOL    HW137472   3.652   3.593   7.741 -0.8876  0.3026 -0.5594
 8670SOL    HW237473   3.615   3.674   7.861  1.3862 -0.6319  0.4609
 8671SOL     OW37474   0.290   3.698  12.132  0.9592  0.0133  0.2260
 8671SOL    HW137475   0.323   3.625  12.080  0.8523 -2.0166  2.9940
 8671SOL    HW237476   0.333   3.776  12.098  0.7455 -1.0444 -2.5067
 8672SOL     OW37477   0.129   4.651   2.444  0.0158  0.2495 -0.7222
 8672SOL    HW137478   0.064   4.718   2.464  0.6672  0.4261  0.7988
 8672SOL    HW237479   0.084   4.568   2.456  3.5577 -2.0313 -2.9710
 8673SOL     OW37480   1.265   0.659   7.769  0.0037 -0.0584  0.3444
 8673SOL    HW137481   1.335   0.602   7.802  0.9829  0.5484 -0.7134
 8673SOL    HW237482   1.213   0.674   7.849  1.4959 -0.0003  1.3042
 8674SOL     OW37483   1.509   2.078   6.822  0.4691  0.2746  0.1069
 8674SOL    HW137484   1.580   2.029   6.863 -0.1908 -2.5180 -2.0242
 8674SOL    HW237485   1.483   2.136   6.893 -2.9275  1.7427 -2.3181
 8675SOL     OW37486   2.904   2.782   8.279 -0.6794 -0.6592 -0.0998
 8675SOL    HW137487   2.845   2.844   8.323 -0.2506  0.3424 -0.9258
 8675SOL    HW237488   2.989   2.813   8.308 -0.3716  0.5376 -2.2027
 8676SOL     OW37489   0.069   3.251   2.027  0.8103 -0.2730  0.0478
 8676SOL    HW137490   0.034   3.337   2.048 -0.5974 -0.7749 -0.2571
 8676SOL    HW237491   0.084   3.256   1.932  1.1910 -2.3856 -0.0154
 8677SOL     OW37492   1.311   3.194  12.782  0.6733 -0.1481  0.5849
 8677SOL    HW137493   1.245   3.183  12.850 -0.5910 -1.5211 -0.8814
 8677SOL    HW237494   1.262   3.262  12.735  2.7608  0.9447 -0.0197
 8678SOL     OW37495   1.493   3.449   9.989  0.1336 -0.4590 -0.6696
 8678SOL    HW137496   1.538   3.515  10.042 -0.3537  0.9742 -2.0406
 8678SOL    HW237497   1.438   3.497   9.927  1.5940  2.3103  0.1410
 8679SOL     OW37498   2.928   0.770   6.729  0.0309 -0.5157  0.3034
 8679SOL    HW137499   2.844   0.731   6.706 -1.2320  2.4576 -0.1288
 8679SOL    HW237500   2.975   0.766   6.646  0.3792  2.0020  0.3679
 8680SOL     OW37501   2.824   2.761  13.294 -0.3101 -0.2276  0.1903
 8680SOL    HW137502   2.809   2.846  13.251  1.1678 -0.2865 -0.4363
 8680SOL    HW237503   2.859   2.711  13.220  1.0704  0.4856  0.3505
 8681SOL     OW37504   4.209   1.121   8.529 -0.0211 -0.5598  0.1812
 8681SOL    HW137505   4.241   1.155   8.612 -2.0153 -1.8515  1.4809
 8681SOL    HW237506   4.275   1.152   8.467  0.0684 -1.8899 -0.3969
 8682SOL     OW37507   3.614   1.889   5.920 -0.5328 -0.5380  0.2106
 8682SOL    HW137508   3.608   1.925   5.832  1.1586 -0.1056  0.2746
 8682SOL    HW237509   3.611   1.971   5.970  1.3670 -1.5907  2.1115
 8683SOL     OW37510   0.977   4.660  11.818 -0.2274 -0.1385 -0.2170
 8683SOL    HW137511   0.932   4.716  11.754  0.1034 -0.4511 -0.7225
 8683SOL    HW237512   0.901   4.613  11.853  0.0930  1.3339  2.4700
 8684SOL     OW37513   2.189   1.142  13.113 -0.3491  0.3280 -0.1357
 8684SOL    HW137514   2.201   1.211  13.048  2.1997  0.7889  0.8260
 8684SOL    HW237515   2.139   1.084  13.056  0.0384 -0.5550  0.4189
 8685SOL     OW37516   4.176   2.229  17.050  0.1704 -0.3178 -0.6420
 8685SOL    HW137517   4.236   2.218  16.977  0.9950  0.3300 -0.0589
 8685SOL    HW237518   4.215   2.184  17.125 -0.8337  0.5972  0.4452
 8686SOL     OW37519   2.227   2.749  10.367 -0.3684 -0.6001 -0.4253
 8686SOL    HW137520   2.157   2.777  10.426  0.9162  1.0876  0.3036
 8686SOL    HW237521   2.239   2.660  10.401  0.3863  0.7116  2.7476
 8687SOL     OW37522   1.484   1.702   0.242  0.4236  0.2043  0.4350
 8687SOL    HW137523   1.550   1.669   0.303  0.8691  1.7802  0.7894
 8687SOL    HW237524   1.431   1.627   0.215 -0.3997  0.0688  2.3995
 8688SOL     OW37525   1.274   4.004   4.678  0.5023  0.4241  0.2212
 8688SOL    HW137526   1.256   3.939   4.746 -1.6232  1.9594  1.1383
 8688SOL    HW237527   1.273   3.939   4.607  0.4318  0.4398  0.2081
 8689SOL     OW37528   3.977   2.894  10.997 -0.4401 -0.4869 -0.4955
 8689SOL    HW137529   3.972   2.987  11.018  1.9978 -0.0118 -2.0135
 8689SOL    HW237530   4.055   2.866  11.045 -2.7721 -0.1300  3.4200
 8690SOL     OW37531   2.957   2.707   3.946  0.1985 -0.0619  0.1932
 8690SOL    HW137532   2.992   2.650   4.015 -1.7103 -1.9621 -0.4057
 8690SOL    HW237533   2.960   2.650   3.869 -2.8681  1.6217 -1.1336
 8691SOL     OW37534   4.221   4.325   2.845 -0.2179  0.7074 -0.1202
 8691SOL    HW137535   4.149   4.269   2.814  2.3567 -0.9328 -3.1925
 8691SOL    HW237536   4.286   4.322   2.774  0.5257 -0.7682  0.6206
 8692SOL     OW37537   1.183   3.354   2.915  0.3750 -0.2702 -0.3549
 8692SOL    HW137538   1.266   3.397   2.895  0.2933 -2.2290 -4.9248
 8692SOL    HW237539   1.130   3.397   2.847  0.7495 -0.8865 -1.0416
 8693SOL     OW37540   4.263   2.110   2.158 -0.0757 -0.4354 -0.1569
 8693SOL    HW137541   4.296   2.178   2.099 -0.3004  0.7732  1.1110
 8693SOL    HW237542   4.311   2.133   2.238  0.0894  0.3397 -0.4800
 8694SOL     OW37543   3.879   1.572   6.531 -0.3173  0.2935 -0.0305
 8694SOL    HW137544   3.971   1.591   6.517 -0.2136 -0.4378 -0.3608
 8694SOL    HW237545   3.846   1.565   6.441  3.8346  1.0247 -1.5833
 8695SOL     OW37546   1.591   3.649  13.380  0.1377 -0.3506 -0.2189
 8695SOL    HW137547   1.654   3.621  13.446 -1.4269 -1.1249  0.9426
 8695SOL    HW237548   1.639   3.635  13.299  0.0014  0.1714 -0.3900
 8696SOL     OW37549   2.587   3.594  16.802  0.5326  0.1938  0.3381
 8696SOL    HW137550   2.585   3.499  16.790  0.5742  0.2200  0.1313
 8696SOL    HW237551   2.495   3.619  16.812  1.1115  1.8278  1.4769
 8697SOL     OW37552   0.311   0.016   2.831  0.0056 -0.6833 -0.3751
 8697SOL    HW137553   0.366   0.092   2.849 -2.6002  1.3728 -1.0195
 8697SOL    HW237554   0.336   4.696   2.751 -0.1820 -1.3673 -0.0394
 8698SOL     OW37555   0.792   4.619   1.685 -0.1383  0.2232  0.7278
 8698SOL    HW137556   0.797   4.713   1.668 -0.6197 -0.4324 -2.9561
 8698SOL    HW237557   0.753   4.625   1.772 -0.3739 -0.4432  0.6678
 8699SOL     OW37558   3.242   4.601   6.037  0.4738 -0.5895  0.6449
 8699SOL    HW137559   3.326   4.597   6.083 -0.2874  1.1513  2.1876
 8699SOL    HW237560   3.186   4.577   6.112  0.6531  1.4792  1.4313
 8700SOL     OW37561   1.011   2.023   3.801 -0.2900 -0.3556 -0.3687
 8700SOL    HW137562   1.082   2.088   3.806  1.4800 -2.5180  2.5161
 8700SOL    HW237563   0.997   2.025   3.707  2.8268  0.7843 -0.7963
 8701SOL     OW37564   4.163   0.210  10.487  0.2322  0.1924 -0.0830
 8701SOL    HW137565   4.135   0.153  10.415 -1.1722  1.5633 -0.6136
 8701SOL    HW237566   4.254   0.237  10.472  1.2851 -2.7820  0.8569
 8702SOL     OW37567   3.971   2.866   2.822  0.4295 -0.0981  0.3359
 8702SOL    HW137568   4.047   2.884   2.766 -0.0710 -0.8805 -0.5994
 8702SOL    HW237569   3.942   2.779   2.794 -1.4899  1.3299 -2.1502
 8703SOL     OW37570   4.057   3.074   3.754  0.8238 -0.3605  0.3174
 8703SOL    HW137571   4.104   3.138   3.807  0.6889 -1.5211  1.8636
 8703SOL    HW237572   4.079   2.991   3.796  0.6257  0.7743  2.6566
 8704SOL     OW37573   2.084   2.735   2.977  0.5438 -0.1198 -0.5373
 8704SOL    HW137574   2.096   2.829   2.986  2.3848 -0.2765 -1.4899
 8704SOL    HW237575   1.988   2.734   2.981  0.4942 -0.1398 -1.8511
 8705SOL     OW37576   4.565   4.624   2.352 -0.1145  0.0655  0.0114
 8705SOL    HW137577   4.587   4.685   2.423  0.9373  0.3604 -0.5601
 8705SOL    HW237578   4.530   4.551   2.403  0.2183 -0.6480 -0.7876
 8706SOL     OW37579   1.980   0.568  14.459  0.3071 -0.0668  0.0692
 8706SOL    HW137580   1.931   0.593  14.381 -1.8167 -0.9872  1.0815
 8706SOL    HW237581   1.994   0.658  14.489 -0.1188 -0.5435  1.6995
 8707SOL     OW37582   4.680   3.685   0.562  0.1674  0.0920  0.6147
 8707SOL    HW137583   4.631   3.764   0.585 -0.8859 -0.1704 -0.7433
 8707SOL    HW237584   4.615   3.621   0.589 -1.1685  1.6689  1.1084
 8708SOL     OW37585   0.444   4.638   0.256 -0.3606  0.1458  0.0074
 8708SOL    HW137586   0.440   4.545   0.231 -1.1243  0.2339 -0.2175
 8708SOL    HW237587   0.374   4.641   0.322 -0.5180  1.1505 -0.1991
 8709SOL     OW37588   0.012   0.489   8.001  0.4028 -0.0531  0.9961
 8709SOL    HW137589   4.679   0.436   8.055 -0.6328  0.4113  0.3165
 8709SOL    HW237590   4.677   0.547   7.956  2.4416  0.4466 -1.0707
 8710SOL     OW37591   4.358   0.360   4.619  0.0357 -0.3844  0.0544
 8710SOL    HW137592   4.296   0.409   4.564 -0.1557 -0.7700 -0.0686
 8710SOL    HW237593   4.332   0.270   4.599  1.0006  0.2069 -3.8494
 8711SOL     OW37594   0.745   2.089   5.006 -0.3017 -0.1725 -0.3907
 8711SOL    HW137595   0.821   2.031   5.018  1.1278  1.9466  0.6238
 8711SOL    HW237596   0.770   2.164   5.060  0.5187 -0.4074 -0.4482
 8712SOL     OW37597   0.870   3.926  17.349 -0.2125  0.4644 -0.8802
 8712SOL    HW137598   0.790   3.885  17.318  0.2247 -2.0053  1.2433
 8712SOL    HW237599   0.840   3.999  17.404 -1.6801 -0.0158 -1.0433
 8713SOL     OW37600   3.497   0.086   1.189 -0.2362  0.0375 -0.1004
 8713SOL    HW137601   3.495   4.718   1.209  0.2027  0.2084  0.7111
 8713SOL    HW237602   3.492   0.078   1.093 -0.6881  0.0238 -0.0770
 8714SOL     OW37603   2.143   2.641   8.265 -0.2228  0.0308 -0.1963
 8714SOL    HW137604   2.133   2.660   8.358 -2.8118 -0.7002 -0.3409
 8714SOL    HW237605   2.112   2.551   8.267 -0.3210  0.0625 -0.2684
 8715SOL     OW37606   0.206   4.189   7.014  0.3129  0.8320 -0.5423
 8715SOL    HW137607   0.146   4.264   7.017 -0.4143  0.2791 -1.4075
 8715SOL    HW237608   0.210   4.169   7.107 -2.3075  2.2053 -0.1309
 8716SOL     OW37609   4.348   2.196   7.023  0.1243 -0.1419 -0.1713
 8716SOL    HW137610   4.278   2.244   7.068 -0.9966 -1.4503 -0.5087
 8716SOL    HW237611   4.297   2.128   6.978 -0.7579 -0.9018  1.9782
 8717SOL     OW37612   4.114   2.899   4.802  0.1664  0.4614 -0.1211
 8717SOL    HW137613   4.088   2.938   4.719  0.5617  0.6474 -0.1549
 8717SOL    HW237614   4.093   2.808   4.781  0.3294  0.0608  1.4458
 8718SOL     OW37615   4.237   3.594   4.844 -0.8271  0.0704 -0.2926
 8718SOL    HW137616   4.252   3.506   4.808  0.5646  0.3608 -0.4020
 8718SOL    HW237617   4.177   3.634   4.781 -1.0483 -0.7423 -0.6055
 8719SOL     OW37618   2.299   0.050  12.137 -0.6477  0.2595 -0.0604
 8719SOL    HW137619   2.364   0.121  12.142  1.1941 -1.4297 -0.2026
 8719SOL    HW237620   2.361   4.709  12.110  0.7022  1.8875 -0.9959
 8720SOL     OW37621   0.104   2.562  10.739 -0.2944  0.7101  0.5168
 8720SOL    HW137622   0.100   2.479  10.691 -2.8306  2.3642 -2.1065
 8720SOL    HW237623   0.145   2.526  10.818 -0.0302  2.9810  1.4059
 8721SOL     OW37624   3.006   0.706  15.299  0.1372  0.2023 -0.7024
 8721SOL    HW137625   3.083   0.754  15.268  0.5262  0.6456  1.0005
 8721SOL    HW237626   2.948   0.727  15.225  1.3788 -1.9125 -2.2926
 8722SOL     OW37627   3.161   2.658  12.341  0.4269  0.0565  0.0334
 8722SOL    HW137628   3.253   2.634  12.338  0.1087 -0.9499 -1.5964
 8722SOL    HW237629   3.128   2.633  12.254  0.5317  1.8567 -0.5149
 8723SOL     OW37630   2.408   0.388   6.068  0.8896  0.1753 -0.5895
 8723SOL    HW137631   2.435   0.480   6.074  0.3348  0.3931 -1.5204
 8723SOL    HW237632   2.348   0.391   5.994 -0.0964 -0.7810  0.1667
 8724SOL     OW37633   2.034   0.456   0.361 -0.2981 -0.1326 -0.0024
 8724SOL    HW137634   2.058   0.477   0.452  0.0149 -1.1051  0.1482
 8724SOL    HW237635   2.041   0.361   0.371  0.0524 -0.4236 -3.1763
 8725SOL     OW37636   3.915   0.823   4.971 -0.0624  0.1778 -0.3685
 8725SOL    HW137637   3.838   0.842   5.025  0.1270  1.4017 -0.5341
 8725SOL    HW237638   3.937   0.912   4.945 -1.6244  0.5835 -0.3262
 8726SOL     OW37639   1.136   4.179   3.463  0.1695  0.0210 -0.6046
 8726SOL    HW137640   1.081   4.223   3.399 -1.2714 -0.0735  0.5786
 8726SOL    HW237641   1.107   4.088   3.458 -0.8968  0.1515  3.7398
 8727SOL     OW37642   3.363   1.021   5.651 -0.2450  0.5760  0.1578
 8727SOL    HW137643   3.332   0.968   5.578  0.6265 -0.6443  0.6706
 8727SOL    HW237644   3.375   1.102   5.601  0.9746  0.9421  1.0318
 8728SOL     OW37645   0.839   0.394   7.527 -0.0107  0.5535  0.5986
 8728SOL    HW137646   0.929   0.418   7.550  0.3654 -0.2181 -0.0782
 8728SOL    HW237647   0.821   0.454   7.455  0.2723 -1.3784 -1.0700
 8729SOL     OW37648   2.467   1.031   2.763 -0.1915  0.9602  0.1752
 8729SOL    HW137649   2.419   1.105   2.727  0.2889 -1.5444 -5.5439
 8729SOL    HW237650   2.532   1.019   2.695  0.2115  1.5395  0.4552
 8730SOL     OW37651   1.807   2.852  14.080  0.0521  0.6362 -0.1159
 8730SOL    HW137652   1.759   2.918  14.130  0.1218  0.9703 -0.4871
 8730SOL    HW237653   1.733   2.797  14.052  1.0807  0.0508 -1.7039
 8731SOL     OW37654   2.456   3.295   4.872  0.4700 -0.2239  0.0244
 8731SOL    HW137655   2.423   3.362   4.813  0.5396  0.5248  0.8276
 8731SOL    HW237656   2.384   3.233   4.875 -1.0070  1.5286  1.3210
 8732SOL     OW37657   0.898   0.642   4.530 -0.0181  0.3025  1.1741
 8732SOL    HW137658   0.969   0.705   4.523  0.6642 -0.3238  2.5491
 8732SOL    HW237659   0.940   0.577   4.586 -1.2671 -0.5134  1.1699
 8733SOL     OW37660   4.249   1.373   5.569  0.8895  0.5606 -0.0249
 8733SOL    HW137661   4.299   1.311   5.517  0.0786  0.8702 -1.1824
 8733SOL    HW237662   4.273   1.460   5.538 -0.1494  1.5305  1.8672
 8734SOL     OW37663   3.825   1.953  16.483  0.3391  0.3643  0.4245
 8734SOL    HW137664   3.797   2.044  16.495  0.2397  0.3168  0.5603
 8734SOL    HW237665   3.811   1.943  16.389 -1.1801  0.1730  0.6662
 8735SOL     OW37666   1.160   4.681   9.932 -0.3295  0.0928  0.2329
 8735SOL    HW137667   1.178   4.610   9.870  0.0596  0.7397 -0.3981
 8735SOL    HW237668   1.166   0.024   9.865 -1.8946  0.4207  0.4268
 8736SOL     OW37669   4.054   2.404   1.924  0.1662  0.3751 -0.2126
 8736SOL    HW137670   4.029   2.496   1.919 -3.0817 -0.4725 -0.1017
 8736SOL    HW237671   4.094   2.399   1.837  2.2871 -2.0549  0.8934
 8737SOL     OW37672   3.728   0.417   3.185 -1.2516 -0.1877  0.3598
 8737SOL    HW137673   3.780   0.337   3.188 -0.3196  0.4558  1.4216
 8737SOL    HW237674   3.772   0.468   3.116 -0.0883  0.6222  1.6873
 8738SOL     OW37675   2.366   1.838   5.507  0.1388 -0.3846 -0.3983
 8738SOL    HW137676   2.305   1.849   5.434 -0.8659  0.1885  0.5422
 8738SOL    HW237677   2.383   1.930   5.526 -0.5258  0.2697 -2.8754
 8739SOL     OW37678   2.600   3.293   4.247  0.5877  0.1239 -0.4099
 8739SOL    HW137679   2.578   3.268   4.157 -1.7866  0.3554  0.0923
 8739SOL    HW237680   2.657   3.224   4.279  1.0189  0.5887 -0.1816
 8740SOL     OW37681   3.089   2.802   6.605  0.5295  0.0282  0.4147
 8740SOL    HW137682   3.116   2.790   6.696 -0.7677  1.5553  1.0022
 8740SOL    HW237683   3.018   2.738   6.599 -0.4842  0.9688  2.2081
 8741SOL     OW37684   2.928   1.553  12.784 -0.4549 -0.3179  0.0338
 8741SOL    HW137685   2.911   1.589  12.696 -1.4942  1.6563  1.0446
 8741SOL    HW237686   2.998   1.611  12.814  0.1477  0.4007 -2.7370
 8742SOL     OW37687   2.912   4.649   5.705 -0.3405  0.2175 -0.0561
 8742SOL    HW137688   2.839   4.635   5.765 -1.9002  1.1069 -1.7609
 8742SOL    HW237689   2.972   4.696   5.762 -0.0462 -0.2162 -0.0109
 8743SOL     OW37690   1.405   1.643   6.257 -0.1697 -0.4695  0.3779
 8743SOL    HW137691   1.411   1.702   6.332  2.9578 -0.6866  0.2978
 8743SOL    HW237692   1.461   1.569   6.281  0.2566  0.1456  1.2824
 8744SOL     OW37693   0.161   0.777  13.584  0.3599 -0.0293 -0.3759
 8744SOL    HW137694   0.106   0.837  13.634  0.5684 -0.6409  0.5849
 8744SOL    HW237695   0.092   0.727  13.541  1.2428 -0.8875 -0.8233
 8745SOL     OW37696   3.555   3.072   7.490 -0.0166  0.2141  0.0192
 8745SOL    HW137697   3.491   3.002   7.477  1.7860 -1.5973  1.0004
 8745SOL    HW237698   3.513   3.135   7.431  0.0385  0.6101  0.4052
 8746SOL     OW37699   1.370   0.121   3.095 -0.4140 -0.3556  0.5979
 8746SOL    HW137700   1.455   0.107   3.135  0.5370  1.7539 -0.7321
 8746SOL    HW237701   1.397   0.186   3.031  2.1184 -1.9584  0.0780
 8747SOL     OW37702   4.613   2.090   3.626 -0.2797  0.2029 -0.0218
 8747SOL    HW137703   4.684   2.138   3.585  3.2935 -1.7972  3.8227
 8747SOL    HW237704   4.624   2.007   3.581  0.0182 -0.1454  0.6879
 8748SOL     OW37705   0.060   1.107  16.088  0.0989 -0.1072  0.1558
 8748SOL    HW137706   4.724   1.034  16.087  0.7995 -0.6858 -1.5694
 8748SOL    HW237707   0.144   1.061  16.075  0.6135  0.6737  0.7560
 8749SOL     OW37708   1.863   3.403   8.009 -0.1794 -0.1656  0.0269
 8749SOL    HW137709   1.849   3.425   7.917  1.0626  1.7216  0.2686
 8749SOL    HW237710   1.792   3.452   8.052  1.2339  1.1373  0.8996
 8750SOL     OW37711   3.039   0.411  16.999 -0.1050 -0.1172 -0.6834
 8750SOL    HW137712   2.944   0.417  16.998 -0.0960 -0.0477 -2.8041
 8750SOL    HW237713   3.047   0.317  16.984  0.1430 -0.1794 -0.1627
 8751SOL     OW37714   4.561   1.165   8.143 -0.1856 -0.0990  0.1092
 8751SOL    HW137715   4.601   1.227   8.083  0.4972  0.0146  0.6846
 8751SOL    HW237716   4.594   1.083   8.107  0.2275 -1.0631  2.6536
 8752SOL     OW37717   1.054   4.052  10.882  0.1507  0.4706  0.2689
 8752SOL    HW137718   1.141   4.079  10.853  0.1306 -0.3063 -0.5573
 8752SOL    HW237719   1.079   3.974  10.931 -0.4760 -1.4267 -2.3801
 8753SOL     OW37720   2.508   2.674  16.864 -0.0825 -0.1303  0.8361
 8753SOL    HW137721   2.421   2.712  16.853 -0.4605 -0.5476  2.3339
 8753SOL    HW237722   2.490   2.585  16.835 -1.9035  0.1543  1.1296
 8754SOL     OW37723   0.141   2.836   3.094  0.2408 -0.3179 -1.1781
 8754SOL    HW137724   0.166   2.876   3.177  1.0575  0.8296 -1.9757
 8754SOL    HW237725   0.178   2.903   3.037 -1.2339  0.6894 -0.9298
 8755SOL     OW37726   4.668   4.616   4.126  0.3425 -0.1421 -0.3247
 8755SOL    HW137727   4.628   4.622   4.213  1.6410 -0.6249  0.3085
 8755SOL    HW237728   4.710   4.530   4.138  1.2724  0.0515 -2.2171
 8756SOL     OW37729   1.473   4.662   7.991 -0.0348 -0.3857 -0.3612
 8756SOL    HW137730   1.545   4.722   7.972 -1.5552  1.0358 -1.6458
 8756SOL    HW237731   1.504   4.622   8.072 -1.9478  1.6519  1.3887
 8757SOL     OW37732   3.531   2.216   3.617 -0.0807  0.1856  0.1220
 8757SOL    HW137733   3.510   2.159   3.543 -1.6113 -0.5734  1.1248
 8757SOL    HW237734   3.566   2.155   3.682  0.3309  0.0968 -0.1856
 8758SOL     OW37735   3.960   0.875   2.343  0.6122 -0.3351 -0.0900
 8758SOL    HW137736   3.996   0.963   2.360  1.1444 -0.3055 -1.3711
 8758SOL    HW237737   4.029   0.833   2.293  1.8001  0.9803  0.4175
 8759SOL     OW37738   4.396   1.799  16.668 -0.3286  0.4372  0.0796
 8759SOL    HW137739   4.380   1.728  16.730 -1.3716 -0.2874 -1.0148
 8759SOL    HW237740   4.483   1.830  16.694 -0.4024  0.0838  0.7513
 8760SOL     OW37741   4.160   3.348   9.638  0.3665  0.0321 -0.1107
 8760SOL    HW137742   4.236   3.399   9.612  0.4877 -0.1919 -0.1960
 8760SOL    HW237743   4.100   3.420   9.657  1.0590 -0.0836  2.6184
 8761SOL     OW37744   2.823   0.315  10.496  0.1807 -0.2044 -0.0761
 8761SOL    HW137745   2.825   0.294  10.589 -1.6663 -2.1713 -0.4853
 8761SOL    HW237746   2.860   0.403  10.499 -1.5045  0.5395 -1.0848
 8762SOL     OW37747   0.609   3.613   9.636 -0.3636  1.2525  0.0485
 8762SOL    HW137748   0.620   3.519   9.622 -1.0195  1.8047 -3.9819
 8762SOL    HW237749   0.641   3.621   9.726 -2.6698  1.2573  0.8605
 8763SOL     OW37750   2.148   0.277   6.515  0.0958 -0.6644  0.0487
 8763SOL    HW137751   2.202   0.312   6.445  0.9220 -0.7212  0.6633
 8763SOL    HW237752   2.109   0.353   6.558 -1.7757 -2.1273  1.0043
 8764SOL     OW37753   0.664   2.860   8.053 -0.1807 -0.2284 -0.2547
 8764SOL    HW137754   0.728   2.848   8.123  0.4572 -0.4779 -0.8683
 8764SOL    HW237755   0.714   2.892   7.978 -0.4889 -1.1731 -0.8749
 8765SOL     OW37756   0.996   1.197   0.660  0.3089 -0.8961  0.5950
 8765SOL    HW137757   1.051   1.201   0.582  0.1704  0.0815  0.5406
 8765SOL    HW237758   0.965   1.108   0.646 -0.2872 -0.0863 -3.3241
 8766SOL     OW37759   0.443   0.682   3.179 -0.1725  0.2163  0.6978
 8766SOL    HW137760   0.399   0.597   3.190  2.3781 -1.0875  0.7066
 8766SOL    HW237761   0.464   0.678   3.086 -0.5259  2.4397  0.5143
 8767SOL     OW37762   2.352   0.559   8.804 -0.0266  0.3432 -0.8084
 8767SOL    HW137763   2.419   0.618   8.836 -0.1136  0.3533 -0.6434
 8767SOL    HW237764   2.285   0.626   8.814 -1.7716 -1.2927 -1.3850
 8768SOL     OW37765   0.934   2.692  17.113 -0.6329  0.1461  0.0834
 8768SOL    HW137766   0.874   2.636  17.062 -2.1167  1.1490  0.7483
 8768SOL    HW237767   0.889   2.692  17.197 -0.8494 -1.5113 -0.0225
 8769SOL     OW37768   2.214   4.444   7.934 -0.3466  0.1429  0.0226
 8769SOL    HW137769   2.176   4.439   8.022 -0.3699  2.4149  0.1388
 8769SOL    HW237770   2.233   4.354   7.910  1.2402  0.1885  1.1359
 8770SOL     OW37771   1.273   4.390   4.563 -0.5383  0.3406 -0.0111
 8770SOL    HW137772   1.302   4.471   4.603  1.5433 -0.4960  0.1499
 8770SOL    HW237773   1.323   4.326   4.613 -0.0582  1.8161  1.3968
 8771SOL     OW37774   1.222   3.162   8.042 -0.4339  0.4724  0.3609
 8771SOL    HW137775   1.277   3.141   7.967  1.2700  1.4666  1.3297
 8771SOL    HW237776   1.151   3.206   7.995  1.4317  1.2721 -1.7035
 8772SOL     OW37777   1.363   3.291  10.203  0.1818  0.0817 -0.5492
 8772SOL    HW137778   1.380   3.367  10.148 -1.1078 -0.3867 -1.6064
 8772SOL    HW237779   1.398   3.224  10.145 -1.1917 -1.0612 -0.0679
 8773SOL     OW37780   4.653   0.660   5.639  0.2413  0.2113  0.3371
 8773SOL    HW137781   4.634   0.587   5.579  2.9003 -0.6762  0.5741
 8773SOL    HW237782   4.615   0.736   5.595  0.5557 -1.1573 -2.3217
 8774SOL     OW37783   4.719   3.259   5.232 -0.0363 -0.1667  0.9550
 8774SOL    HW137784   4.625   3.240   5.237 -0.4461  2.1145  2.0813
 8774SOL    HW237785   4.721   3.333   5.293  0.3156  2.0542 -1.7475
 8775SOL     OW37786   3.062   0.655   6.456  0.3220 -0.2213 -0.0663
 8775SOL    HW137787   2.998   0.664   6.385  0.2185 -1.3314 -0.1047
 8775SOL    HW237788   3.145   0.662   6.409  0.6198 -1.5628  0.2738
 8776SOL     OW37789   2.789   3.945   5.237 -0.7162  0.0027 -0.2251
 8776SOL    HW137790   2.814   3.899   5.317 -1.3257 -1.3682 -0.8356
 8776SOL    HW237791   2.807   4.034   5.267 -1.1565 -0.3290  1.0215
 8777SOL     OW37792   2.027   3.772   5.324  0.0515  0.1700  0.1283
 8777SOL    HW137793   1.938   3.742   5.339  0.2332  1.4353  3.6957
 8777SOL    HW237794   2.084   3.699   5.346  1.9205  0.9211 -2.1842
 8778SOL     OW37795   1.714   0.712   4.524 -0.4879  0.4770  0.2193
 8778SOL    HW137796   1.656   0.636   4.534 -0.3925  0.4200  0.3386
 8778SOL    HW237797   1.776   0.667   4.467 -0.5854  0.5702  0.0400
 8779SOL     OW37798   3.118   4.509  10.239  0.2268  0.1519 -0.2545
 8779SOL    HW137799   3.197   4.509  10.294  0.1694  0.7487 -0.1716
 8779SOL    HW237800   3.145   4.557  10.161 -0.5281 -0.0341 -0.6303
 8780SOL     OW37801   0.825   0.659   5.445 -0.3407  0.0438  0.2909
 8780SOL    HW137802   0.863   0.724   5.388  1.2514  0.1350  1.4512
 8780SOL    HW237803   0.752   0.710   5.481 -0.1545  0.0489  0.6687
 8781SOL     OW37804   2.929   2.333   8.303 -0.0096 -0.9383 -0.1534
 8781SOL    HW137805   2.901   2.395   8.235  0.5546  1.9822  2.3107
 8781SOL    HW237806   2.854   2.350   8.359 -1.0879 -0.8236 -1.6401
 8782SOL     OW37807   3.659   0.778   0.392  0.1681  0.0763  0.1546
 8782SOL    HW137808   3.666   0.773   0.297  1.6907 -1.7418  0.3621
 8782SOL    HW237809   3.690   0.866   0.412 -0.1075 -0.2061  1.8838
 8783SOL     OW37810   1.930   0.193   6.889 -0.2478  0.0763 -0.0584
 8783SOL    HW137811   2.003   0.150   6.933 -0.6819 -0.4038  0.1875
 8783SOL    HW237812   1.926   0.152   6.803 -1.5389 -1.8701  0.9494
 8784SOL     OW37813   3.470   1.398  15.419  0.0684  0.1626 -0.1940
 8784SOL    HW137814   3.414   1.322  15.435 -0.5523  0.6424 -0.0936
 8784SOL    HW237815   3.409   1.457  15.374  0.3207  1.8299  1.6160
 8785SOL     OW37816   2.266   4.660   3.683 -0.0059  0.3378  0.0657
 8785SOL    HW137817   2.254   0.028   3.666  2.4636  0.3751 -1.5100
 8785SOL    HW237818   2.223   4.632   3.763 -0.8942 -0.4607 -0.6952
 8786SOL     OW37819   1.051   2.156   6.297 -0.7190 -0.0675 -0.0741
 8786SOL    HW137820   1.020   2.080   6.249  1.7654 -0.7507 -0.5995
 8786SOL    HW237821   1.120   2.116   6.350 -0.6431  2.0485  1.4655
 8787SOL     OW37822   1.770   2.502  17.131 -0.4035  0.2045  0.5992
 8787SOL    HW137823   1.773   2.581  17.078 -0.1738 -0.7640 -0.8124
 8787SOL    HW237824   1.844   2.452  17.099  0.8385  2.5792 -0.2216
 8788SOL     OW37825   3.257   1.496   5.046  0.5435  0.4082 -0.3268
 8788SOL    HW137826   3.189   1.448   5.000  0.7903  0.0677 -0.3350
 8788SOL    HW237827   3.220   1.584   5.053 -0.2490  0.0001  0.5070
 8789SOL     OW37828   3.169   1.344   4.776  0.4997  0.3233  0.6037
 8789SOL    HW137829   3.178   1.290   4.698  0.0610 -0.5757  1.1715
 8789SOL    HW237830   3.111   1.413   4.744 -0.2472 -0.8052 -0.4755
 8790SOL     OW37831   0.922   3.596  13.659  0.1301  0.2386 -0.0153
 8790SOL    HW137832   0.895   3.505  13.652  1.0526 -0.0389  0.0521
 8790SOL    HW237833   0.845   3.641  13.625 -1.0625 -0.7714  1.3490
 8791SOL     OW37834   1.249   1.357   8.819  0.4775 -0.3710  0.2051
 8791SOL    HW137835   1.312   1.287   8.834  0.6120 -0.2552  0.1801
 8791SOL    HW237836   1.297   1.439   8.831 -0.2361  0.0634  0.1217
 8792SOL     OW37837   0.862   2.136  14.813  0.1698  0.3023 -0.0550
 8792SOL    HW137838   0.882   2.044  14.832 -0.3256  0.3109  0.4899
 8792SOL    HW237839   0.928   2.158  14.747  0.1091  1.3097  0.2220
 8793SOL     OW37840   3.367   1.269   8.178 -0.0981  0.6204 -0.2451
 8793SOL    HW137841   3.445   1.321   8.198 -0.4107  0.0615  2.4490
 8793SOL    HW237842   3.342   1.304   8.092  2.2812 -2.0074 -2.0218
 8794SOL     OW37843   2.990   0.756   2.493 -0.2277 -0.5578  0.5199
 8794SOL    HW137844   3.045   0.833   2.476  0.9270 -1.3709  0.5300
 8794SOL    HW237845   2.963   0.755   2.402  2.3349  0.1256 -0.2544
 8795SOL     OW37846   2.685   1.849   3.515 -0.0545 -0.7703 -0.1630
 8795SOL    HW137847   2.756   1.859   3.579  1.2646  1.2836 -1.9424
 8795SOL    HW237848   2.730   1.829   3.433  2.5592  3.6238  0.1784
 8796SOL     OW37849   0.686   2.458   9.745 -0.6681 -0.1830  0.6622
 8796SOL    HW137850   0.625   2.390   9.719  1.9430 -1.8966 -0.9595
 8796SOL    HW237851   0.723   2.418   9.824  2.1892  1.8830  0.3750
 8797SOL     OW37852   1.071   2.124  12.677  0.1556  0.6622 -0.2771
 8797SOL    HW137853   1.117   2.081  12.749 -0.6163  0.7766  0.2937
 8797SOL    HW237854   1.070   2.056  12.609  2.6255 -0.2691  0.5989
 8798SOL     OW37855   1.744   0.287  14.119 -0.6311  1.0957 -0.2722
 8798SOL    HW137856   1.820   0.294  14.062 -0.5740 -1.8136 -0.5365
 8798SOL    HW237857   1.740   0.194  14.139 -3.9077  1.7019  1.9656
 8799SOL     OW37858   3.654   2.441   1.739  0.6256 -0.4523 -0.2676
 8799SOL    HW137859   3.737   2.407   1.707  0.4064 -0.0557 -1.2751
 8799SOL    HW237860   3.660   2.535   1.720  0.1336 -0.2035  0.8103
 8800SOL     OW37861   3.895   1.948   9.382 -0.0443 -0.6789 -0.0655
 8800SOL    HW137862   3.809   1.986   9.365 -0.3662 -0.7261  1.4698
 8800SOL    HW237863   3.953   1.996   9.322  1.0205 -0.5408  1.0765
 8801SOL     OW37864   1.760   1.531   4.572 -0.1951  0.0728  0.3597
 8801SOL    HW137865   1.784   1.556   4.483 -1.3877  0.3892  0.1256
 8801SOL    HW237866   1.666   1.517   4.560 -0.0492  0.2655 -1.0504
 8802SOL     OW37867   1.128   1.277  15.245 -0.3639 -0.1592  0.3011
 8802SOL    HW137868   1.104   1.357  15.291  1.3188 -0.4051  1.6218
 8802SOL    HW237869   1.081   1.210  15.294  2.0361  0.0478  2.9039
 8803SOL     OW37870   1.034   1.418   7.833  0.0753  0.3568 -0.2019
 8803SOL    HW137871   1.118   1.463   7.828  1.7639 -2.4840  2.1518
 8803SOL    HW237872   1.036   1.393   7.926  0.7925 -1.9496 -0.8476
 8804SOL     OW37873   2.058   1.018   1.038 -0.3994 -0.3945  0.2783
 8804SOL    HW137874   2.086   0.951   0.975  2.7291  0.8508  0.3251
 8804SOL    HW237875   2.134   1.039   1.092 -1.1083  1.7893  0.4341
 8805SOL     OW37876   0.369   1.856   4.531 -0.1279  0.2251  0.0816
 8805SOL    HW137877   0.348   1.890   4.444  1.6687  2.5865  0.5748
 8805SOL    HW237878   0.367   1.934   4.586  3.9750  1.5998 -1.7280
 8806SOL     OW37879   4.443   0.195   6.900  0.5242  0.6810 -0.2934
 8806SOL    HW137880   4.427   0.229   6.988 -0.1857  1.4515 -0.7258
 8806SOL    HW237881   4.479   0.106   6.903  1.4130  1.1190  1.7222
 8807SOL     OW37882   2.418   4.601   8.616 -0.0720 -0.1022 -0.1766
 8807SOL    HW137883   2.449   4.558   8.695 -0.0868 -0.2278 -0.2393
 8807SOL    HW237884   2.500   4.623   8.572 -0.5470 -0.3982 -1.2228
 8808SOL     OW37885   0.953   2.116   6.786 -0.5188 -0.1459 -0.2792
 8808SOL    HW137886   1.036   2.131   6.739 -0.6276 -0.5717 -0.6060
 8808SOL    HW237887   0.960   2.030   6.826  1.0217  1.1185  2.1494
 8809SOL     OW37888   3.175   4.580   7.450  1.1228  0.2574  0.5178
 8809SOL    HW137889   3.166   4.509   7.387 -1.2313 -1.6013  2.9888
 8809SOL    HW237890   3.106   4.638   7.417  1.1274  1.1738  2.1101
 8810SOL     OW37891   3.358   2.028   6.630 -0.2931  0.5624 -0.3746
 8810SOL    HW137892   3.268   2.019   6.598 -0.8110 -1.9103  1.7400
 8810SOL    HW237893   3.351   1.956   6.693  2.5045  0.2357 -0.4227
 8811SOL     OW37894   1.456   2.692  10.256 -0.1722 -0.4429  0.0080
 8811SOL    HW137895   1.373   2.647  10.274  0.5744 -1.5705  0.6861
 8811SOL    HW237896   1.450   2.706  10.162 -2.1540  0.5334  0.2900
 8812SOL     OW37897   0.932   0.230   1.946 -0.2382 -0.3251  0.4290
 8812SOL    HW137898   0.960   0.317   1.976  0.7611 -1.0751  1.6767
 8812SOL    HW237899   0.950   0.235   1.852 -2.1102  0.1777  0.0884
 8813SOL     OW37900   2.838   3.247   2.269 -0.2984  0.2226  0.1230
 8813SOL    HW137901   2.784   3.168   2.263 -1.3891  0.9491  0.3791
 8813SOL    HW237902   2.915   3.211   2.313 -1.1905 -2.2562 -0.3412
 8814SOL     OW37903   4.166   0.017   8.594 -0.1208 -0.3908  0.1220
 8814SOL    HW137904   4.086   4.713   8.637 -0.5865 -2.3221 -2.1068
 8814SOL    HW237905   4.199   0.084   8.655 -1.7181  0.2303  0.3215
 8815SOL     OW37906   1.278   1.344  11.588  0.6029 -0.1532  0.7183
 8815SOL    HW137907   1.345   1.356  11.521 -0.8963  2.8618 -0.2339
 8815SOL    HW237908   1.296   1.423  11.639  0.7790  2.1837 -2.9393
 8816SOL     OW37909   1.624   4.011   5.015  0.3221 -0.1883  0.3035
 8816SOL    HW137910   1.655   4.019   4.924  0.1223 -1.5012  0.1217
 8816SOL    HW237911   1.613   4.101   5.045 -2.2965 -1.1759  2.2851
 8817SOL     OW37912   0.624   4.278   1.995  0.4969  0.3337 -0.0765
 8817SOL    HW137913   0.547   4.260   1.942 -0.1567  0.4546  0.8333
 8817SOL    HW237914   0.655   4.189   2.013 -0.7496 -0.2915 -1.0813
 8818SOL     OW37915   0.687   0.664  14.720  0.3960  0.4365 -0.3203
 8818SOL    HW137916   0.718   0.575  14.704  0.2572  0.2820  0.2726
 8818SOL    HW237917   0.620   0.677  14.653  0.3382  0.3863 -0.2728
 8819SOL     OW37918   0.512   1.351   6.805 -0.4387  0.1144  0.1193
 8819SOL    HW137919   0.424   1.381   6.782  0.0502  2.0885  0.8202
 8819SOL    HW237920   0.573   1.391   6.743 -1.1345  1.2321  0.1582
 8820SOL     OW37921   4.293   4.287   7.943  0.5277 -0.2984 -0.7312
 8820SOL    HW137922   4.371   4.313   7.993  2.2133  0.2873 -3.6717
 8820SOL    HW237923   4.292   4.195   7.969  0.2531  0.4426  1.8463
 8821SOL     OW37924   0.012   2.261  10.793 -0.3486 -0.3290  0.2750
 8821SOL    HW137925   0.028   2.177  10.835  0.5493  1.4175  3.4428
 8821SOL    HW237926   0.051   2.319  10.859 -2.0758  1.6908 -0.4770
 8822SOL     OW37927   0.033   0.715  15.228 -0.1499  0.3000 -0.4824
 8822SOL    HW137928   4.693   0.671  15.173 -0.9843 -0.1385  0.8607
 8822SOL    HW237929   0.024   0.667  15.310 -0.2676 -0.9353 -1.2047
 8823SOL     OW37930   3.313   3.316   0.432  0.1598 -0.4870 -0.2629
 8823SOL    HW137931   3.250   3.273   0.490 -1.2646 -1.9192 -2.9002
 8823SOL    HW237932   3.267   3.397   0.410  1.6783  0.2215 -0.8367
 8824SOL     OW37933   1.830   1.034   5.312  0.2865 -0.1940 -0.4587
 8824SOL    HW137934   1.835   0.941   5.333  0.1782  0.3970  2.2423
 8824SOL    HW237935   1.888   1.038   5.236  1.2025  1.4051  0.3032
 8825SOL     OW37936   0.677   1.856   4.810  0.6708  0.0975 -0.1111
 8825SOL    HW137937   0.624   1.785   4.846  0.1178  0.1559 -0.8006
 8825SOL    HW237938   0.674   1.923   4.877 -0.4992 -0.1352  0.0768
 8826SOL     OW37939   1.359   4.661  10.316  0.3594 -0.1029  0.1832
 8826SOL    HW137940   1.293   4.610  10.271 -0.5256  0.7516  0.5112
 8826SOL    HW237941   1.351   4.617  10.401 -2.7027  0.6454  0.2908
 8827SOL     OW37942   0.046   1.940   0.949  0.4513  0.3327 -1.3342
 8827SOL    HW137943   0.129   1.893   0.939  0.3388 -0.7133  2.3869
 8827SOL    HW237944   4.717   1.861   0.944  1.2091 -0.1499 -1.8625
 8828SOL     OW37945   0.637   0.742  11.248  0.0878  0.1410 -0.2665
 8828SOL    HW137946   0.711   0.708  11.198 -0.5256  0.0829 -1.1464
 8828SOL    HW237947   0.562   0.701  11.205 -0.6985  0.1529  1.0756
 8829SOL     OW37948   1.405   0.788  16.762 -0.3321 -0.7150 -0.6954
 8829SOL    HW137949   1.321   0.833  16.757  1.5329  3.0151  1.3879
 8829SOL    HW237950   1.397   0.726  16.834 -2.2195  1.0292  0.5960
 8830SOL     OW37951   1.366   4.013   6.553 -0.3434 -0.2295 -0.1585
 8830SOL    HW137952   1.457   4.022   6.523 -1.1140  1.0865 -2.0594
 8830SOL    HW237953   1.380   4.045   6.643  2.7891 -2.2068  0.0751
 8831SOL     OW37954   3.667   4.197   7.078 -0.4424 -0.0522  0.1495
 8831SOL    HW137955   3.605   4.216   7.149 -1.4194 -2.7225  0.0141
 8831SOL    HW237956   3.694   4.284   7.048 -1.6624 -0.1662 -1.2616
 8832SOL     OW37957   0.079   2.132  15.915 -0.0172 -0.2411  0.1003
 8832SOL    HW137958   0.037   2.060  15.869  3.9088 -0.6999 -2.7052
 8832SOL    HW237959   0.078   2.096  16.004  2.7156  0.4288  0.3858
 8833SOL     OW37960   4.673   1.363  14.858 -0.1434 -0.2922 -0.2187
 8833SOL    HW137961   0.024   1.406  14.821 -0.1720  0.1224  0.2004
 8833SOL    HW237962   4.599   1.405  14.813  1.1979  1.1171 -1.1110
 8834SOL     OW37963   3.300   4.553  13.501  0.0952  0.0218  0.5938
 8834SOL    HW137964   3.247   4.591  13.432  1.5610 -0.7838 -0.9879
 8834SOL    HW237965   3.297   4.615  13.574 -3.0881  1.3982 -0.7118
 8835SOL     OW37966   2.156   1.934   6.617 -0.1478  0.6355 -0.5973
 8835SOL    HW137967   2.228   1.961   6.560 -0.9714  1.3161 -1.3075
 8835SOL    HW237968   2.170   1.839   6.613  1.1573  0.7726  0.7851
 8836SOL     OW37969   2.248   1.892   3.188  0.1359  0.1170  0.7865
 8836SOL    HW137970   2.209   1.931   3.266 -2.4755 -0.9165  0.0065
 8836SOL    HW237971   2.261   1.969   3.133 -0.5125  0.6552  1.3821
 8837SOL     OW37972   0.041   0.018   5.455  0.5731  0.1518  0.7013
 8837SOL    HW137973   0.124   4.720   5.496 -0.1883 -2.3973  0.7659
 8837SOL    HW237974   0.020   4.661   5.411  0.8895  0.8546 -0.7769
 8838SOL     OW37975   3.128   3.321   6.881 -0.3233  0.8764 -0.4352
 8838SOL    HW137976   3.043   3.352   6.913 -1.0420  0.1188 -1.6426
 8838SOL    HW237977   3.187   3.368   6.941 -0.9106 -0.7064  1.3926
 8839SOL     OW37978   1.202   0.149   0.965 -0.2748 -0.2434  0.5734
 8839SOL    HW137979   1.237   0.065   0.935 -0.9579 -0.9939  1.9147
 8839SOL    HW237980   1.107   0.133   0.967 -0.0965 -1.0862  1.9931
 8840SOL     OW37981   1.561   0.009   4.535  0.1110 -0.5484  0.1266
 8840SOL    HW137982   1.492   4.683   4.576 -0.6781  1.2690  1.0815
 8840SOL    HW237983   1.644   4.712   4.577  0.8424  1.7944 -0.0704
 8841SOL     OW37984   0.682   4.366   5.381 -0.3625  0.0864  0.0992
 8841SOL    HW137985   0.652   4.363   5.290  1.2922 -3.4333 -0.3436
 8841SOL    HW237986   0.656   4.456   5.402 -1.0691 -0.3491  1.1095
 8842SOL     OW37987   2.452   3.475   1.749 -0.3155  0.1662 -0.5242
 8842SOL    HW137988   2.529   3.468   1.805 -0.0981  1.3506 -0.6838
 8842SOL    HW237989   2.468   3.399   1.694 -3.4292 -0.1636 -1.0036
 8843SOL     OW37990   2.459   0.297   8.852  0.4814 -0.1946 -0.2123
 8843SOL    HW137991   2.541   0.347   8.849  1.1087 -1.1719  0.5143
 8843SOL    HW237992   2.402   0.373   8.857  0.9982  0.2506 -1.1016
 8844SOL     OW37993   0.991   3.811   8.784  0.0982 -0.1601  0.0454
 8844SOL    HW137994   0.972   3.755   8.708 -0.7709  1.0945 -0.6682
 8844SOL    HW237995   0.963   3.759   8.859 -0.1492  0.3250  0.2914
 8845SOL     OW37996   0.138   1.432   5.479  0.0877  0.1155  0.3356
 8845SOL    HW137997   0.060   1.379   5.464  0.4949 -0.4521  0.2533
 8845SOL    HW237998   0.153   1.467   5.391  0.1265  1.4079  0.8447
 8846SOL     OW37999   2.563   4.113  11.730 -0.1953 -0.5262  0.3312
 8846SOL    HW138000   2.591   4.046  11.668 -0.3056  0.0770 -0.3584
 8846SOL    HW238001   2.550   4.191  11.677  1.3053 -0.5291 -0.0567
 8847SOL     OW38002   1.474   1.654   4.505  0.8100  0.3034  0.1567
 8847SOL    HW138003   1.502   1.687   4.419  0.5308 -1.7842 -0.7284
 8847SOL    HW238004   1.384   1.630   4.484  0.0077  1.7485  1.8712
 8848SOL     OW38005   2.107   1.911  12.057 -0.1028 -0.4890  0.3699
 8848SOL    HW138006   2.014   1.927  12.074 -0.2270 -0.0220 -0.7435
 8848SOL    HW238007   2.105   1.828  12.008 -1.9730 -0.0679 -0.2663
 8849SOL     OW38008   1.787   0.451   5.678 -0.0694 -0.0069  0.0243
 8849SOL    HW138009   1.734   0.371   5.670  0.9674 -0.9603  2.6392
 8849SOL    HW238010   1.729   0.524   5.658  0.6754 -0.4005 -3.4446
 8850SOL     OW38011   0.629   3.134   4.347 -0.3994 -0.5979  0.7396
 8850SOL    HW138012   0.722   3.151   4.332  0.4300 -3.3026  2.9108
 8850SOL    HW238013   0.601   3.226   4.349  0.3621 -0.2544 -3.1984
 8851SOL     OW38014   1.599   4.545  11.823 -0.0486 -0.6812 -0.1953
 8851SOL    HW138015   1.673   4.595  11.857  1.7209 -4.3234  1.3265
 8851SOL    HW238016   1.589   4.464  11.874  0.0003 -0.9441 -0.6027
 8852SOL     OW38017   1.669   2.925  14.602  0.4851 -0.2702  0.7733
 8852SOL    HW138018   1.592   2.947  14.549  0.6542 -2.0517 -0.2412
 8852SOL    HW238019   1.698   2.847  14.555 -1.5593 -1.2041  1.0519
 8853SOL     OW38020   3.739   2.893  13.290 -0.3443  0.6161  0.3240
 8853SOL    HW138021   3.704   2.825  13.348 -0.6780 -1.0695 -1.8438
 8853SOL    HW238022   3.681   2.969  13.292  0.3282  1.1245  0.5990
 8854SOL     OW38023   1.278   1.812   6.697 -0.1832 -0.4797  0.0969
 8854SOL    HW138024   1.250   1.789   6.785 -1.2793  1.2622  0.2166
 8854SOL    HW238025   1.276   1.908   6.703  1.3843 -0.4623  0.3860
 8855SOL     OW38026   2.115   1.255  10.690  0.0913  0.0340 -0.1997
 8855SOL    HW138027   2.175   1.276  10.762 -3.4964  1.4979  2.3901
 8855SOL    HW238028   2.031   1.282  10.726 -0.4025  0.3477 -1.5868
 8856SOL     OW38029   3.199   3.712  15.164 -0.1523 -0.8975 -0.0482
 8856SOL    HW138030   3.203   3.663  15.246  0.8140 -1.4182 -0.4166
 8856SOL    HW238031   3.144   3.784  15.196  1.4730  1.0403 -1.6032
 8857SOL     OW38032   0.345   0.385   3.903 -0.3934  0.0669 -0.3917
 8857SOL    HW138033   0.260   0.343   3.888 -1.2476  0.2652  3.8572
 8857SOL    HW238034   0.324   0.421   3.990  1.2235  0.6644 -0.2460
 8858SOL     OW38035   3.345   3.198   7.379 -0.6607 -0.2944  0.6805
 8858SOL    HW138036   3.364   3.291   7.366 -2.4510  0.0549  0.4989
 8858SOL    HW238037   3.266   3.199   7.433 -0.0300 -0.6429  1.6139
 8859SOL     OW38038   0.520   4.045   4.055 -0.0849 -0.3203  0.3216
 8859SOL    HW138039   0.530   4.133   4.089 -0.2813 -0.0961 -0.1981
 8859SOL    HW238040   0.534   3.995   4.135 -2.3269  1.0280  1.5393
 8860SOL     OW38041   2.923   0.891   0.860 -0.1683  0.0556 -0.4660
 8860SOL    HW138042   2.922   0.946   0.782 -0.6941 -1.3594 -1.4732
 8860SOL    HW238043   2.881   0.819   0.813 -0.0694 -0.0735 -0.3572
 8861SOL     OW38044   2.629   2.324   6.646  0.0593 -0.4854  0.3427
 8861SOL    HW138045   2.709   2.290   6.687 -1.5251 -0.5808  3.3077
 8861SOL    HW238046   2.569   2.250   6.642 -0.4431 -0.1504  1.6960
 8862SOL     OW38047   4.520   4.144   5.175 -0.0298 -0.5674  0.4964
 8862SOL    HW138048   4.538   4.162   5.082 -0.7351 -0.1991  0.4383
 8862SOL    HW238049   4.459   4.215   5.193  1.2983  0.1541  2.1376
 8863SOL     OW38050   3.985   4.047   1.028  0.1288  0.3939  0.4173
 8863SOL    HW138051   3.911   4.075   1.082 -1.1240 -1.4282 -0.3146
 8863SOL    HW238052   3.943   4.030   0.943 -1.0451 -0.5590  1.1902
 8864SOL     OW38053   3.340   3.904  13.349 -0.2561  0.1842  0.0719
 8864SOL    HW138054   3.334   3.821  13.397 -1.3816 -1.0703 -2.2372
 8864SOL    HW238055   3.412   3.945  13.398 -0.0705  2.5319 -2.1602
 8865SOL     OW38056   2.850   3.986   0.574 -0.1090  0.9784  0.0468
 8865SOL    HW138057   2.771   4.021   0.615 -0.4160 -1.1202  1.2515
 8865SOL    HW238058   2.878   4.057   0.517  0.6597 -0.7563 -1.7478
 8866SOL     OW38059   3.981   2.586   8.294 -0.1148 -0.2562  0.2526
 8866SOL    HW138060   3.889   2.607   8.304  0.2910  0.7193  1.8345
 8866SOL    HW238061   3.986   2.611   8.201 -1.2914  0.8773  0.5057
 8867SOL     OW38062   0.354   1.155   4.870 -0.2883 -0.6886 -0.8568
 8867SOL    HW138063   0.423   1.216   4.897 -1.3159  0.1960 -0.2338
 8867SOL    HW238064   0.373   1.071   4.912  1.5171 -0.6395 -1.5989
 8868SOL     OW38065   0.752   3.199   6.065 -0.0991  0.7274 -0.1190
 8868SOL    HW138066   0.799   3.275   6.032 -1.9537  2.0240  0.1868
 8868SOL    HW238067   0.682   3.193   6.000  0.3888  1.9844 -0.7552
 8869SOL     OW38068   0.099   4.043   8.921 -1.2974  0.2091  0.2125
 8869SOL    HW138069   0.147   4.052   8.838 -0.8057  1.3480  0.6313
 8869SOL    HW238070   0.010   4.044   8.887 -0.4441  0.8197 -2.0684
 8870SOL     OW38071   3.454   2.285   5.449  0.3127  0.0357 -0.2267
 8870SOL    HW138072   3.515   2.227   5.404 -1.3651  0.5854 -3.2436
 8870SOL    HW238073   3.500   2.368   5.442 -0.3466  0.3250 -1.2673
 8871SOL     OW38074   3.274   0.984  10.403 -0.3087  0.0290 -0.0056
 8871SOL    HW138075   3.297   1.028  10.321 -1.0539  0.3821 -0.0188
 8871SOL    HW238076   3.225   0.907  10.373 -0.9800  0.2370  0.5532
 8872SOL     OW38077   1.001   3.553  11.689 -0.3694  0.5046 -0.8036
 8872SOL    HW138078   0.926   3.494  11.680 -0.9089  0.7652  1.8103
 8872SOL    HW238079   1.057   3.506  11.750 -1.4717  2.0087  1.3730
 8873SOL     OW38080   3.737   2.752   3.685  0.0718 -0.2096 -0.1486
 8873SOL    HW138081   3.657   2.708   3.656  0.6438 -2.0923  1.1345
 8873SOL    HW238082   3.697   2.839   3.693  0.1348 -0.3647  1.8762
 8874SOL     OW38083   3.164   3.204   6.420 -0.2398 -0.4234 -0.0822
 8874SOL    HW138084   3.089   3.144   6.416 -1.7122  1.3798  0.6927
 8874SOL    HW238085   3.124   3.286   6.449 -0.1638 -0.7371  0.9259
 8875SOL     OW38086   4.099   2.050   1.510 -0.1253 -0.1083  0.6461
 8875SOL    HW138087   4.108   1.958   1.535 -2.3140 -0.1903  1.0709
 8875SOL    HW238088   4.188   2.072   1.482 -0.4017  1.1011  0.7236
 8876SOL     OW38089   4.299   2.178  17.547 -0.5763  0.5685 -0.7713
 8876SOL    HW138090   4.349   2.258  17.534  0.8640 -0.1628  0.2511
 8876SOL    HW238091   4.302   2.171  17.642 -2.3925 -0.1888 -0.7735
 8877SOL     OW38092   2.696   0.250   1.517  0.1264 -0.2387  0.5584
 8877SOL    HW138093   2.772   0.197   1.494  1.1386  0.1135  3.1331
 8877SOL    HW238094   2.661   0.205   1.594 -1.8575  0.1197 -0.1107
 8878SOL     OW38095   4.439   1.267   2.898 -0.5635  0.5143 -0.4669
 8878SOL    HW138096   4.507   1.206   2.927 -2.8986 -1.9493 -0.2466
 8878SOL    HW238097   4.498   1.343   2.893 -0.0037  0.2378  1.7107
 8879SOL     OW38098   3.348   0.457   2.748 -0.0015 -0.4733  0.0884
 8879SOL    HW138099   3.384   0.394   2.810 -1.0291 -1.8740 -0.7442
 8879SOL    HW238100   3.311   0.402   2.679 -0.8152 -0.1262  0.2486
 8880SOL     OW38101   4.537   1.022  16.222  0.3993  0.2731 -0.3193
 8880SOL    HW138102   4.498   1.087  16.163 -3.0600 -1.4456  0.0548
 8880SOL    HW238103   4.465   0.963  16.245  1.5634  0.9008  4.9578
 8881SOL     OW38104   4.532   4.419  15.035 -0.2444 -0.1766 -0.3137
 8881SOL    HW138105   4.546   4.441  15.127 -0.5145  4.8652 -1.4649
 8881SOL    HW238106   4.580   4.492  14.996  0.1224  1.0866  2.5245
 8882SOL     OW38107   0.781   3.973   1.078  0.2973  0.0498  0.2651
 8882SOL    HW138108   0.786   4.029   1.155  0.0313  1.6730 -0.8894
 8882SOL    HW238109   0.831   4.022   1.013  0.5810 -2.2923 -1.2833
 8883SOL     OW38110   2.661   4.209   9.438 -0.5757 -0.5048  0.6093
 8883SOL    HW138111   2.716   4.206   9.517  0.5603  1.2420 -0.1328
 8883SOL    HW238112   2.628   4.298   9.451  1.7274  0.3668  0.4120
 8884SOL     OW38113   3.288   2.938   4.278 -0.4435  0.1444  0.0136
 8884SOL    HW138114   3.243   2.893   4.350 -0.1546  0.3224  0.3058
 8884SOL    HW238115   3.215   2.943   4.216  0.3475 -2.3502 -1.1400
 8885SOL     OW38116   3.758   4.251   3.490 -0.5552 -0.5032  0.2302
 8885SOL    HW138117   3.770   4.346   3.499  1.0647 -0.9034  2.2534
 8885SOL    HW238118   3.706   4.254   3.410  0.8774  2.1130 -0.6093
 8886SOL     OW38119   1.555   1.413  11.730 -0.2586  0.4913 -0.2907
 8886SOL    HW138120   1.518   1.325  11.725 -2.1241  1.2964 -0.4409
 8886SOL    HW238121   1.630   1.399  11.788 -0.2138  3.8715  0.5042
 8887SOL     OW38122   1.299   3.705   2.395  0.3570  0.3993 -0.0149
 8887SOL    HW138123   1.204   3.722   2.395  0.2551 -0.1872 -1.1857
 8887SOL    HW238124   1.314   3.687   2.487  0.4560  0.4450 -0.0222
 8888SOL     OW38125   0.557   1.987   7.476  0.2432 -0.3887 -0.5672
 8888SOL    HW138126   0.541   2.078   7.499  0.1523 -1.4382  3.5165
 8888SOL    HW238127   0.647   1.969   7.503 -0.1072 -2.6520 -0.8628
 8889SOL     OW38128   1.252   4.538   7.607 -0.3429  0.2988  0.4339
 8889SOL    HW138129   1.260   4.468   7.672  0.7589  0.2336  0.2182
 8889SOL    HW238130   1.339   4.576   7.613 -1.0959  2.0943  0.1940
 8890SOL     OW38131   1.049   2.812  16.227  0.3156  0.4637 -0.1282
 8890SOL    HW138132   1.142   2.812  16.247  0.5163  1.9741 -1.1019
 8890SOL    HW238133   1.008   2.782  16.309  0.1794 -1.6372 -0.9511
 8891SOL     OW38134   3.686   4.519   6.243  0.1194 -0.0071  0.9983
 8891SOL    HW138135   3.736   4.468   6.179 -1.7211  2.8314 -2.6936
 8891SOL    HW238136   3.609   4.462   6.243  1.1873 -1.4587  0.6617
 8892SOL     OW38137   3.177   4.059  15.867  0.1058  0.4431  0.5213
 8892SOL    HW138138   3.117   4.125  15.900 -1.5369 -0.9191  0.2280
 8892SOL    HW238139   3.211   4.111  15.794 -0.4602 -0.4841 -0.3931
 8893SOL     OW38140   1.460   4.142  15.954 -0.7776 -0.8958  0.3203
 8893SOL    HW138141   1.439   4.236  15.956  2.1293 -0.2791  2.2054
 8893SOL    HW238142   1.428   4.120  15.866  2.2861  2.2150 -1.5680
 8894SOL     OW38143   4.563   1.646  10.712 -0.2218 -0.8245 -0.7322
 8894SOL    HW138144   4.513   1.623  10.791  0.3630 -1.5862 -0.5832
 8894SOL    HW238145   4.596   1.729  10.745 -0.3195 -1.0488 -0.0520
 8895SOL     OW38146   4.672   0.917  16.439  0.1569  0.0896 -0.4464
 8895SOL    HW138147   4.603   0.851  16.431  0.9063 -0.8693  1.0125
 8895SOL    HW238148   4.648   0.978  16.369 -1.4598  0.5865  0.5369
 8896SOL     OW38149   1.043   3.698  13.861 -0.4243 -0.7509 -0.1160
 8896SOL    HW138150   0.984   3.668  13.792 -0.8264 -1.2065  0.4340
 8896SOL    HW238151   0.980   3.760  13.899 -1.7981 -2.4469  0.3246
 8897SOL     OW38152   1.695   1.665  11.823  0.1235 -0.2166  0.7799
 8897SOL    HW138153   1.725   1.579  11.852  0.0122  0.0039  1.5374
 8897SOL    HW238154   1.608   1.666  11.862 -0.0686 -1.4115  0.3723
 8898SOL     OW38155   4.261   4.368  14.939  0.2688 -0.3663 -0.0726
 8898SOL    HW138156   4.259   4.283  14.984  0.7784 -0.1378  0.3866
 8898SOL    HW238157   4.351   4.396  14.954 -0.0695  0.4663  0.4290
 8899SOL     OW38158   4.489   0.647   7.248  0.2895 -1.0195 -0.2560
 8899SOL    HW138159   4.508   0.723   7.193 -1.3979  0.5666  1.3362
 8899SOL    HW238160   4.400   0.661   7.280  1.3437  1.7089  1.4894
 8900SOL     OW38161   0.629   3.635   5.811  0.1223  0.2132 -0.4660
 8900SOL    HW138162   0.551   3.689   5.818  0.4054  0.2718  2.5016
 8900SOL    HW238163   0.682   3.663   5.737  2.1064 -0.0439  0.8700
 8901SOL     OW38164   0.229   4.396   3.614  0.1279  0.5484 -0.2474
 8901SOL    HW138165   0.299   4.458   3.628  0.7581 -0.4270  0.9539
 8901SOL    HW238166   0.253   4.334   3.684 -0.8346 -0.9495 -1.2404
 8902SOL     OW38167   0.540   1.103   3.374  0.0783  0.1151 -0.1924
 8902SOL    HW138168   0.502   1.114   3.287  1.0495  0.3268 -0.5903
 8902SOL    HW238169   0.547   1.195   3.398 -0.4757 -0.4331  2.0901
 8903SOL     OW38170   3.975   2.440   2.551 -0.1575  0.8436  0.5492
 8903SOL    HW138171   4.067   2.456   2.572  0.0212 -1.2425  1.3272
 8903SOL    HW238172   3.981   2.417   2.459  0.1124 -1.8200  1.2199
 8904SOL     OW38173   2.287   3.106   2.805  0.1186 -0.4125  0.1899
 8904SOL    HW138174   2.376   3.109   2.839  0.2401 -1.2932 -0.0521
 8904SOL    HW238175   2.241   3.073   2.882 -0.3666  1.1286  0.5637
 8905SOL     OW38176   1.150   2.185  10.834  0.3447 -0.3497  0.2522
 8905SOL    HW138177   1.237   2.146  10.842  0.8781  0.7039 -0.3657
 8905SOL    HW238178   1.106   2.126  10.895 -0.8688  0.1278 -0.1648
 8906SOL     OW38179   1.542   4.327   4.934  0.1763 -0.6136 -0.5508
 8906SOL    HW138180   1.483   4.283   4.873  0.1204  0.0933 -0.9956
 8906SOL    HW238181   1.616   4.346   4.876 -0.6051  0.5470 -1.1531
 8907SOL     OW38182   0.829   1.214   3.791 -0.0847  0.2600  0.3269
 8907SOL    HW138183   0.757   1.266   3.757 -1.1717 -0.8949  0.8633
 8907SOL    HW238184   0.841   1.241   3.882 -0.9754 -0.0199  0.5260
 8908SOL     OW38185   2.329   0.269  16.428 -0.2273  0.4273 -0.5335
 8908SOL    HW138186   2.390   0.298  16.495 -1.3272  0.7445  0.3186
 8908SOL    HW238187   2.378   0.193  16.395  2.1500  2.1022 -0.7995
 8909SOL     OW38188   2.336   4.650   6.221 -0.1017  0.1796  0.1367
 8909SOL    HW138189   2.409   4.667   6.282  0.8731 -1.1063 -0.6752
 8909SOL    HW238190   2.266   4.682   6.279 -0.2698  0.6118 -0.3064
 8910SOL     OW38191   2.788   1.024   3.944  0.1921 -0.6868 -0.2611
 8910SOL    HW138192   2.797   1.038   3.850 -2.7814  2.4445 -0.1247
 8910SOL    HW238193   2.882   1.026   3.961  0.1517  1.0835 -0.2474
 8911SOL     OW38194   1.430   3.984   2.510  0.0243  0.5749 -0.4339
 8911SOL    HW138195   1.348   4.028   2.531  0.3927  0.9338  0.2562
 8911SOL    HW238196   1.398   3.936   2.434  1.8132 -2.2962  0.6302
 8912SOL     OW38197   2.423   2.333  15.337  0.1070  0.3187 -0.0212
 8912SOL    HW138198   2.493   2.343  15.401 -1.6482  1.1970  1.7602
 8912SOL    HW238199   2.395   2.243  15.355  1.3134  0.2181  1.3179
 8913SOL     OW38200   3.332   2.581  10.538  0.3682 -0.3774 -0.1525
 8913SOL    HW138201   3.427   2.583  10.529  0.3126  0.5664 -0.6089
 8913SOL    HW238202   3.315   2.641  10.465 -0.0951 -1.4218 -0.9102
 8914SOL     OW38203   3.290   3.900   4.883  0.6081 -0.6287 -0.0466
 8914SOL    HW138204   3.339   3.827   4.844  2.3192  0.1225  0.7088
 8914SOL    HW238205   3.307   3.885   4.976  2.1190  1.3221 -0.0065
 8915SOL     OW38206   2.672   3.883   9.161 -0.0096  0.5332  0.6676
 8915SOL    HW138207   2.581   3.853   9.167  0.5554 -1.4937 -0.6612
 8915SOL    HW238208   2.724   3.803   9.166 -1.5850 -0.4558  1.1813
 8916SOL     OW38209   1.811   4.537   9.087 -0.8375 -0.4462 -0.0629
 8916SOL    HW138210   1.844   4.458   9.044  1.5965 -0.8492  2.5963
 8916SOL    HW238211   1.796   4.502   9.175 -0.3765  0.0908  0.2242
 8917SOL     OW38212   3.720   4.432   8.135  0.3079 -0.8690 -0.3280
 8917SOL    HW138213   3.790   4.406   8.076  0.7144  1.1690 -0.7585
 8917SOL    HW238214   3.738   4.393   8.221 -0.4145  0.5290  0.4685
 8918SOL     OW38215   0.771   2.896  14.895  0.2593 -0.2500  0.1380
 8918SOL    HW138216   0.748   2.810  14.931 -0.0759  0.3341  1.3168
 8918SOL    HW238217   0.721   2.953  14.954 -3.1312 -1.5884 -1.4035
 8919SOL     OW38218   0.384   4.352  13.738  0.4019 -0.3944  0.1461
 8919SOL    HW138219   0.402   4.438  13.776 -1.2490 -0.2842  0.6853
 8919SOL    HW238220   0.365   4.374  13.647 -2.1074 -1.2924  0.4529
 8920SOL     OW38221   1.026   3.413  11.414  0.0902  0.7136 -0.4099
 8920SOL    HW138222   0.963   3.342  11.397  1.5201 -1.3174  2.8766
 8920SOL    HW238223   1.061   3.373  11.493  1.0286  0.5319 -0.9198
 8921SOL     OW38224   4.063   0.817  15.383 -0.1899 -0.2468 -0.2212
 8921SOL    HW138225   4.110   0.740  15.413  1.2074  0.3131 -0.9701
 8921SOL    HW238226   4.132   0.882  15.365 -1.6645  0.4183 -3.5556
 8922SOL     OW38227   3.045   0.276   3.748 -0.3030  0.0650  0.2445
 8922SOL    HW138228   3.024   0.329   3.825 -2.7557  2.2460 -1.9611
 8922SOL    HW238229   3.123   0.322   3.715 -1.3241 -0.5404 -3.0317
 8923SOL     OW38230   3.648   3.447  14.713  0.5577 -0.3232  0.1264
 8923SOL    HW138231   3.576   3.412  14.764  1.1887 -1.0931  0.4861
 8923SOL    HW238232   3.697   3.365  14.721 -0.2304 -1.0093 -2.0297
 8924SOL     OW38233   4.548   3.898   4.694  0.2861  0.1060 -0.0771
 8924SOL    HW138234   4.461   3.903   4.732 -0.5090 -1.3221 -1.6798
 8924SOL    HW238235   4.558   3.983   4.652  0.6596 -1.2366 -2.7166
 8925SOL     OW38236   2.300   4.398   5.494  0.2206  0.1158 -0.1259
 8925SOL    HW138237   2.265   4.309   5.490 -2.1770  1.0521  0.3363
 8925SOL    HW238238   2.295   4.422   5.586 -1.6257 -0.3086 -0.1178
 8926SOL     OW38239   3.693   1.939  16.783  0.1873  0.4798 -0.1204
 8926SOL    HW138240   3.745   1.966  16.707 -3.3113 -1.1605 -3.1086
 8926SOL    HW238241   3.738   1.985  16.854  1.1549 -1.1545  0.3265
 8927SOL     OW38242   2.208   0.708   0.283 -0.1911  0.1311  0.1623
 8927SOL    HW138243   2.166   0.794   0.286 -0.3602 -0.0064  1.5116
 8927SOL    HW238244   2.293   0.726   0.322  0.6698  0.5460 -1.8802
 8928SOL     OW38245   1.416   1.884   7.121 -0.0435 -0.2037  0.6385
 8928SOL    HW138246   1.329   1.920   7.139 -1.1950 -1.9814 -1.3490
 8928SOL    HW238247   1.425   1.820   7.191  2.3103 -0.5067  0.0439
 8929SOL     OW38248   0.537   2.572   2.667 -0.2451  0.4449 -0.1901
 8929SOL    HW138249   0.463   2.560   2.608 -1.3314  0.9315  1.0642
 8929SOL    HW238250   0.568   2.657   2.637  1.5062 -0.1729 -0.1296
 8930SOL     OW38251   3.720   1.709   4.155  0.2416 -0.5517 -0.7592
 8930SOL    HW138252   3.695   1.767   4.227 -1.4469 -2.2323 -0.0027
 8930SOL    HW238253   3.736   1.781   4.093  2.2036 -0.4163 -0.1070
 8931SOL     OW38254   1.053   3.762   5.209  0.7944  0.0061  0.1385
 8931SOL    HW138255   1.004   3.784   5.288 -0.0856  0.5289 -0.5569
 8931SOL    HW238256   1.137   3.725   5.236 -0.5619 -1.5477  2.2238
 8932SOL     OW38257   4.523   3.360  15.843 -0.0610  0.1307  0.5310
 8932SOL    HW138258   4.476   3.432  15.801 -1.3199 -1.9115 -1.5353
 8932SOL    HW238259   4.505   3.287  15.784 -0.6361  0.0585  0.7980
 8933SOL     OW38260   1.399   0.614   5.721  0.3297 -0.4075  0.4121
 8933SOL    HW138261   1.452   0.607   5.641  1.7838 -1.5567  1.4618
 8933SOL    HW238262   1.394   0.522   5.746  1.8725 -0.3243  1.0226
 8934SOL     OW38263   4.660   0.054  10.399 -0.3447 -0.4115 -0.4192
 8934SOL    HW138264   0.022   0.046  10.361 -0.4707 -1.0863 -0.5714
 8934SOL    HW238265   4.639   0.141  10.366  0.2997 -0.7244 -1.6539
 8935SOL     OW38266   0.942   1.672   6.864  0.1109  0.3454  0.0717
 8935SOL    HW138267   0.917   1.726   6.939 -2.4981 -0.2542 -0.3554
 8935SOL    HW238268   1.036   1.685   6.870  0.2949 -2.0319  2.2841
 8936SOL     OW38269   3.773   3.825  15.252 -0.1849 -0.2463  0.5349
 8936SOL    HW138270   3.780   3.888  15.181 -1.9416  1.6154  1.9930
 8936SOL    HW238271   3.684   3.833  15.288 -1.3825 -0.3214 -2.4412
 8937SOL     OW38272   4.315   0.365   0.460 -0.3857 -0.3010 -0.5247
 8937SOL    HW138273   4.235   0.389   0.414 -0.7281  1.1177  0.8293
 8937SOL    HW238274   4.297   0.389   0.551  3.5581  0.8275 -0.0128
 8938SOL     OW38275   1.238   0.621   0.394  0.0106 -0.3420  0.1502
 8938SOL    HW138276   1.298   0.678   0.441 -0.0759 -0.2184  0.1116
 8938SOL    HW238277   1.256   0.669   0.313  1.6541 -1.2984 -0.0389
 8939SOL     OW38278   2.598   0.138   4.116 -0.1331 -0.0360  0.0972
 8939SOL    HW138279   2.545   0.062   4.139 -1.4560  1.3895  1.7352
 8939SOL    HW238280   2.684   0.099   4.100  0.4306 -0.1774  3.3816
 8940SOL     OW38281   4.526   3.596   3.323 -0.1675  0.1298 -0.0229
 8940SOL    HW138282   4.537   3.522   3.263 -0.2216  0.2012 -0.1200
 8940SOL    HW238283   4.469   3.557   3.389  0.8728 -0.1789  0.6849
 8941SOL     OW38284   3.398   4.588   8.939  0.3868 -0.0182 -0.0203
 8941SOL    HW138285   3.305   4.585   8.959  0.1515 -2.0686 -1.4260
 8941SOL    HW238286   3.414   4.682   8.931 -2.5421  0.7475  3.1703
 8942SOL     OW38287   1.082   3.208  12.961 -0.3445 -0.6993 -0.5526
 8942SOL    HW138288   1.104   3.215  13.053 -0.0977  1.9308 -0.8213
 8942SOL    HW238289   1.101   3.297  12.933  0.4147 -1.1544 -1.5437
 8943SOL     OW38290   3.401   0.959   0.887 -0.3367  0.3341  0.4944
 8943SOL    HW138291   3.418   0.892   0.821 -2.8083 -0.6137  0.8115
 8943SOL    HW238292   3.482   1.010   0.881  1.0566 -1.9946 -0.4237
 8944SOL     OW38293   4.228   2.544   3.182  0.4133 -0.3659  0.0049
 8944SOL    HW138294   4.142   2.547   3.223  0.3253 -1.3802 -0.1232
 8944SOL    HW238295   4.262   2.459   3.208  0.4812 -0.5304 -0.6168
 8945SOL     OW38296   1.649   1.389   1.490 -0.0508 -0.4393  0.3324
 8945SOL    HW138297   1.740   1.359   1.482  0.4495  1.2341 -0.2078
 8945SOL    HW238298   1.603   1.305   1.494 -0.2798 -0.2648  1.4630
 8946SOL     OW38299   4.072   3.560   8.418  0.7380 -0.6056 -0.1371
 8946SOL    HW138300   3.990   3.511   8.410  0.3425 -0.1577  1.1527
 8946SOL    HW238301   4.065   3.596   8.506 -0.5654 -0.6643 -0.2154
 8947SOL     OW38302   0.103   1.661  14.987  0.0277 -0.2714 -0.1589
 8947SOL    HW138303   0.124   1.591  14.925  1.6847 -1.4569  1.7130
 8947SOL    HW238304   0.018   1.627  15.013 -0.6559 -0.3149 -2.5540
 8948SOL     OW38305   2.630   3.545   5.690 -0.2626  0.0271 -0.2486
 8948SOL    HW138306   2.671   3.471   5.645  0.5701 -0.5909  1.5292
 8948SOL    HW238307   2.585   3.499   5.761 -2.6346  0.6056 -1.3670
 8949SOL     OW38308   3.819   0.561   8.921 -0.3117 -0.1047 -0.3382
 8949SOL    HW138309   3.910   0.582   8.900  0.0910 -3.1874 -1.6314
 8949SOL    HW238310   3.779   0.648   8.918 -0.0871 -0.0133 -0.5971
 8950SOL     OW38311   2.878   3.343   2.512 -0.0390  0.0457  0.1625
 8950SOL    HW138312   2.868   3.319   2.420  2.8997 -0.7393  0.0528
 8950SOL    HW238313   2.966   3.382   2.512 -0.9830  2.1749  1.8111
 8951SOL     OW38314   0.442   0.527   9.349  0.4127  0.1123  0.2573
 8951SOL    HW138315   0.371   0.466   9.327  0.8090 -0.5238  0.7276
 8951SOL    HW238316   0.413   0.553   9.436 -0.2055  2.3967 -0.6462
 8952SOL     OW38317   2.984   2.267   6.259  0.2951  0.1670  0.3731
 8952SOL    HW138318   3.004   2.359   6.277  3.0088 -0.1763 -0.9054
 8952SOL    HW238319   2.891   2.260   6.281  0.4521 -0.3190  0.8708
 8953SOL     OW38320   3.822   1.570   6.278  0.7073  0.3598 -0.1576
 8953SOL    HW138321   3.814   1.659   6.245  0.8856  0.4187 -0.0447
 8953SOL    HW238322   3.757   1.529   6.222  0.8744  0.6530 -0.5616
 8954SOL     OW38323   0.238   3.451  16.435 -0.7326  0.5995  0.5179
 8954SOL    HW138324   0.281   3.367  16.419  0.1530  1.0571  0.4834
 8954SOL    HW238325   0.206   3.474  16.348  0.4588  1.5384  0.3326
 8955SOL     OW38326   2.332   2.819  15.282  0.3442  0.5435 -0.1360
 8955SOL    HW138327   2.372   2.880  15.220 -1.3276  1.0539 -0.7210
 8955SOL    HW238328   2.321   2.740  15.228 -1.9965  1.0584 -0.4107
 8956SOL     OW38329   4.523   2.849   9.632 -0.6095  0.1260  0.0436
 8956SOL    HW138330   4.613   2.843   9.664 -1.6367  0.7573  3.0744
 8956SOL    HW238331   4.540   2.897   9.550  2.4678 -0.2884  0.4433
 8957SOL     OW38332   0.662   4.431   0.008  0.3303 -0.2683 -0.3115
 8957SOL    HW138333   0.609   4.394  17.642 -0.8879 -1.6922  1.3464
 8957SOL    HW238334   0.648   4.368   0.079  0.9054 -0.6983 -0.5875
 8958SOL     OW38335   1.945   4.276   6.207  0.3220 -0.8237  0.5982
 8958SOL    HW138336   2.027   4.290   6.159 -0.4248  2.3681  0.2780
 8958SOL    HW238337   1.900   4.360   6.199  1.6479 -0.0660  1.1205
 8959SOL     OW38338   2.029   2.687   5.872 -0.0316 -0.2502  0.1468
 8959SOL    HW138339   2.025   2.774   5.832  0.8819  0.4784  1.6387
 8959SOL    HW238340   2.078   2.636   5.807  0.3255  0.2694  0.0051
 8960SOL     OW38341   4.169   4.187   5.059  0.5634  0.2274 -0.0997
 8960SOL    HW138342   4.134   4.270   5.090  1.8806  1.0403 -0.8158
 8960SOL    HW238343   4.241   4.224   5.008  1.3210 -1.7041 -0.4421
 8961SOL     OW38344   3.244   2.685   7.851  0.0217 -0.5964  0.0782
 8961SOL    HW138345   3.320   2.636   7.819  0.0815 -0.0803 -0.5640
 8961SOL    HW238346   3.200   2.608   7.887  0.9263 -1.3418 -0.4142
 8962SOL     OW38347   2.679   2.486   5.117  0.0271  0.5586  0.0141
 8962SOL    HW138348   2.680   2.552   5.187 -0.0485  0.4795  0.0886
 8962SOL    HW238349   2.628   2.537   5.054 -0.6193 -1.7523 -1.3285
 8963SOL     OW38350   4.284   1.832  14.756 -0.6691 -0.0001 -0.0682
 8963SOL    HW138351   4.358   1.877  14.714 -1.1755 -1.1421 -2.1813
 8963SOL    HW238352   4.331   1.759  14.798  0.0346 -0.9834 -2.5967
 8964SOL     OW38353   0.420   3.220  14.774 -0.1365  0.5879  0.4521
 8964SOL    HW138354   0.513   3.231  14.796 -0.3093  0.3931  1.2705
 8964SOL    HW238355   0.410   3.292  14.713 -3.1378 -0.0060  0.2717
 8965SOL     OW38356   3.741   4.182  17.608 -0.1637 -0.2438 -1.2779
 8965SOL    HW138357   3.798   4.108  17.588 -0.2214 -0.8849  0.9055
 8965SOL    HW238358   3.700   4.209  17.526 -0.1842 -1.7177 -1.7577
 8966SOL     OW38359   4.212   4.516  13.072 -0.0212 -0.3895  0.2362
 8966SOL    HW138360   4.287   4.562  13.034 -1.6131  1.9104 -0.0902
 8966SOL    HW238361   4.248   4.478  13.153 -1.0416  1.6806  1.6558
 8967SOL     OW38362   1.411   1.694   3.909  0.0686 -0.3946 -0.0197
 8967SOL    HW138363   1.350   1.662   3.841  0.7108 -2.5685  0.4327
 8967SOL    HW238364   1.459   1.612   3.920  0.6016  0.1481  1.6152
 8968SOL     OW38365   3.153   0.530   3.551 -0.3141 -0.4069 -0.4339
 8968SOL    HW138366   3.061   0.535   3.576  0.0760  2.6855  0.2845
 8968SOL    HW238367   3.195   0.607   3.588  2.6347 -1.7631 -1.0026
 8969SOL     OW38368   4.258   3.144  12.144 -0.2172  0.0894  0.0676
 8969SOL    HW138369   4.186   3.147  12.207  0.8392 -1.7826  1.3655
 8969SOL    HW238370   4.272   3.237  12.130  0.6812  0.3404  2.5905
 8970SOL     OW38371   4.136   4.217   6.744  0.3184  0.0791  0.3636
 8970SOL    HW138372   4.164   4.151   6.807  0.0372 -0.0434  0.3604
 8970SOL    HW238373   4.200   4.286   6.761  0.5558  0.4782 -2.1818
 8971SOL     OW38374   2.142   2.598  13.721 -0.4562  0.5469  0.3648
 8971SOL    HW138375   2.131   2.567  13.811  1.4231  1.7412  1.0077
 8971SOL    HW238376   2.103   2.521  13.680  0.0332  0.3130  0.3414
 8972SOL     OW38377   1.865   0.990  12.157 -0.4368 -0.1172 -0.1060
 8972SOL    HW138378   1.800   0.935  12.200  0.8296 -1.1734  0.4593
 8972SOL    HW238379   1.923   0.923  12.121 -1.4056 -0.0084 -1.9025
 8973SOL     OW38380   1.786   0.869   3.614  0.4213 -0.5143  0.3131
 8973SOL    HW138381   1.827   0.844   3.530  0.6577  1.3287 -0.1062
 8973SOL    HW238382   1.859   0.840   3.669  1.5691  1.3880 -0.1992
 8974SOL     OW38383   2.326   3.848   1.539 -0.6751  0.0738 -0.0855
 8974SOL    HW138384   2.398   3.825   1.481 -0.6437  0.4533 -0.1997
 8974SOL    HW238385   2.268   3.772   1.532 -0.8567  0.2272 -0.2470
 8975SOL     OW38386   1.969   1.238   0.828 -0.5517 -0.5117 -0.0353
 8975SOL    HW138387   1.884   1.211   0.862  0.1881 -2.7137  0.0759
 8975SOL    HW238388   2.025   1.167   0.859 -1.2545 -0.9834  0.1600
 8976SOL     OW38389   1.623   1.826   3.775 -0.3138  0.1187 -0.3148
 8976SOL    HW138390   1.634   1.884   3.850  0.0330 -1.0415  0.5314
 8976SOL    HW238391   1.583   1.753   3.822  0.9645 -0.5287 -0.2375
 8977SOL     OW38392   0.468   0.706   9.148 -0.5382  0.7079 -0.1365
 8977SOL    HW138393   0.547   0.732   9.195  1.8838 -0.6889 -3.3536
 8977SOL    HW238394   0.451   0.616   9.175  1.7360 -0.0739 -1.2785
 8978SOL     OW38395   0.635   4.415   7.208 -0.1767 -0.7039 -0.3812
 8978SOL    HW138396   0.699   4.484   7.191 -0.3615  0.0970  2.0875
 8978SOL    HW238397   0.644   4.415   7.304  0.9548  0.9549 -0.4884
 8979SOL     OW38398   2.782   0.294   3.629 -0.4671  0.1183  0.2060
 8979SOL    HW138399   2.811   0.349   3.557 -1.1417 -0.6578 -0.6665
 8979SOL    HW238400   2.754   0.355   3.697 -1.5064  1.6839 -1.6302
 8980SOL     OW38401   4.601   2.583   7.588  0.0913 -0.3490 -0.5399
 8980SOL    HW138402   4.676   2.547   7.541 -0.2805 -3.0822  0.9339
 8980SOL    HW238403   4.644   2.654   7.636  0.3536  0.7847 -2.4703
 8981SOL     OW38404   4.705   2.841  13.016  0.4640 -0.1728 -0.7508
 8981SOL    HW138405   4.646   2.912  12.990 -1.2552 -1.2916  0.1238
 8981SOL    HW238406   4.645   2.792  13.071 -0.5525  2.2036  0.2703
 8982SOL     OW38407   3.093   4.365   5.124  0.1266  0.0539 -0.6156
 8982SOL    HW138408   3.063   4.394   5.210  0.0160  0.8506 -0.9211
 8982SOL    HW238409   3.181   4.335   5.144 -0.4766  0.1294  2.1070
 8983SOL     OW38410   2.186   3.543   1.769  0.1816 -0.0800  0.6350
 8983SOL    HW138411   2.199   3.594   1.850 -1.1442  2.2732 -0.6310
 8983SOL    HW238412   2.278   3.521   1.754  0.2299 -0.0490  0.8824
 8984SOL     OW38413   1.970   1.959   7.601  0.1097  0.2745 -0.0099
 8984SOL    HW138414   1.893   1.903   7.593 -0.3540  0.9505 -0.2288
 8984SOL    HW238415   1.993   1.952   7.694  1.5566  0.9421 -0.3213
 8985SOL     OW38416   3.275   1.216  15.408  0.3798 -0.3064 -0.3838
 8985SOL    HW138417   3.226   1.288  15.446  2.1691  0.6984  0.0073
 8985SOL    HW238418   3.210   1.148  15.391 -1.5998  1.3446  0.5083
 8986SOL     OW38419   3.969   2.499   3.062  0.3566  0.1575 -0.3298
 8986SOL    HW138420   3.969   2.406   3.043 -0.1374  0.0172  0.3362
 8986SOL    HW238421   4.058   2.530   3.080 -0.4052  2.0729  0.1864
 8987SOL     OW38422   1.863   1.277   7.705  0.6268  0.5938  0.7469
 8987SOL    HW138423   1.804   1.233   7.767  2.2369 -4.6324 -1.4692
 8987SOL    HW238424   1.940   1.220   7.705 -1.2185 -1.9220  1.3205
 8988SOL     OW38425   3.653   3.053   4.163 -0.3470 -0.3999  0.1956
 8988SOL    HW138426   3.703   3.067   4.083 -0.4630 -0.4258  0.1193
 8988SOL    HW238427   3.654   3.145   4.192  1.0730 -0.0911 -0.8384
 8989SOL     OW38428   0.094   1.128   9.415 -0.3432 -0.3115  0.1846
 8989SOL    HW138429   0.100   1.221   9.394 -0.6623 -0.3841 -0.2340
 8989SOL    HW238430   4.725   1.112   9.408 -0.2753 -0.4577 -0.4078
 8990SOL     OW38431   0.758   2.560   2.839 -0.3182 -0.0540 -0.4266
 8990SOL    HW138432   0.671   2.577   2.804 -0.5015  0.3340  0.2162
 8990SOL    HW238433   0.740   2.602   2.923  1.2308 -0.6554  0.2304
 8991SOL     OW38434   0.307   0.557   2.325 -0.1662  0.4436 -0.3667
 8991SOL    HW138435   0.257   0.541   2.245  0.8561 -2.9503 -0.3177
 8991SOL    HW238436   0.372   0.487   2.317 -1.0860 -0.3700 -0.5968
 8992SOL     OW38437   4.090   2.834   6.883  1.1072  0.1787  0.1890
 8992SOL    HW138438   4.040   2.754   6.892  0.7787  0.0721 -2.6035
 8992SOL    HW238439   4.024   2.887   6.837  0.5906 -1.6550 -1.1596
 8993SOL     OW38440   4.113   3.206   7.132 -0.3197 -0.1721 -0.2744
 8993SOL    HW138441   4.077   3.129   7.176  1.2029 -0.3342  0.6737
 8993SOL    HW238442   4.156   3.172   7.054  2.4470 -0.0306  1.2131
 8994SOL     OW38443   2.374   2.604   0.249 -0.1374  0.3574 -0.1066
 8994SOL    HW138444   2.451   2.605   0.305  0.8148  0.8964 -1.4266
 8994SOL    HW238445   2.308   2.642   0.307  0.4498  0.5597  0.4263
 8995SOL     OW38446   3.897   2.071  12.550 -0.3054 -0.5790 -0.0257
 8995SOL    HW138447   3.985   2.036  12.530  0.2367 -0.4146  2.0766
 8995SOL    HW238448   3.843   2.002  12.510  1.0088 -2.0125  0.6461
 8996SOL     OW38449   0.878   3.677   2.736 -0.2836  0.0837  0.3538
 8996SOL    HW138450   0.784   3.661   2.740 -0.9379  4.1087  1.6374
 8996SOL    HW238451   0.900   3.768   2.713  1.8681 -0.1338  1.5990
 8997SOL     OW38452   2.009   1.974   7.855 -0.4894 -0.3282 -0.2973
 8997SOL    HW138453   1.965   2.003   7.935  0.1208 -0.9583  0.2642
 8997SOL    HW238454   2.094   1.965   7.899 -0.5027 -3.2756 -0.9035
 8998SOL     OW38455   4.506   1.165   2.035 -0.1924 -0.4323  0.2778
 8998SOL    HW138456   4.519   1.071   2.020  1.2845 -0.0756 -0.7095
 8998SOL    HW238457   4.472   1.194   1.950  0.3397 -0.2623  0.1237
 8999SOL     OW38458   4.220   4.690  12.072 -0.2567 -0.2919 -0.2448
 8999SOL    HW138459   4.166   4.679  11.993  1.2216 -0.5336 -1.2234
 8999SOL    HW238460   4.304   4.680  12.027  0.2741  1.8251  0.2777
 9000SOL     OW38461   4.664   3.405   6.773  0.4042 -0.3031 -0.2765
 9000SOL    HW138462   4.579   3.445   6.792  1.4803  1.3181  1.1715
 9000SOL    HW238463   4.637   3.342   6.706  0.1902  0.1211 -0.5898
 9001SOL     OW38464   3.912   4.010   2.934 -0.8250 -0.5314  0.3351
 9001SOL    HW138465   3.951   3.925   2.951 -0.8303 -0.4232  0.9008
 9001SOL    HW238466   3.961   4.056   3.002  0.8610 -3.3582  1.0374
 9002SOL     OW38467   0.591   4.290  14.792  0.1958 -0.1284 -0.6914
 9002SOL    HW138468   0.563   4.238  14.867 -0.4757 -0.4979 -1.1929
 9002SOL    HW238469   0.574   4.382  14.811 -0.4554 -0.2905 -0.4728
 9003SOL     OW38470   4.288   1.705  16.287 -0.5408 -0.0469 -0.1978
 9003SOL    HW138471   4.230   1.695  16.363  0.4007  1.1997  0.6794
 9003SOL    HW238472   4.231   1.697  16.210  0.1002  1.6146 -0.8376
 9004SOL     OW38473   0.988   0.877   1.305  0.2015  0.5464 -0.1409
 9004SOL    HW138474   0.976   0.782   1.299  2.4384  0.1315  1.8337
 9004SOL    HW238475   0.970   0.903   1.214 -0.8189 -0.8939 -0.3652
 9005SOL     OW38476   2.265   3.983   8.546 -0.2786 -0.3119  0.0888
 9005SOL    HW138477   2.292   3.954   8.634  0.8996  0.6119  0.0379
 9005SOL    HW238478   2.261   3.902   8.496  0.0906  1.7781 -3.3184
 9006SOL     OW38479   2.618   3.089   5.637  0.1558 -0.2164 -0.0772
 9006SOL    HW138480   2.588   3.052   5.553  0.4696  1.0142 -0.7361
 9006SOL    HW238481   2.674   3.024   5.679  1.4539  1.3681  0.6068
 9007SOL     OW38482   0.955   2.587   4.933  0.0964 -0.0730  0.3859
 9007SOL    HW138483   0.915   2.562   5.017 -1.1159  0.0594 -0.1435
 9007SOL    HW238484   0.921   2.669   4.898 -1.1552 -0.8369 -0.1865
 9008SOL     OW38485   1.024   1.988   7.487  0.3844 -0.3234 -0.1525
 9008SOL    HW138486   1.036   1.899   7.453 -1.4488 -0.6588  0.1003
 9008SOL    HW238487   0.949   1.967   7.543 -0.8670  2.6785 -0.7181
 9009SOL     OW38488   3.081   3.956   6.386  0.7761  0.1227 -0.0688
 9009SOL    HW138489   3.135   3.971   6.308  0.5934 -1.3281 -0.4726
 9009SOL    HW238490   3.144   3.938   6.455  1.2054 -1.7624 -0.9494
 9010SOL     OW38491   4.459   3.818   0.724 -0.0863 -0.5320 -0.0177
 9010SOL    HW138492   4.493   3.907   0.728 -1.0555 -0.1024 -1.5879
 9010SOL    HW238493   4.397   3.819   0.651 -0.9862 -1.8868  0.7203
 9011SOL     OW38494   1.151   1.887   7.176  0.1026 -0.2688  0.0054
 9011SOL    HW138495   1.133   1.861   7.266 -0.6393 -2.1215 -0.6864
 9011SOL    HW238496   1.064   1.881   7.138 -0.4101 -0.4353  1.2133
 9012SOL     OW38497   2.639   2.381   5.597  0.8741  0.5243 -0.4344
 9012SOL    HW138498   2.654   2.317   5.527  2.3745  1.1930 -0.7304
 9012SOL    HW238499   2.604   2.451   5.543 -3.7086 -1.3549  0.1217
 9013SOL     OW38500   2.541   4.533   9.087 -0.8448  0.2327  0.9034
 9013SOL    HW138501   2.539   4.618   9.044 -0.1780 -0.1873  0.0385
 9013SOL    HW238502   2.473   4.539   9.153 -0.6955 -0.5853  1.1390
 9014SOL     OW38503   1.381   4.147   9.026  0.4671  0.0228  0.1423
 9014SOL    HW138504   1.352   4.056   9.019  1.4881 -0.1566 -1.6492
 9014SOL    HW238505   1.448   4.129   9.092  0.9130  0.0383 -0.3035
 9015SOL     OW38506   0.652   2.683   6.719  0.3239 -0.1344 -0.3168
 9015SOL    HW138507   0.651   2.641   6.633 -1.8850 -0.3329 -0.2108
 9015SOL    HW238508   0.564   2.656   6.746  1.4084 -1.9325  1.3547
 9016SOL     OW38509   0.564   1.068   4.552 -0.0762  0.0875  0.8190
 9016SOL    HW138510   0.586   0.990   4.502  0.0164 -0.9492  2.4950
 9016SOL    HW238511   0.574   1.036   4.641 -1.2184  1.3662  1.4057
 9017SOL     OW38512   1.627   0.617  10.515  0.8714  0.3053  0.3536
 9017SOL    HW138513   1.694   0.649  10.455  0.9013  2.4213  1.5103
 9017SOL    HW238514   1.591   0.544  10.464 -0.7189  0.8853  0.6484
 9018SOL     OW38515   0.611   4.507   2.930  0.1207 -0.0472  0.0195
 9018SOL    HW138516   0.632   4.493   2.837 -0.0440 -0.2568  0.0160
 9018SOL    HW238517   0.622   4.602   2.942  0.5834 -0.2338  1.0192
 9019SOL     OW38518   0.709   2.286   7.404  0.0017  0.3512 -0.3904
 9019SOL    HW138519   0.666   2.269   7.320  0.0895  1.6589 -0.7049
 9019SOL    HW238520   0.637   2.300   7.466  1.5352 -1.6460  1.8378
 9020SOL     OW38521   2.657   1.232  10.106 -0.1128  0.3730  0.3764
 9020SOL    HW138522   2.729   1.280  10.065  1.0373 -0.6941  1.1376
 9020SOL    HW238523   2.695   1.144  10.110  2.0494  1.3589  1.6227
 9021SOL     OW38524   1.715   3.082   5.377  0.0649  0.3797 -0.8033
 9021SOL    HW138525   1.791   3.031   5.349  0.1698  1.1784 -1.9443
 9021SOL    HW238526   1.762   3.164   5.392 -1.4287  0.8917  1.2405
 9022SOL     OW38527   1.597   1.377  15.050  0.6590  0.0679  0.0416
 9022SOL    HW138528   1.626   1.300  15.098  2.1544  1.1067  0.8403
 9022SOL    HW238529   1.644   1.452  15.087  0.7048  0.3777 -0.6507
 9023SOL     OW38530   4.196   1.338   7.846 -0.1398 -0.3960  0.3406
 9023SOL    HW138531   4.116   1.343   7.897 -0.4923 -0.4211 -0.2130
 9023SOL    HW238532   4.212   1.243   7.853  1.7707 -0.0804  0.3615
 9024SOL     OW38533   1.255   0.132   4.727 -0.2050 -0.4997 -0.3015
 9024SOL    HW138534   1.325   0.187   4.762 -1.4950  1.8759 -1.4984
 9024SOL    HW238535   1.192   0.118   4.797 -1.1173 -0.7450 -1.1801
 9025SOL     OW38536   2.399   2.947   6.763 -0.4950 -0.0949 -0.2188
 9025SOL    HW138537   2.396   2.873   6.824  0.9322  0.5130  0.5763
 9025SOL    HW238538   2.461   2.915   6.697  0.6766  0.3759  0.6664
 9026SOL     OW38539   0.019   0.992   4.426 -0.4823 -0.1638  0.2892
 9026SOL    HW138540   0.094   1.004   4.484  0.2138  0.1987 -0.6842
 9026SOL    HW238541   4.682   0.926   4.456 -0.7139 -0.9171 -1.8552
 9027SOL     OW38542   2.032   0.963  10.844  0.4313 -0.1792  0.3186
 9027SOL    HW138543   1.977   0.987  10.769  1.9492 -0.3544 -0.8665
 9027SOL    HW238544   2.087   0.896  10.802  0.5056 -0.2529  0.5340
 9028SOL     OW38545   3.078   4.489   8.263 -0.2238  0.0135 -0.9967
 9028SOL    HW138546   3.098   4.487   8.169  0.9344  0.5570 -0.7519
 9028SOL    HW238547   3.002   4.547   8.263  0.8739  1.4170  1.0176
 9029SOL     OW38548   3.276   0.550  11.836  0.3814  0.2767  0.0205
 9029SOL    HW138549   3.263   0.628  11.890  3.0530 -0.0369  1.1057
 9029SOL    HW238550   3.195   0.540  11.786  0.3865 -2.1756  0.4939
 9030SOL     OW38551   3.430   2.529   8.496  0.0066  0.7982 -0.3656
 9030SOL    HW138552   3.476   2.501   8.575 -1.5705 -1.6066 -0.2946
 9030SOL    HW238553   3.353   2.575   8.530 -0.0954 -0.5440  1.2426
 9031SOL     OW38554   4.203   2.330   6.626  0.0325 -0.2802  0.0823
 9031SOL    HW138555   4.173   2.377   6.704  0.1230  1.1007 -0.7137
 9031SOL    HW238556   4.267   2.272   6.668  0.1913 -0.6494 -0.6766
 9032SOL     OW38557   2.238   1.888   5.278 -0.1089  0.4596  0.8700
 9032SOL    HW138558   2.153   1.864   5.240  0.0257 -0.4409  1.1365
 9032SOL    HW238559   2.287   1.927   5.206  1.0545 -1.0378  0.8527
 9033SOL     OW38560   3.253   4.079   4.656  0.2354 -0.0917  0.3532
 9033SOL    HW138561   3.338   4.098   4.617  0.5908  2.3175  2.3015
 9033SOL    HW238562   3.273   4.031   4.736 -1.7157 -0.1388  0.8083
 9034SOL     OW38563   2.670   0.313   4.521  0.5555 -0.1813  0.4908
 9034SOL    HW138564   2.592   0.258   4.528  2.1187 -2.5123 -0.1879
 9034SOL    HW238565   2.681   0.330   4.428 -0.0918 -1.8249  0.1100
 9035SOL     OW38566   4.011   2.324  12.586  0.2408 -0.5694  0.1035
 9035SOL    HW138567   3.962   2.243  12.599 -2.0541  0.6081 -1.0480
 9035SOL    HW238568   4.028   2.310  12.493 -1.1847 -0.7968 -0.1280
 9036SOL     OW38569   0.585   3.760  14.427 -0.8186  0.0132  0.3972
 9036SOL    HW138570   0.524   3.687  14.416 -0.2102 -0.5841  1.0036
 9036SOL    HW238571   0.569   3.798  14.513  2.3205  0.9776  0.5418
 9037SOL     OW38572   0.602   0.982   4.793 -0.2160 -0.5851 -0.1801
 9037SOL    HW138573   0.536   0.965   4.861 -2.0140  1.9617 -1.3018
 9037SOL    HW238574   0.618   0.889   4.777  0.8981 -0.3037 -0.6988
 9038SOL     OW38575   1.282   3.783   4.527 -0.3290 -0.6422 -0.3729
 9038SOL    HW138576   1.360   3.748   4.483 -0.5180 -2.0983  0.4365
 9038SOL    HW238577   1.251   3.710   4.581 -0.5163 -0.5079 -0.3031
 9039SOL     OW38578   2.824   2.963   2.615 -0.1556  0.3154 -0.3312
 9039SOL    HW138579   2.805   2.928   2.702  1.5741  0.2292  0.0210
 9039SOL    HW238580   2.752   2.924   2.566 -1.0949  1.4359  0.1695
 9040SOL     OW38581   3.496   1.366   3.103  0.0044  0.4954 -0.1403
 9040SOL    HW138582   3.575   1.346   3.154 -0.4284  0.6122  0.5756
 9040SOL    HW238583   3.524   1.383   3.013 -0.8468  1.8878 -0.1356
 9041SOL     OW38584   0.872   0.045   0.436  0.4452 -0.1815  0.1680
 9041SOL    HW138585   0.778   0.028   0.440  0.4393  0.1347  1.3052
 9041SOL    HW238586   0.905   4.711   0.369  0.9468 -0.1614  0.4011
 9042SOL     OW38587   2.012   4.016   3.438  0.3578  0.1223  0.1062
 9042SOL    HW138588   2.021   4.085   3.504  0.4891 -0.9393  1.2041
 9042SOL    HW238589   2.030   4.069   3.360  2.2597  2.6420  2.2389
 9043SOL     OW38590   3.234   2.640   5.037 -0.7337 -0.3814 -0.5568
 9043SOL    HW138591   3.219   2.636   5.132  3.5491 -0.3922  0.0960
 9043SOL    HW238592   3.256   2.549   5.017  2.1675  0.1760  0.0765
 9044SOL     OW38593   0.429   3.933   1.832  0.4641 -0.0513  0.0775
 9044SOL    HW138594   0.464   4.023   1.830  0.0996  0.0376 -2.7695
 9044SOL    HW238595   0.499   3.882   1.792  2.1343  1.6562  0.7859
 9045SOL     OW38596   0.792   0.149  16.485  0.4613 -0.0852 -0.0661
 9045SOL    HW138597   0.717   0.205  16.505  1.0701  0.3858  0.9019
 9045SOL    HW238598   0.853   0.175  16.553  0.7304  1.2896 -0.8337
 9046SOL     OW38599   1.322   3.355   6.422 -0.1826 -0.5638  0.3008
 9046SOL    HW138600   1.340   3.436   6.375  0.7733 -0.5930  0.6145
 9046SOL    HW238601   1.279   3.308   6.351 -0.1049 -0.4280  0.1628
 9047SOL     OW38602   0.774   4.132   4.668 -0.1066  0.2377 -0.3877
 9047SOL    HW138603   0.867   4.137   4.690  0.4227 -1.9659 -2.1234
 9047SOL    HW238604   0.733   4.168   4.747  0.4720 -1.7014  0.7822
 9048SOL     OW38605   4.420   2.482   2.666  0.7871 -0.7458 -0.4817
 9048SOL    HW138606   4.369   2.533   2.604 -1.3706 -0.8625  1.2111
 9048SOL    HW238607   4.512   2.496   2.641  0.9384  3.8335  2.7805
 9049SOL     OW38608   0.663   0.280   5.135  0.2461 -0.1015 -0.3569
 9049SOL    HW138609   0.690   0.230   5.212 -2.8817 -0.8103  0.2841
 9049SOL    HW238610   0.700   0.366   5.155 -0.7377  0.4280 -0.8134
 9050SOL     OW38611   0.609   3.145   4.808 -0.0785  0.6914 -0.0140
 9050SOL    HW138612   0.519   3.111   4.811 -0.7497  2.4990  0.8204
 9050SOL    HW238613   0.610   3.211   4.739  0.1951  0.3165 -0.3664
 9051SOL     OW38614   1.877   2.872   9.212 -0.6846  0.2295 -0.4620
 9051SOL    HW138615   1.863   2.967   9.212  1.3353  0.5277  1.9259
 9051SOL    HW238616   1.854   2.855   9.121  1.3574 -3.0542 -0.3378
 9052SOL     OW38617   2.513   1.104   0.962 -0.2394  0.3331 -0.2779
 9052SOL    HW138618   2.566   1.026   0.977  2.2208  1.6220 -2.3037
 9052SOL    HW238619   2.569   1.178   0.985  0.0243 -0.0307  0.2511
 9053SOL     OW38620   0.932   0.253   5.590  0.2463 -0.6024  0.0690
 9053SOL    HW138621   1.005   0.223   5.645 -0.6547  0.3564  1.8034
 9053SOL    HW238622   0.958   0.216   5.506  0.4661  1.8788 -0.9443
 9054SOL     OW38623   3.692   0.833  12.607 -0.4930 -0.0907  0.2494
 9054SOL    HW138624   3.694   0.743  12.641  0.8719 -0.4476 -0.8200
 9054SOL    HW238625   3.784   0.844  12.586 -0.4446  1.1161  1.0740
 9055SOL     OW38626   2.345   4.131   7.382  0.1758 -0.4195  0.6176
 9055SOL    HW138627   2.335   4.038   7.404  1.1327 -0.4721  0.8334
 9055SOL    HW238628   2.328   4.123   7.289 -0.1760  0.7405  0.5796
 9056SOL     OW38629   3.511   0.763   5.797  0.6265 -0.0546  0.0624
 9056SOL    HW138630   3.469   0.826   5.855  0.8355  1.2972 -1.2240
 9056SOL    HW238631   3.461   0.789   5.720  2.2590 -1.7159 -1.5661
 9057SOL     OW38632   3.379   4.160   8.211 -0.0516  0.2367 -0.4339
 9057SOL    HW138633   3.472   4.140   8.227 -0.1285  0.6121  0.5128
 9057SOL    HW238634   3.376   4.254   8.191  0.8805 -0.3338 -3.1776
 9058SOL     OW38635   3.050   1.929   6.844 -0.1031 -0.5750 -0.5382
 9058SOL    HW138636   3.090   1.895   6.765  0.2912  1.6879 -1.3183
 9058SOL    HW238637   3.089   1.885   6.920 -0.4637  0.6625  0.3739
 9059SOL     OW38638   2.182   1.329  12.259 -0.4594 -0.0379  0.2366
 9059SOL    HW138639   2.209   1.386  12.188  0.3644 -1.4242 -0.5708
 9059SOL    HW238640   2.184   1.394  12.330 -1.4201 -1.4001  1.5098
 9060SOL     OW38641   0.386   3.697   4.172 -0.5040  0.2285  0.7059
 9060SOL    HW138642   0.452   3.747   4.221  0.2575 -0.2587  0.1719
 9060SOL    HW238643   0.308   3.745   4.201 -1.0013  0.4849 -1.0399
 9061SOL     OW38644   3.310   4.579  14.114 -0.2538 -0.1933 -0.0112
 9061SOL    HW138645   3.307   4.653  14.053  0.6143  0.4017  0.6716
 9061SOL    HW238646   3.389   4.602  14.163 -0.6685  2.2981 -0.5280
 9062SOL     OW38647   2.086   1.660  12.315 -0.0204  0.0387  0.1007
 9062SOL    HW138648   1.995   1.684  12.333 -0.9020 -2.1535 -1.2984
 9062SOL    HW238649   2.095   1.675  12.221 -2.4502 -0.0789 -0.1524
 9063SOL     OW38650   0.317   1.956   4.282 -0.5085  0.1383  0.4078
 9063SOL    HW138651   0.347   1.914   4.201 -1.5204  0.8819 -0.3567
 9063SOL    HW238652   0.362   2.041   4.276  2.4190 -1.4797 -0.5033
 9064SOL     OW38653   1.953   0.438   8.413  0.0596  0.6541 -0.0028
 9064SOL    HW138654   1.996   0.359   8.380 -0.2420  0.2133  0.6563
 9064SOL    HW238655   1.862   0.408   8.407 -0.0008  0.3772  2.2963
 9065SOL     OW38656   1.108   4.456   8.097  0.2904 -0.5767  0.3610
 9065SOL    HW138657   1.147   4.399   8.030  0.6191 -0.2956  0.3124
 9065SOL    HW238658   1.100   4.395   8.171 -0.6939 -1.0009 -0.0999
 9066SOL     OW38659   2.582   4.174   4.304  0.0292  0.1635 -0.2957
 9066SOL    HW138660   2.666   4.212   4.329  0.2778 -0.9981  0.6717
 9066SOL    HW238661   2.597   4.082   4.328 -0.4794 -0.0142 -0.6617
 9067SOL     OW38662   1.049   1.468   3.662 -0.4717  0.5702 -0.1825
 9067SOL    HW138663   1.062   1.379   3.696  0.1245  0.2408 -1.2685
 9067SOL    HW238664   1.061   1.456   3.568 -0.2977 -1.7420  0.1396
 9068SOL     OW38665   1.758   0.894   2.720 -0.3888  0.5007 -0.6301
 9068SOL    HW138666   1.725   0.805   2.733  1.0785 -0.3433 -2.5987
 9068SOL    HW238667   1.742   0.905   2.626 -0.7757  0.9239 -0.5134
 9069SOL     OW38668   1.710   4.043  16.054 -0.4912  0.3211  0.6395
 9069SOL    HW138669   1.616   4.063  16.054 -0.5693 -0.0501  1.2063
 9069SOL    HW238670   1.712   3.970  15.992  0.0278  0.5082  0.4405
 9070SOL     OW38671   0.162   4.649   9.914 -0.1133 -0.6265  0.5581
 9070SOL    HW138672   0.237   4.655   9.973  1.1620 -1.4099 -0.9865
 9070SOL    HW238673   0.130   0.013   9.919  1.5677  0.0531 -0.6254
 9071SOL     OW38674   3.898   3.810   6.608 -0.5184  0.3481  0.8230
 9071SOL    HW138675   3.867   3.791   6.696  1.1377 -1.0895  1.1045
 9071SOL    HW238676   3.914   3.725   6.567  2.7433  1.4093 -0.1411
 9072SOL     OW38677   4.650   0.058   5.973 -0.2652 -0.2206 -0.0740
 9072SOL    HW138678   4.607   4.708   5.933  0.5641  1.1746 -3.6338
 9072SOL    HW238679   0.015   0.028   5.979 -0.3554 -0.6391 -0.8338
 9073SOL     OW38680   3.505   2.009   9.427  0.4774  0.1320  0.8149
 9073SOL    HW138681   3.584   2.044   9.386 -0.1775  1.7332  0.9310
 9073SOL    HW238682   3.541   1.943   9.487  0.9474  0.2011  0.6085
 9074SOL     OW38683   4.436   1.367   0.711  0.1960 -0.1956 -0.5544
 9074SOL    HW138684   4.437   1.377   0.616  0.7286 -4.3110 -0.9813
 9074SOL    HW238685   4.424   1.462   0.719  0.5755 -0.2069  0.1389
 9075SOL     OW38686   0.147   3.643   8.062  0.6418 -0.0480 -0.2638
 9075SOL    HW138687   0.237   3.642   8.095  0.7504 -3.0938 -0.6694
 9075SOL    HW238688   0.144   3.719   8.003 -0.6476 -0.8418 -1.1952
 9076SOL     OW38689   2.812   3.898   8.204 -0.3199 -0.0502 -0.2867
 9076SOL    HW138690   2.746   3.953   8.247 -0.5477  0.9754 -1.9431
 9076SOL    HW238691   2.758   3.821   8.185  1.2290 -1.3659  0.6837
 9077SOL     OW38692   3.314   0.810   5.465  0.1434 -0.5103  0.2105
 9077SOL    HW138693   3.386   0.798   5.404 -0.7972 -2.3727 -0.5570
 9077SOL    HW238694   3.257   0.736   5.441  1.2469 -1.9236  1.9630
 9078SOL     OW38695   3.703   3.228   3.089 -0.2870  0.5858 -0.1971
 9078SOL    HW138696   3.634   3.295   3.092 -0.5515  0.2659  0.8786
 9078SOL    HW238697   3.779   3.277   3.057 -0.6765  0.9933 -0.4988
 9079SOL     OW38698   1.109   0.109   5.726  0.0491  0.0591  0.1724
 9079SOL    HW138699   1.129   0.033   5.670 -0.1319 -0.3751  0.7008
 9079SOL    HW238700   1.074   0.071   5.806 -0.8285 -1.2647 -0.8238
 9080SOL     OW38701   4.142   1.079   5.679 -0.2037 -0.3363 -0.3873
 9080SOL    HW138702   4.195   1.061   5.602 -2.3401 -2.1648 -1.4245
 9080SOL    HW238703   4.154   0.997   5.727 -1.2630  1.2302  2.5913
 9081SOL     OW38704   2.421   4.651  16.731 -0.0365 -0.2182 -0.5784
 9081SOL    HW138705   2.378   4.590  16.790 -1.6200 -0.8714 -2.4388
 9081SOL    HW238706   2.514   4.642  16.751 -1.4668 -0.9853  5.5905
 9082SOL     OW38707   1.518   4.124   6.800 -0.0450  0.1333 -0.3334
 9082SOL    HW138708   1.607   4.110   6.767  0.6719 -0.1147  1.6788
 9082SOL    HW238709   1.506   4.061   6.871  2.5269  1.1824  1.0473
 9083SOL     OW38710   1.388   0.871   5.774  0.2350  0.0129  0.3453
 9083SOL    HW138711   1.369   0.914   5.691  1.3553  0.1451  0.1623
 9083SOL    HW238712   1.407   0.785   5.737  0.4732  0.1521  0.1463
 9084SOL     OW38713   0.950   1.003   9.354 -0.3790  0.5326 -0.2950
 9084SOL    HW138714   1.039   1.008   9.319 -1.6992  0.5048 -3.6182
 9084SOL    HW238715   0.978   1.021   9.444 -0.5106  1.3912 -0.4253
 9085SOL     OW38716   0.870   0.572   3.156  0.0576 -0.1830  0.2823
 9085SOL    HW138717   0.825   0.569   3.240 -0.8353  0.2143 -0.1778
 9085SOL    HW238718   0.810   0.508   3.119  1.1323  0.2186 -2.1721
 9086SOL     OW38719   1.149   3.313   7.739  0.5313 -0.3159  0.4060
 9086SOL    HW138720   1.068   3.281   7.779 -0.3992  1.2735 -0.2345
 9086SOL    HW238721   1.169   3.236   7.685  2.1952  0.8395 -0.6062
 9087SOL     OW38722   0.357   0.236   6.910  0.4433 -0.1573  0.5303
 9087SOL    HW138723   0.405   0.197   6.983 -0.6684  0.6616  1.6790
 9087SOL    HW238724   0.403   0.319   6.896  0.7534 -0.1634  1.5199
 9088SOL     OW38725   3.625   1.402   7.463 -0.2859 -0.1007 -0.1086
 9088SOL    HW138726   3.555   1.338   7.478 -0.2510 -0.0619  0.2228
 9088SOL    HW238727   3.604   1.472   7.525  0.1378  0.3120 -0.4395
 9089SOL     OW38728   3.930   2.128   5.404  0.0214  0.6280 -0.2901
 9089SOL    HW138729   3.850   2.127   5.456  1.4332  3.4015  1.9825
 9089SOL    HW238730   3.962   2.043   5.433 -0.0887  0.1561 -1.5948
 9090SOL     OW38731   2.319   3.650   8.072 -0.4269 -0.0604 -0.2534
 9090SOL    HW138732   2.391   3.681   8.016 -0.3780  2.3066  1.1090
 9090SOL    HW238733   2.355   3.604   8.147 -1.6914  0.6105  0.7486
 9091SOL     OW38734   2.886   1.790   1.137  0.1321  0.0774 -0.4768
 9091SOL    HW138735   2.948   1.730   1.177  1.7990  2.1308  0.0562
 9091SOL    HW238736   2.922   1.878   1.151 -3.9812  2.1311 -2.5612
 9092SOL     OW38737   2.542   1.658   7.630  0.0585 -0.1852 -0.2052
 9092SOL    HW138738   2.522   1.751   7.639 -2.5449 -0.6750 -0.9324
 9092SOL    HW238739   2.618   1.654   7.689  0.6826 -2.2442 -1.1256
 9093SOL     OW38740   1.935   2.619   2.269 -0.6991  0.4196 -0.1667
 9093SOL    HW138741   1.866   2.564   2.306 -1.9109  0.4572 -2.3432
 9093SOL    HW238742   1.910   2.702   2.309  1.4837  1.0096 -0.0560
 9094SOL     OW38743   1.770   3.724   5.457  0.5624 -0.2938 -0.0154
 9094SOL    HW138744   1.721   3.651   5.495  0.8490 -1.1182 -1.2499
 9094SOL    HW238745   1.708   3.751   5.390  1.7202  1.9106 -0.1864
 9095SOL     OW38746   3.501   2.756   2.933 -0.4434  0.3291 -0.1818
 9095SOL    HW138747   3.556   2.712   2.997 -0.6520  1.6202  0.8804
 9095SOL    HW238748   3.526   2.846   2.957 -2.0552  0.6912  0.1543
 9096SOL     OW38749   1.127   0.119   9.685 -0.0359 -0.3386  0.0742
 9096SOL    HW138750   1.148   0.083   9.599 -0.1348 -2.5395  0.9679
 9096SOL    HW238751   1.036   0.149   9.674  0.7399  1.5195 -1.3681
 9097SOL     OW38752   3.818   0.462   1.129  0.7646 -0.1509 -0.0005
 9097SOL    HW138753   3.873   0.416   1.066 -2.5080 -3.3338 -0.5625
 9097SOL    HW238754   3.852   0.429   1.212  2.0406  0.8137 -0.1521
 9098SOL     OW38755   1.563   4.172   7.354  0.3225 -0.2523 -0.0535
 9098SOL    HW138756   1.610   4.149   7.274 -0.7019 -1.3485 -0.3385
 9098SOL    HW238757   1.591   4.261   7.376  1.0612 -0.4785 -0.0822
 9099SOL     OW38758   1.346   2.806   2.901 -0.0007  0.0255  0.5481
 9099SOL    HW138759   1.307   2.721   2.881 -0.3547 -0.3394  2.7174
 9099SOL    HW238760   1.349   2.840   2.812  3.3088 -0.6560  0.4221
 9100SOL     OW38761   0.817   1.295  14.447 -0.1522  0.3048  0.0455
 9100SOL    HW138762   0.769   1.252  14.376 -1.5880  1.1778  0.4777
 9100SOL    HW238763   0.829   1.218  14.502  2.1245  0.8515  0.3180
 9101SOL     OW38764   3.503   2.852   1.489 -0.3710 -0.1540  0.7879
 9101SOL    HW138765   3.591   2.843   1.452 -0.6790  3.1609 -0.7271
 9101SOL    HW238766   3.458   2.799   1.423 -1.7390  2.1505 -0.1156
 9102SOL     OW38767   2.667   3.900  12.764 -0.2717 -0.0336  0.1453
 9102SOL    HW138768   2.603   3.832  12.787  1.3657 -1.9888 -1.1303
 9102SOL    HW238769   2.703   3.910  12.852  1.1382  0.7493 -0.5248
 9103SOL     OW38770   3.247   4.463  17.490 -0.3416  0.2323 -0.3404
 9103SOL    HW138771   3.329   4.426  17.455  0.4767  0.0492  1.7962
 9103SOL    HW238772   3.267   4.554  17.471  1.1575 -0.3480 -1.5954
 9104SOL     OW38773   2.521   1.117   4.687 -0.1030 -0.1328  0.1828
 9104SOL    HW138774   2.463   1.046   4.658 -2.5031  1.3392  1.3431
 9104SOL    HW238775   2.456   1.185   4.703  1.2351  1.2913 -0.4148
 9105SOL     OW38776   2.591   3.162   6.767 -0.1747 -0.4029  0.3086
 9105SOL    HW138777   2.562   3.189   6.854 -1.0625  0.1050 -0.1417
 9105SOL    HW238778   2.518   3.103   6.748  0.8233 -1.3179 -0.6413
 9106SOL     OW38779   1.607   4.039   6.432  0.3373 -0.1095  0.1131
 9106SOL    HW138780   1.654   4.054   6.350 -0.3627  2.0901  0.1105
 9106SOL    HW238781   1.569   3.953   6.417  0.9072 -0.8110  2.6443
 9107SOL     OW38782   0.989   4.716   5.952 -0.3005 -0.5226 -0.0726
 9107SOL    HW138783   0.951   4.631   5.928 -0.8133 -0.6404  1.1002
 9107SOL    HW238784   1.065   4.685   6.001  0.5144  1.6698  0.0321
 9108SOL     OW38785   1.092   1.648   8.221  0.2044 -0.7152  0.7545
 9108SOL    HW138786   1.021   1.588   8.203 -0.7058  0.3843  0.6619
 9108SOL    HW238787   1.140   1.638   8.139 -0.1709  1.2273  0.2907
 9109SOL     OW38788   2.614   0.190   6.176 -0.5119 -0.2439 -0.6374
 9109SOL    HW138789   2.702   0.229   6.175  0.1508 -1.6639  1.4331
 9109SOL    HW238790   2.554   0.263   6.161  1.2930  1.2958 -0.4893
 9110SOL     OW38791   3.535   3.895  13.557  0.0901 -0.4085 -0.0905
 9110SOL    HW138792   3.479   3.848  13.618  0.1785  1.6217  1.5549
 9110SOL    HW238793   3.604   3.830  13.541  0.5507 -0.0735  0.5549
 9111SOL     OW38794   1.603   1.986   7.711 -0.0857  0.3407  0.0448
 9111SOL    HW138795   1.657   1.987   7.632  1.1136 -1.3568  0.8366
 9111SOL    HW238796   1.575   2.075   7.733  0.7807  0.9091 -1.1769
 9112SOL     OW38797   1.592   0.529   9.951  0.3474 -0.2127 -0.5108
 9112SOL    HW138798   1.573   0.448   9.998  2.8887 -0.9627 -0.7886
 9112SOL    HW238799   1.630   0.501   9.868  0.6669  1.9960 -1.1206
 9113SOL     OW38800   0.800   2.334   4.315 -0.2998  0.1401 -0.0288
 9113SOL    HW138801   0.780   2.420   4.278 -1.5589  0.1671  0.7184
 9113SOL    HW238802   0.891   2.335   4.283  0.2890 -1.3809  1.6221
 9114SOL     OW38803   2.509   3.960   4.591 -0.1886  0.0093  0.1827
 9114SOL    HW138804   2.584   3.956   4.650  1.3831 -1.4760 -1.9696
 9114SOL    HW238805   2.549   3.935   4.508  1.4925 -1.1153  1.3497
 9115SOL     OW38806   4.566   0.956  12.057 -0.4283  0.1807 -1.0177
 9115SOL    HW138807   4.532   0.992  11.975  0.4187 -0.9233 -1.8444
 9115SOL    HW238808   4.645   0.910  12.030 -0.4587 -0.1062 -0.6131
 9116SOL     OW38809   4.501   0.695   5.896 -0.1466  0.1299 -0.1180
 9116SOL    HW138810   4.477   0.778   5.855  1.4108  0.4670 -0.3605
 9116SOL    HW238811   4.565   0.654   5.837  0.2639 -0.4982  0.7546
 9117SOL     OW38812   2.397   0.174   4.543 -0.2716 -0.2322 -0.5068
 9117SOL    HW138813   2.392   0.082   4.568  0.1990 -0.2496 -0.4667
 9117SOL    HW238814   2.401   0.200   4.635  2.3072 -1.7989 -0.1639
 9118SOL     OW38815   1.376   0.199   0.155  0.0448 -0.2678 -0.2655
 9118SOL    HW138816   1.471   0.208   0.146  0.0906  0.4799  0.9196
 9118SOL    HW238817   1.350   0.290   0.141 -0.5330 -0.4500 -0.3486
 9119SOL     OW38818   2.253   1.531  12.464  0.4738  0.3418  0.2754
 9119SOL    HW138819   2.191   1.577  12.408  0.7405 -0.5468 -0.7381
 9119SOL    HW238820   2.209   1.534  12.550  0.3718  1.1377  0.1989
 9120SOL     OW38821   2.188   2.592   5.635 -0.0950  0.2153  0.8811
 9120SOL    HW138822   2.157   2.526   5.574  0.1991  0.1915  0.7569
 9120SOL    HW238823   2.162   2.672   5.589 -0.3161 -1.1568 -1.3585
 9121SOL     OW38824   4.048   4.538   9.709 -0.0927  0.0655 -0.1861
 9121SOL    HW138825   4.018   4.515   9.797  0.9122  0.8100  0.3547
 9121SOL    HW238826   4.070   4.631   9.723  0.4872 -0.1100  0.0747
 9122SOL     OW38827   1.546   2.129   5.071 -0.0116  0.0710  0.5310
 9122SOL    HW138828   1.615   2.148   5.134  3.2227 -1.7736 -2.5114
 9122SOL    HW238829   1.514   2.042   5.096  1.0448 -0.6363 -0.5822
 9123SOL     OW38830   0.730   4.319  14.543 -0.2604 -0.3339  0.3188
 9123SOL    HW138831   0.685   4.273  14.614 -1.1836 -1.2318 -0.8464
 9123SOL    HW238832   0.659   4.380  14.523 -0.5927 -0.3612  1.3824
 9124SOL     OW38833   0.075   0.132   2.753 -0.2213 -0.8119  0.1771
 9124SOL    HW138834   0.058   0.167   2.840 -0.9494  0.5446 -0.5089
 9124SOL    HW238835   0.148   0.071   2.760  1.5159  1.2805  0.3999
 9125SOL     OW38836   2.686   2.108   2.847  0.2193 -0.1387 -0.1691
 9125SOL    HW138837   2.643   2.190   2.870  1.0093 -0.1957  1.5432
 9125SOL    HW238838   2.757   2.117   2.910 -0.5299 -0.8137  0.7662
 9126SOL     OW38839   4.187   3.931  13.863 -0.4714  0.2828 -0.0382
 9126SOL    HW138840   4.125   3.941  13.935  0.7258 -2.4269  1.3366
 9126SOL    HW238841   4.235   4.014  13.859 -0.9702  0.4613 -2.6740
 9127SOL     OW38842   4.684   4.367   4.901 -0.2745 -0.5456  0.0413
 9127SOL    HW138843   4.677   4.442   4.842 -0.2702 -0.1313  0.5650
 9127SOL    HW238844   4.688   4.408   4.988 -0.7147  0.3635 -0.3695
 9128SOL     OW38845   1.081   3.956   7.187 -0.1713 -0.0492 -0.0026
 9128SOL    HW138846   1.166   3.930   7.223 -0.7025 -0.3023  1.0705
 9128SOL    HW238847   1.057   4.038   7.230 -0.6261 -0.1762 -0.0159
 9129SOL     OW38848   2.798   0.993  17.155 -0.6367  0.6255 -0.2608
 9129SOL    HW138849   2.749   0.941  17.218 -3.1338  2.8483 -0.3271
 9129SOL    HW238850   2.780   0.938  17.079 -1.0694  0.2771  0.0922
 9130SOL     OW38851   2.357   2.172   9.127  0.4232  0.6498  0.1277
 9130SOL    HW138852   2.297   2.107   9.163  2.1851 -0.5803  0.8520
 9130SOL    HW238853   2.364   2.158   9.032  0.6196 -0.9875  0.3798
 9131SOL     OW38854   3.520   0.370   4.916 -0.1784  0.1514  0.4737
 9131SOL    HW138855   3.464   0.314   4.863 -0.1612  1.2626 -0.7242
 9131SOL    HW238856   3.450   0.408   4.968  0.0304  1.9363 -0.5620
 9132SOL     OW38857   0.208   3.938   4.723  0.3438  0.5160  0.0907
 9132SOL    HW138858   0.169   3.966   4.640 -0.2641 -1.3738 -0.2380
 9132SOL    HW238859   0.189   4.007   4.786  0.6614  1.6051 -0.9914
 9133SOL     OW38860   3.740   1.040   2.397  0.8479  0.2443  0.1153
 9133SOL    HW138861   3.759   0.948   2.415  2.0171  0.5431  0.4519
 9133SOL    HW238862   3.767   1.046   2.306 -0.0394  2.6023  0.0138
 9134SOL     OW38863   3.294   3.548   5.250 -0.0512  0.4561 -0.2489
 9134SOL    HW138864   3.293   3.583   5.339  0.3210 -1.3979  0.4937
 9134SOL    HW238865   3.230   3.597   5.199 -1.5367 -2.0018 -0.7853
 9135SOL     OW38866   0.149   2.046   3.254 -0.1398  0.1187  0.2462
 9135SOL    HW138867   0.077   2.060   3.316  0.3638 -1.5586  1.1907
 9135SOL    HW238868   0.107   2.073   3.172 -1.2627 -0.7024  0.5463
 9136SOL     OW38869   1.217   0.564   9.980 -0.1699 -0.0632  0.0663
 9136SOL    HW138870   1.272   0.594   9.908 -1.9305  0.5895 -1.0078
 9136SOL    HW238871   1.247   0.473   9.977  1.4031  0.3658  2.8872
 9137SOL     OW38872   2.897   0.995   0.609 -0.0328  0.0932 -0.1724
 9137SOL    HW138873   2.984   0.997   0.567 -0.8536  0.2592 -1.8735
 9137SOL    HW238874   2.880   1.089   0.610  0.1434  0.1484 -2.3577
 9138SOL     OW38875   1.535   4.286   6.252  0.1382 -0.0119  0.3543
 9138SOL    HW138876   1.476   4.354   6.222 -1.6815 -0.5227  2.7580
 9138SOL    HW238877   1.465   4.230   6.287  0.4869 -0.6911 -0.0253
 9139SOL     OW38878   2.362   4.382   8.441  0.0880 -0.4530 -0.4539
 9139SOL    HW138879   2.324   4.427   8.516  1.7728  1.0933 -0.5508
 9139SOL    HW238880   2.300   4.378   8.368 -0.4549  3.1321 -0.1752
 9140SOL     OW38881   3.860   0.492   4.441 -0.3354  0.1645 -0.2532
 9140SOL    HW138882   3.824   0.420   4.389  1.4585 -2.5809  2.3304
 9140SOL    HW238883   3.878   0.459   4.529 -2.7576  0.4286  0.3640
 9141SOL     OW38884   2.893   1.031   6.454 -0.3668  0.0398 -0.5765
 9141SOL    HW138885   2.817   0.972   6.462  0.1820 -0.6098 -0.1363
 9141SOL    HW238886   2.944   0.995   6.382  2.5015 -1.3957  2.1743
 9142SOL     OW38887   4.522   1.210   9.718 -0.1608  0.0845 -0.7926
 9142SOL    HW138888   4.520   1.273   9.646  1.4025  1.9327  0.7823
 9142SOL    HW238889   4.548   1.123   9.685 -0.0017 -0.3098  0.3509
 9143SOL     OW38890   3.292   1.609   8.455 -0.2696 -0.2333 -0.2872
 9143SOL    HW138891   3.314   1.692   8.496 -2.4812  0.8195 -1.2236
 9143SOL    HW238892   3.382   1.586   8.433  0.1184 -0.5808  1.6686
 9144SOL     OW38893   1.299   2.465   8.477  0.3892  0.1189  0.1272
 9144SOL    HW138894   1.314   2.412   8.399  1.3659  0.7276 -0.0833
 9144SOL    HW238895   1.352   2.416   8.540  0.0309  0.8392  0.9938
 9145SOL     OW38896   0.943   4.495   3.535  0.1523  0.4665 -0.7245
 9145SOL    HW138897   0.970   4.423   3.478 -0.3979  1.2738 -1.9971
 9145SOL    HW238898   1.026   4.527   3.572  0.9135 -0.6946 -1.4414
 9146SOL     OW38899   2.142   0.279  16.150  0.5951 -0.0103 -0.9028
 9146SOL    HW138900   2.155   0.185  16.141 -2.2751 -0.3711 -1.2661
 9146SOL    HW238901   2.059   0.287  16.197  0.3985  0.5794 -1.3568
 9147SOL     OW38902   1.836   3.134  11.275 -0.1945 -1.0447  0.3240
 9147SOL    HW138903   1.854   3.143  11.368 -0.4861  2.4783  0.0624
 9147SOL    HW238904   1.924   3.107  11.251  0.0778 -0.1628  0.3263
 9148SOL     OW38905   3.683   3.350  13.512  0.0897  0.0110  0.4452
 9148SOL    HW138906   3.748   3.389  13.454 -1.0391  0.6271 -0.4206
 9148SOL    HW238907   3.607   3.391  13.470 -1.2506 -2.2643  0.6775
 9149SOL     OW38908   2.563   4.216   8.956 -0.1140  1.0748  0.0024
 9149SOL    HW138909   2.655   4.212   8.981 -0.3329 -0.3616  0.5398
 9149SOL    HW238910   2.516   4.167   9.023 -1.2229  1.0670 -0.7707
 9150SOL     OW38911   3.915   0.445  13.718 -0.0692  0.0331  0.3404
 9150SOL    HW138912   3.951   0.495  13.791 -0.3629  0.2666  0.3206
 9150SOL    HW238913   3.864   0.504  13.663  0.2809 -0.9283 -1.0225
 9151SOL     OW38914   4.543   2.830   2.598 -0.0174  0.1828 -0.1009
 9151SOL    HW138915   4.541   2.857   2.690 -1.8756 -2.0135  0.5104
 9151SOL    HW238916   4.637   2.818   2.583 -0.2404 -0.2601 -1.1358
 9152SOL     OW38917   3.844   0.303  13.413  0.3981 -0.8596 -0.1183
 9152SOL    HW138918   3.876   0.249  13.485  1.1434 -0.8714 -0.4519
 9152SOL    HW238919   3.913   0.368  13.403 -0.4530  0.2952  1.6588
 9153SOL     OW38920   4.380   3.705   7.653 -0.5505 -0.1014 -0.5897
 9153SOL    HW138921   4.334   3.775   7.606 -1.3540 -2.3460 -3.0961
 9153SOL    HW238922   4.390   3.638   7.585 -0.4745  0.4863 -1.1608
 9154SOL     OW38923   0.996   0.398   4.047 -0.3049  0.1977 -0.2140
 9154SOL    HW138924   0.924   0.442   4.092  0.7053  0.1576  1.4689
 9154SOL    HW238925   1.067   0.404   4.111  0.8715 -0.8640 -1.4224
 9155SOL     OW38926   1.704   0.143  12.582 -0.1619 -0.0438  0.1939
 9155SOL    HW138927   1.760   0.067  12.595 -0.4055  0.1414  2.2991
 9155SOL    HW238928   1.732   0.161  12.492  0.2661 -4.0418 -0.4610
 9156SOL     OW38929   0.726   3.732  12.524  0.1744  0.7017  0.3669
 9156SOL    HW138930   0.672   3.811  12.517 -1.4000 -0.3030  1.2421
 9156SOL    HW238931   0.735   3.732  12.620  0.9534  0.6272  0.2965
 9157SOL     OW38932   0.122   1.112   6.975 -0.8736  0.6320  0.3910
 9157SOL    HW138933   0.193   1.127   6.912 -0.7449 -0.1826  0.3290
 9157SOL    HW238934   0.045   1.103   6.919 -0.9410  0.4420  0.5165
 9158SOL     OW38935   1.285   4.724  10.981  0.6530 -0.5336 -0.2924
 9158SOL    HW138936   1.340   0.015  11.057 -0.9979  0.2802  0.7133
 9158SOL    HW238937   1.257   0.088  10.967  1.8228  0.2290  2.3120
 9159SOL     OW38938   0.704   3.512  10.440 -0.4571  0.3775  0.0357
 9159SOL    HW138939   0.628   3.465  10.404 -1.4039  0.5028  1.8760
 9159SOL    HW238940   0.688   3.602  10.412 -0.1088  1.0999  2.1732
 9160SOL     OW38941   3.448   3.102   5.926 -0.3501  0.1833 -0.2826
 9160SOL    HW138942   3.357   3.098   5.956 -0.5025 -0.2265 -0.8140
 9160SOL    HW238943   3.421   3.097   5.835 -4.1993  1.4473  0.7830
 9161SOL     OW38944   0.755   2.752   7.774 -0.4998 -0.2084  0.0191
 9161SOL    HW138945   0.784   2.796   7.695 -1.7419 -0.1984 -0.4266
 9161SOL    HW238946   0.815   2.788   7.839  0.2873 -0.4033 -0.6024
 9162SOL     OW38947   1.997   0.834   9.432 -0.3096 -0.5305  0.1183
 9162SOL    HW138948   1.942   0.875   9.498  0.5457  0.4652  0.2083
 9162SOL    HW238949   1.931   0.776   9.392 -1.2322 -0.0046  0.8965
 9163SOL     OW38950   4.671   4.058   2.039 -0.0627  0.2621 -0.1034
 9163SOL    HW138951   0.002   4.031   1.967  0.6792 -1.0912  0.9758
 9163SOL    HW238952   4.592   4.006   2.021  1.4907 -2.1193 -0.0666
 9164SOL     OW38953   0.749   1.268   6.577 -0.3012  0.4134  0.6051
 9164SOL    HW138954   0.824   1.317   6.612 -0.4234  0.1627  1.2134
 9164SOL    HW238955   0.788   1.252   6.491  3.6948 -0.4237  2.5610
 9165SOL     OW38956   3.687   3.196   3.390 -0.2770 -0.5606  0.4585
 9165SOL    HW138957   3.767   3.195   3.443  0.8820  1.9432 -1.2198
 9165SOL    HW238958   3.705   3.188   3.297  0.3302  0.6076  0.4806
 9166SOL     OW38959   0.858   3.281   5.028  0.5848 -0.0159  0.1766
 9166SOL    HW138960   0.855   3.315   4.939 -0.4156  1.2161  0.6868
 9166SOL    HW238961   0.863   3.191   4.996 -0.7671  0.3696 -1.1301
 9167SOL     OW38962   0.210   3.694   6.596  0.1204  0.1718 -0.9264
 9167SOL    HW138963   0.167   3.710   6.680 -1.3624 -3.7834 -0.9678
 9167SOL    HW238964   0.304   3.713   6.606 -0.0524 -0.5915  2.1887
 9168SOL     OW38965   1.873   3.316   5.411  0.3141  0.7428  0.5489
 9168SOL    HW138966   1.947   3.339   5.467  0.3494  2.2077 -0.1057
 9168SOL    HW238967   1.806   3.373   5.448  0.6469  1.3685  0.1810
 9169SOL     OW38968   1.135   0.599   9.083 -0.2082 -0.5024  0.0402
 9169SOL    HW138969   1.146   0.623   8.991 -1.2430  0.1475  0.0937
 9169SOL    HW238970   1.055   0.546   9.080  0.9507 -2.1608 -2.2163
 9170SOL     OW38971   1.902   3.219   1.957 -0.4281  0.2657 -0.0815
 9170SOL    HW138972   1.927   3.258   1.873 -2.6033  1.3952 -0.1914
 9170SOL    HW238973   1.884   3.129   1.928  0.0125  0.4115 -0.7887
 9171SOL     OW38974   2.646   0.139   0.921  0.0416  0.1407  0.2865
 9171SOL    HW138975   2.598   0.089   0.855  0.5502 -0.6103  0.4933
 9171SOL    HW238976   2.626   0.093   1.003 -0.3055 -0.3717 -0.0854
 9172SOL     OW38977   1.717   1.300   8.192  0.1206 -0.2898 -0.3351
 9172SOL    HW138978   1.768   1.276   8.115  1.3717  0.0724  0.3816
 9172SOL    HW238979   1.780   1.361   8.230 -0.0352  0.3521 -1.1186
 9173SOL     OW38980   1.813   2.811   1.262 -0.0086  0.5725  0.5853
 9173SOL    HW138981   1.732   2.854   1.236  0.8018  2.3291  0.9786
 9173SOL    HW238982   1.867   2.885   1.236 -0.3284  0.5276 -0.1963
 9174SOL     OW38983   0.620   1.967   5.852  0.3476  0.2430 -0.1661
 9174SOL    HW138984   0.636   1.912   5.929 -3.0199  0.6595  0.8112
 9174SOL    HW238985   0.576   1.905   5.794 -0.7730  1.7770 -0.9391
 9175SOL     OW38986   1.025   1.602   4.553  0.1006  0.0414  0.7407
 9175SOL    HW138987   0.993   1.517   4.582 -1.0164  0.5072  0.8523
 9175SOL    HW238988   1.023   1.598   4.457 -1.1488 -1.1276  0.8213
 9176SOL     OW38989   0.249   3.437   6.876  0.1206  0.3205 -0.1111
 9176SOL    HW138990   0.215   3.400   6.958 -2.0847  0.0235 -1.1511
 9176SOL    HW238991   0.167   3.477   6.845  0.6555  1.4128 -0.1109
 9177SOL     OW38992   2.707   2.352  11.611  0.4190 -0.3449 -0.2193
 9177SOL    HW138993   2.618   2.387  11.608 -0.7090 -3.2249 -0.3964
 9177SOL    HW238994   2.752   2.390  11.535  2.4151  0.2674  1.2678
 9178SOL     OW38995   2.954   0.030  14.031 -0.3274  0.3132 -0.3435
 9178SOL    HW138996   2.935   4.711  13.948  1.2358 -2.0815  0.5821
 9178SOL    HW238997   3.037   0.069  14.005  0.3993 -2.2795 -1.9725
 9179SOL     OW38998   4.268   4.353   2.156  0.0225  0.4326  0.3239
 9179SOL    HW138999   4.354   4.396   2.158  0.0508  0.4915 -1.3563
 9179SOL    HW239000   4.220   4.431   2.181 -0.5377 -0.0250  0.6562
 9180SOL     OW39001   3.091   4.284   8.853 -0.1589 -0.4445 -0.2095
 9180SOL    HW139002   3.152   4.238   8.795  0.5315  1.9559 -1.3885
 9180SOL    HW239003   3.021   4.289   8.787 -0.1527  0.2578 -0.1635
 9181SOL     OW39004   4.693   0.865  10.945  0.3304 -0.5520 -0.0012
 9181SOL    HW139005   4.606   0.847  10.982 -0.4227 -1.3556 -2.1680
 9181SOL    HW239006   4.720   0.773  10.940  3.3860  0.4016 -0.5450
 9182SOL     OW39007   4.396   0.918   0.086  0.3747  0.0677  0.0404
 9182SOL    HW139008   4.383   0.873   0.169  1.1513 -1.7982 -0.8468
 9182SOL    HW239009   4.429   1.007   0.096  1.2036 -0.2407  0.0442
 9183SOL     OW39010   4.567   4.075   2.600 -0.3127  0.8940  0.3678
 9183SOL    HW139011   4.480   4.041   2.618 -0.5556  2.7498  2.6819
 9183SOL    HW239012   4.570   4.048   2.508  0.2485 -2.2570  1.2957
 9184SOL     OW39013   1.125   2.440   3.509 -0.0874 -0.5992 -0.5263
 9184SOL    HW139014   1.218   2.438   3.532  0.4227 -2.8214 -2.7436
 9184SOL    HW239015   1.124   2.506   3.440 -0.8810  0.9845  0.9975
 9185SOL     OW39016   0.938   0.736   0.655 -0.2475  0.0303  0.2797
 9185SOL    HW139017   0.926   0.688   0.573 -1.6278  0.3200  0.3014
 9185SOL    HW239018   1.026   0.700   0.666 -0.7880 -1.8141 -1.3885
 9186SOL     OW39019   2.592   2.942   5.394  0.7079 -0.2389  0.5113
 9186SOL    HW139020   2.661   2.904   5.340 -1.1817 -2.2900 -0.4864
 9186SOL    HW239021   2.533   2.866   5.400  2.6249 -1.5286  2.9582
 9187SOL     OW39022   0.900   1.882   7.067  0.4169 -0.8509 -0.3575
 9187SOL    HW139023   0.849   1.819   7.119  0.4596 -1.1001 -0.6219
 9187SOL    HW239024   0.842   1.958   7.061 -1.0562 -1.9728 -0.1890
 9188SOL     OW39025   0.700   1.548  11.620  0.1410 -0.4131 -0.3007
 9188SOL    HW139026   0.758   1.548  11.544 -0.9378  0.1370 -1.1158
 9188SOL    HW239027   0.763   1.533  11.691 -0.1133  0.5504  0.1353
 9189SOL     OW39028   3.361   2.867   7.503  0.2701  0.5433 -0.2508
 9189SOL    HW139029   3.310   2.877   7.423  0.7449  0.0317 -0.6169
 9189SOL    HW239030   3.291   2.856   7.567 -1.5323 -1.4003 -2.5803
 9190SOL     OW39031   1.863   0.231   2.305 -0.1552 -0.5880 -0.8188
 9190SOL    HW139032   1.942   0.276   2.276 -2.0953  2.0937 -1.8849
 9190SOL    HW239033   1.791   0.293   2.311  0.7388  0.2878  0.9127
 9191SOL     OW39034   2.868   0.583  10.450  0.0586  0.2478  0.1794
 9191SOL    HW139035   2.895   0.656  10.395 -0.4985  1.7614  1.9160
 9191SOL    HW239036   2.777   0.601  10.474  0.0699  1.3714 -0.6455
 9192SOL     OW39037   3.955   2.821   7.652  0.7548 -0.3808  0.4282
 9192SOL    HW139038   3.923   2.830   7.563 -2.8565 -2.6056  1.5054
 9192SOL    HW239039   3.896   2.876   7.703 -1.9533 -2.3458 -0.5921
 9193SOL     OW39040   2.167   3.756   5.773  0.2474  0.2160 -0.3911
 9193SOL    HW139041   2.200   3.747   5.863  2.8166  1.3152 -1.2066
 9193SOL    HW239042   2.247   3.741   5.722  0.5326 -0.6085  0.3001
 9194SOL     OW39043   2.320   0.596   5.817 -0.0843 -0.5581  0.2254
 9194SOL    HW139044   2.243   0.548   5.784  0.5902  0.6590 -3.1809
 9194SOL    HW239045   2.372   0.530   5.862 -1.0539 -2.1863 -1.0168
 9195SOL     OW39046   0.717   0.830  11.486 -0.3437  0.1717  0.2919
 9195SOL    HW139047   0.803   0.869  11.472 -0.8013  0.5729 -1.3637
 9195SOL    HW239048   0.700   0.804  11.395  0.3336  0.5618  0.0559
 9196SOL     OW39049   1.634   1.142   6.372  0.3444 -0.3429 -0.1651
 9196SOL    HW139050   1.648   1.050   6.391 -0.4114 -0.1743  1.2078
 9196SOL    HW239051   1.724   1.171   6.381  1.0530 -2.7215  0.1820
 9197SOL     OW39052   0.367   4.165  11.331  0.2810  0.1599 -0.2226
 9197SOL    HW139053   0.395   4.246  11.289  1.3412 -0.0960 -0.0048
 9197SOL    HW239054   0.376   4.202  11.419 -0.6082  0.9386 -0.4574
 9198SOL     OW39055   2.601   1.276   0.317  0.0440  0.5141  0.1721
 9198SOL    HW139056   2.660   1.304   0.248  0.8680  1.1573  1.1294
 9198SOL    HW239057   2.565   1.363   0.335 -1.7364 -0.0197 -0.8486
 9199SOL     OW39058   2.874   0.233   7.400  0.1493 -0.4307 -0.2869
 9199SOL    HW139059   2.834   0.268   7.480 -0.5634 -2.3927  0.2154
 9199SOL    HW239060   2.820   0.272   7.332  2.1637  3.8297  0.5661
 9200SOL     OW39061   4.225   3.107   6.893 -0.2469 -0.4960 -0.4191
 9200SOL    HW139062   4.136   3.074   6.879 -0.5686 -0.2907  1.1060
 9200SOL    HW239063   4.268   3.027   6.864 -0.8175 -0.2551 -1.9414
 9201SOL     OW39064   4.596   0.895   1.957  0.1138 -0.5182 -0.6501
 9201SOL    HW139065   4.601   0.799   1.953  3.3926 -0.3467 -0.9392
 9201SOL    HW239066   4.686   0.916   1.981 -0.2842  1.9948 -1.3101
 9202SOL     OW39067   1.689   2.113   2.617 -0.2190  0.3077  0.1566
 9202SOL    HW139068   1.712   2.082   2.530 -1.2005 -1.6736  0.5912
 9202SOL    HW239069   1.616   2.053   2.632 -0.7457  1.2272  1.2802
 9203SOL     OW39070   2.146   2.966   4.724  0.2237 -0.1759 -0.2193
 9203SOL    HW139071   2.074   2.935   4.778  1.0418  0.1913  1.0944
 9203SOL    HW239072   2.094   3.021   4.666  1.0337  1.0731  0.2280
 9204SOL     OW39073   4.584   1.073   5.038  0.0982 -0.2095 -0.2302
 9204SOL    HW139074   4.594   1.127   4.960 -0.6504  0.1274 -0.0976
 9204SOL    HW239075   4.520   1.011   5.004 -0.8136  0.5963  0.0245
 9205SOL     OW39076   3.380   3.492   7.956  0.5978 -0.3343  0.1593
 9205SOL    HW139077   3.465   3.512   7.917 -0.2425  0.0313 -1.4662
 9205SOL    HW239078   3.402   3.464   8.045  0.4402 -1.1981 -0.0678
 9206SOL     OW39079   3.777   2.509   7.215 -0.3500  0.3445 -0.3927
 9206SOL    HW139080   3.747   2.501   7.306 -0.4117  3.5627 -0.1196
 9206SOL    HW239081   3.745   2.425   7.183  1.4120 -0.3602 -0.2987
 9207SOL     OW39082   0.452   1.101  10.415  0.2624  0.2516  0.1616
 9207SOL    HW139083   0.531   1.091  10.467  0.6190  1.7305 -0.1197
 9207SOL    HW239084   0.403   1.167  10.463 -0.2569  1.7227 -2.3525
 9208SOL     OW39085   2.200   3.906  10.359 -0.1735 -0.5301  0.0797
 9208SOL    HW139086   2.156   3.954  10.429  1.3268 -1.3330  1.5535
 9208SOL    HW239087   2.229   3.980  10.306 -1.9098  0.9203  1.1613
 9209SOL     OW39088   3.672   0.369   4.694  0.2622 -0.0746 -0.1636
 9209SOL    HW139089   3.620   0.395   4.771 -0.6382  0.1397 -0.8483
 9209SOL    HW239090   3.613   0.397   4.625  1.5164  0.3374 -1.0825
 9210SOL     OW39091   2.039   2.422   8.193  0.0018 -0.2573  0.3865
 9210SOL    HW139092   2.015   2.343   8.242  2.4659 -1.6826 -0.7000
 9210SOL    HW239093   1.963   2.437   8.136  3.1467  3.0935 -2.8824
 9211SOL     OW39094   2.599   1.918   7.004  0.2986  0.0388  0.3228
 9211SOL    HW139095   2.567   1.907   6.914  0.0697 -2.2835  0.6894
 9211SOL    HW239096   2.554   2.001   7.017  0.8692  0.5490 -1.0451
 9212SOL     OW39097   0.406   4.328   4.195  0.0037  0.3048  0.3457
 9212SOL    HW139098   0.348   4.262   4.234  0.5568 -0.2125  0.2762
 9212SOL    HW239099   0.437   4.382   4.268 -0.0125 -0.0790  0.6341
 9213SOL     OW39100   2.873   3.600  12.912  0.0985 -0.0839 -0.1926
 9213SOL    HW139101   2.874   3.553  12.828 -1.2746 -2.0799  0.9014
 9213SOL    HW239102   2.948   3.658  12.917  0.9304 -1.4934  2.9905
 9214SOL     OW39103   2.771   0.920  11.133  0.3467  0.2257 -0.2468
 9214SOL    HW139104   2.860   0.898  11.159  1.1139  2.1136 -1.2793
 9214SOL    HW239105   2.772   1.015  11.142  0.2713  0.0443  1.5372
 9215SOL     OW39106   0.991   0.305  16.693  0.1506 -0.3408  0.0645
 9215SOL    HW139107   1.043   0.303  16.613 -1.5564  0.9905 -1.0933
 9215SOL    HW239108   0.930   0.377  16.678 -1.5862 -1.7104  0.4875
 9216SOL     OW39109   0.158   3.581   5.958  0.5825 -0.1859 -0.6742
 9216SOL    HW139110   0.157   3.676   5.961 -0.6771 -0.2143  0.1417
 9216SOL    HW239111   0.119   3.556   6.042  0.6854 -3.4006 -1.5891
 9217SOL     OW39112   4.690   0.092   0.945  0.1952 -0.4430 -0.1922
 9217SOL    HW139113   0.015   0.104   1.025  0.8603  2.0934 -0.9993
 9217SOL    HW239114   4.636   0.020   0.979  0.0725  1.2579  3.1978
 9218SOL     OW39115   2.439   3.319   1.225 -0.1719 -0.2519  0.1412
 9218SOL    HW139116   2.477   3.231   1.220  0.6672 -0.0016  1.9578
 9218SOL    HW239117   2.499   3.359   1.162 -1.3691  2.1844  0.5301
 9219SOL     OW39118   0.508   1.598   0.896  0.9606 -0.0549  0.9799
 9219SOL    HW139119   0.561   1.526   0.861 -3.8053 -3.2749  0.4956
 9219SOL    HW239120   0.524   1.575   0.988  2.5468  0.3440  0.8043
 9220SOL     OW39121   1.758   4.435   9.378  0.7558  0.6453 -0.3831
 9220SOL    HW139122   1.708   4.493   9.436  0.8338 -0.9853  1.3052
 9220SOL    HW239123   1.803   4.374   9.437 -1.9919 -0.2168  0.8444
 9221SOL     OW39124   1.028   2.775  15.416 -0.2820 -0.0631 -0.3021
 9221SOL    HW139125   0.958   2.841  15.417  0.9803  1.2637  1.2475
 9221SOL    HW239126   1.003   2.726  15.495  1.0745 -0.4257 -0.0998
 9222SOL     OW39127   1.877   3.003   8.786 -0.2075  0.3845  0.4328
 9222SOL    HW139128   1.873   2.910   8.805 -0.4969  0.3338  0.1240
 9222SOL    HW239129   1.951   3.010   8.726 -0.1139 -0.9379  0.4050
 9223SOL     OW39130   1.792   0.750   0.713  0.0039  0.2303  0.4030
 9223SOL    HW139131   1.869   0.737   0.658  1.0245 -2.0441  2.3845
 9223SOL    HW239132   1.776   0.844   0.703  0.6868  0.3202  0.1710
 9224SOL     OW39133   4.213   2.393  15.847  0.3108 -0.1737  0.0631
 9224SOL    HW139134   4.142   2.398  15.784  1.2731  1.6036 -0.8764
 9224SOL    HW239135   4.171   2.436  15.922  1.2569 -1.3070  1.2492
 9225SOL     OW39136   0.460   0.706   8.176 -0.4240  0.3144  0.1270
 9225SOL    HW139137   0.539   0.652   8.165  1.5705  3.5514 -1.3910
 9225SOL    HW239138   0.441   0.749   8.092  1.6752  1.9570  0.4861
 9226SOL     OW39139   2.483   1.136   6.981 -0.0619 -0.0558 -0.5473
 9226SOL    HW139140   2.402   1.183   6.963 -0.2303 -0.3349 -0.5225
 9226SOL    HW239141   2.536   1.155   6.904 -1.2251 -0.0533 -1.3384
 9227SOL     OW39142   1.184   4.469  11.095  0.0161 -0.3973 -0.2557
 9227SOL    HW139143   1.245   4.521  11.042 -0.1127  0.9840  0.9722
 9227SOL    HW239144   1.218   4.474  11.184  1.9642 -1.0688 -0.9638
 9228SOL     OW39145   3.865   3.310   7.048 -0.5125  0.2601  0.2608
 9228SOL    HW139146   3.942   3.271   7.008 -0.6735 -0.0758  0.2809
 9228SOL    HW239147   3.900   3.391   7.086  1.8486 -1.2790  1.3403
 9229SOL     OW39148   0.385   1.067   8.786 -0.5674  0.0069 -0.1447
 9229SOL    HW139149   0.357   0.998   8.846  1.0318  1.2022  1.9664
 9229SOL    HW239150   0.457   1.019   8.744 -0.3260 -0.5563  0.9091
 9230SOL     OW39151   2.034   4.666  11.266  0.3996  0.2909 -0.7463
 9230SOL    HW139152   2.044   4.571  11.268  0.5009  0.3676  1.6410
 9230SOL    HW239153   1.941   4.675  11.247  0.2642 -0.7749 -0.6131
 9231SOL     OW39154   0.237   0.373   4.206 -0.2155 -0.2598 -0.2220
 9231SOL    HW139155   0.279   0.352   4.289  0.4113  1.1842 -0.1634
 9231SOL    HW239156   0.170   0.306   4.198 -2.9935  2.2756  1.9592
 9232SOL     OW39157   1.436   3.808  10.270  0.0620 -0.1255 -0.3630
 9232SOL    HW139158   1.402   3.893  10.299  1.0865 -0.0702  0.6756
 9232SOL    HW239159   1.412   3.805  10.178 -1.6772  0.7210  0.0652
 9233SOL     OW39160   0.700   0.925   6.946 -0.4217 -0.3802  0.0179
 9233SOL    HW139161   0.674   0.987   6.878 -0.8219 -2.1087 -1.4023
 9233SOL    HW239162   0.788   0.904   6.916  0.1761  1.0450  0.7649
 9234SOL     OW39163   0.802   3.682  15.952 -0.5926  0.1428  0.0155
 9234SOL    HW139164   0.855   3.666  15.873  2.9384 -0.4387  2.5031
 9234SOL    HW239165   0.779   3.595  15.986  1.6990 -1.1004 -1.5719
 9235SOL     OW39166   1.144   2.955   6.413  0.0867 -0.1850  0.1996
 9235SOL    HW139167   1.091   3.032   6.434  2.3442  1.3728  0.2748
 9235SOL    HW239168   1.160   2.915   6.498 -0.5504 -0.8526  0.0004
 9236SOL     OW39169   2.639   4.102   8.322  0.8026 -0.1295 -0.4704
 9236SOL    HW139170   2.659   4.193   8.300 -1.4202  0.3840 -0.3517
 9236SOL    HW239171   2.603   4.106   8.410 -0.0039 -2.5032 -0.6871
 9237SOL     OW39172   2.397   4.371   0.510  0.1131  0.2726 -0.5319
 9237SOL    HW139173   2.443   4.455   0.522  0.7581 -0.0522 -0.7446
 9237SOL    HW239174   2.459   4.322   0.456 -0.2102  1.7675 -2.2604
 9238SOL     OW39175   2.786   4.496   9.648 -0.2605 -0.5969 -0.3779
 9238SOL    HW139176   2.814   4.467   9.561 -2.2639 -1.2231 -0.8216
 9238SOL    HW239177   2.706   4.443   9.656 -1.0443  0.6113 -0.1373
 9239SOL     OW39178   2.291   4.466   5.757  0.1870 -0.3750  0.0099
 9239SOL    HW139179   2.343   4.435   5.831  2.4268  0.8849 -1.0369
 9239SOL    HW239180   2.305   4.561   5.755  1.6584 -0.5293  2.9202
 9240SOL     OW39181   1.952   3.220   3.646  0.2933  0.7495  0.2354
 9240SOL    HW139182   1.926   3.312   3.650 -0.6541  0.4650  0.4921
 9240SOL    HW239183   2.036   3.222   3.692 -0.1575 -1.6910  1.1725
 9241SOL     OW39184   1.183   0.320   2.500  0.5713 -0.0887  0.1240
 9241SOL    HW139185   1.232   0.257   2.448 -1.0523  1.0068 -2.7390
 9241SOL    HW239186   1.117   0.337   2.433  1.0613 -2.3074 -0.9121
 9242SOL     OW39187   3.457   0.904   2.552 -0.2536  0.3866 -0.1735
 9242SOL    HW139188   3.488   0.985   2.512 -0.7939  0.2012 -0.9655
 9242SOL    HW239189   3.489   0.839   2.489  0.9389  0.9484 -0.1307
 9243SOL     OW39190   0.307   1.963   2.855  0.3151  0.3245  0.4494
 9243SOL    HW139191   0.254   1.883   2.851 -0.7753  1.0329  0.5412
 9243SOL    HW239192   0.271   2.009   2.778  1.9811  1.0183  0.0970
 9244SOL     OW39193   2.978   0.567   8.844 -0.1131 -0.3284  0.8857
 9244SOL    HW139194   2.981   0.483   8.799 -1.0743  0.2411 -0.2710
 9244SOL    HW239195   3.023   0.630   8.788  0.7342 -1.9723 -0.2543
 9245SOL     OW39196   1.671   2.968   0.120 -0.1199 -0.0832 -0.0115
 9245SOL    HW139197   1.756   2.976   0.077 -2.0978  0.7577 -3.7948
 9245SOL    HW239198   1.700   2.980   0.210 -0.6388  0.5913  0.0614
 9246SOL     OW39199   2.641   1.792  10.273  0.0637 -0.0124  0.1473
 9246SOL    HW139200   2.673   1.866  10.325  0.2251 -1.0353  1.4995
 9246SOL    HW239201   2.687   1.801  10.190 -3.4998  1.9896 -1.6540
 9247SOL     OW39202   2.996   0.525  11.767  0.1528  0.8672 -0.1553
 9247SOL    HW139203   2.933   0.493  11.703 -0.2066  1.1764  0.0333
 9247SOL    HW239204   2.953   0.496  11.848 -0.7670  0.9170 -0.6159
 9248SOL     OW39205   0.681   4.336   6.224  0.0675 -0.0495  0.2378
 9248SOL    HW139206   0.764   4.323   6.179  0.0406 -2.8927  1.0118
 9248SOL    HW239207   0.681   4.430   6.244 -0.5254 -0.5147  2.4602
 9249SOL     OW39208   2.292   1.172   4.992 -0.2328  0.0834 -0.3042
 9249SOL    HW139209   2.367   1.124   5.029 -0.4118  0.3970  0.4690
 9249SOL    HW239210   2.247   1.099   4.951 -2.4707  1.1083  0.3139
 9250SOL     OW39211   1.995   4.197   7.958  0.2072  0.4988  0.5699
 9250SOL    HW139212   2.033   4.204   8.046  0.3480  1.6982  0.4061
 9250SOL    HW239213   2.019   4.105   7.943  0.4652  0.0170  3.8931
 9251SOL     OW39214   4.629   3.936   7.975  0.0586 -0.2519 -0.1347
 9251SOL    HW139215   4.704   3.976   8.019 -0.3645 -0.8397  1.1153
 9251SOL    HW239216   4.562   3.929   8.043  0.7185 -3.7672  0.1599
 9252SOL     OW39217   3.798   3.957   6.411  0.2255  0.4993 -0.1407
 9252SOL    HW139218   3.868   4.004   6.366  2.5725 -1.8722  0.9576
 9252SOL    HW239219   3.837   3.915   6.488 -2.0117 -2.4564 -0.6274
 9253SOL     OW39220   4.412   3.379  14.091 -0.0686  0.1087 -0.0620
 9253SOL    HW139221   4.400   3.471  14.067 -1.5849 -0.1552 -0.3631
 9253SOL    HW239222   4.347   3.381  14.161  2.9293 -1.8465  2.7385
 9254SOL     OW39223   0.873   1.521   2.287 -0.1021 -0.2695  0.5217
 9254SOL    HW139224   0.880   1.503   2.193 -2.4601 -0.2344  0.3347
 9254SOL    HW239225   0.899   1.613   2.283 -0.1924 -0.2809 -0.3304
 9255SOL     OW39226   2.134   1.198   2.965  0.2702  0.6594  0.3806
 9255SOL    HW139227   2.220   1.159   2.979  0.0005 -1.3399 -3.5231
 9255SOL    HW239228   2.084   1.116   2.962 -1.7999  1.9205  0.6014
 9256SOL     OW39229   3.586   3.474   4.367 -0.5774 -0.5070  0.1695
 9256SOL    HW139230   3.587   3.430   4.452 -0.9802  1.0981  0.9905
 9256SOL    HW239231   3.578   3.564   4.396 -2.4519 -0.6289  0.0175
 9257SOL     OW39232   0.949   1.958   3.556 -0.2299 -0.0510 -0.1603
 9257SOL    HW139233   0.975   2.042   3.517 -2.5380  0.4457 -0.6252
 9257SOL    HW239234   1.007   1.895   3.513 -2.0870 -1.3473 -0.7600
 9258SOL     OW39235   2.284   2.642   4.516  0.3709  0.2751  0.2949
 9258SOL    HW139236   2.283   2.677   4.427  1.1080 -2.6269 -0.8354
 9258SOL    HW239237   2.370   2.605   4.532  0.8770  1.2286 -0.1922
 9259SOL     OW39238   0.967   0.626   2.609  0.0397  0.2031  0.3085
 9259SOL    HW139239   0.984   0.619   2.515 -1.2092 -1.6033  0.2172
 9259SOL    HW239240   0.873   0.636   2.596  0.1159 -0.0439 -0.3976
 9260SOL     OW39241   0.676   3.845   5.623 -0.1245 -0.4450 -0.4532
 9260SOL    HW139242   0.701   3.770   5.569 -2.0057 -1.6319  0.3322
 9260SOL    HW239243   0.636   3.908   5.563 -0.5040 -0.7339 -0.5025
 9261SOL     OW39244   0.035   2.840   5.725  0.1009 -0.5105  0.1954
 9261SOL    HW139245   0.060   2.932   5.717 -1.5499 -0.2090 -1.5727
 9261SOL    HW239246   0.072   2.808   5.807 -2.8989 -3.2606  0.4770
 9262SOL     OW39247   2.951   1.653   3.017 -0.2418 -0.2702 -0.2951
 9262SOL    HW139248   2.925   1.625   2.929  0.7315 -4.9652  0.8730
 9262SOL    HW239249   3.041   1.678   3.000 -0.6348  1.6446  0.4488
 9263SOL     OW39250   2.298   0.156   8.501 -0.0570 -0.2895  0.0267
 9263SOL    HW139251   2.311   0.102   8.580 -0.4473 -0.8214 -0.2750
 9263SOL    HW239252   2.367   0.121   8.444  1.4005 -1.3660  2.4257
 9264SOL     OW39253   4.648   1.422   1.754  0.1510 -0.2823 -0.0028
 9264SOL    HW139254   4.604   1.346   1.717  5.1325 -2.5298 -1.2612
 9264SOL    HW239255   4.714   1.378   1.809  1.0099  1.4211  0.3386
 9265SOL     OW39256   0.343   1.700  11.197 -0.5672 -0.5896  0.0718
 9265SOL    HW139257   0.430   1.723  11.165  0.6695 -2.3095  2.2477
 9265SOL    HW239258   0.315   1.643  11.126 -1.1868 -2.0278  1.4857
 9266SOL     OW39259   0.718   4.036   7.518  0.9312  0.0036  0.4866
 9266SOL    HW139260   0.737   3.947   7.487  1.2155 -0.2950  1.5070
 9266SOL    HW239261   0.681   4.017   7.605  2.9036 -3.3495  0.5963
 9267SOL     OW39262   2.640   3.311   0.870 -0.9461  0.3706  0.0711
 9267SOL    HW139263   2.564   3.283   0.818 -0.1598 -2.3660  0.3923
 9267SOL    HW239264   2.710   3.258   0.833 -1.1220  1.1144 -1.3444
 9268SOL     OW39265   0.552   2.923  16.975 -0.4475  0.1311  0.2528
 9268SOL    HW139266   0.611   2.864  16.927 -1.0838 -2.1539  2.2714
 9268SOL    HW239267   0.473   2.870  16.986 -0.8812  0.7391  0.0626
 9269SOL     OW39268   4.024   4.608   0.933 -0.3496  0.3920 -0.3642
 9269SOL    HW139269   3.984   4.550   0.999  0.3578  1.4055  0.9626
 9269SOL    HW239270   3.946   4.659   0.911 -0.8671 -0.3841 -0.3468
 9270SOL     OW39271   1.716   3.964  15.466  0.3324  0.2049 -0.0795
 9270SOL    HW139272   1.625   3.985  15.441  0.3245  1.3554  0.9146
 9270SOL    HW239273   1.735   4.047  15.511  0.6064 -0.4387  0.9759
 9271SOL     OW39274   4.266   3.089   1.618  0.4805 -0.1619 -0.3383
 9271SOL    HW139275   4.201   3.157   1.635  0.2549 -0.6592  0.7940
 9271SOL    HW239276   4.322   3.101   1.695  0.8792 -1.2638 -0.4588
 9272SOL     OW39277   2.457   3.694   4.167 -0.1475  0.0521 -0.2364
 9272SOL    HW139278   2.374   3.695   4.215 -0.2994 -1.5937 -0.4612
 9272SOL    HW239279   2.415   3.706   4.082  0.2353 -0.6662 -0.5304
 9273SOL     OW39280   1.835   2.019  17.115  0.1510  0.1650  0.8027
 9273SOL    HW139281   1.754   2.002  17.067 -0.8097  0.6793  2.2441
 9273SOL    HW239282   1.897   2.041  17.045 -1.3136  0.9691 -0.2362
 9274SOL     OW39283   0.351   2.911   7.614 -0.0657 -0.3008 -0.3158
 9274SOL    HW139284   0.397   2.827   7.624  0.7145  0.3102  1.3561
 9274SOL    HW239285   0.369   2.958   7.695 -0.1564  1.2641 -1.2154
 9275SOL     OW39286   1.143   1.214   1.984  0.1302  0.1710  0.1553
 9275SOL    HW139287   1.062   1.185   2.025 -0.0235 -0.0511 -0.3084
 9275SOL    HW239288   1.129   1.308   1.976  0.8506  0.2362 -0.4273
 9276SOL     OW39289   1.866   2.337  11.485  0.3357  0.7287 -0.3044
 9276SOL    HW139290   1.937   2.273  11.481  0.2503  0.5540  0.7419
 9276SOL    HW239291   1.807   2.307  11.416 -1.0516  1.1353  0.7150
 9277SOL     OW39292   2.242   3.191   2.220  0.1580  0.1200  0.0226
 9277SOL    HW139293   2.286   3.265   2.177  0.1164 -0.9038 -1.7742
 9277SOL    HW239294   2.303   3.122   2.195  0.9877  0.9605 -0.2748
 9278SOL     OW39295   0.456   3.040   6.931 -0.1360  1.0471 -0.2540
 9278SOL    HW139296   0.362   3.033   6.948  0.1473  0.7241  1.1608
 9278SOL    HW239297   0.491   3.109   6.987  0.4138 -0.9519  1.8493
 9279SOL     OW39298   2.857   3.362   7.935  0.7051 -0.5472  0.8587
 9279SOL    HW139299   2.864   3.290   7.998  1.3106 -0.5861  0.7476
 9279SOL    HW239300   2.944   3.401   7.938  0.7187 -0.5098 -0.1183
 9280SOL     OW39301   3.451   0.363   6.205  0.2456  0.1630 -0.1939
 9280SOL    HW139302   3.383   0.430   6.199 -0.4311 -0.7837 -2.7310
 9280SOL    HW239303   3.434   0.301   6.135 -1.6389  0.3830  0.0743
 9281SOL     OW39304   3.513   3.677   9.192 -0.1288  0.1208 -0.4340
 9281SOL    HW139305   3.422   3.661   9.217  0.0343  1.4452  1.0549
 9281SOL    HW239306   3.506   3.755   9.137  2.6512  1.8856  1.6996
 9282SOL     OW39307   0.424   2.337   3.809  0.7661 -0.4751 -0.1404
 9282SOL    HW139308   0.489   2.269   3.826 -0.1613 -1.1646  0.6384
 9282SOL    HW239309   0.458   2.413   3.855  1.1819 -1.5191  1.2815
 9283SOL     OW39310   1.161   0.896   4.714  0.0603  0.2627  0.4603
 9283SOL    HW139311   1.170   0.884   4.809 -0.0250 -0.6348  0.3560
 9283SOL    HW239312   1.116   0.980   4.713  0.0720  0.2471 -1.0520
 9284SOL     OW39313   2.184   1.148  11.071  0.1991  0.2122 -0.3898
 9284SOL    HW139314   2.144   1.101  10.999  0.7142  1.2906 -1.3832
 9284SOL    HW239315   2.215   1.230  11.031  0.2340  0.6953  0.6116
 9285SOL     OW39316   0.934   0.744   3.563  0.1741 -0.5889 -0.3815
 9285SOL    HW139317   0.845   0.734   3.528  0.9408  0.5827 -2.6496
 9285SOL    HW239318   0.968   0.782   3.483 -1.7089 -1.3731 -1.5588
 9286SOL     OW39319   0.538   4.356   8.532  0.0598  0.0883 -1.0107
 9286SOL    HW139320   0.578   4.435   8.568 -0.5089  0.2981 -0.8440
 9286SOL    HW239321   0.614   4.299   8.540  0.3511  0.8475  1.7815
 9287SOL     OW39322   3.298   3.602   4.833 -0.2037  0.1879 -0.6101
 9287SOL    HW139323   3.242   3.547   4.777  0.0341 -1.6678  0.9674
 9287SOL    HW239324   3.272   3.570   4.919 -0.0399 -0.6789 -0.8728
 9288SOL     OW39325   3.069   1.584   6.800  0.3477 -0.4067  0.4246
 9288SOL    HW139326   3.131   1.526   6.845  0.1706 -0.2427  0.8881
 9288SOL    HW239327   3.040   1.640   6.872 -3.5339 -1.5620 -0.1981
 9289SOL     OW39328   1.141   2.953  15.584  0.1788 -0.0101  0.1997
 9289SOL    HW139329   1.100   2.905  15.512 -2.3562  0.5637  1.2436
 9289SOL    HW239330   1.062   2.972  15.636 -0.2187 -1.1839  0.0270
 9290SOL     OW39331   0.860   4.374  14.913 -0.3510 -0.5304 -0.5559
 9290SOL    HW139332   0.889   4.292  14.953  1.3281 -0.3075 -1.3298
 9290SOL    HW239333   0.787   4.330  14.867 -2.7419  2.2072  0.6088
 9291SOL     OW39334   2.200   0.934   0.671  0.2613 -0.2234  0.2269
 9291SOL    HW139335   2.235   0.909   0.585  0.8450 -0.1723  0.4536
 9291SOL    HW239336   2.280   0.979   0.699 -0.6117  2.3091 -1.3774
 9292SOL     OW39337   0.651   3.324   8.377  0.5323 -0.5243 -0.3392
 9292SOL    HW139338   0.636   3.258   8.445  3.1834 -0.1607  0.6073
 9292SOL    HW239339   0.566   3.356   8.348  0.2963 -0.9589 -0.1201
 9293SOL     OW39340   0.390   0.408   3.169 -0.4788  0.6581 -0.3912
 9293SOL    HW139341   0.380   0.323   3.210 -1.1671  0.7051 -0.4676
 9293SOL    HW239342   0.458   0.387   3.105  0.6205 -0.6848  1.2207
 9294SOL     OW39343   4.335   1.234   7.584  0.3642 -0.0236 -0.2482
 9294SOL    HW139344   4.268   1.230   7.652 -1.1935 -1.1249 -1.8643
 9294SOL    HW239345   4.405   1.283   7.628  0.6457 -0.1463 -0.5568
 9295SOL     OW39346   3.503   4.322   6.245  0.2229  0.0007 -0.2785
 9295SOL    HW139347   3.430   4.351   6.301 -1.5773 -2.4669 -1.3669
 9295SOL    HW239348   3.493   4.228   6.261 -0.9959 -0.2046 -2.2487
 9296SOL     OW39349   3.362   1.607   4.790  0.0606 -0.5230 -0.1562
 9296SOL    HW139350   3.321   1.579   4.872  0.0705 -0.9638 -0.2986
 9296SOL    HW239351   3.310   1.685   4.773 -0.2593 -0.9372 -1.0664
 9297SOL     OW39352   3.768   1.684   4.518 -0.2896 -0.3823  0.6379
 9297SOL    HW139353   3.694   1.711   4.463  1.5216  1.0545 -1.0519
 9297SOL    HW239354   3.833   1.753   4.514 -0.8392  0.0898 -0.1828
 9298SOL     OW39355   0.162   2.283   4.884  0.4018 -0.0698 -0.3738
 9298SOL    HW139356   0.100   2.247   4.947  2.0914 -2.1165  0.1478
 9298SOL    HW239357   0.134   2.374   4.878 -0.6066 -0.2426  1.7986
 9299SOL     OW39358   3.757   3.114   1.172  0.7742 -0.0028  0.2329
 9299SOL    HW139359   3.806   3.038   1.140 -0.1696 -0.1608 -0.8185
 9299SOL    HW239360   3.672   3.084   1.206  0.8511 -1.4371 -0.8403
 9300SOL     OW39361   4.337   3.059   8.056  0.2414 -0.5956  0.5416
 9300SOL    HW139362   4.297   3.039   8.140 -1.3149  2.6457  0.5324
 9300SOL    HW239363   4.402   3.126   8.078 -0.3178 -0.0390  0.4805
 9301SOL     OW39364   1.595   3.352  14.964  0.2514 -0.0105 -0.2654
 9301SOL    HW139365   1.518   3.369  15.018  0.2094  1.6281 -0.8530
 9301SOL    HW239366   1.648   3.425  14.994 -1.0720 -0.3090  2.7822
 9302SOL     OW39367   4.630   1.409   0.494  0.0681 -0.0817  0.1521
 9302SOL    HW139368   4.603   1.493   0.457 -1.2026 -0.3212  0.5126
 9302SOL    HW239369   4.605   1.352   0.421 -2.1538 -0.4902  1.2129
 9303SOL     OW39370   4.218   2.888   6.501 -0.0857 -0.3613 -0.4231
 9303SOL    HW139371   4.278   2.842   6.443  2.0004  0.8076  0.8308
 9303SOL    HW239372   4.267   2.884   6.583  2.9253 -0.6034 -2.2442
 9304SOL     OW39373   2.209   3.717   9.945 -0.0024 -0.0690 -0.2734
 9304SOL    HW139374   2.253   3.670  10.016  0.9749  0.1475 -0.7383
 9304SOL    HW239375   2.120   3.721   9.979  1.2096  1.3887  2.7162
 9305SOL     OW39376   0.470   2.586  11.657 -0.1526  0.5751  0.3527
 9305SOL    HW139377   0.429   2.500  11.651  0.9298  0.0238  0.9273
 9305SOL    HW239378   0.560   2.565  11.634 -0.2315  1.0056 -0.3480
 9306SOL     OW39379   0.792   1.333   1.686  0.5120  0.0161  0.1260
 9306SOL    HW139380   0.783   1.238   1.686  1.9648 -0.1121 -0.4440
 9306SOL    HW239381   0.885   1.346   1.666  0.4304  1.5953  0.7403
 9307SOL     OW39382   3.100   0.398   8.015 -0.2884 -0.2097  0.0744
 9307SOL    HW139383   3.070   0.436   8.097 -1.2140 -0.3257 -0.2146
 9307SOL    HW239384   3.153   0.327   8.052 -2.9529 -1.1986  2.0172
 9308SOL     OW39385   3.349   0.683   9.174 -0.1189  0.1169  0.1638
 9308SOL    HW139386   3.285   0.631   9.125  2.0404 -0.6618 -1.8027
 9308SOL    HW239387   3.289   0.721   9.238  2.5653 -0.4412  2.9987
 9309SOL     OW39388   0.353   3.858   9.211 -0.1771  0.5738  0.2442
 9309SOL    HW139389   0.265   3.832   9.239  1.3583 -2.5523  2.0773
 9309SOL    HW239390   0.401   3.862   9.294 -2.0182  0.4838  1.3180
 9310SOL     OW39391   2.055   1.099   6.933 -0.3561  0.4207  0.2614
 9310SOL    HW139392   2.142   1.107   6.972 -0.5043  0.2239  0.6275
 9310SOL    HW239393   2.089   1.111   6.845 -0.1728 -0.9516  0.1496
 9311SOL     OW39394   2.608   1.619   0.516  0.3553  0.4376  0.7811
 9311SOL    HW139395   2.545   1.586   0.451 -1.0037  2.8382  0.9003
 9311SOL    HW239396   2.678   1.591   0.458 -1.7819 -0.7523 -1.2621
 9312SOL     OW39397   2.953   3.622   8.111  0.3285  0.0791  0.0485
 9312SOL    HW139398   3.017   3.551   8.111  1.1035  0.7967  2.6754
 9312SOL    HW239399   2.934   3.632   8.204  0.9303 -2.9661  0.4935
 9313SOL     OW39400   0.294   3.092   8.960  0.6105  0.6747  0.0132
 9313SOL    HW139401   0.302   3.050   8.874  0.2061  0.2831  0.1666
 9313SOL    HW239402   0.231   3.041   9.010  2.3806 -0.3424  1.1772
 9314SOL     OW39403   0.733   2.508   3.560  0.2563  0.3078 -0.0910
 9314SOL    HW139404   0.648   2.540   3.531  0.8241  0.0203 -2.0546
 9314SOL    HW239405   0.759   2.593   3.597 -1.5702  1.4322 -1.4343
 9315SOL     OW39406   3.758   2.559   9.627  0.3155 -1.0413 -0.3777
 9315SOL    HW139407   3.768   2.481   9.681 -0.0840  0.5170  1.9491
 9315SOL    HW239408   3.681   2.524   9.583 -0.9999  0.0488  1.0625
 9316SOL     OW39409   2.640   2.733   7.287  0.3020  0.5051  0.7946
 9316SOL    HW139410   2.666   2.694   7.203  0.9637  1.1140  0.7094
 9316SOL    HW239411   2.714   2.703   7.340 -0.3808 -0.0614  1.4137
 9317SOL     OW39412   1.816   3.227   6.706  0.3356 -0.5478 -0.0306
 9317SOL    HW139413   1.851   3.179   6.781  1.3860 -0.0361 -0.2050
 9317SOL    HW239414   1.724   3.208   6.724  0.1398  1.3363  0.9297
 9318SOL     OW39415   1.481   1.414  11.000  0.0555 -0.2110 -0.0342
 9318SOL    HW139416   1.514   1.333  11.040 -0.3642  0.4269  1.5854
 9318SOL    HW239417   1.409   1.382  10.945 -0.4333  1.2854 -0.2725
 9319SOL     OW39418   2.164   3.245   7.659  0.0933  0.0539 -0.3597
 9319SOL    HW139419   2.119   3.319   7.619  1.1490  0.2149 -1.2485
 9319SOL    HW239420   2.120   3.173   7.615 -0.7671  1.6381 -2.0721
 9320SOL     OW39421   0.516   1.173   2.304  0.5433 -0.0871 -0.4844
 9320SOL    HW139422   0.607   1.199   2.314  0.3534  0.7542 -0.8953
 9320SOL    HW239423   0.491   1.239   2.238 -2.2737 -0.5950  0.0978
 9321SOL     OW39424   3.654   1.031   3.891 -0.3213 -0.4130  0.5316
 9321SOL    HW139425   3.613   0.966   3.833 -0.9467  0.0884  0.4042
 9321SOL    HW239426   3.729   1.066   3.843 -1.1271  1.8733  0.9138
 9322SOL     OW39427   2.605   3.862   8.874 -0.2436 -0.1696 -0.3409
 9322SOL    HW139428   2.693   3.837   8.846 -0.7819 -0.6787 -1.5769
 9322SOL    HW239429   2.609   3.876   8.968 -1.8297 -0.5559 -0.2173
 9323SOL     OW39430   2.062   3.471   7.480  0.2086 -0.3856  0.5708
 9323SOL    HW139431   1.996   3.540   7.469 -0.3982 -1.2705 -1.2823
 9323SOL    HW239432   2.015   3.397   7.441 -1.4998 -0.2572  2.3867
 9324SOL     OW39433   3.460   2.163   3.234  1.1706 -0.0760 -0.1250
 9324SOL    HW139434   3.482   2.084   3.284  2.2089  0.2178 -0.1283
 9324SOL    HW239435   3.461   2.132   3.143 -1.4809 -0.9367  0.1333
 9325SOL     OW39436   0.390   3.568   3.848  0.3268 -0.1751 -0.0859
 9325SOL    HW139437   0.455   3.624   3.892 -0.0151 -0.8213  1.2327
 9325SOL    HW239438   0.324   3.637   3.838  3.3337  2.7108 -0.0841
 9326SOL     OW39439   4.296   0.564  14.626  0.2022 -0.7388  0.1644
 9326SOL    HW139440   4.237   0.496  14.660  0.1131 -0.6326  0.2216
 9326SOL    HW239441   4.239   0.640  14.616  1.2510  0.0453  0.1940
 9327SOL     OW39442   0.977   3.929   5.467  0.1594 -0.7725  0.1085
 9327SOL    HW139443   0.931   4.008   5.437 -0.9713 -1.0484  1.1452
 9327SOL    HW239444   1.060   3.962   5.502 -0.1683 -1.1666  1.2544
 9328SOL     OW39445   3.549   1.608   1.032  0.3121  0.2113 -0.3522
 9328SOL    HW139446   3.494   1.537   0.998 -0.2305  1.5343 -2.2572
 9328SOL    HW239447   3.602   1.620   0.953 -1.4406  0.2225 -1.5174
 9329SOL     OW39448   4.385   4.398   4.681  0.1048 -0.0557 -0.1245
 9329SOL    HW139449   4.391   4.483   4.723  2.1035  0.0858 -0.7280
 9329SOL    HW239450   4.316   4.409   4.615 -0.3344 -1.0373  0.1612
 9330SOL     OW39451   1.553   3.605   6.690 -0.5224 -0.1008  0.0109
 9330SOL    HW139452   1.473   3.642   6.653  1.1567  3.3615 -0.1402
 9330SOL    HW239453   1.610   3.619   6.615  2.1536 -2.1538  1.6763
 9331SOL     OW39454   0.606   4.319  13.203  0.1232  0.3433 -0.6578
 9331SOL    HW139455   0.548   4.367  13.262 -0.1000  0.3716 -0.8970
 9331SOL    HW239456   0.673   4.386  13.189  0.1902 -0.0849 -2.3766
 9332SOL     OW39457   1.610   1.964   6.239  0.2957  1.1625  0.2723
 9332SOL    HW139458   1.667   1.902   6.286  0.1159  0.2215 -0.7523
 9332SOL    HW239459   1.533   1.910   6.222  0.4661  1.4548 -1.3938
 9333SOL     OW39460   2.052   0.441   1.678 -0.1359  0.1314 -0.1140
 9333SOL    HW139461   1.964   0.409   1.697 -0.6119  0.5173 -1.6330
 9333SOL    HW239462   2.048   0.434   1.582  1.5166  2.0609 -0.3134
 9334SOL     OW39463   1.919   0.446   9.548 -0.1644 -0.2612 -0.1443
 9334SOL    HW139464   1.918   0.353   9.569 -0.1716  0.3952  2.8056
 9334SOL    HW239465   1.985   0.450   9.479 -0.2948 -2.6864 -0.3920
 9335SOL     OW39466   3.093   0.804   8.186 -0.6880 -0.0644  0.4781
 9335SOL    HW139467   3.149   0.840   8.254 -1.4543  2.0850 -0.0363
 9335SOL    HW239468   3.161   0.785   8.122 -2.8300  1.3636 -2.2109
 9336SOL     OW39469   1.341   1.205   2.277  0.7673 -0.0939  0.5103
 9336SOL    HW139470   1.347   1.281   2.219 -0.4379  1.1104  1.9722
 9336SOL    HW239471   1.367   1.141   2.211 -1.3153 -0.0547 -0.3435
 9337SOL     OW39472   4.338   1.236   0.943  0.1166  0.2430  0.1573
 9337SOL    HW139473   4.433   1.253   0.938  0.1084 -0.3264 -2.2844
 9337SOL    HW239474   4.317   1.276   0.858 -1.3802  0.3148  0.5601
 9338SOL     OW39475   0.869   4.275   8.860  0.5002 -0.5933 -0.1229
 9338SOL    HW139476   0.939   4.319   8.909 -0.1534 -0.1369  0.4011
 9338SOL    HW239477   0.800   4.276   8.926 -0.3741 -2.2327 -1.0412
 9339SOL     OW39478   4.609   4.452   6.750  0.4235  0.9281 -0.4148
 9339SOL    HW139479   4.620   4.546   6.763  0.5037  0.9082 -0.3400
 9339SOL    HW239480   4.691   4.430   6.794  0.3064 -0.4762 -0.8903
 9340SOL     OW39481   0.900   3.943   2.684  0.1465  0.1321  0.1571
 9340SOL    HW139482   0.823   3.970   2.734  1.0403  0.3647  1.4096
 9340SOL    HW239483   0.900   4.016   2.621  1.0164  0.6740  0.7869
 9341SOL     OW39484   0.653   4.665   4.330  0.1406 -0.2402  0.3953
 9341SOL    HW139485   0.696   4.708   4.403 -0.3579  0.0020  0.5460
 9341SOL    HW239486   0.611   0.003   4.272  1.2137 -1.2706 -1.5337
 9342SOL     OW39487   2.646   0.941   6.041 -0.6891  0.2838  0.3196
 9342SOL    HW139488   2.645   1.026   5.996 -2.2686 -0.5006 -1.1293
 9342SOL    HW239489   2.694   0.883   5.982 -2.3660  1.5131 -2.2948
 9343SOL     OW39490   0.637   3.483   6.711 -0.0131  0.7341 -0.5272
 9343SOL    HW139491   0.650   3.467   6.804 -0.4848 -1.1896 -0.7767
 9343SOL    HW239492   0.556   3.432   6.700 -0.7453  1.7681  0.1744
 9344SOL     OW39493   1.566   2.995   0.433  0.0548  0.0648 -0.1352
 9344SOL    HW139494   1.473   3.014   0.437  0.1844 -0.0063  2.7901
 9344SOL    HW239495   1.578   2.900   0.431  1.4430  0.2163  1.2861
 9345SOL     OW39496   2.781   1.170   2.380  0.2999  0.0637  0.0797
 9345SOL    HW139497   2.862   1.155   2.330 -0.2069 -2.9453  0.1614
 9345SOL    HW239498   2.745   1.248   2.338 -0.4038  0.2129  0.9681
 9346SOL     OW39499   2.583   2.889   2.511  0.4259 -0.6081 -0.4002
 9346SOL    HW139500   2.605   2.937   2.431 -3.1112  1.8097  0.0606
 9346SOL    HW239501   2.503   2.935   2.538 -0.2287 -1.4680 -0.8736
 9347SOL     OW39502   4.706   3.411   8.044  0.2136  0.5836 -0.4337
 9347SOL    HW139503   4.620   3.453   8.046  1.1714  2.4240  2.2553
 9347SOL    HW239504   0.034   3.489   8.060  3.4250 -1.5699 -0.7485
 9348SOL     OW39505   2.688   4.686  15.537  0.7792 -0.2593  0.1321
 9348SOL    HW139506   2.661   4.705  15.447  2.6043  0.5597 -0.2316
 9348SOL    HW239507   2.746   0.031  15.564  1.3093 -0.4674 -0.4789
 9349SOL     OW39508   1.248   2.798  10.643 -0.0370  0.3919  0.2293
 9349SOL    HW139509   1.157   2.819  10.620 -0.2037 -4.4007 -3.6520
 9349SOL    HW239510   1.238   2.707  10.672  1.1602  0.5245  1.0265
 9350SOL     OW39511   1.656   0.707   3.814 -0.4101  0.1055 -0.1804
 9350SOL    HW139512   1.693   0.729   3.728  0.9590  0.6074  0.5385
 9350SOL    HW239513   1.594   0.778   3.830  0.4921  0.7221  0.5703
 9351SOL     OW39514   0.315   0.917   9.018  0.4537 -0.2144 -0.4360
 9351SOL    HW139515   0.240   0.866   9.049 -0.4605 -0.8485 -3.7081
 9351SOL    HW239516   0.388   0.865   9.052 -0.4321 -1.9707 -1.2220
 9352SOL     OW39517   3.799   2.898   8.099 -0.0207 -0.3795 -0.0315
 9352SOL    HW139518   3.737   2.888   8.171 -0.8854  1.9616 -0.4496
 9352SOL    HW239519   3.828   2.808   8.086 -0.7839 -0.4690 -1.1073
 9353SOL     OW39520   3.775   0.284   5.905 -0.1979 -0.4061  0.2862
 9353SOL    HW139521   3.725   0.203   5.900 -0.1246 -0.5858  2.4083
 9353SOL    HW239522   3.826   0.279   5.986 -3.1913  0.2222  2.1974
 9354SOL     OW39523   2.617   2.447   7.496  0.4364  0.2819  0.2157
 9354SOL    HW139524   2.568   2.378   7.541 -1.1131 -0.4856 -2.6805
 9354SOL    HW239525   2.663   2.403   7.424 -1.3348 -1.1022 -0.0916
 9355SOL     OW39526   2.795   1.081   8.401  0.3734 -0.1593  0.4654
 9355SOL    HW139527   2.854   1.083   8.326  0.3260  1.6054  0.4750
 9355SOL    HW239528   2.848   1.082   8.481  0.5251 -2.3882  0.3686
 9356SOL     OW39529   3.962   3.950  16.756 -0.3587 -0.4414  0.1050
 9356SOL    HW139530   4.016   3.924  16.831  1.8140 -0.9987 -1.6416
 9356SOL    HW239531   3.871   3.960  16.784 -0.3867 -1.2317  0.2898
 9357SOL     OW39532   0.580   1.198  10.656  0.1606  0.3012  0.0469
 9357SOL    HW139533   0.526   1.155  10.722  3.4420 -2.2546  1.0909
 9357SOL    HW239534   0.530   1.279  10.645  0.9072  1.0018  1.8546
 9358SOL     OW39535   1.244   3.844   4.889  0.6352 -0.2117  0.3303
 9358SOL    HW139536   1.173   3.885   4.938  0.8425 -3.5059  3.3481
 9358SOL    HW239537   1.300   3.809   4.957  0.0943  1.6183  1.7027
 9359SOL     OW39538   0.259   1.723   8.911  0.5939  0.1638 -0.2340
 9359SOL    HW139539   0.177   1.772   8.921  0.1907 -0.5879  0.1037
 9359SOL    HW239540   0.230   1.658   8.846 -0.7232  2.3298 -1.8625
 9360SOL     OW39541   0.721   2.736   8.627  0.0758 -0.6364 -0.2494
 9360SOL    HW139542   0.779   2.790   8.680 -1.2930  0.3744  0.2263
 9360SOL    HW239543   0.662   2.697   8.691 -1.5674  1.2815 -0.5719
 9361SOL     OW39544   0.319   2.629   1.468 -0.0223 -0.2352  0.0802
 9361SOL    HW139545   0.273   2.597   1.391 -0.9713  2.9023 -0.6350
 9361SOL    HW239546   0.389   2.564   1.476  1.1239  0.6989 -2.2092
 9362SOL     OW39547   3.725   0.577  17.503 -0.0272  0.3049 -0.2643
 9362SOL    HW139548   3.702   0.496  17.456 -2.0791 -0.3272  1.8268
 9362SOL    HW239549   3.806   0.559  17.551  0.1478 -0.7441 -0.9381
 9363SOL     OW39550   0.143   1.645   8.664  0.4436  0.6751  0.4013
 9363SOL    HW139551   0.104   1.731   8.674 -2.1897 -0.2827 -1.5562
 9363SOL    HW239552   0.098   1.622   8.583  1.0731 -0.3313  0.3400
 9364SOL     OW39553   2.634   0.731   4.928  0.0323  0.1897 -0.4299
 9364SOL    HW139554   2.706   0.684   4.970  0.2074 -2.1263 -3.2936
 9364SOL    HW239555   2.684   0.808   4.901 -0.7890  0.6241 -0.6928
 9365SOL     OW39556   0.309   4.055  11.049  0.4083 -0.5095  0.0857
 9365SOL    HW139557   0.361   4.060  11.130  1.4613 -2.8421 -0.4264
 9365SOL    HW239558   0.306   4.142  11.011  0.8491 -0.6342 -0.2381
 9366SOL     OW39559   4.167   3.768   4.465  0.0313 -0.8201 -0.0694
 9366SOL    HW139560   4.232   3.837   4.452  0.9490 -1.7589 -0.4728
 9366SOL    HW239561   4.158   3.717   4.384  1.3653 -1.8466  0.4275
 9367SOL     OW39562   0.607   4.361   4.577 -0.3558  0.2597 -0.2239
 9367SOL    HW139563   0.672   4.291   4.566 -0.3502  0.2565 -0.1700
 9367SOL    HW239564   0.532   4.315   4.541  1.0141 -2.9600  1.0016
 9368SOL     OW39565   2.865   3.810   7.827 -0.4082 -0.5913  0.1759
 9368SOL    HW139566   2.811   3.740   7.791 -0.7201 -0.1218 -0.2815
 9368SOL    HW239567   2.930   3.825   7.759 -0.7127 -3.1706 -0.6605
 9369SOL     OW39568   1.457   1.182   6.150  0.0999  0.2846 -0.1215
 9369SOL    HW139569   1.372   1.149   6.122  0.2328  0.3545 -0.6070
 9369SOL    HW239570   1.487   1.105   6.198  3.3285 -0.0890 -2.7618
 9370SOL     OW39571   0.914   1.670   7.855  0.5860 -0.1806 -0.2331
 9370SOL    HW139572   0.940   1.578   7.854 -0.9227 -0.5889 -2.1415
 9370SOL    HW239573   0.821   1.655   7.839  0.8018 -1.9189  0.1916
 9371SOL     OW39574   2.434   2.772   8.546  0.1321 -0.0751 -0.4953
 9371SOL    HW139575   2.391   2.829   8.482  0.2196 -0.0926 -0.5696
 9371SOL    HW239576   2.495   2.726   8.488  1.7910  1.4319  0.0565
 9372SOL     OW39577   0.364   2.697  11.026 -0.1754 -0.2517 -0.1987
 9372SOL    HW139578   0.388   2.786  11.001 -2.6879  0.2521 -0.8509
 9372SOL    HW239579   0.449   2.652  11.027  0.6137  1.2870  1.0710
 9373SOL     OW39580   4.364   3.472   9.541 -0.3045  0.5291  0.4655
 9373SOL    HW139581   4.367   3.567   9.549 -1.5337  0.5660  0.5322
 9373SOL    HW239582   4.456   3.451   9.526 -0.4136 -0.6052  1.4151
 9374SOL     OW39583   1.775   0.400   1.720 -0.0993 -0.5097 -0.2241
 9374SOL    HW139584   1.782   0.494   1.702 -1.4018 -0.1115  1.3879
 9374SOL    HW239585   1.708   0.365   1.663  0.6356  2.3365 -2.8466
 9375SOL     OW39586   0.593   1.855   5.407 -0.0758 -0.1632 -0.5796
 9375SOL    HW139587   0.548   1.939   5.415 -1.7765 -1.0185 -1.1770
 9375SOL    HW239588   0.521   1.802   5.374 -0.0933 -1.3199  1.3310
 9376SOL     OW39589   3.337   2.589   2.413 -0.3633 -0.3208  0.3117
 9376SOL    HW139590   3.273   2.554   2.475 -1.0822 -2.4383 -1.5968
 9376SOL    HW239591   3.334   2.527   2.340  0.9988 -0.2997  0.2337
 9377SOL     OW39592   3.522   3.785   4.116 -0.4173 -0.2447  0.1744
 9377SOL    HW139593   3.546   3.819   4.202 -0.8426  2.7979 -0.9189
 9377SOL    HW239594   3.427   3.793   4.108 -0.2429  1.7418 -0.0521
 9378SOL     OW39595   1.622   3.721  11.101  0.5935 -0.1353 -0.3178
 9378SOL    HW139596   1.642   3.801  11.053 -1.3637 -0.0089 -0.9026
 9378SOL    HW239597   1.559   3.748  11.168  0.0085 -0.2185 -0.8344
 9379SOL     OW39598   4.696   1.461  16.513  0.0405 -0.4486 -0.6806
 9379SOL    HW139599   4.643   1.385  16.537  2.2354 -2.2699 -1.5718
 9379SOL    HW239600   0.002   1.430  16.428  3.0673 -1.0633  0.6484
 9380SOL     OW39601   1.333   1.304  14.951 -0.1077  0.0915 -0.2759
 9380SOL    HW139602   1.303   1.379  15.001 -2.5933 -0.1791 -1.3558
 9380SOL    HW239603   1.419   1.282  14.988  0.2252  0.2661 -0.9349
 9381SOL     OW39604   3.828   4.034   5.840 -0.1628  0.3188  0.1794
 9381SOL    HW139605   3.848   3.971   5.909  1.6416  0.2614 -0.3918
 9381SOL    HW239606   3.900   4.024   5.777  2.3570  1.4010  2.8634
 9382SOL     OW39607   3.927   3.155   3.529 -0.6566  0.4246  0.7894
 9382SOL    HW139608   3.949   3.080   3.474 -3.3731  1.5025 -1.7559
 9382SOL    HW239609   3.954   3.115   3.612  0.2952 -2.2913 -0.8129
 9383SOL     OW39610   1.638   4.276   0.608 -0.5422  0.3393  0.0514
 9383SOL    HW139611   1.618   4.237   0.693 -0.0916  1.4612  0.6705
 9383SOL    HW239612   1.548   4.303   0.591  0.0727  3.2414  1.4048
 9384SOL     OW39613   2.520   0.190  12.038  1.0390  0.0452 -0.5677
 9384SOL    HW139614   2.577   0.201  11.962  0.4880  0.5256 -0.9114
 9384SOL    HW239615   2.510   0.278  12.074  0.6578 -0.6498  1.0480
 9385SOL     OW39616   4.719   2.710   1.555  0.8156 -0.4440 -0.2317
 9385SOL    HW139617   0.018   2.797   1.527 -0.5435 -0.7461 -2.3842
 9385SOL    HW239618   0.067   2.653   1.534 -0.7986 -1.8017 -2.3196
 9386SOL     OW39619   4.009   0.448   3.532 -0.1560  0.1148 -0.4471
 9386SOL    HW139620   3.931   0.448   3.587 -0.0242 -3.4350 -0.2472
 9386SOL    HW239621   4.072   0.488   3.591  0.0148 -1.4532  0.4230
 9387SOL     OW39622   2.727   3.982   3.173  0.0861  0.0286  0.1258
 9387SOL    HW139623   2.764   3.975   3.260  2.8308 -1.2304 -1.1411
 9387SOL    HW239624   2.684   3.897   3.177  2.2831 -1.0189  1.2855
 9388SOL     OW39625   2.565   0.632   0.713  0.1441 -0.1063 -0.5035
 9388SOL    HW139626   2.558   0.579   0.792 -0.7465  2.2820  1.0526
 9388SOL    HW239627   2.655   0.664   0.718 -0.1483  0.3953  1.7212
 9389SOL     OW39628   3.685   3.510  15.039  0.4610  0.2256  0.2355
 9389SOL    HW139629   3.719   3.517  15.128  0.9366 -3.4118  0.3438
 9389SOL    HW239630   3.767   3.532  14.996 -0.3322  0.6368 -1.0455
 9390SOL     OW39631   3.898   0.630   6.517 -0.3028 -0.3413  0.5902
 9390SOL    HW139632   3.806   0.655   6.512 -0.0333  0.3749 -0.5305
 9390SOL    HW239633   3.934   0.680   6.591  0.0842  0.3804 -0.0945
 9391SOL     OW39634   2.785   1.599   8.175 -0.2574  0.2153  0.4401
 9391SOL    HW139635   2.866   1.554   8.151  0.3636  2.3453 -1.3771
 9391SOL    HW239636   2.813   1.667   8.236  1.3095 -0.4594  0.4685
 9392SOL     OW39637   3.478   2.743   9.472 -0.3228  0.7209  0.3911
 9392SOL    HW139638   3.504   2.811   9.411 -0.6352  0.3843 -0.1166
 9392SOL    HW239639   3.449   2.796   9.546  1.1150  2.1305 -0.0555
 9393SOL     OW39640   2.559   2.070   1.333 -0.5073 -0.9585  0.3935
 9393SOL    HW139641   2.640   2.089   1.380 -1.6219  0.6793  1.6176
 9393SOL    HW239642   2.564   2.102   1.243 -0.5510 -1.8411  0.0793
 9394SOL     OW39643   0.307   2.740  16.980 -0.6518  0.6344  0.3387
 9394SOL    HW139644   0.231   2.681  16.979 -2.2713  2.7474 -0.3915
 9394SOL    HW239645   0.378   2.679  16.999  1.1654  1.9849 -2.0601
 9395SOL     OW39646   4.341   2.424   3.961  0.3593 -0.0060 -0.7993
 9395SOL    HW139647   4.385   2.343   3.935  0.8883  1.2387 -3.8596
 9395SOL    HW239648   4.381   2.480   3.894 -0.8668  1.0329 -0.6677
 9396SOL     OW39649   4.338   3.898   0.109  0.3375 -0.3781 -0.1429
 9396SOL    HW139650   4.355   3.822   0.164 -0.8331  0.9710  2.0983
 9396SOL    HW239651   4.246   3.878   0.097  0.6366 -2.0278  0.2988
 9397SOL     OW39652   1.145   3.643   3.937 -0.3727 -0.1428 -0.5212
 9397SOL    HW139653   1.067   3.674   3.983 -0.8857  0.0228 -1.5235
 9397SOL    HW239654   1.146   3.547   3.944 -0.8845 -0.1410 -0.3916
 9398SOL     OW39655   0.921   4.274   6.114  0.0208  0.5364  0.0204
 9398SOL    HW139656   1.012   4.274   6.084 -0.0517  0.4616 -0.2020
 9398SOL    HW239657   0.914   4.196   6.169  1.0419  0.1865 -0.3335
 9399SOL     OW39658   0.566   0.945   6.442 -0.4271  0.3249  0.6469
 9399SOL    HW139659   0.640   0.922   6.386 -2.0443 -1.9661 -0.5563
 9399SOL    HW239660   0.525   1.007   6.381 -0.2928 -2.3990 -2.1813
 9400SOL     OW39661   3.990   2.090   8.120 -0.0415  0.1392  0.6205
 9400SOL    HW139662   4.003   2.167   8.175  2.3960 -0.6031  1.0756
 9400SOL    HW239663   3.995   2.135   8.035  2.0724 -0.7014  0.2961
 9401SOL     OW39664   4.277   3.651   3.761 -0.8104 -0.0467 -0.6546
 9401SOL    HW139665   4.211   3.584   3.781 -0.2628 -0.6882 -1.0257
 9401SOL    HW239666   4.297   3.684   3.848  0.5757 -2.6683  0.0076
 9402SOL     OW39667   3.309   2.972   1.642 -0.3673  0.0757 -0.5180
 9402SOL    HW139668   3.392   2.968   1.595 -0.6267 -1.8028 -0.8155
 9402SOL    HW239669   3.250   2.948   1.570 -1.1101  0.0824  0.0807
 9403SOL     OW39670   4.227   3.526   2.927  0.3622 -0.4103 -0.2493
 9403SOL    HW139671   4.291   3.592   2.955 -0.7928  0.1030  1.1738
 9403SOL    HW239672   4.221   3.540   2.833 -1.9489 -0.0139 -0.0422
 9404SOL     OW39673   0.848   1.957   8.538 -0.0892  0.5069  0.0479
 9404SOL    HW139674   0.938   1.937   8.565 -0.3585  0.1674  0.6982
 9404SOL    HW239675   0.847   1.932   8.445  0.3918  1.0992 -0.1181
 9405SOL     OW39676   4.028   3.783   3.404 -0.1459 -0.0003  0.2444
 9405SOL    HW139677   3.988   3.758   3.487  0.4629  1.5092  0.9991
 9405SOL    HW239678   4.107   3.826   3.438  1.3831 -0.7418 -2.3749
 9406SOL     OW39679   2.640   0.103   5.742  0.1778 -0.0416  0.6786
 9406SOL    HW139680   2.609   0.021   5.780 -0.5277 -0.3404 -0.5563
 9406SOL    HW239681   2.613   0.169   5.807 -1.9886 -0.2865  0.0098
 9407SOL     OW39682   4.571   0.559   8.524 -0.3279 -0.1785 -0.0949
 9407SOL    HW139683   4.511   0.504   8.575 -0.1041 -1.2243 -0.9432
 9407SOL    HW239684   4.598   0.619   8.594  1.1446 -0.5587 -0.3242
 9408SOL     OW39685   0.268   2.141  12.102  0.9543  0.3732 -0.5290
 9408SOL    HW139686   0.317   2.183  12.031  0.3986  1.0158 -0.5380
 9408SOL    HW239687   0.177   2.152  12.072  1.4596  0.6735 -1.9550
 9409SOL     OW39688   1.747   2.859   6.387  0.2982 -0.1447 -0.0260
 9409SOL    HW139689   1.808   2.929   6.413  0.4486 -0.3420  0.1503
 9409SOL    HW239690   1.796   2.781   6.412 -2.6887 -0.3790  5.1028
 9410SOL     OW39691   3.006   1.098   2.167  0.0018  0.4571  0.3243
 9410SOL    HW139692   3.073   1.162   2.191  1.0949  0.0159 -1.4908
 9410SOL    HW239693   3.014   1.096   2.071  0.6132 -1.3266  0.4193
 9411SOL     OW39694   4.656   4.108  13.620  0.2101  0.3444  0.0589
 9411SOL    HW139695   4.624   4.152  13.699  0.5965 -0.2417  0.5403
 9411SOL    HW239696   4.663   4.016  13.648  0.3783  1.0719  2.4091
 9412SOL     OW39697   0.428   0.003   0.972 -0.1510 -0.3003 -0.7044
 9412SOL    HW139698   0.341   0.036   0.994 -0.3038 -0.4733 -1.0456
 9412SOL    HW239699   0.481   0.069   1.016  0.2672 -2.0977  1.4756
 9413SOL     OW39700   1.389   1.317  10.337  0.2428 -0.7818 -0.1599
 9413SOL    HW139701   1.434   1.316  10.253  0.0474  1.7827 -0.2943
 9413SOL    HW239702   1.451   1.273  10.395  0.3469  1.9236  1.7283
 9414SOL     OW39703   0.366   3.061  16.114 -0.1317 -0.6391 -0.3196
 9414SOL    HW139704   0.447   3.054  16.063  0.0444  2.5048 -0.4456
 9414SOL    HW239705   0.377   3.137  16.170  0.8874 -1.1445  0.1651
 9415SOL     OW39706   1.499   3.451   2.529 -0.0036  0.4193 -0.4977
 9415SOL    HW139707   1.445   3.426   2.453 -2.1928 -1.1712  1.5877
 9415SOL    HW239708   1.475   3.379   2.587  1.2291 -0.1567 -0.6954
 9416SOL     OW39709   1.267   3.626   5.087  0.1642  0.6538 -0.1243
 9416SOL    HW139710   1.346   3.675   5.108  0.6870  0.6119 -2.0811
 9416SOL    HW239711   1.270   3.553   5.150 -0.1925  0.2961 -0.5207
 9417SOL     OW39712   0.456   2.795  15.834 -0.0869 -0.4371  0.7488
 9417SOL    HW139713   0.384   2.852  15.809  2.5730  2.4231 -0.4348
 9417SOL    HW239714   0.504   2.844  15.901 -1.0796  1.2769  0.1935
 9418SOL     OW39715   4.404   0.116   5.295 -0.6619 -0.2921 -0.7766
 9418SOL    HW139716   4.327   0.145   5.344 -0.0021  1.7844 -0.9715
 9418SOL    HW239717   4.372   0.055   5.229 -1.4492 -0.6040 -0.1107
 9419SOL     OW39718   3.424   2.865  14.884 -0.0409  0.3705  0.3703
 9419SOL    HW139719   3.421   2.960  14.884  2.2523  0.4607  2.0131
 9419SOL    HW239720   3.348   2.842  14.937 -0.2830 -0.2570 -0.2496
 9420SOL     OW39721   3.682   0.037   6.124 -0.5761 -0.0284  0.1515
 9420SOL    HW139722   3.665   4.677   6.163 -0.2991 -0.0841  0.1441
 9420SOL    HW239723   3.630   0.100   6.175 -1.8490 -0.6094 -0.4373
 9421SOL     OW39724   1.966   1.144   8.503 -0.1315  0.1525 -0.1259
 9421SOL    HW139725   2.060   1.125   8.507  0.0121  0.6935 -0.9810
 9421SOL    HW239726   1.962   1.199   8.425 -0.7502 -0.3807 -0.4750
 9422SOL     OW39727   1.111   3.845   2.911 -0.0887 -0.7044 -0.0745
 9422SOL    HW139728   1.111   3.831   2.816 -1.6701 -2.2605  0.1494
 9422SOL    HW239729   1.205   3.832   2.915  0.4132  1.9510 -2.8747
 9423SOL     OW39730   4.565   4.087   5.886 -0.0327  0.1505 -0.3125
 9423SOL    HW139731   4.632   4.070   5.953  1.3588  1.1780 -1.4420
 9423SOL    HW239732   4.568   4.179   5.862 -2.4347 -0.1916 -1.8868
 9424SOL     OW39733   1.440   2.250   3.991  0.4239  0.0395  0.2347
 9424SOL    HW139734   1.464   2.334   3.954  1.5237 -0.1934  0.4076
 9424SOL    HW239735   1.354   2.266   4.030 -0.2569 -0.4892 -1.0477
 9425SOL     OW39736   2.759   1.719   9.178 -0.2577  0.2341 -0.0447
 9425SOL    HW139737   2.808   1.695   9.257  2.6754  0.0214 -1.9383
 9425SOL    HW239738   2.735   1.811   9.187  1.3073  0.5638  0.8400
 9426SOL     OW39739   2.184   3.004   3.038  0.4146  0.2126 -0.3009
 9426SOL    HW139740   2.243   3.022   3.111 -0.0917 -0.0166  0.1655
 9426SOL    HW239741   2.120   3.075   3.036 -0.7889 -0.8647 -0.7701
 9427SOL     OW39742   1.432   3.868   8.514  0.0427 -0.2510  0.0640
 9427SOL    HW139743   1.366   3.904   8.572 -0.0816  1.1573 -0.9570
 9427SOL    HW239744   1.495   3.855   8.585  1.6317 -2.1552 -1.6643
 9428SOL     OW39745   1.779   2.937   7.959 -0.1870  0.1548  0.4366
 9428SOL    HW139746   1.704   2.995   7.955 -0.4706 -0.0819  2.4584
 9428SOL    HW239747   1.831   2.973   8.031 -0.2968  1.6214 -0.2165
 9429SOL     OW39748   1.200   3.651  16.350  0.1755 -0.1016 -0.3173
 9429SOL    HW139749   1.151   3.732  16.363 -0.3754 -0.5132  0.2006
 9429SOL    HW239750   1.145   3.601  16.410  0.4741 -0.8944 -0.7054
 9430SOL     OW39751   3.136   0.572   4.270  0.4603 -0.6874 -0.3759
 9430SOL    HW139752   3.226   0.545   4.288  0.7743  0.5364 -0.1238
 9430SOL    HW239753   3.093   0.569   4.356  1.5421  1.3694  0.2323
 9431SOL     OW39754   1.326   2.892   4.596  0.1761  0.9778  0.6692
 9431SOL    HW139755   1.337   2.928   4.685  0.9518  1.3713  0.4140
 9431SOL    HW239756   1.254   2.829   4.605  0.2183  0.7025 -0.9325
 9432SOL     OW39757   3.077   1.021  15.420  0.3782  0.2213  0.3833
 9432SOL    HW139758   3.003   0.994  15.365  0.2335  1.1215  0.1420
 9432SOL    HW239759   3.137   0.951  15.394  1.0656  0.5217  1.1525
 9433SOL     OW39760   2.082   3.870   7.637 -0.2400  0.0737 -0.4353
 9433SOL    HW139761   2.068   3.923   7.558  0.1925  0.2121 -0.4149
 9433SOL    HW239762   2.001   3.819   7.642 -0.2908  0.2515  0.5676
 9434SOL     OW39763   2.198   0.432  14.578 -0.0288  0.4220 -0.4550
 9434SOL    HW139764   2.128   0.475  14.529  0.9918  0.9309 -1.4845
 9434SOL    HW239765   2.222   0.506  14.634 -2.5387 -0.0802  1.2956
 9435SOL     OW39766   3.229   1.683   2.970 -1.0825  0.7824 -0.5357
 9435SOL    HW139767   3.321   1.709   2.974 -1.1502  0.7722  1.1104
 9435SOL    HW239768   3.207   1.716   2.883 -2.7236  1.0833 -0.0285
 9436SOL     OW39769   2.337   0.535  14.286  0.0447 -0.1384  0.3251
 9436SOL    HW139770   2.365   0.503  14.200 -1.4355 -1.9050  0.5262
 9436SOL    HW239771   2.423   0.573  14.305  2.0107 -3.1776 -2.3588
 9437SOL     OW39772   1.450   1.966   0.179  0.1032 -0.4200 -0.5416
 9437SOL    HW139773   1.475   1.877   0.202 -1.5102 -0.0975  2.4988
 9437SOL    HW239774   1.504   1.985   0.102  2.0782 -1.3212  0.6428
 9438SOL     OW39775   4.559   0.471  14.624 -0.1275 -0.2288  0.3317
 9438SOL    HW139776   4.581   0.513  14.540  0.9746 -1.6697 -0.1003
 9438SOL    HW239777   4.471   0.506  14.639 -0.8043 -1.4363 -0.7449
 9439SOL     OW39778   4.376   2.860  15.639 -0.0555 -0.8275  0.4370
 9439SOL    HW139779   4.328   2.905  15.708  0.6422  0.4866  0.0732
 9439SOL    HW239780   4.388   2.780  15.690 -2.4584 -0.9891  0.7575
 9440SOL     OW39781   4.408   3.744   9.459 -0.2453 -0.1639 -0.0414
 9440SOL    HW139782   4.386   3.834   9.481 -1.2597 -0.2377 -0.8131
 9440SOL    HW239783   4.502   3.745   9.478 -0.0508  2.5998 -1.1733
 9441SOL     OW39784   3.841   1.920   1.623  0.2435 -0.4719 -0.9088
 9441SOL    HW139785   3.930   1.890   1.603  0.0364 -1.0471 -0.9526
 9441SOL    HW239786   3.818   1.857   1.691  0.7187  0.6530  0.2952
 9442SOL     OW39787   4.004   1.782   0.105  0.5458  0.1167  0.3484
 9442SOL    HW139788   3.951   1.709   0.136  0.7062 -0.4718 -0.7666
 9442SOL    HW239789   4.085   1.744   0.071 -0.1497 -0.1605 -1.0115
 9443SOL     OW39790   0.635   3.057  15.076 -0.1482  0.1099  0.0302
 9443SOL    HW139791   0.619   3.148  15.099 -1.6435  0.1564 -1.2467
 9443SOL    HW239792   0.546   3.027  15.057  0.0767 -0.6254  0.1237
 9444SOL     OW39793   2.340   3.974  16.591 -0.0452 -0.4609  0.0657
 9444SOL    HW139794   2.290   3.894  16.574 -3.0654  1.8013 -1.7487
 9444SOL    HW239795   2.265   4.025  16.622  0.4621  1.0995 -1.2760
 9445SOL     OW39796   2.363   1.457   3.654 -0.1450 -0.1750  0.1527
 9445SOL    HW139797   2.393   1.415   3.734 -0.8294  2.1525  1.6327
 9445SOL    HW239798   2.399   1.546   3.657  1.6854 -0.8481 -1.4706
 9446SOL     OW39799   1.633   3.602  13.775 -0.3698 -0.3890 -1.1227
 9446SOL    HW139800   1.543   3.604  13.744 -0.4609  1.9441 -0.6693
 9446SOL    HW239801   1.613   3.641  13.860  2.2410 -0.4417 -0.4857
 9447SOL     OW39802   1.351   2.479   4.360  0.2979  0.0109 -0.3361
 9447SOL    HW139803   1.288   2.433   4.305  0.8684 -0.7082 -0.3781
 9447SOL    HW239804   1.370   2.555   4.305 -2.7948 -0.0036 -1.4700
 9448SOL     OW39805   1.036   1.360   6.812  0.2291  0.4889 -0.2899
 9448SOL    HW139806   1.125   1.364   6.846 -0.1237  1.4484  0.5360
 9448SOL    HW239807   1.057   1.321   6.728 -2.7650  1.6402 -1.5661
 9449SOL     OW39808   3.685   2.389  12.869 -0.1148  0.2790  0.0646
 9449SOL    HW139809   3.773   2.353  12.856 -0.3861  0.8068 -3.0947
 9449SOL    HW239810   3.676   2.382  12.964 -0.9920 -0.2269 -0.0581
 9450SOL     OW39811   1.080   3.816   6.023  0.1623 -0.8716  0.7310
 9450SOL    HW139812   1.049   3.833   5.934 -0.2529 -0.7371  0.9020
 9450SOL    HW239813   1.003   3.831   6.077  0.4191 -1.1328  1.1626
 9451SOL     OW39814   1.200   1.878   4.002  0.2302 -0.2259 -0.3404
 9451SOL    HW139815   1.139   1.909   3.936  0.3721 -0.9687 -0.8253
 9451SOL    HW239816   1.238   1.798   3.965 -1.9494 -1.8058  0.7930
 9452SOL     OW39817   1.420   2.046  11.172 -0.1555 -0.7499 -0.2895
 9452SOL    HW139818   1.490   1.996  11.130 -0.6085 -1.4401 -0.2292
 9452SOL    HW239819   1.343   2.025  11.119  0.6276 -0.5092 -1.5201
 9453SOL     OW39820   3.491   0.027   4.011 -0.2658  0.3882  0.4081
 9453SOL    HW139821   3.498   4.682   3.947 -1.0793  1.7470 -1.1649
 9453SOL    HW239822   3.402   0.060   3.998  0.4576  2.8113  1.7292
 9454SOL     OW39823   2.069   0.768   4.491  0.3121 -0.5480 -0.1620
 9454SOL    HW139824   1.992   0.810   4.452 -0.3286 -1.5944 -0.0432
 9454SOL    HW239825   2.102   0.708   4.424  1.7929 -0.3893  0.4374
 9455SOL     OW39826   3.985   2.551   7.429 -0.2806 -0.1295 -0.2015
 9455SOL    HW139827   4.028   2.611   7.369 -2.0689 -0.4286 -1.7613
 9455SOL    HW239828   4.039   2.473   7.417  1.3949  0.8108  1.2660
 9456SOL     OW39829   1.215   1.493   2.156 -0.2257 -0.0179  0.2988
 9456SOL    HW139830   1.125   1.508   2.129 -0.7737 -0.1669  2.0782
 9456SOL    HW239831   1.190   1.449   2.237  1.8671 -1.2093  0.3156
 9457SOL     OW39832   2.010   3.412   5.118 -0.2116  0.0504  0.0080
 9457SOL    HW139833   2.103   3.433   5.117 -0.7037  2.3026 -0.3011
 9457SOL    HW239834   2.003   3.373   5.205 -1.3058  3.0785  1.2696
 9458SOL     OW39835   3.398   1.724   2.272  0.1218  0.1752  0.1793
 9458SOL    HW139836   3.410   1.639   2.231  0.3431 -0.8449  2.3451
 9458SOL    HW239837   3.464   1.723   2.342 -0.3708 -1.2190  0.6102
 9459SOL     OW39838   3.064   1.521   4.572 -0.7793  0.2621  0.2918
 9459SOL    HW139839   2.974   1.546   4.595 -0.7476 -1.6181  2.4713
 9459SOL    HW239840   3.107   1.606   4.566  0.2402 -0.2706  0.0317
 9460SOL     OW39841   2.782   4.106   6.586 -0.1004  0.1190 -0.3825
 9460SOL    HW139842   2.739   4.020   6.582 -1.2286  0.5658  1.5944
 9460SOL    HW239843   2.866   4.064   6.568  1.1257  3.3603 -2.1276
 9461SOL     OW39844   2.922   4.426   7.506  0.5151 -0.1527  0.0154
 9461SOL    HW139845   3.006   4.386   7.483 -0.0052 -0.6519 -1.0190
 9461SOL    HW239846   2.926   4.500   7.445 -0.3028  0.7746  1.0681
 9462SOL     OW39847   2.389   4.423   4.029  0.2720  0.6471  0.3733
 9462SOL    HW139848   2.368   4.355   4.092  0.8036 -0.6970 -0.8953
 9462SOL    HW239849   2.384   4.384   3.941  3.3626  1.7088 -0.2839
 9463SOL     OW39850   0.794   1.196   4.464  0.7340  0.1893  0.0509
 9463SOL    HW139851   0.710   1.181   4.509  1.0071 -0.5376  0.3187
 9463SOL    HW239852   0.794   1.291   4.450 -1.4136  0.1449 -0.3469
 9464SOL     OW39853   2.550   4.717   6.362  0.2162 -0.3197 -0.3475
 9464SOL    HW139854   2.527   0.069   6.414  1.0250 -0.4090  0.1437
 9464SOL    HW239855   2.586   0.033   6.283 -1.7158 -0.2463 -1.1889
 9465SOL     OW39856   3.959   0.680  15.106 -0.3188 -0.3393 -0.1043
 9465SOL    HW139857   4.021   0.662  15.035 -1.3179 -1.8784 -0.5826
 9465SOL    HW239858   3.979   0.610  15.167 -0.4357 -0.0195  0.3022
 9466SOL     OW39859   1.567   4.668  10.090  0.0347 -0.3579  0.9535
 9466SOL    HW139860   1.483   4.654  10.047  0.2520 -2.1280  1.0929
 9466SOL    HW239861   1.538   4.682  10.180 -0.1266  1.7325  0.5872
 9467SOL     OW39862   0.565   1.081   5.268 -0.3588 -0.3007 -0.1967
 9467SOL    HW139863   0.540   1.038   5.350 -1.4812  1.3819  0.3420
 9467SOL    HW239864   0.507   1.157   5.267  1.6244  1.2306 -0.0314
 9468SOL     OW39865   0.148   0.634   5.775  0.2061 -0.2356  0.1776
 9468SOL    HW139866   0.159   0.578   5.697 -0.9700 -1.0602  0.5997
 9468SOL    HW239867   0.056   0.651   5.755  0.0421  1.0775  2.0839
 9469SOL     OW39868   0.643   0.557   2.542  0.0705 -0.3127 -0.1039
 9469SOL    HW139869   0.649   0.552   2.447  0.9049  5.3625 -0.3658
 9469SOL    HW239870   0.590   0.636   2.555 -2.0312 -1.1199 -3.8393
 9470SOL     OW39871   0.821   1.379   4.990 -0.1207  0.3950  0.2093
 9470SOL    HW139872   0.900   1.407   5.038  0.9008 -0.2407 -1.1190
 9470SOL    HW239873   0.850   1.293   4.959 -0.7340 -0.0036  0.7488
 9471SOL     OW39874   4.523   0.165   6.180 -0.0765  0.2018  0.4382
 9471SOL    HW139875   4.561   0.138   6.097  1.5331  3.1233  0.2424
 9471SOL    HW239876   4.472   0.087   6.205 -0.8879  0.6717  0.2532
 9472SOL     OW39877   3.393   3.502   2.515 -0.0396  0.3709 -0.0301
 9472SOL    HW139878   3.382   3.594   2.492  1.3744  0.5154 -0.1315
 9472SOL    HW239879   3.394   3.517   2.609 -0.2486  2.2448 -0.3341
 9473SOL     OW39880   0.074   0.543  16.262 -0.3898  0.2357 -0.1552
 9473SOL    HW139881   0.063   0.496  16.180  0.1116 -1.4181  0.7353
 9473SOL    HW239882   0.073   0.475  16.329  0.8902  0.6001  0.2404
 9474SOL     OW39883   3.893   3.666   5.218  0.1304 -0.0247 -0.3209
 9474SOL    HW139884   3.900   3.652   5.123 -1.5242 -1.4335 -0.2302
 9474SOL    HW239885   3.857   3.755   5.222 -0.7231 -0.3725 -0.1699
 9475SOL     OW39886   4.464   1.405  17.176  0.1860  0.3104 -0.3765
 9475SOL    HW139887   4.485   1.459  17.100 -1.8125  1.4821 -0.0909
 9475SOL    HW239888   4.460   1.468  17.248 -2.2350 -0.9904  0.6275
 9476SOL     OW39889   1.593   1.403   4.804 -0.0064 -0.7844  0.1778
 9476SOL    HW139890   1.654   1.447   4.744 -1.6855 -1.0654 -1.7320
 9476SOL    HW239891   1.574   1.323   4.756  3.8801 -0.3163 -2.1391
 9477SOL     OW39892   4.252   0.151   4.835  0.0680  1.0259  0.0488
 9477SOL    HW139893   4.166   0.143   4.794 -0.8139  0.9309  1.9046
 9477SOL    HW239894   4.227   0.205   4.910 -1.1435 -1.0274  1.1098
 9478SOL     OW39895   4.723   4.110  15.733 -0.2528 -0.0174  0.4589
 9478SOL    HW139896   4.691   4.108  15.823 -1.4188  3.1302  0.1443
 9478SOL    HW239897   0.015   4.016  15.729  2.0538  0.4081  0.1712
 9479SOL     OW39898   2.573   3.053   4.819 -0.5050 -0.8223 -0.7107
 9479SOL    HW139899   2.521   3.026   4.895 -1.7487  1.6869 -0.6691
 9479SOL    HW239900   2.531   3.132   4.786 -0.3721 -0.6034 -0.3535
 9480SOL     OW39901   3.645   2.766   9.843 -0.4837 -0.4162  0.0607
 9480SOL    HW139902   3.703   2.839   9.821 -0.1112 -0.6946  0.1057
 9480SOL    HW239903   3.661   2.701   9.773 -1.9296 -1.8079  1.0374
 9481SOL     OW39904   4.383   1.034   7.106 -0.5506 -0.3911  0.0920
 9481SOL    HW139905   4.364   1.045   7.199  2.0684  0.4457  0.5572
 9481SOL    HW239906   4.448   0.964   7.105  0.5585  0.6090  0.7806
 9482SOL     OW39907   0.775   0.426   6.738  0.6351  0.4540 -0.1697
 9482SOL    HW139908   0.849   0.452   6.682  1.0171  1.7073  0.9262
 9482SOL    HW239909   0.785   0.500   6.797  0.3519 -2.3805  3.4233
 9483SOL     OW39910   2.340   1.417  16.289  0.4074 -0.0880 -0.3103
 9483SOL    HW139911   2.398   1.353  16.249 -1.3822 -0.7752 -1.7849
 9483SOL    HW239912   2.377   1.444  16.373 -2.5988  0.0440  0.9772
 9484SOL     OW39913   2.313   3.658  10.262  0.0691  0.2106 -0.4246
 9484SOL    HW139914   2.374   3.718  10.218 -0.7532 -1.7367 -4.2597
 9484SOL    HW239915   2.241   3.714  10.289 -1.2038 -1.3057 -0.7103
 9485SOL     OW39916   3.875   1.873  11.118 -0.0529 -0.3687 -0.6252
 9485SOL    HW139917   3.830   1.797  11.082  1.1019 -0.6145 -1.5681
 9485SOL    HW239918   3.880   1.938  11.048  1.4346 -1.5736 -1.6559
 9486SOL     OW39919   1.202   1.756   6.954 -0.1003 -0.0969 -0.0695
 9486SOL    HW139920   1.229   1.675   6.997  0.3359 -0.3397 -0.8132
 9486SOL    HW239921   1.198   1.814   7.030  1.1573 -2.2372  1.6148
 9487SOL     OW39922   2.845   2.400   7.685 -0.0472  0.3538 -0.2405
 9487SOL    HW139923   2.905   2.329   7.662 -1.1413 -0.5020 -0.4593
 9487SOL    HW239924   2.771   2.382   7.627 -0.7505  0.4373  0.6299
 9488SOL     OW39925   3.326   3.715   7.345  0.9099 -0.0790 -0.7185
 9488SOL    HW139926   3.378   3.788   7.378  0.6326 -0.3042  0.1997
 9488SOL    HW239927   3.269   3.763   7.284  2.0067 -1.6882 -3.0078
 9489SOL     OW39928   1.573   3.792   8.768  0.0624  0.8800 -0.6696
 9489SOL    HW139929   1.529   3.711   8.790  0.1927  0.3350 -2.4066
 9489SOL    HW239930   1.655   3.769   8.724  1.4706  3.1115  0.7664
 9490SOL     OW39931   2.671   4.423   2.522  0.0030  0.1976 -0.5960
 9490SOL    HW139932   2.599   4.379   2.566 -0.0951  0.0939 -0.8550
 9490SOL    HW239933   2.618   4.500   2.498  0.8269  0.3450 -1.9369
 9491SOL     OW39934   0.611   3.589   3.341  0.1441 -0.3770 -0.8273
 9491SOL    HW139935   0.587   3.600   3.433 -1.7818 -0.9653 -1.2593
 9491SOL    HW239936   0.691   3.640   3.347  0.2293 -0.6985  0.7216
 9492SOL     OW39937   4.281   4.016   5.653 -0.0113 -0.1121 -0.1328
 9492SOL    HW139938   4.340   3.957   5.700  0.7172 -0.6792 -1.7474
 9492SOL    HW239939   4.306   4.019   5.561  1.7580  0.5091  0.3652
 9493SOL     OW39940   4.539   0.203   4.833  0.1370  0.3042 -0.0982
 9493SOL    HW139941   4.535   0.213   4.928  1.2369 -1.2457  0.1086
 9493SOL    HW239942   4.457   0.243   4.803  0.2600  1.4296  1.0965
 9494SOL     OW39943   0.971   2.250   7.422 -0.3334  0.3082  0.8050
 9494SOL    HW139944   0.876   2.262   7.418 -0.5013 -1.1540  0.2909
 9494SOL    HW239945   0.983   2.167   7.469  0.4254  0.7803  1.4405
 9495SOL     OW39946   2.051   3.683   7.996 -0.4405 -0.2121  0.2257
 9495SOL    HW139947   2.135   3.678   8.041 -0.9012  0.2250  1.1499
 9495SOL    HW239948   2.061   3.608   7.938  0.1549 -2.7369  3.5705
 9496SOL     OW39949   1.474   0.290  14.178 -0.3655 -0.2561  0.5486
 9496SOL    HW139950   1.472   0.326  14.267 -0.7846  0.0216  0.4313
 9496SOL    HW239951   1.563   0.324  14.172  0.3818 -2.5079 -1.2241
 9497SOL     OW39952   0.265   2.461   7.561 -0.2954 -0.2036 -0.0908
 9497SOL    HW139953   0.244   2.532   7.500 -1.2658 -0.0234  0.4504
 9497SOL    HW239954   0.249   2.513   7.639  0.8818  0.1147 -0.0686
 9498SOL     OW39955   2.085   1.445   1.044 -0.5179  0.0332 -0.1530
 9498SOL    HW139956   2.144   1.506   0.998  0.3477 -1.0786 -0.5105
 9498SOL    HW239957   2.031   1.425   0.968  0.3857  0.1166 -0.8139
 9499SOL     OW39958   4.201   4.268   1.889  1.0328 -0.4554 -0.1414
 9499SOL    HW139959   4.207   4.282   1.983 -0.2221 -0.0205 -0.1212
 9499SOL    HW239960   4.178   4.175   1.887 -0.3214 -0.1066 -0.6318
 9500SOL     OW39961   2.132   1.714  14.496 -0.2012  0.1362  0.1210
 9500SOL    HW139962   2.075   1.737  14.422 -1.1069 -0.1808  0.7275
 9500SOL    HW239963   2.220   1.722  14.459 -1.0723  2.3720 -1.4742
 9501SOL     OW39964   4.521   0.232   8.980  0.5452 -0.0599 -0.4069
 9501SOL    HW139965   4.556   0.147   9.005 -1.1803 -0.7546 -0.2942
 9501SOL    HW239966   4.504   0.257   9.071  1.8662  1.6011 -0.6244
 9502SOL     OW39967   3.779   1.618  15.250 -0.0860  0.7427 -0.1370
 9502SOL    HW139968   3.779   1.535  15.202  0.4147  1.3479 -1.1774
 9502SOL    HW239969   3.693   1.647  15.220 -0.1253 -1.4888 -2.2344
 9503SOL     OW39970   3.472   2.758   5.952 -0.2396  0.0297  0.1952
 9503SOL    HW139971   3.459   2.681   6.008  3.1050 -1.2542 -0.7501
 9503SOL    HW239972   3.440   2.824   6.014  1.1839 -1.1725  2.2056
 9504SOL     OW39973   2.786   1.786   6.765  0.5948 -0.0165  0.2212
 9504SOL    HW139974   2.870   1.831   6.754  0.9894 -1.0961 -1.3291
 9504SOL    HW239975   2.731   1.856   6.730 -0.3896 -1.0779 -0.3869
 9505SOL     OW39976   3.465   3.020   5.148 -0.7813 -0.2018 -0.9361
 9505SOL    HW139977   3.486   2.927   5.151 -1.7904 -0.4508 -1.8443
 9505SOL    HW239978   3.454   3.042   5.241  1.3425 -0.9855 -0.4884
 9506SOL     OW39979   2.122   4.182   9.410 -0.0662  0.7346  0.0720
 9506SOL    HW139980   2.217   4.169   9.418  0.0030  0.7616 -0.7040
 9506SOL    HW239981   2.108   4.253   9.472  0.1110 -0.6710  1.6990
 9507SOL     OW39982   3.990   2.774   3.635 -0.3115 -0.4999  0.4823
 9507SOL    HW139983   3.907   2.774   3.683 -0.2206  0.5067  0.6548
 9507SOL    HW239984   3.956   2.799   3.548  0.3321  0.2564  0.4420
 9508SOL     OW39985   3.605   1.071  12.712 -0.1350  0.5214 -0.6431
 9508SOL    HW139986   3.672   1.103  12.772 -0.0031  1.4033 -1.2577
 9508SOL    HW239987   3.656   1.003  12.668 -1.4522 -1.6488  1.2018
 9509SOL     OW39988   0.911   1.010   0.489  0.0978  0.1794  0.2494
 9509SOL    HW139989   0.864   0.929   0.475 -0.1528  0.6780 -1.8551
 9509SOL    HW239990   0.839   1.069   0.466 -0.7852 -1.0515 -0.0714
 9510SOL     OW39991   1.829   4.615   4.756 -0.2382 -0.2490  0.5716
 9510SOL    HW139992   1.920   4.644   4.751  0.2915 -2.2856 -1.4180
 9510SOL    HW239993   1.802   4.656   4.839  0.1357 -2.9982  2.0358
 9511SOL     OW39994   3.337   1.895   4.222  0.2858  0.5636 -0.5050
 9511SOL    HW139995   3.411   1.933   4.175  1.1350  0.1383  0.4722
 9511SOL    HW239996   3.322   1.957   4.294  0.3698 -0.8973  0.7898
 9512SOL     OW39997   2.223   0.720   0.007 -0.2689 -0.3371  0.0440
 9512SOL    HW139998   2.167   0.797   0.015  0.4292  0.1510  0.1664
 9512SOL    HW239999   2.240   0.710   0.101  0.1957 -1.6439 -0.1818
 9513SOL     OW40000   4.180   0.650   8.133 -0.5315 -0.2430  0.4359
 9513SOL    HW140001   4.143   0.566   8.160  0.6145 -1.2646 -1.2110
 9513SOL    HW240002   4.258   0.652   8.188 -1.0477 -1.0210  1.1912
 9514SOL     OW40003   0.329   0.016   3.497  0.0635 -0.3667  0.2447
 9514SOL    HW140004   0.360   4.705   3.579  0.6673 -0.8280 -0.1880
 9514SOL    HW240005   0.382   4.690   3.435 -0.2337  1.5988 -1.6398
 9515SOL     OW40006   4.665   3.674   4.580 -0.8269  0.1225 -0.2535
 9515SOL    HW140007   4.637   3.712   4.497 -0.2325  0.0250 -0.4955
 9515SOL    HW240008   4.610   3.708   4.651  1.4541  2.1467  0.5490
 9516SOL     OW40009   1.781   0.536   2.859 -0.0139 -0.1949 -0.4178
 9516SOL    HW140010   1.784   0.587   2.940  1.4124  0.4971 -0.9100
 9516SOL    HW240011   1.774   0.449   2.898 -0.2770  0.1734  0.3447
 9517SOL     OW40012   3.972   3.785  14.891  0.3840 -0.0325 -0.2135
 9517SOL    HW140013   3.954   3.827  14.975 -2.2541  0.9240 -1.2662
 9517SOL    HW240014   3.972   3.691  14.909 -0.2905  0.2024  0.9902
 9518SOL     OW40015   0.884   1.575  11.404  0.5340 -0.0221 -0.1918
 9518SOL    HW140016   0.895   1.529  11.320 -1.1200  0.4488 -0.6810
 9518SOL    HW240017   0.976   1.589  11.423  0.8048  2.1561 -3.0642
 9519SOL     OW40018   4.504   3.013   8.392 -0.5618  0.6080  0.5502
 9519SOL    HW140019   4.491   3.072   8.467 -0.8782 -2.8466  3.2634
 9519SOL    HW240020   4.590   2.973   8.404 -1.2646 -0.3598  2.4418
 9520SOL     OW40021   4.084   2.236   0.935  0.0663 -0.6018 -0.1687
 9520SOL    HW140022   4.023   2.190   0.993  0.2372 -1.9235 -1.0197
 9520SOL    HW240023   4.053   2.179   0.864 -1.9899 -0.5517  0.6693
 9521SOL     OW40024   3.798   3.093   3.956  0.5490 -0.0768  0.2610
 9521SOL    HW140025   3.889   3.121   3.966  0.8295  0.0441 -2.6949
 9521SOL    HW240026   3.747   3.174   3.945  0.0216 -0.8399 -3.0074
 9522SOL     OW40027   0.988   2.301   8.731 -0.2180 -0.6656 -0.4583
 9522SOL    HW140028   0.985   2.396   8.719  0.3374 -0.2020  3.0798
 9522SOL    HW240029   0.986   2.279   8.638 -0.1871  1.1033 -0.8766
 9523SOL     OW40030   2.144   1.816  17.312 -0.4587  0.0454  0.0197
 9523SOL    HW140031   2.189   1.734  17.296 -1.0065  0.2098 -2.3453
 9523SOL    HW240032   2.212   1.878  17.284 -0.6346  0.6218  0.8584
 9524SOL     OW40033   4.609   1.208   3.545 -0.3053 -0.4388  0.2550
 9524SOL    HW140034   4.547   1.189   3.475 -0.2685 -0.8014  0.3200
 9524SOL    HW240035   4.652   1.122   3.545 -0.0012 -0.2785  1.3202
 9525SOL     OW40036   1.640   0.001   0.669  0.3738 -0.7547 -0.1412
 9525SOL    HW140037   1.698   4.663   0.710 -0.1378  0.2986  2.1942
 9525SOL    HW240038   1.674   0.084   0.703  0.7967 -0.7404 -0.5855
 9526SOL     OW40039   1.017   2.567  11.162 -0.0146  0.4525  0.2403
 9526SOL    HW140040   1.112   2.566  11.151  0.2202  2.5950  2.1422
 9526SOL    HW240041   0.994   2.489  11.111  3.7885 -0.7192  0.2838
 9527SOL     OW40042   0.991   4.342   3.289 -0.4132 -0.6781  0.0766
 9527SOL    HW140043   0.942   4.406   3.239  0.4590  0.1754  0.3180
 9527SOL    HW240044   0.935   4.265   3.277 -1.4469 -0.0080  0.7138
 9528SOL     OW40045   4.694   4.092   4.108  0.1776  0.3874  0.1538
 9528SOL    HW140046   4.686   4.048   4.023  1.2250 -1.0242  0.7898
 9528SOL    HW240047   0.046   4.140   4.082  1.1056  0.1737  2.5365
 9529SOL     OW40048   1.099   4.442   9.299 -0.7622  0.3027  1.0072
 9529SOL    HW140049   1.110   4.370   9.238  0.5375  0.3003  1.2540
 9529SOL    HW240050   1.069   4.396   9.378 -0.2856 -0.8720  0.4972
 9530SOL     OW40051   2.493   2.683   2.762  0.3055 -0.5288  0.8903
 9530SOL    HW140052   2.426   2.748   2.741 -0.6718 -1.9201 -0.2341
 9530SOL    HW240053   2.451   2.630   2.830 -1.5118  2.1923  1.9093
 9531SOL     OW40054   1.594   0.923   4.180  0.1768  0.4860  0.0465
 9531SOL    HW140055   1.522   0.861   4.169  0.7619 -0.1544 -0.1345
 9531SOL    HW240056   1.625   0.927   4.090 -0.1972 -2.4219 -0.2157
 9532SOL     OW40057   3.020   2.049  12.027  0.3520 -0.4377  0.1161
 9532SOL    HW140058   2.991   1.982  11.966 -1.2845  0.0997  0.2997
 9532SOL    HW240059   3.015   2.001  12.110 -1.5168  0.8958  0.7776
 9533SOL     OW40060   0.082   3.330   1.774  0.1029 -0.0008 -0.1500
 9533SOL    HW140061   0.013   3.378   1.728 -1.8567 -0.9874  1.7355
 9533SOL    HW240062   0.149   3.394   1.750 -0.2080  1.2105  2.1347
 9534SOL     OW40063   2.937   2.209  17.600  0.0206 -0.1767  0.1520
 9534SOL    HW140064   2.991   2.269  17.550  1.1403 -0.1461  1.3894
 9534SOL    HW240065   2.900   2.156  17.529 -1.8984  0.9120  0.3522
 9535SOL     OW40066   2.867   2.037  13.867  0.5219 -0.5720  0.4608
 9535SOL    HW140067   2.847   1.984  13.944 -0.2787  0.9048  1.2743
 9535SOL    HW240068   2.931   2.100  13.900  1.0135  1.6542 -4.6449
 9536SOL     OW40069   2.846   2.913   2.321  0.3715 -0.3705  0.1387
 9536SOL    HW140070   2.755   2.940   2.307 -0.2474 -1.3108  2.2911
 9536SOL    HW240071   2.874   2.923   2.230  0.4001  0.1080  0.2015
 9537SOL     OW40072   2.676   0.845  11.387  0.1795 -0.0325 -0.4811
 9537SOL    HW140073   2.590   0.884  11.398  0.6635  1.4428 -2.1389
 9537SOL    HW240074   2.682   0.830  11.293 -2.5283  2.9326 -1.1203
 9538SOL     OW40075   4.458   0.167   4.446 -0.7249 -0.5980 -0.1911
 9538SOL    HW140076   4.476   0.200   4.358  1.0895 -1.4199 -0.1260
 9538SOL    HW240077   4.540   0.165   4.495  0.4020 -1.0891 -2.1025
 9539SOL     OW40078   2.665   2.434   8.411  0.1788 -0.0225 -0.1236
 9539SOL    HW140079   2.662   2.516   8.360 -1.1194 -0.1865 -0.3071
 9539SOL    HW240080   2.583   2.391   8.386 -0.4260  1.3380 -0.4870
 9540SOL     OW40081   1.522   4.011  17.291  0.1263 -0.4441  0.3847
 9540SOL    HW140082   1.451   4.062  17.330 -0.3191  0.0705 -1.0713
 9540SOL    HW240083   1.528   3.940  17.355 -0.8171 -1.2819 -0.4509
 9541SOL     OW40084   0.125   0.734   5.211  0.3162  0.6459 -0.7850
 9541SOL    HW140085   0.086   0.766   5.293 -0.5943 -2.1407 -0.1295
 9541SOL    HW240086   0.114   0.812   5.156 -1.9025  0.9665  0.1056
 9542SOL     OW40087   1.977   1.593   2.843 -0.1994  0.5561 -0.3947
 9542SOL    HW140088   1.976   1.620   2.935  2.6131  0.0021 -0.1998
 9542SOL    HW240089   1.988   1.674   2.794 -1.7441  0.9290 -0.1271
 9543SOL     OW40090   2.614   1.974   6.252 -0.1096  0.1236  0.0317
 9543SOL    HW140091   2.677   1.933   6.311  0.5815 -0.5934 -1.2110
 9543SOL    HW240092   2.623   2.066   6.276  1.3082 -0.1705  0.5902
 9544SOL     OW40093   0.497   1.359   5.003  0.1822  0.5118 -0.1485
 9544SOL    HW140094   0.485   1.439   5.054 -1.4401  1.5300 -2.1019
 9544SOL    HW240095   0.585   1.374   4.969  1.0620  0.3714  2.1006
 9545SOL     OW40096   1.941   2.194  16.313 -0.3887 -0.2125  0.0739
 9545SOL    HW140097   1.849   2.169  16.311 -1.0326  2.5097 -3.5389
 9545SOL    HW240098   1.950   2.254  16.387  0.8847  0.5958 -0.7469
 9546SOL     OW40099   2.864   3.796  16.548 -0.0740 -0.2236  0.0224
 9546SOL    HW140100   2.954   3.780  16.519  0.7643  1.1774  1.8712
 9546SOL    HW240101   2.858   3.731  16.618 -0.8375  0.8421  0.9394
 9547SOL     OW40102   4.275   2.681   1.462  0.3245 -0.1976 -0.0408
 9547SOL    HW140103   4.338   2.657   1.394 -1.0549  0.5978 -1.6105
 9547SOL    HW240104   4.229   2.753   1.419  0.3676 -0.2886 -0.2431
 9548SOL     OW40105   3.603   0.751   6.365  0.2388 -0.0428  0.6377
 9548SOL    HW140106   3.514   0.788   6.368  0.5994  0.7120  2.1499
 9548SOL    HW240107   3.662   0.789   6.300 -0.6905  0.8021  0.2876
 9549SOL     OW40108   1.741   3.607   2.569 -0.0082 -0.0218  0.2061
 9549SOL    HW140109   1.713   3.570   2.486 -0.2057 -0.0056  0.2658
 9549SOL    HW240110   1.746   3.699   2.543 -0.6193  0.2506  1.0323
 9550SOL     OW40111   1.356   2.383   3.636 -0.2664  1.1949  0.0878
 9550SOL    HW140112   1.403   2.467   3.639  3.1716 -0.6966  0.1290
 9550SOL    HW240113   1.424   2.330   3.594  0.0859 -0.7394  3.0659
 9551SOL     OW40114   2.266   1.278   5.544  0.6372 -0.1194 -0.0085
 9551SOL    HW140115   2.317   1.331   5.483  1.5371  2.6494  3.1700
 9551SOL    HW240116   2.243   1.199   5.494 -0.8651  0.1438  0.2554
 9552SOL     OW40117   2.760   0.233  14.090 -0.3302 -0.2163 -0.2617
 9552SOL    HW140118   2.850   0.202  14.094 -0.6830 -1.2484 -0.3224
 9552SOL    HW240119   2.729   0.160  14.037 -0.3795 -0.3830 -0.0029
 9553SOL     OW40120   1.897   1.043   2.886 -0.0678 -0.2330 -0.2598
 9553SOL    HW140121   1.968   0.982   2.905 -1.2155 -1.1396  1.1274
 9553SOL    HW240122   1.838   0.978   2.849 -1.3576  0.7393  0.0878
 9554SOL     OW40123   2.529   4.539   1.003  0.1916 -0.0473  0.0673
 9554SOL    HW140124   2.441   4.526   1.037  0.4089  1.2001  1.1132
 9554SOL    HW240125   2.513   4.578   0.917  2.0913 -0.3199 -0.4227
 9555SOL     OW40126   4.663   0.383   1.072  0.3737 -0.1119 -0.1532
 9555SOL    HW140127   4.702   0.470   1.077  0.7785  0.0166 -4.9517
 9555SOL    HW240128   4.639   0.368   0.980 -1.0881 -0.6848  0.3174
 9556SOL     OW40129   0.993   3.452   4.237  0.1442 -0.3219 -0.1264
 9556SOL    HW140130   0.930   3.451   4.165 -1.7697  0.2121  1.5426
 9556SOL    HW240131   1.076   3.428   4.195  1.3540 -2.4330  3.3915
 9557SOL     OW40132   0.976   3.221   8.603  0.1282  0.1701 -0.0902
 9557SOL    HW140133   0.965   3.160   8.531 -3.5635 -0.8123  1.3424
 9557SOL    HW240134   1.045   3.282   8.576 -1.7577  0.8892 -3.1916
 9558SOL     OW40135   4.639   3.741   6.594  0.2771 -0.5639  0.2585
 9558SOL    HW140136   4.661   3.720   6.684  3.1150 -1.2178 -0.6030
 9558SOL    HW240137   4.628   3.654   6.555 -0.0200  0.3593 -1.7500
 9559SOL     OW40138   1.718   1.642   9.732 -0.6228 -0.2572  0.0728
 9559SOL    HW140139   1.748   1.595   9.809 -1.3672  1.1197  1.1992
 9559SOL    HW240140   1.793   1.641   9.672  0.4120  0.3978  1.3606
 9560SOL     OW40141   2.469   4.611   5.526 -0.3522  0.1680  0.0581
 9560SOL    HW140142   2.423   4.530   5.505  0.5049 -0.8525  2.1321
 9560SOL    HW240143   2.529   4.581   5.594 -2.4936 -1.9786  0.9891
 9561SOL     OW40144   2.069   0.937   8.080  0.0110 -0.1856  0.0493
 9561SOL    HW140145   2.112   0.884   8.147  0.0248 -0.0738  0.1286
 9561SOL    HW240146   2.105   1.024   8.093  0.1896 -0.6075  2.3650
 9562SOL     OW40147   4.417   4.232   6.508  0.2277 -0.0561 -0.1131
 9562SOL    HW140148   4.450   4.183   6.583  0.0900  1.3369  0.8655
 9562SOL    HW240149   4.417   4.163   6.441 -0.7374 -1.7369  1.6019
 9563SOL     OW40150   1.946   4.055   0.310 -0.4448  0.6185 -0.2125
 9563SOL    HW140151   1.920   4.089   0.396 -0.6282 -0.9877  0.3600
 9563SOL    HW240152   2.041   4.057   0.308 -0.5245  2.3216 -1.7776
 9564SOL     OW40153   2.309   3.868  16.957  0.0770  0.0883 -0.3026
 9564SOL    HW140154   2.347   3.951  16.928 -1.6855  1.0392  0.1343
 9564SOL    HW240155   2.333   3.867  17.049 -0.8439  0.7606 -0.0656
 9565SOL     OW40156   3.949   0.671   0.539 -0.2703 -0.2049  0.0745
 9565SOL    HW140157   4.042   0.685   0.526  0.1648 -1.2648  2.0841
 9565SOL    HW240158   3.915   0.622   0.464  2.7102 -1.0357 -0.7048
 9566SOL     OW40159   4.026   2.282   4.389 -0.3784  0.0829 -0.6784
 9566SOL    HW140160   4.041   2.280   4.484 -0.2639  1.2526 -0.6761
 9566SOL    HW240161   3.944   2.332   4.386 -0.3311  0.2737  1.1069
 9567SOL     OW40162   0.421   4.437   3.958  0.7977 -0.0140  0.1867
 9567SOL    HW140163   0.415   4.411   4.050 -1.2983  1.2800  0.4205
 9567SOL    HW240164   0.516   4.448   3.954  0.7414  0.4182  0.0245
 9568SOL     OW40165   1.503   3.635   4.412  0.5581 -0.3295  0.4031
 9568SOL    HW140166   1.582   3.655   4.462 -0.5068 -0.6333  2.2135
 9568SOL    HW240167   1.515   3.668   4.324 -0.3992 -0.9777  0.0257
   4.72567   4.72567  17.70391
